Membrane in water
40155
    1TCq1    O1    1   1.005   1.220  10.930 -0.4095  0.5384 -0.5980
    1TCq1    C1    2   0.964   1.120  10.846  0.2131  0.4451  0.2259
    1TCq1    O2    3   1.009   1.104  10.733 -0.2441 -0.7150 -0.0044
    1TCq1    C2    4   0.823   1.135  10.859 -0.7727  0.2186  0.0682
    1TCq1    C3    5   0.749   1.192  10.761 -0.2854  0.2503 -0.0331
    1TCq1    C4    6   0.623   1.240  10.786 -0.0583 -0.0074  0.1122
    1TCq1    C5    7   0.557   1.193  10.894 -0.2028  0.3077 -0.0370
    1TCq1    C6    8   0.625   1.126  10.989  0.6313  0.1523 -0.2357
    1TCq1    C7    9   0.757   1.100  10.973  0.6218 -0.5275 -0.3443
    1TCq1    C8   10   0.549   1.063  11.092  1.0747 -0.3781  0.9797
    1TCq1    O4   11   0.438   1.106  11.110  0.1360  0.0170  0.4030
    1TCq1    C9   12   0.558   1.325  10.691 -0.0521  0.4433  0.3454
    1TCq1    O5   13   0.616   1.354  10.583  0.3302 -0.2248  0.0664
    1TCq1    O6   14   0.443   1.353  10.735 -0.5466 -0.1534  0.3357
    1TCq1    H1   15   0.949   1.249  11.005 -1.0432 -1.4274 -0.3311
    1TCq1    H2   16   0.796   1.229  10.671 -0.1957  1.9919  0.7153
    1TCq1    H3   17   0.453   1.222  10.905 -0.2621 -0.3993  1.2392
    1TCq1    H4   18   0.820   1.064  11.054  1.7141  0.0600 -0.9364
    2MPD2     C   19   0.487   0.729  11.480  0.3259 -0.2381 -0.2281
    2MPD2    C1   20   0.405   0.836  11.435 -0.3749  0.5928 -0.4398
    2MPD2    C2   21   0.457   0.927  11.339  0.0036  0.1881  0.6811
    2MPD2    C3   22   0.580   0.913  11.289  0.7873  0.1235 -0.8203
    2MPD2    C4   23   0.660   0.811  11.341  0.2575 -0.0833  0.2680
    2MPD2    C5   24   0.612   0.720  11.427  0.1227  0.1685 -0.5390
    2MPD2     H   25   0.397   1.004  11.293  1.0461  0.1309 -0.7822
    2MPD2    H1   26   0.763   0.792  11.310  0.3485 -0.2947  0.7114
    2MPD2    H2   27   0.457   0.655  11.553 -2.0935 -0.5001 -1.4930
    2MPD2    H3   28   0.687   0.649  11.457  0.4124  1.4048  1.7057
    2MPD2     N   29   0.626   0.978  11.173  0.1993  0.3100  0.9279
    2MPD2    H5   30   0.723   0.961  11.148  0.4656  1.1790  1.3757
    2MPD2    N1   31   0.266   0.864  11.468 -0.3384 -0.2179 -0.1643
    2MPD2    H7   32   0.219   0.945  11.430 -0.0988  0.7172  1.4914
    3TCq1    O1   33   0.029   1.698  10.223  0.1946  0.0023 -0.0128
    3TCq1    C1   34   4.640   1.716  10.303 -0.0063  0.3768 -0.4558
    3TCq1    O2   35   4.531   1.667  10.292 -0.2955  0.5024  0.5831
    3TCq1    C2   36   4.668   1.810  10.403 -0.2566  0.2302  0.1197
    3TCq1    C3   37   0.013   1.920  10.374  0.0434 -0.4706 -0.6398
    3TCq1    C4   38   0.052   1.999  10.477 -0.2381 -0.0081 -0.1312
    3TCq1    C5   39   0.018   1.974  10.602  0.6255  0.5441  0.0564
    3TCq1    C6   40   4.658   1.869  10.629  0.2809 -0.1695  1.2711
    3TCq1    C7   41   4.616   1.782  10.529  0.0114  0.1293  0.1911
    3TCq1    C8   42   4.583   1.877  10.752 -0.3515 -0.1997  0.6058
    3TCq1    O4   43   4.517   1.780  10.783 -0.5507 -0.3674  0.0852
    3TCq1    C9   44   0.134   2.111  10.449  0.5910  0.2338 -0.2560
    3TCq1    O5   45   0.185   2.123  10.335 -0.2302  0.3022  0.1413
    3TCq1    O6   46   0.127   2.211  10.528  0.1546  0.0755  0.2430
    3TCq1    H1   47   0.110   1.736  10.263  0.8376 -2.5131  1.0710
    3TCq1    H2   48   0.043   1.944  10.272 -0.4388  1.9669 -0.2128
    3TCq1    H3   49   0.054   2.039  10.681  0.6336 -0.6725  1.0616
    3TCq1    H4   50   4.555   1.696  10.551 -0.0102 -0.5964 -2.6980
    4MPD2     C   51   4.371   2.113  11.161 -0.4112 -0.6925 -0.2213
    4MPD2    C1   52   4.407   2.202  11.062  0.4149  0.8705 -0.9000
    4MPD2    C2   53   4.470   2.158  10.949 -0.2120  1.4724 -0.2878
    4MPD2    C3   54   4.488   2.026  10.926 -0.1103  0.9380  0.3642
    4MPD2    C4   55   4.429   1.935  11.010 -0.3839  0.2552 -0.4358
    4MPD2    C5   56   4.377   1.976  11.133 -0.2629  0.1636  0.3748
    4MPD2     H   57   4.508   2.242  10.892 -1.7535  0.3224 -3.0166
    4MPD2    H1   58   4.414   1.833  10.978 -2.4463 -0.1392  1.7976
    4MPD2    H2   59   4.323   2.141  11.255  0.0901  0.8648 -0.4320
    4MPD2    H3   60   4.341   1.905  11.205 -0.1603  0.0682  0.3327
    4MPD2     N   61   4.568   2.001  10.806  0.3026 -0.3311 -0.1567
    4MPD2    H5   62   4.615   2.072  10.750 -0.6689  0.4108 -0.0299
    4MPD2    N1   63   4.380   2.335  11.073  0.4833 -0.1477 -0.4381
    4MPD2    H7   64   4.408   2.392  10.994  1.2222 -0.7043 -0.5722
    5TCq1    O1   65   0.842   2.728   9.528  0.1656  0.4515  0.8083
    5TCq1    C1   66   0.944   2.744   9.614  0.1605  0.2078  0.4732
    5TCq1    O2   67   0.980   2.678   9.713 -0.4273  0.1237  0.1113
    5TCq1    C2   68   0.976   2.886   9.598  0.2863  0.1552 -0.1152
    5TCq1    C3   69   0.968   2.932   9.470 -0.1954  0.1263  0.4052
    5TCq1    C4   70   0.953   3.071   9.459  0.6939  0.3295 -0.2844
    5TCq1    C5   71   0.941   3.148   9.573  0.9491  0.5382  1.0446
    5TCq1    C6   72   0.935   3.097   9.701 -0.2878  0.4484  0.2049
    5TCq1    C7   73   0.960   2.963   9.713 -0.2292 -0.5488  0.5935
    5TCq1    C8   74   0.841   3.166   9.793 -0.2187 -0.5796  0.6226
    5TCq1    O4   75   0.808   3.106   9.890  0.7911 -0.6494  0.1392
    5TCq1    C9   76   0.941   3.136   9.328  0.1544 -0.3258  0.7286
    5TCq1    O5   77   0.902   3.259   9.323 -0.6390  0.3138 -0.2596
    5TCq1    O6   78   0.959   3.053   9.231  0.0285  0.4099 -0.3424
    5TCq1    H1   79   0.830   2.805   9.468 -1.7277 -0.1916  0.3694
    5TCq1    H2   80   0.982   2.875   9.379  0.1018 -1.0264  1.1779
    5TCq1    H3   81   0.938   3.253   9.544 -0.1508  0.0142 -0.7877
    5TCq1    H4   82   0.946   2.918   9.810 -0.1783  0.9288  1.2706
    6MPD2     C   83   0.687   3.485   9.722  0.1636 -0.3343 -0.3816
    6MPD2    C1   84   0.706   3.370   9.792 -0.0652 -0.5524 -0.7696
    6MPD2    C2   85   0.634   3.341   9.905 -0.0903  0.9988 -0.3629
    6MPD2    C3   86   0.539   3.425   9.949 -0.3143 -0.0109 -0.2045
    6MPD2    C4   87   0.521   3.543   9.881  0.1815 -0.8274 -0.1887
    6MPD2    C5   88   0.596   3.578   9.770 -0.1754 -0.3138 -0.8176
    6MPD2     H   89   0.632   3.242   9.948  0.1681  1.1508 -0.0044
    6MPD2    H1   90   0.439   3.603   9.916  1.8695  1.6495 -0.5203
    6MPD2    H2   91   0.737   3.515   9.631 -1.4539 -0.2733 -1.2496
    6MPD2    H3   92   0.587   3.680   9.734 -0.2210  0.0105  0.1097
    6MPD2     N   93   0.459   3.376  10.058  0.5283 -0.1722 -0.0014
    6MPD2    H5   94   0.475   3.280  10.085  0.2134 -0.2157  0.0246
    6MPD2    N1   95   0.795   3.277   9.731 -0.3180 -0.0959  0.1307
    6MPD2    H7   96   0.832   3.300   9.639 -1.6943  0.0472 -0.3896
    7TCq1    O1   97   2.513   3.444  13.376 -0.1652  0.0795  0.0825
    7TCq1    C1   98   2.412   3.498  13.301  0.0405 -0.1010 -0.2365
    7TCq1    O2   99   2.380   3.612  13.313 -0.0289  0.5357 -0.0342
    7TCq1    C2  100   2.383   3.416  13.191  0.2185  0.0812 -0.4284
    7TCq1    C3  101   2.352   3.470  13.075  0.0397 -0.0171 -0.2939
    7TCq1    C4  102   2.333   3.381  12.970 -0.6995  0.4062 -0.5483
    7TCq1    C5  103   2.337   3.242  12.983  0.3380  0.1155  0.5376
    7TCq1    C6  104   2.367   3.189  13.109  0.0772  0.0606  0.0083
    7TCq1    C7  105   2.390   3.279  13.214 -0.3454 -0.0975  0.1864
    7TCq1    C8  106   2.341   3.053  13.153 -0.7812 -0.3902  0.3883
    7TCq1    O4  107   2.357   3.016  13.271 -0.2420  0.4912  0.3639
    7TCq1    C9  108   2.319   3.439  12.837  0.0472 -0.7391  0.3015
    7TCq1    O5  109   2.291   3.357  12.744  0.8841 -0.7407  0.1126
    7TCq1    O6  110   2.326   3.564  12.832  0.1320  0.6082  0.3260
    7TCq1    H1  111   2.527   3.354  13.340  1.1997 -0.1222  1.1244
    7TCq1    H2  112   2.366   3.573  13.047  0.7628 -0.5514 -1.8598
    7TCq1    H3  113   2.337   3.180  12.894 -1.1028  1.5026 -0.4328
    7TCq1    H4  114   2.412   3.238  13.312 -1.6433  0.1441  0.5820
    8MPD2     C  115   2.089   2.624  13.095 -0.2500 -1.0010 -0.0927
    8MPD2    C1  116   2.206   2.643  13.167  0.7674  0.3518  0.1750
    8MPD2    C2  117   2.272   2.772  13.151  0.1491 -0.9477 -0.6392
    8MPD2    C3  118   2.226   2.858  13.064  0.3593 -0.0163 -0.4570
    8MPD2    C4  119   2.124   2.828  12.977 -0.8424 -0.1609  0.2715
    8MPD2    C5  120   2.053   2.714  12.997 -0.1555 -0.4745 -0.2328
    8MPD2     H  121   2.366   2.796  13.200  0.2639 -0.1860 -1.2164
    8MPD2    H1  122   2.093   2.889  12.893  0.9203  0.4039  0.0346
    8MPD2    H2  123   2.035   2.530  13.109  0.0784 -0.6587  3.3440
    8MPD2    H3  124   1.961   2.701  12.940  0.6445 -0.1262 -1.5945
    8MPD2     N  125   2.269   2.989  13.054 -0.7056 -0.3383 -0.2412
    8MPD2    H5  126   2.228   3.047  12.982  2.3401  1.2424 -0.7161
    8MPD2    N1  127   2.255   2.538  13.242 -0.0272 -0.2646 -0.1221
    8MPD2    H7  128   2.213   2.448  13.222 -1.3541  0.2514  0.3214
    9TCq1    O1  129   0.259   1.440  10.862 -0.1475  0.2257 -0.0610
    9TCq1    C1  130   0.172   1.525  10.812  0.0820 -0.5959  0.5273
    9TCq1    O2  131   0.065   1.548  10.867  0.2437 -0.3528 -0.1485
    9TCq1    C2  132   0.264   1.619  10.762  0.1980 -0.0078  0.1728
    9TCq1    C3  133   0.246   1.664  10.633  0.1808  0.8135  0.5328
    9TCq1    C4  134   0.346   1.724  10.563 -0.3122  0.6449 -0.5724
    9TCq1    C5  135   0.466   1.729  10.621  0.1426 -0.5437 -0.0020
    9TCq1    C6  136   0.478   1.695  10.754 -0.1783  0.0879 -0.2024
    9TCq1    C7  137   0.384   1.632  10.826 -0.4296  0.2455  0.4441
    9TCq1    C8  138   0.616   1.685  10.792 -0.6671 -0.0403  0.3500
    9TCq1    O4  139   0.705   1.682  10.712 -0.1060 -0.5402 -0.2741
    9TCq1    C9  140   0.339   1.770  10.425 -0.1320 -0.7126  0.5252
    9TCq1    O5  141   0.237   1.744  10.356  0.2957 -0.1105 -0.8249
    9TCq1    O6  142   0.436   1.837  10.392  0.2617 -0.0261  0.5394
    9TCq1    H1  143   0.335   1.415  10.805  0.6143 -3.0036  2.3890
    9TCq1    H2  144   0.150   1.648  10.585  2.0876 -0.9632 -2.6926
    9TCq1    H3  145   0.548   1.774  10.566 -0.6982  0.2454 -0.6006
    9TCq1    H4  146   0.400   1.621  10.933  1.9113  0.7734  0.1521
   10MPD2     C  147   0.876   1.675  10.944  0.7126  1.3023 -0.1180
   10MPD2    C1  148   0.751   1.678  11.004 -0.9348 -0.4373 -0.2268
   10MPD2    C2  149   0.741   1.679  11.142 -0.4956 -0.0251  0.0703
   10MPD2    C3  150   0.853   1.682  11.222  0.5271  0.0852 -0.5193
   10MPD2    C4  151   0.976   1.690  11.169  0.5774 -0.3009 -0.0253
   10MPD2    C5  152   0.988   1.684  11.031  0.6135 -0.3574  0.3701
   10MPD2     H  153   0.643   1.691  11.188  1.0978  1.1720  3.1984
   10MPD2    H1  154   1.067   1.697  11.227  1.2437 -0.5591 -1.0548
   10MPD2    H2  155   0.889   1.666  10.837  0.9856  0.4503 -0.0098
   10MPD2    H3  156   1.085   1.687  10.981  0.3195 -0.2361 -0.1948
   10MPD2     N  157   0.848   1.695  11.363  0.0536  0.2767  0.4606
   10MPD2    H5  158   0.938   1.713  11.408 -0.0557  1.8027  0.0721
   10MPD2    N1  159   0.626   1.691  10.932  0.2821  0.1312 -0.1407
   10MPD2    H7  160   0.540   1.714  10.982  1.5100  1.6540  1.2370
   11TCq1    O1  161   1.730   1.433  14.118 -0.0858 -0.4156  0.4497
   11TCq1    C1  162   1.783   1.504  14.222  0.2330  0.5167  0.3303
   11TCq1    O2  163   1.895   1.554  14.218 -0.6199 -0.4017  0.7010
   11TCq1    C2  164   1.678   1.578  14.286  0.0125 -0.1325  1.1366
   11TCq1    C3  165   1.723   1.675  14.377  0.3257  0.1009 -0.2438
   11TCq1    C4  166   1.636   1.750  14.452  0.1981 -0.2434  0.1807
   11TCq1    C5  167   1.509   1.720  14.437 -0.7694 -0.1944  0.2598
   11TCq1    C6  168   1.462   1.649  14.326  0.1717  0.1324 -0.0808
   11TCq1    C7  169   1.546   1.561  14.255  0.0148 -0.5004 -0.0060
   11TCq1    C8  170   1.323   1.646  14.300  0.1797  0.1336 -0.3663
   11TCq1    O4  171   1.249   1.719  14.366  0.0756  0.0145 -0.1758
   11TCq1    C9  172   1.685   1.851  14.542 -0.3718  0.4896  1.1486
   11TCq1    O5  173   1.805   1.851  14.568 -0.3773 -0.1702 -0.2287
   11TCq1    O6  174   1.596   1.905  14.613 -0.4043 -0.0610  0.5680
   11TCq1    H1  175   1.652   1.378  14.140 -0.1682 -1.0791 -1.4553
   11TCq1    H2  176   1.825   1.712  14.377  0.7919 -1.1517 -0.1100
   11TCq1    H3  177   1.432   1.770  14.496  0.1963  1.4952  0.0621
   11TCq1    H4  178   1.523   1.519  14.158 -0.5466  0.1398 -0.1523
   12MPD2     C  179   1.042   1.606  14.203  0.1075  0.0235  0.4629
   12MPD2    C1  180   1.150   1.523  14.171  0.1959 -0.3373 -0.7235
   12MPD2    C2  181   1.134   1.410  14.089 -0.2314  0.1457 -0.6886
   12MPD2    C3  182   1.007   1.369  14.051  0.2696 -1.1316  0.4993
   12MPD2    C4  183   0.898   1.437  14.101  0.1681  0.6781 -0.0289
   12MPD2    C5  184   0.917   1.559  14.169 -0.3114 -0.1608  0.6821
   12MPD2     H  185   1.227   1.358  14.069 -1.8076 -2.4726 -1.3012
   12MPD2    H1  186   0.798   1.402  14.077  0.7773 -1.3110  0.3153
   12MPD2    H2  187   1.041   1.699  14.259  0.8764  1.4296 -1.8791
   12MPD2    H3  188   0.832   1.622  14.193  2.1555  3.0920  0.9801
   12MPD2     N  189   0.982   1.249  13.982 -0.4136  0.0240  0.0543
   12MPD2    H5  190   0.888   1.235  13.947  0.1309  1.8088 -2.0965
   12MPD2    N1  191   1.282   1.543  14.216  0.1024  0.1389  0.3259
   12MPD2    H7  192   1.350   1.472  14.190  0.9007  0.7877  0.6605
   13TCq1    O1  193   0.622   1.553  10.433  0.1820  0.1440  0.1670
   13TCq1    C1  194   0.599   1.548  10.299 -0.2182 -0.5124 -0.4392
   13TCq1    O2  195   0.608   1.647  10.226  0.4002 -0.1262 -0.3011
   13TCq1    C2  196   0.483   1.463  10.273 -0.3000  0.0457  0.4967
   13TCq1    C3  197   0.457   1.439  10.131 -0.2580  0.7362 -0.4602
   13TCq1    C4  198   0.350   1.357  10.095  0.4026  0.1311 -0.5131
   13TCq1    C5  199   0.256   1.329  10.186  0.3321 -0.4341 -0.0392
   13TCq1    C6  200   0.272   1.374  10.315  0.2874 -0.2649 -0.0930
   13TCq1    C7  201   0.383   1.436  10.363  0.4008 -0.1020  0.4526
   13TCq1    C8  202   0.169   1.354  10.422  0.5271 -0.2289 -0.1083
   13TCq1    O4  203   0.202   1.352  10.536  0.1921  0.2053  0.3220
   13TCq1    C9  204   0.335   1.315   9.956 -0.1134 -0.2341  0.8209
   13TCq1    O5  205   0.388   1.387   9.867 -0.2271 -0.2589 -0.0853
   13TCq1    O6  206   0.284   1.204   9.945  0.0508 -0.4918  0.6557
   13TCq1    H1  207   0.617   1.460  10.465 -1.9025 -0.7111 -2.6448
   13TCq1    H2  208   0.531   1.460  10.054 -0.2522 -0.1073 -0.6812
   13TCq1    H3  209   0.164   1.287  10.149  0.1424 -1.8702  2.1027
   13TCq1    H4  210   0.400   1.471  10.464  0.2260  3.2000 -0.6585
   14MPD2     C  211   4.527   1.313  10.382  0.1374 -0.3788  0.2597
   14MPD2    C1  212   4.648   1.344  10.446  0.5074 -0.2870 -0.1909
   14MPD2    C2  213   4.642   1.388  10.576 -0.6584  0.3391 -0.3403
   14MPD2    C3  214   4.529   1.387  10.649 -0.4870 -0.3680  0.4310
   14MPD2    C4  215   4.412   1.355  10.588 -0.0193  0.9114 -0.2153
   14MPD2    C5  216   4.406   1.322  10.451  0.1720 -0.3787  0.0342
   14MPD2     H  217   0.002   1.431  10.629 -0.3074 -0.3646 -0.3160
   14MPD2    H1  218   4.312   1.364  10.629  0.1653  0.1962  0.3888
   14MPD2    H2  219   4.524   1.272  10.282 -2.0136  1.1409 -0.3119
   14MPD2    H3  220   4.316   1.298  10.394 -1.1369  0.2911  1.8272
   14MPD2     N  221   4.535   1.442  10.780 -0.3140 -0.7274  0.2718
   14MPD2    H5  222   4.619   1.489  10.812  0.5153 -0.1494 -2.7113
   14MPD2    N1  223   0.044   1.340  10.366 -0.1756  0.4111 -0.1508
   14MPD2    H7  224   0.027   1.331  10.267  0.9513 -0.5140 -0.2533
   15TCq1    O1  225   3.028   2.033   2.208  0.3274  0.2284  0.8826
   15TCq1    C1  226   3.023   1.899   2.229 -0.6068  0.2468  0.5470
   15TCq1    O2  227   3.121   1.826   2.228  0.1217  0.1806  0.0272
   15TCq1    C2  228   2.892   1.859   2.189  0.1430  0.5204 -0.6650
   15TCq1    C3  229   2.785   1.938   2.223 -0.0407  0.1679  0.1149
   15TCq1    C4  230   2.664   1.905   2.177 -0.2149  0.0269  0.5111
   15TCq1    C5  231   2.646   1.795   2.096 -0.6302  0.4457  0.1162
   15TCq1    C6  232   2.762   1.731   2.056 -0.2734  0.1155  0.5411
   15TCq1    C7  233   2.886   1.756   2.104 -0.1019 -0.1868  0.2761
   15TCq1    C8  234   2.744   1.596   1.996 -0.3260  0.2534  0.4517
   15TCq1    O4  235   2.834   1.559   1.923 -0.1040 -0.1725  0.2720
   15TCq1    C9  236   2.548   1.978   2.215 -0.2287  0.2751 -0.4851
   15TCq1    O5  237   2.569   2.074   2.294 -0.3323  0.1450  0.2694
   15TCq1    O6  238   2.453   1.979   2.133  0.8736 -0.4703  0.9828
   15TCq1    H1  239   2.936   2.065   2.199  0.6595  1.0211  0.2830
   15TCq1    H2  240   2.800   2.016   2.296  0.0135 -1.4691  1.8441
   15TCq1    H3  241   2.552   1.773   2.047  0.3350 -0.9097 -1.1357
   15TCq1    H4  242   2.976   1.704   2.075 -0.2820 -0.0812 -0.4705
   16MPD2     C  243   2.415   1.414   1.989 -0.1655 -0.1067 -0.0482
   16MPD2    C1  244   2.545   1.436   1.972  0.1021 -0.6260  0.1967
   16MPD2    C2  245   2.608   1.361   1.873  0.0970  0.1123  0.4644
   16MPD2    C3  246   2.541   1.254   1.816 -0.1509 -0.0542  0.1126
   16MPD2    C4  247   2.410   1.223   1.858  0.3768 -0.7421  0.2870
   16MPD2    C5  248   2.345   1.315   1.936 -0.5970  0.7752  0.2905
   16MPD2     H  249   2.710   1.387   1.845 -0.8962  1.2427 -2.0853
   16MPD2    H1  250   2.353   1.135   1.828  1.0513  0.0956 -3.3503
   16MPD2    H2  251   2.358   1.486   2.046  1.8805 -0.6694  2.6887
   16MPD2    H3  252   2.239   1.306   1.957 -0.4989  1.4003  1.0281
   16MPD2     N  253   2.617   1.179   1.723 -0.3086  0.3596 -0.4296
   16MPD2    H5  254   2.714   1.206   1.712  0.7625 -2.3176  2.6171
   16MPD2    N1  255   2.616   1.550   2.026 -0.2023 -0.2923 -0.1322
   16MPD2    H7  256   2.563   1.602   2.095 -0.2263 -0.5075  0.0131
   17TCq1    O1  257   4.257   1.499   9.317  1.1101 -0.0068 -0.1272
   17TCq1    C1  258   4.303   1.374   9.345 -0.7331 -0.1699  0.5429
   17TCq1    O2  259   4.231   1.276   9.340  0.2202 -0.0491  0.1788
   17TCq1    C2  260   4.412   1.374   9.437  0.5579 -0.0453  1.2769
   17TCq1    C3  261   4.525   1.439   9.406  0.0144  0.1538  0.5706
   17TCq1    C4  262   4.634   1.416   9.486  0.4156  0.6701  0.1976
   17TCq1    C5  263   4.618   1.332   9.597  0.5955  0.8068  0.2876
   17TCq1    C6  264   4.503   1.264   9.619  0.7433 -0.8412 -0.0586
   17TCq1    C7  265   4.398   1.282   9.534  0.3266  1.2395  0.4411
   17TCq1    C8  266   4.464   1.218   9.747 -0.0478  0.1462 -0.4919
   17TCq1    O4  267   4.349   1.228   9.783  0.4708 -0.1038  0.5793
   17TCq1    C9  268   0.037   1.482   9.462 -0.2546 -0.0712  0.0492
   17TCq1    O5  269   0.036   1.578   9.380 -0.4603  0.1698 -0.0026
   17TCq1    O6  270   0.139   1.439   9.522  0.8217  0.3728  0.0853
   17TCq1    H1  271   4.312   1.569   9.358  0.7870  0.5126 -0.5921
   17TCq1    H2  272   4.528   1.492   9.311 -1.0630 -0.4647  0.1951
   17TCq1    H3  273   4.703   1.336   9.665  1.3971  2.6895 -0.8322
   17TCq1    H4  274   4.313   1.215   9.536  0.6238  0.8655  0.7515
   18MPD2     C  275   4.444   1.089  10.008 -0.1143 -1.1199 -0.3221
   18MPD2    C1  276   4.564   1.126   9.953 -0.1972 -0.2649  0.4909
   18MPD2    C2  277   4.683   1.111  10.017  0.3041  0.1702  0.0826
   18MPD2    C3  278   4.691   1.052  10.140 -0.4880 -0.6399  0.2802
   18MPD2    C4  279   4.574   1.009  10.201 -0.2896 -0.1337  0.0334
   18MPD2    C5  280   4.454   1.031  10.135 -0.2087 -0.9068  0.0240
   18MPD2     H  281   0.047   1.151   9.966  1.4317 -0.9261  1.1444
   18MPD2    H1  282   4.566   0.969  10.301 -0.6705 -1.2215 -0.4393
   18MPD2    H2  283   4.345   1.092   9.963 -0.1327 -0.2459 -0.2136
   18MPD2    H3  284   4.356   1.010  10.178 -0.3733 -1.8656 -0.8022
   18MPD2     N  285   0.098   1.044  10.189 -0.1101 -0.3977  0.2221
   18MPD2    H5  286   0.168   1.099  10.140 -0.1633  0.5724  1.2192
   18MPD2    N1  287   4.573   1.180   9.822 -0.2275 -0.2292  0.3176
   18MPD2    H7  288   4.667   1.197   9.787  0.0609  0.6307  1.4866
   19TMC2    C1  289   2.032   1.679  13.888 -0.1066  0.4761  0.0858
   19TMC2    C2  290   1.906   1.720  13.851  0.4514 -0.6164 -0.5248
   19TMC2    C3  291   1.828   1.617  13.800  0.4090 -0.1099  0.4055
   19TMC2    C4  292   2.071   1.542  13.877  0.1200  0.4310 -0.1044
   19TMC2    C5  293   1.992   1.453  13.815 -0.5197  0.7632  0.2086
   19TMC2    C6  294   1.864   1.486  13.783 -0.3381  0.5388  0.2068
   19TMC2     C  295   2.138   1.772  13.918  0.6519 -0.2221  0.1934
   19TMC2     O  296   2.129   1.887  13.883 -0.1648  0.6338  0.0779
   19TMC2     H  297   1.884   1.826  13.843  2.5710  0.0246  2.4518
   19TMC2    H1  298   2.169   1.504  13.905 -0.4662 -2.5270 -2.1344
   19TMC2    H2  299   1.788   1.411  13.765  1.4994 -1.4842  0.9391
   19TMC2    C7  300   2.018   1.302  13.808  0.1994  0.0879 -0.1918
   19TMC2    C8  301   1.686   1.636  13.818 -0.2603  0.1508  0.8197
   19TMC2    O1  302   1.934   1.238  13.745  0.0127 -0.2674  0.1294
   19TMC2    O2  303   1.629   1.666  13.924 -0.1041 -0.1274  0.4777
   19TMC2    O5  304   1.645   1.687  13.703  0.2281  0.1589  0.5668
   19TMC2    H5  305   1.689   1.642  13.627 -1.0485 -0.2288  0.0636
   20MPD2     C  306   2.421   1.885  13.927  0.0429  0.1627  0.2549
   20MPD2    C1  307   2.369   1.788  14.020  0.8821  0.1725  0.1530
   20MPD2    C2  308   2.453   1.726  14.107  0.4932 -0.0883 -0.5412
   20MPD2    C3  309   2.589   1.752  14.103 -0.0485  0.2403 -0.1420
   20MPD2    C4  310   2.642   1.834  14.002 -0.1326  0.6553 -0.0198
   20MPD2    C5  311   2.555   1.898  13.921 -0.3469  0.1903 -0.5973
   20MPD2     H  312   2.412   1.648  14.170  0.2173  0.5636  0.0766
   20MPD2    H1  313   2.748   1.852  13.989  0.3240  0.3604  3.2392
   20MPD2    H2  314   2.361   1.920  13.843 -0.1831  1.9146  1.1455
   20MPD2    H3  315   2.594   1.957  13.838  2.6545 -0.8922  0.0531
   20MPD2     N  316   2.686   1.697  14.196  0.1332  0.0227 -0.0762
   20MPD2    H5  317   2.780   1.734  14.185 -0.6924  1.6095 -1.7363
   20MPD2    N1  318   2.245   1.723  13.994  0.0070  0.2495 -0.8385
   20MPD2    H7  319   2.231   1.630  14.034  2.0252  0.9089  1.4401
   21MPD2     C  320   4.303   1.908  14.262  0.1891  0.4087  0.7705
   21MPD2    C1  321   4.336   1.786  14.315  0.3780 -0.1115  0.6643
   21MPD2    C2  322   4.278   1.749  14.434  1.3232  0.1525 -0.2435
   21MPD2    C3  323   4.187   1.828  14.502 -0.0778  0.2142 -0.0395
   21MPD2    C4  324   4.144   1.945  14.446 -0.6817 -0.1686  0.6076
   21MPD2    C5  325   4.204   1.982  14.327  0.0773 -0.3964 -0.3919
   21MPD2     H  326   4.313   1.655  14.474  0.1095  0.1274  0.7779
   21MPD2    H1  327   4.076   2.015  14.492 -1.2765 -0.6608  0.4804
   21MPD2    H2  328   4.333   1.953  14.168 -0.1379 -0.1240  0.4153
   21MPD2    H3  329   4.169   2.077  14.287  3.0903  0.7320 -0.3634
   21MPD2     N  330   4.133   1.796  14.632 -0.1171 -0.0643 -0.2057
   21MPD2    H5  331   4.068   1.867  14.666 -0.6331  0.4565 -2.2541
   21MPD2    N1  332   4.420   1.697  14.252  0.2428  0.3110 -0.1100
   21MPD2    H7  333   4.441   1.607  14.295 -1.5811  0.4140  0.9837
   22TCq2    C1  334   4.182   1.693  14.713 -0.3094  0.7310  0.1717
   22TCq2    O2  335   4.277   1.615  14.701 -0.0910  0.0466  0.1555
   22TCq2    C2  336   4.094   1.689  14.831 -0.5295 -0.4387 -0.3667
   22TCq2    C3  337   4.153   1.624  14.935 -0.6545  0.4684 -0.3000
   22TCq2    C4  338   4.077   1.604  15.051 -0.5184  0.2489  0.3994
   22TCq2    C5  339   3.946   1.642  15.059  0.4632  0.4355 -0.0677
   22TCq2    C6  340   3.895   1.710  14.957  0.0025 -0.2211  0.2175
   22TCq2    C7  341   3.970   1.732  14.840 -0.1104 -0.0378  0.4009
   22TCq2    C8  342   3.750   1.729  14.954 -0.8380 -0.3585  0.0372
   22TCq2    O4  343   3.681   1.665  15.032  0.1661  0.3313  0.5279
   22TCq2    C9  344   4.146   1.582  15.168 -0.7026 -0.0545  0.3029
   22TCq2    O5  345   4.263   1.536  15.162  0.0399 -0.0840  0.6206
   22TCq2    O6  346   4.076   1.572  15.270  0.2367 -0.5040  0.5118
   22TCq2    H2  347   4.256   1.591  14.935 -0.4098  1.2494  1.2411
   22TCq2    H3  348   3.893   1.627  15.152  3.0010 -2.5572  0.8969
   22TCq2    H4  349   3.928   1.778  14.751 -0.5524  1.1040  1.1971
   23MPD2     C  350   0.843   3.052  15.165 -0.0955 -0.1927  0.0655
   23MPD2    C1  351   0.827   2.918  15.181 -0.5466 -0.5607 -0.3314
   23MPD2    C2  352   0.705   2.863  15.154 -0.6868 -0.1303  0.0202
   23MPD2    C3  353   0.597   2.941  15.113  0.0078 -0.0171  0.9003
   23MPD2    C4  354   0.618   3.078  15.095 -0.5572  0.2266 -0.3248
   23MPD2    C5  355   0.741   3.127  15.115  0.0843 -0.0241  0.5072
   23MPD2     H  356   0.689   2.758  15.175 -0.4365 -1.0047 -4.3015
   23MPD2    H1  357   0.538   3.143  15.061  0.5482  0.2781 -2.8818
   23MPD2    H2  358   0.940   3.101  15.166  0.2669 -0.9131 -0.8860
   23MPD2    H3  359   0.759   3.229  15.086  2.3482 -0.3230  0.9195
   23MPD2     N  360   0.470   2.885  15.091 -0.6198 -0.4647 -0.0127
   23MPD2    H5  361   0.396   2.953  15.075 -0.6524 -0.6169 -0.5205
   23MPD2    N1  362   0.921   2.837  15.255 -0.0429  0.3055 -0.4025
   23MPD2    H7  363   0.892   2.741  15.272 -1.1973  0.7412  0.1077
   24TCq2    C1  364   0.426   2.758  15.086 -0.5952 -0.1638 -0.4981
   24TCq2    O2  365   0.503   2.663  15.109  0.5435 -0.1327  0.0622
   24TCq2    C2  366   0.291   2.734  15.038 -0.0281 -0.1927  0.5348
   24TCq2    C3  367   0.236   2.842  14.973  0.1404  0.2758 -0.2539
   24TCq2    C4  368   0.100   2.856  14.957  0.0811 -0.3189 -0.3757
   24TCq2    C5  369   0.013   2.767  15.014  0.2073  0.4642 -0.2313
   24TCq2    C6  370   0.072   2.653  15.074 -0.1689 -0.0016 -0.5602
   24TCq2    C7  371   0.209   2.632  15.081 -0.2399  0.9087 -0.4781
   24TCq2    C8  372   4.714   2.551  15.139  0.5325 -0.2077 -0.1245
   24TCq2    O4  373   0.046   2.472  15.212  0.5417  0.1692 -0.3748
   24TCq2    C9  374   0.053   2.982  14.913  0.1510  0.0510  0.0291
   24TCq2    O5  375   0.127   3.042  14.829  0.2829 -0.6159  0.3173
   24TCq2    O6  376   4.666   3.019  14.956  0.1013 -0.2247  0.0305
   24TCq2    H2  377   0.293   2.924  14.932 -0.9882  1.5930  0.8092
   24TCq2    H3  378   4.629   2.785  15.017  0.3846  1.2454  1.4266
   24TCq2    H4  379   0.254   2.553  15.140 -1.6781 -1.4256 -2.4589
   25TMC2    C1  380   4.354   0.888  11.718 -0.7385 -1.3295 -0.2868
   25TMC2    C2  381   4.445   0.975  11.777 -0.4200 -0.0855  0.1022
   25TMC2    C3  382   4.460   0.962  11.911 -0.2669  0.2109 -0.0954
   25TMC2    C4  383   4.286   0.789  11.784  0.5660 -0.6818 -0.2033
   25TMC2    C5  384   4.318   0.782  11.914  0.1936 -0.6041  0.2397
   25TMC2    C6  385   4.399   0.871  11.985 -0.8310 -0.5895  0.3129
   25TMC2     C  386   4.343   0.908  11.573 -0.2668 -0.1147 -0.2308
   25TMC2     O  387   4.410   0.996  11.519 -0.3682  0.3068  0.5951
   25TMC2     H  388   4.500   1.046  11.716 -0.1098 -0.6686 -0.3045
   25TMC2    H1  389   4.204   0.733  11.740  0.2610  0.4069 -1.0171
   25TMC2    H2  390   4.427   0.854  12.088  1.1454  0.7334 -0.0101
   25TMC2    C7  391   4.250   0.686  11.992  0.1502  0.0442 -0.2185
   25TMC2    C8  392   4.480   1.086  11.980 -0.2314  0.1885 -0.3867
   25TMC2    O1  393   4.305   0.657  12.099 -0.8020 -0.2741 -0.1378
   25TMC2    O2  394   4.589   1.139  11.981  0.1271 -0.6989  0.1263
   25TMC2    O5  395   4.371   1.148  11.933  0.0561  0.2794  0.0784
   25TMC2    H5  396   4.287   1.098  11.941 -0.7022  1.7049  1.0782
   26MPD2     C  397   4.078   0.810  11.146  0.4118  0.2349  0.2337
   26MPD2    C1  398   4.053   0.709  11.239 -0.4308 -0.0579  0.3063
   26MPD2    C2  399   4.117   0.715  11.359 -0.1417  0.0431  0.1869
   26MPD2    C3  400   4.197   0.821  11.396 -0.1897  0.5132  0.7720
   26MPD2    C4  401   4.220   0.917  11.304 -0.4533  0.0616 -0.4720
   26MPD2    C5  402   4.162   0.907  11.185 -0.2771 -0.0202  0.3665
   26MPD2     H  403   4.091   0.646  11.438  0.4330  0.4880  0.7625
   26MPD2    H1  404   4.283   1.005  11.320 -0.2998  0.3263 -2.6009
   26MPD2    H2  405   4.029   0.809  11.050  3.4344 -2.3482 -1.2934
   26MPD2    H3  406   4.176   0.981  11.107  1.3549  0.0513  0.7162
   26MPD2     N  407   4.251   0.821  11.523 -0.3107  0.2670 -0.3683
   26MPD2    H5  408   4.219   0.752  11.590 -1.1237  0.5175 -0.4960
   26MPD2    N1  409   3.974   0.596  11.202 -0.9228 -0.0449  0.5381
   26MPD2    H7  410   3.915   0.605  11.119  0.6410 -1.1358 -0.6899
   27TMC2    C1  411   2.428   1.991  11.965  0.2929 -0.1589  0.6120
   27TMC2    C2  412   2.393   1.973  11.833  0.7399  0.1783 -0.3672
   27TMC2    C3  413   2.485   2.026  11.749 -0.3376 -0.2768  0.7105
   27TMC2    C4  414   2.550   2.042  12.006 -0.1080  0.5168 -0.4090
   27TMC2    C5  415   2.640   2.076  11.911  0.4487  0.7863 -0.2876
   27TMC2    C6  416   2.605   2.083  11.781 -0.5268 -0.0311 -0.1992
   27TMC2     C  417   2.316   1.998  12.059  1.0568 -0.2505 -0.3777
   27TMC2     O  418   2.205   1.977  12.010 -0.1631 -0.3062  1.6685
   27TMC2     H  419   2.300   1.935  11.793 -0.6492  1.1642  1.9529
   27TMC2    H1  420   2.573   2.046  12.112 -1.6474 -0.3624 -0.0475
   27TMC2    H2  421   2.672   2.121  11.705 -1.4159  0.6498 -0.6453
   27TMC2    C7  422   2.756   2.159  11.955  0.5589  0.1772 -0.5641
   27TMC2    C8  423   2.457   2.012  11.609  0.2282 -0.1086  0.3324
   27TMC2    O1  424   2.792   2.139  12.071 -0.3431 -0.0785 -0.3245
   27TMC2    O2  425   2.388   1.920  11.573  0.3717 -0.2008  0.0383
   27TMC2    O5  426   2.450   2.137  11.570 -0.0558  0.3349 -0.1623
   27TMC2    H5  427   2.499   2.200  11.627  1.0971 -0.3106 -0.4417
   28MPD2     C  428   2.091   2.078  12.509  0.1080 -0.9201 -0.3765
   28MPD2    C1  429   2.229   2.058  12.529  0.2245  0.6535  0.2958
   28MPD2    C2  430   2.309   2.057  12.420  0.3324  0.0226  0.3098
   28MPD2    C3  431   2.259   2.045  12.297 -0.3356  0.3801  0.3931
   28MPD2    C4  432   2.124   2.061  12.278 -0.4279  0.2924  0.0538
   28MPD2    C5  433   2.041   2.077  12.384  0.3535 -0.3685  0.0907
   28MPD2     H  434   2.417   2.043  12.427  0.3049 -0.4727 -0.3353
   28MPD2    H1  435   2.075   2.044  12.182  0.3120  0.2144 -0.3121
   28MPD2    H2  436   2.021   2.088  12.591 -0.6683  1.4238 -1.3330
   28MPD2    H3  437   1.934   2.079  12.368  0.6835  1.3925 -1.9083
   28MPD2     N  438   2.353   2.033  12.189 -0.2075 -0.6067  0.0003
   28MPD2    H5  439   2.452   2.033  12.210  0.2766 -4.1380 -2.2657
   28MPD2    N1  440   2.276   2.046  12.664 -0.0902 -0.3019  0.3593
   28MPD2    H7  441   2.202   2.049  12.734  0.6326 -1.1684  1.1408
   29MPD2     C  442   2.949   4.703  14.239 -0.4110 -0.2419  0.4458
   29MPD2    C1  443   2.990   4.643  14.359 -0.1780 -0.1935  0.7071
   29MPD2    C2  444   3.021   4.722  14.474 -0.3641 -0.7392  0.3591
   29MPD2    C3  445   2.998   0.136  14.461 -0.5296  0.2145  0.4492
   29MPD2    C4  446   2.949   0.190  14.344 -0.6347  0.7593 -0.8683
   29MPD2    C5  447   2.922   0.109  14.237 -0.4334  0.5322  0.0385
   29MPD2     H  448   3.058   4.668  14.561  1.1187  1.4391  1.0627
   29MPD2    H1  449   2.928   0.296  14.349 -1.1545  0.6247 -0.1052
   29MPD2    H2  450   2.946   4.644  14.148  0.3060 -0.7674  0.7640
   29MPD2    H3  451   2.885   0.162  14.151 -0.7508 -0.1383 -0.2355
   29MPD2     N  452   3.031   0.228  14.557  0.6047  0.2430  0.6821
   29MPD2    H5  453   3.023   0.326  14.534  1.7812 -0.4013 -2.5141
   29MPD2    N1  454   3.006   4.502  14.373  0.2770 -0.4889 -0.3949
   29MPD2    H7  455   3.052   4.463  14.455 -2.9871 -2.4655  0.4940
   30TCq2    C1  456   3.087   0.190  14.679  0.7999 -0.1463  0.4936
   30TCq2    O2  457   3.098   0.075  14.721  0.2169  0.2769  0.8137
   30TCq2    C2  458   3.125   0.298  14.773  0.2854 -0.1879  0.8007
   30TCq2    C3  459   3.167   0.252  14.900  0.8134  0.0371  0.5360
   30TCq2    C4  460   3.201   0.352  14.988 -0.6358 -0.0479  0.4090
   30TCq2    C5  461   3.207   0.487  14.954 -1.0359  0.3022  0.0064
   30TCq2    C6  462   3.178   0.517  14.820  0.1574 -0.6253  0.4322
   30TCq2    C7  463   3.135   0.420  14.729  0.0481  0.2162 -0.2713
   30TCq2    C8  464   3.206   0.648  14.780  0.3246 -0.3847  0.3663
   30TCq2    O4  465   3.140   0.685  14.684  0.0773  0.0223  0.3540
   30TCq2    C9  466   3.233   0.311  15.120  0.0603 -0.2882 -0.7628
   30TCq2    O5  467   3.296   0.395  15.190  0.2912  0.4605 -0.3118
   30TCq2    O6  468   3.169   0.213  15.172  0.3309  0.0800 -0.4564
   30TCq2    H2  469   3.169   0.149  14.934 -2.1371  0.1216  0.9627
   30TCq2    H3  470   3.231   0.560  15.031 -0.8058 -1.6113  1.7571
   30TCq2    H4  471   3.117   0.447  14.626  0.7379 -0.5736 -0.5950
   31MPD2     C  472   1.235   3.859  14.729  0.2169  0.0963 -1.1395
   31MPD2    C1  473   1.101   3.891  14.701  0.1068 -0.5617 -0.1447
   31MPD2    C2  474   0.994   3.831  14.766 -0.3218 -0.1262 -0.5284
   31MPD2    C3  475   1.022   3.738  14.858 -0.2337 -1.0823 -0.0148
   31MPD2    C4  476   1.152   3.710  14.893 -0.0130 -0.4264 -0.0985
   31MPD2    C5  477   1.265   3.766  14.828 -0.3629 -0.2238 -0.1001
   31MPD2     H  478   0.892   3.847  14.734 -1.4079 -0.0971  2.9297
   31MPD2    H1  479   1.179   3.635  14.966  0.0945 -1.1643 -0.8922
   31MPD2    H2  480   1.321   3.911  14.688  0.6536 -0.4142 -0.8711
   31MPD2    H3  481   1.370   3.750  14.850 -0.4387  0.5461  0.8238
   31MPD2     N  482   0.920   3.675  14.939  0.1348 -0.0114  0.2857
   31MPD2    H5  483   0.947   3.625  15.022 -1.8604 -2.6099 -0.6109
   31MPD2    N1  484   1.085   3.987  14.595 -0.2668 -0.6824 -0.0941
   31MPD2    H7  485   1.169   4.016  14.545 -0.1231  0.7016  0.9346
   32TCq2    C1  486   0.782   3.673  14.911 -0.2159 -0.3649 -0.2796
   32TCq2    O2  487   0.728   3.703  14.806  0.7340 -0.0154 -0.4147
   32TCq2    C2  488   0.710   3.575  14.994  0.6150 -0.0738  0.2794
   32TCq2    C3  489   0.603   3.513  14.932  0.1702 -0.3115 -0.6879
   32TCq2    C4  490   0.511   3.446  15.007 -0.5350  0.6410  0.0003
   32TCq2    C5  491   0.524   3.428  15.143  0.1511 -0.8368  0.1572
   32TCq2    C6  492   0.636   3.483  15.198 -0.2290  0.1340  0.2874
   32TCq2    C7  493   0.726   3.555  15.131 -0.2801 -0.1562 -0.1126
   32TCq2    C8  494   0.659   3.460  15.346  0.3106  0.5985 -0.3104
   32TCq2    O4  495   0.773   3.474  15.390  0.1729  0.4067  0.2345
   32TCq2    C9  496   0.399   3.395  14.931 -0.0998 -0.2506  0.1206
   32TCq2    O5  497   0.394   3.398  14.804  0.1732  0.3427 -0.3439
   32TCq2    O6  498   0.323   3.322  14.998  0.4008 -0.0739 -1.0375
   32TCq2    H2  499   0.576   3.528  14.828 -0.6116 -2.9663 -0.8472
   32TCq2    H3  500   0.444   3.380  15.198  1.6109 -2.9595  0.4070
   32TCq2    H4  501   0.808   3.606  15.181  0.6468  1.0132 -2.8095
   33MPD2     C  502   0.875   1.346  10.347  0.4602 -0.3800 -0.5023
   33MPD2    C1  503   0.785   1.278  10.256  0.0262  0.5806  0.2124
   33MPD2    C2  504   0.795   1.290  10.120 -0.2719 -0.0654  0.1620
   33MPD2    C3  505   0.897   1.379  10.073 -0.4920 -0.4413 -0.7565
   33MPD2    C4  506   0.980   1.448  10.156  0.1722  1.0165 -0.3148
   33MPD2    C5  507   0.971   1.425  10.291 -0.5415  0.0376  0.2128
   33MPD2     H  508   0.732   1.237  10.049 -0.6787 -1.4381  1.5580
   33MPD2    H1  509   1.047   1.520  10.111 -0.3563  1.8575  0.2514
   33MPD2    H2  510   0.883   1.329  10.454  1.0902 -2.8699 -0.9433
   33MPD2    H3  511   1.047   1.470  10.353 -0.6961 -1.2084  1.3127
   33MPD2     N  512   0.919   1.419   9.939  0.4974  0.0316 -0.0087
   33MPD2    H5  513   0.990   1.490   9.927  0.7990 -0.3669 -0.6033
   33MPD2    N1  514   0.685   1.191  10.316  0.2267 -0.0428  0.3460
   33MPD2    H7  515   0.671   1.194  10.416 -3.0443  0.7536 -0.1185
   34TCq2    C1  516   0.846   1.382   9.828  0.0058 -0.3142  0.3395
   34TCq2    O2  517   0.764   1.289   9.829  0.0730 -0.2277  0.2013
   34TCq2    C2  518   0.868   1.472   9.706 -0.0999  0.3026  1.0612
   34TCq2    C3  519   0.780   1.463   9.604  0.1997  0.3740 -0.2028
   34TCq2    C4  520   0.817   1.518   9.487 -0.6236  0.3388 -0.2488
   34TCq2    C5  521   0.937   1.579   9.473 -0.0912 -0.2567 -0.1281
   34TCq2    C6  522   1.020   1.590   9.577 -0.0635  0.3220  0.2212
   34TCq2    C7  523   0.987   1.546   9.700  0.2253  0.4263  0.0552
   34TCq2    C8  524   1.144   1.676   9.563  0.2257  0.4783 -0.1332
   34TCq2    O4  525   1.224   1.682   9.660  0.0995 -0.2509 -0.3037
   34TCq2    C9  526   0.722   1.529   9.380 -0.1022 -0.3722 -0.6470
   34TCq2    O5  527   0.607   1.509   9.412 -0.2614 -0.5427  0.4499
   34TCq2    O6  528   0.756   1.579   9.267 -0.1926  0.3855 -0.0153
   34TCq2    H2  529   0.691   1.405   9.626  0.8175  0.9174  3.7730
   34TCq2    H3  530   0.962   1.607   9.371  1.6262 -0.0745  0.3416
   34TCq2    H4  531   1.063   1.550   9.777  0.6156 -0.5240 -0.2844
   35MPD2     C  532   2.539   2.392  12.307  0.2187 -0.4820 -0.0334
   35MPD2    C1  533   2.404   2.402  12.340 -0.8819 -0.4996 -0.2226
   35MPD2    C2  534   2.315   2.398  12.240  0.5181  0.6977 -0.7126
   35MPD2    C3  535   2.349   2.399  12.107 -0.0290  0.2293  0.3158
   35MPD2    C4  536   2.478   2.394  12.077  0.1148  0.1094  0.4289
   35MPD2    C5  537   2.572   2.389  12.175 -0.3380  0.4514  0.8079
   35MPD2     H  538   2.211   2.410  12.268  0.4562 -1.7822  0.1714
   35MPD2    H1  539   2.499   2.401  11.971  2.0587  5.9646  1.2223
   35MPD2    H2  540   2.614   2.396  12.384 -0.0509  2.1384  0.0867
   35MPD2    H3  541   2.678   2.395  12.154 -0.7834  3.0287 -0.6476
   35MPD2     N  542   2.243   2.389  12.011 -0.6245  0.0674  0.3404
   35MPD2    H5  543   2.147   2.404  12.040 -1.4102 -2.9919 -0.7014
   35MPD2    N1  544   2.348   2.421  12.467 -0.2973 -0.0784  0.6183
   35MPD2    H7  545   2.251   2.452  12.475  0.0741  1.7503 -1.9711
   36TCq2    C1  546   2.255   2.363  11.880  0.3972 -0.2945  0.4371
   36TCq2    O2  547   2.356   2.367  11.808  0.0891 -0.5510  0.3942
   36TCq2    C2  548   2.130   2.327  11.822 -1.1013  0.8360 -0.1665
   36TCq2    C3  549   2.098   2.362  11.697  0.1742  0.0933 -0.3250
   36TCq2    C4  550   1.972   2.354  11.655  0.2600 -0.1644  0.4094
   36TCq2    C5  551   1.881   2.301  11.740 -0.1471 -0.1979 -0.5043
   36TCq2    C6  552   1.921   2.245  11.854 -0.5685  0.3737 -0.2556
   36TCq2    C7  553   2.044   2.264  11.909  0.5759  0.3083 -0.1803
   36TCq2    C8  554   1.822   2.145  11.913 -0.8511 -0.1448  0.7897
   36TCq2    O4  555   1.708   2.149  11.869  0.2117  0.4428 -0.2344
   36TCq2    C9  556   1.930   2.419  11.532  0.1911  1.1592 -0.0481
   36TCq2    O5  557   2.016   2.488  11.474  0.0066 -0.5810 -0.3451
   36TCq2    O6  558   1.805   2.441  11.530  0.0128 -0.2453  0.0349
   36TCq2    H2  559   2.174   2.399  11.629  0.5651 -0.6104 -0.2660
   36TCq2    H3  560   1.776   2.306  11.713 -0.3867  1.1724  0.7199
   36TCq2    H4  561   2.077   2.221  12.004  1.9061  0.2798 -0.6466
   37TMC2    C1  562   4.423   2.638  11.508 -1.1406 -0.1340  0.0611
   37TMC2    C2  563   4.426   2.759  11.446  0.1587  0.4228  0.2191
   37TMC2    C3  564   4.507   2.786  11.342  0.5880 -0.3235  0.8124
   37TMC2    C4  565   4.510   2.540  11.484  0.0446  0.0616  0.4692
   37TMC2    C5  566   4.585   2.572  11.378  0.5189  0.4057 -0.1918
   37TMC2    C6  567   4.588   2.690  11.303  0.1234  0.3757 -0.1481
   37TMC2     C  568   4.316   2.619  11.600  0.4506 -1.1491  0.2802
   37TMC2     O  569   4.219   2.686  11.569 -0.7088  0.1150  0.8802
   37TMC2     H  570   4.357   2.838  11.474 -0.5722  0.0996 -0.6697
   37TMC2    H1  571   4.496   2.441  11.525 -0.6892  0.0245  0.1328
   37TMC2    H2  572   4.660   2.706  11.224 -1.4894  3.7906 -0.9039
   37TMC2    C7  573   4.699   2.486  11.355 -0.1450 -0.0980  0.8181
   37TMC2    C8  574   4.537   2.927  11.311 -0.8505 -0.2893 -0.2360
   37TMC2    O1  575   0.021   2.480  11.244  0.2384  0.0215 -0.4764
   37TMC2    O2  576   4.461   3.014  11.356  0.2661 -0.7485 -0.0548
   37TMC2    O5  577   4.670   2.953  11.292  0.3940  0.3376 -0.9639
   37TMC2    H5  578   4.717   2.867  11.284  1.1894  0.6558  0.3735
   38MPD2     C  579   4.093   2.407  12.012 -0.7811 -0.2522  0.6760
   38MPD2    C1  580   4.228   2.367  12.004  0.3000 -0.5003  0.2647
   38MPD2    C2  581   4.302   2.410  11.898  0.4858  0.3506 -0.3107
   38MPD2    C3  582   4.249   2.491  11.801 -0.8051 -0.2075 -0.1803
   38MPD2    C4  583   4.120   2.535  11.808  0.5266  0.5683  0.0366
   38MPD2    C5  584   4.049   2.498  11.918 -0.0071  0.7172 -0.2375
   38MPD2     H  585   4.402   2.368  11.908  0.6172  0.6745 -0.2722
   38MPD2    H1  586   4.062   2.591  11.735  2.5561  0.4606 -1.6397
   38MPD2    H2  587   4.028   2.378  12.094 -2.4591  2.5141  0.3397
   38MPD2    H3  588   3.947   2.532  11.933 -0.6116 -0.1426 -2.3722
   38MPD2     N  589   4.342   2.526  11.698 -1.1255 -0.5510 -0.1786
   38MPD2    H5  590   4.437   2.489  11.699 -0.4258  1.1320 -3.1948
   38MPD2    N1  591   4.284   2.290  12.112  0.7185 -0.0765 -0.2931
   38MPD2    H7  592   4.385   2.280  12.104  0.9757  0.7942  1.7420
   39MPD2     C  593   2.791   0.740   1.823  0.0314  0.2396 -0.7378
   39MPD2    C1  594   2.655   0.762   1.846 -0.4264  0.1064 -0.1127
   39MPD2    C2  595   2.568   0.681   1.770  0.3064  0.2144 -0.6487
   39MPD2    C3  596   2.620   0.589   1.676 -0.1886  0.0848  0.3183
   39MPD2    C4  597   2.752   0.564   1.669  1.5095  0.5094  0.7371
   39MPD2    C5  598   2.841   0.646   1.738  0.1984  0.0726 -0.6386
   39MPD2     H  599   2.460   0.687   1.777  0.2317 -1.1169 -0.7206
   39MPD2    H1  600   2.810   0.515   1.591  1.0911 -1.1953  1.4950
   39MPD2    H2  601   2.863   0.789   1.888  2.1305  0.2995 -3.0955
   39MPD2    H3  602   2.948   0.629   1.733  0.5559  1.1251  3.1245
   39MPD2     N  603   2.529   0.509   1.602  0.4829 -0.2021 -0.1420
   39MPD2    H5  604   2.431   0.517   1.626  0.3198 -2.2852 -0.1608
   39MPD2    N1  605   2.612   0.858   1.944  0.4215  0.1319  0.2746
   39MPD2    H7  606   2.692   0.915   1.970 -0.5880  1.9242 -0.6168
   40TCq2    C1  607   2.482   0.885   1.977  0.9491 -0.0381  0.3046
   40TCq2    O2  608   2.381   0.834   1.931  0.3013  0.0251  0.3634
   40TCq2    C2  609   2.470   0.971   2.090 -0.8600  0.6407 -0.5618
   40TCq2    C3  610   2.344   0.995   2.130  0.3832  0.3232 -0.3333
   40TCq2    C4  611   2.326   1.084   2.234  0.0923 -0.2443  0.9535
   40TCq2    C5  612   2.434   1.135   2.298  0.0941 -0.5909  0.8069
   40TCq2    C6  613   2.558   1.114   2.250  0.4299  0.6238  0.1856
   40TCq2    C7  614   2.583   1.030   2.150 -0.1744  0.6346  0.5265
   40TCq2    C8  615   2.668   1.189   2.314 -0.2134 -0.1529 -0.0213
   40TCq2    O4  616   2.650   1.229   2.433  0.1157 -0.1003  0.4498
   40TCq2    C9  617   2.193   1.109   2.284 -0.2873  0.4943 -1.2449
   40TCq2    O5  618   2.189   1.193   2.376 -0.1603 -0.1459  0.0670
   40TCq2    O6  619   2.092   1.048   2.241  0.0673 -0.9520  0.0196
   40TCq2    H2  620   2.259   0.948   2.082 -0.7938  0.3872  1.6824
   40TCq2    H3  621   2.416   1.198   2.384 -0.2538  0.2133  0.1523
   40TCq2    H4  622   2.684   1.003   2.122  0.1179  2.0920  0.1830
   41TMC2    C1  623   1.578   2.742  13.545  0.5598  0.2384 -0.5097
   41TMC2    C2  624   1.654   2.783  13.651  0.0739 -0.2138  0.0164
   41TMC2    C3  625   1.757   2.869  13.625 -0.0530 -0.2506 -0.1557
   41TMC2    C4  626   1.596   2.787  13.419  0.5649  0.4852 -0.0071
   41TMC2    C5  627   1.696   2.878  13.392 -0.2541 -0.5655  0.0412
   41TMC2    C6  628   1.782   2.924  13.495 -0.1225 -0.0216 -0.1889
   41TMC2     C  629   1.460   2.666  13.576  0.5133  0.0595 -1.2425
   41TMC2     O  630   1.402   2.624  13.477 -1.2074 -0.9832 -0.2517
   41TMC2     H  631   1.654   2.725  13.743 -0.1145 -1.1479 -0.5710
   41TMC2    H1  632   1.530   2.752  13.340  0.7783 -2.8353  1.2873
   41TMC2    H2  633   1.872   2.984  13.487 -0.5314  0.4520 -1.1911
   41TMC2    C7  634   1.741   2.898  13.254  0.2920  0.4242  0.8000
   41TMC2    C8  635   1.855   2.900  13.732 -0.1363 -0.0247  0.1613
   41TMC2    O1  636   1.807   3.001  13.242  0.3703 -0.3002 -0.1027
   41TMC2    O2  637   1.970   2.940  13.714  0.7999  0.1745 -0.2207
   41TMC2    O5  638   1.810   2.882  13.854 -0.0989 -0.0225 -0.4395
   41TMC2    H5  639   1.721   2.849  13.880 -0.1183 -1.4402 -2.2522
   42MPD2     C  640   1.214   2.552  13.717 -0.8337 -0.4067 -0.6123
   42MPD2    C1  641   1.299   2.652  13.766 -0.2895  0.0379  0.1012
   42MPD2    C2  642   1.279   2.704  13.890  0.6284  0.6016  0.0867
   42MPD2    C3  643   1.175   2.658  13.969 -0.7531 -0.4274 -0.0044
   42MPD2    C4  644   1.079   2.573  13.917 -0.5400 -0.3063 -0.1537
   42MPD2    C5  645   1.100   2.515  13.790 -0.3948  0.3869  0.8094
   42MPD2     H  646   1.361   2.768  13.921 -0.4499  1.5861  0.9102
   42MPD2    H1  647   0.993   2.535  13.971 -2.2768  1.7285 -1.4846
   42MPD2    H2  648   1.235   2.504  13.622  0.2583 -0.9027 -0.1218
   42MPD2    H3  649   1.026   2.451  13.744  0.0296  1.2443 -1.0624
   42MPD2     N  650   1.165   2.697  14.103 -0.8162  0.2785  0.2952
   42MPD2    H5  651   1.100   2.643  14.159  0.0545 -0.1813  0.8692
   42MPD2    N1  652   1.423   2.672  13.710  0.0263  0.6713 -0.0743
   42MPD2    H7  653   1.473   2.736  13.772 -2.6332  0.4701  2.2848
   43MPD2     C  654   2.706   1.542   0.401  0.5377  0.0004 -0.4051
   43MPD2    C1  655   2.822   1.592   0.456  0.0493 -0.6607 -0.0739
   43MPD2    C2  656   2.814   1.693   0.551 -0.3842 -0.4756 -0.7908
   43MPD2    C3  657   2.699   1.746   0.596 -0.1493  0.5184  0.3188
   43MPD2    C4  658   2.578   1.695   0.544 -0.4903 -0.4147  0.1433
   43MPD2    C5  659   2.587   1.593   0.449 -0.3663 -0.3273 -0.3685
   43MPD2     H  660   2.907   1.731   0.592  0.7446 -2.1647 -1.7979
   43MPD2    H1  661   2.483   1.744   0.558 -0.7247 -0.4590 -1.2775
   43MPD2    H2  662   2.701   1.454   0.337 -1.2105 -1.2344  1.3992
   43MPD2    H3  663   2.491   1.547   0.427 -2.0879  2.4019  1.4254
   43MPD2     N  664   2.696   1.856   0.688 -0.2491 -0.2819 -0.3980
   43MPD2    H5  665   2.608   1.880   0.731  0.6629  3.5580 -0.7062
   43MPD2    N1  666   2.950   1.563   0.407  0.6047 -0.0930  0.4070
   43MPD2    H7  667   3.028   1.612   0.452 -0.4545  1.3936  0.6211
   44TCq2    C1  668   2.523   2.239   0.985  0.7348  0.4119 -0.2884
   44TCq2    O2  669   2.420   2.201   0.924 -0.4903 -0.7610 -0.1560
   44TCq2    C2  670   2.651   2.200   0.928  0.1140 -0.2148  0.5289
   44TCq2    C3  671   2.761   2.264   0.979 -0.8238 -0.3117 -0.5382
   44TCq2    C4  672   2.880   2.212   0.949 -0.7748  0.3676  0.1728
   44TCq2    C5  673   2.894   2.103   0.874  0.7953  0.5429  0.0089
   44TCq2    C6  674   2.785   2.037   0.824  0.0535  0.0823  0.5651
   44TCq2    C7  675   2.657   2.087   0.848 -0.2082 -0.3876  0.5871
   44TCq2    C8  676   2.809   1.922   0.735  0.3652  0.0864  0.3910
   44TCq2    O4  677   2.928   1.896   0.727  0.3079  0.2626  0.0594
   44TCq2    C9  678   2.999   2.287   0.992 -0.4513  0.2171  0.2225
   44TCq2    O5  679   3.113   2.235   0.964  0.1330  0.0110 -0.6081
   44TCq2    O6  680   2.975   2.403   1.035 -0.2622  0.0525  1.1369
   44TCq2    H2  681   2.749   2.363   1.023  0.9612 -0.5616  0.4990
   44TCq2    H3  682   2.995   2.072   0.849  0.2331 -0.6043 -0.8659
   44TCq2    H4  683   2.563   2.050   0.808  0.1764  2.6592 -3.1674
   45TMC2    C1  684   3.906   3.122   9.844 -0.3912 -0.4936  0.4467
   45TMC2    C2  685   4.029   3.174   9.878 -0.4442 -0.2239 -0.1132
   45TMC2    C3  686   4.038   3.309   9.914 -0.8665 -0.6402 -0.2496
   45TMC2    C4  687   3.790   3.192   9.856 -0.3935  0.0955  0.2179
   45TMC2    C5  688   3.800   3.325   9.894  1.1191 -0.6006 -0.4994
   45TMC2    C6  689   3.923   3.380   9.925  0.2400 -0.6169 -0.5031
   45TMC2     C  690   3.903   3.004   9.747  0.4808 -0.0021  0.4527
   45TMC2     O  691   3.993   2.927   9.758 -0.6174  0.2610  0.3043
   45TMC2     H  692   4.124   3.125   9.862  0.0071  0.7100 -0.2741
   45TMC2    H1  693   3.697   3.146   9.824 -2.5100  2.4005  2.9745
   45TMC2    H2  694   3.929   3.487   9.942 -0.2778 -0.2917 -2.3440
   45TMC2    C7  695   3.683   3.402   9.922 -0.1516 -0.0046 -0.6570
   45TMC2    C8  696   4.172   3.362   9.928 -0.3502  0.5514 -0.7580
   45TMC2    O1  697   3.578   3.346   9.893  0.1288 -0.2336 -0.0015
   45TMC2    O2  698   4.261   3.294   9.967 -0.5174 -0.5892  0.0963
   45TMC2    O5  699   4.183   3.473   9.847 -0.5377 -0.4943 -0.1095
   45TMC2    H5  700   4.106   3.501   9.793 -1.6944 -3.6042 -0.0705
   46MPD2     C  701   3.857   2.798   9.558  0.9778  0.2787  0.0500
   46MPD2    C1  702   3.778   2.910   9.563 -0.3997  1.0631  0.4601
   46MPD2    C2  703   3.675   2.922   9.474  0.1874  0.0969 -0.0311
   46MPD2    C3  704   3.648   2.820   9.384  0.1187 -0.2150 -0.5138
   46MPD2    C4  705   3.730   2.705   9.386  0.6062  0.0154 -0.3471
   46MPD2    C5  706   3.842   2.698   9.465  0.9212  0.3629 -0.1780
   46MPD2     H  707   3.613   3.010   9.485 -3.1919 -2.5944  2.7119
   46MPD2    H1  708   3.721   2.630   9.308 -0.3797 -0.4401  0.1901
   46MPD2    H2  709   3.954   2.790   9.605  0.3267 -1.5150  1.0724
   46MPD2    H3  710   3.912   2.617   9.445 -0.6145 -1.2992  1.1686
   46MPD2     N  711   3.535   2.832   9.302 -0.2456  0.7706 -0.5936
   46MPD2    H5  712   3.483   2.919   9.307 -0.4859  0.5543  0.6902
   46MPD2    N1  713   3.806   3.014   9.649 -0.3845  0.8378 -0.5420
   46MPD2    H7  714   3.749   3.098   9.643 -1.7197 -0.0603 -0.4016
   47TMC2    C1  715   1.579   3.913   9.461 -0.2286 -0.5428 -0.0992
   47TMC2    C2  716   1.503   4.022   9.425 -0.4487  0.1887 -0.1877
   47TMC2    C3  717   1.418   4.004   9.316 -0.7728  0.0332  0.0015
   47TMC2    C4  718   1.573   3.791   9.401 -0.2224 -0.1660 -0.7787
   47TMC2    C5  719   1.485   3.787   9.296 -0.2078  0.0983 -0.1321
   47TMC2    C6  720   1.414   3.891   9.238  0.6430 -0.4210 -0.1115
   47TMC2     C  721   1.650   3.926   9.589 -0.4592 -0.4830  0.9266
   47TMC2     O  722   1.621   4.022   9.662  0.0142 -0.2588 -0.0507
   47TMC2     H  723   1.524   4.120   9.467  0.5689 -0.7241  1.4135
   47TMC2    H1  724   1.629   3.704   9.433  0.4494  0.9335  1.0725
   47TMC2    H2  725   1.370   3.889   9.139  0.1699  2.0340  0.0515
   47TMC2    C7  726   1.501   3.666   9.222  0.7684  0.1003 -0.2409
   47TMC2    C8  727   1.344   4.107   9.258  0.2265 -0.4874  0.1447
   47TMC2    O1  728   1.613   3.613   9.228  0.5397  0.0491  0.0463
   47TMC2    O2  729   1.324   4.114   9.136 -0.1962  0.4604 -0.7632
   47TMC2    O5  730   1.324   4.198   9.357 -0.2509 -0.1755 -0.7303
   47TMC2    H5  731   1.325   4.169   9.451  1.0542 -0.5238 -0.8436
   48MPD2     C  732   1.779   3.857   9.853 -0.2684  0.4788 -0.4460
   48MPD2    C1  733   1.789   3.782   9.733 -1.1399 -0.0445  0.5666
   48MPD2    C2  734   1.851   3.659   9.736  0.6039 -0.3254  1.1116
   48MPD2    C3  735   1.915   3.623   9.857  0.3272  0.5199  0.0360
   48MPD2    C4  736   1.906   3.701   9.969  0.9506 -0.3999  0.3294
   48MPD2    C5  737   1.842   3.818   9.967  0.2324  0.1077  0.5807
   48MPD2     H  738   1.868   3.605   9.643 -0.4697  2.6556 -0.8132
   48MPD2    H1  739   1.962   3.677  10.058 -1.7935  0.6044  2.2940
   48MPD2    H2  740   1.738   3.958   9.854  0.5258  0.8470 -3.3398
   48MPD2    H3  741   1.833   3.882  10.054 -2.0777 -1.0315  1.1689
   48MPD2     N  742   1.995   3.508   9.849  0.7977 -0.0900 -0.5015
   48MPD2    H5  743   1.992   3.460   9.759 -1.5321 -0.3298 -0.2929
   48MPD2    N1  744   1.732   3.824   9.608  0.0019  0.4813  0.4337
   48MPD2    H7  745   1.739   3.762   9.528  2.8585 -0.8472  1.7471
   49MPD2     C  746   3.705   0.748   9.728 -0.4090  0.1791  0.3908
   49MPD2    C1  747   3.646   0.731   9.854  0.0526  0.1759 -0.6757
   49MPD2    C2  748   3.680   0.816   9.956  0.6184 -0.5246  0.2208
   49MPD2    C3  749   3.768   0.922   9.926 -0.2808  0.3522  0.8240
   49MPD2    C4  750   3.819   0.941   9.800  0.1193 -0.1949  0.3536
   49MPD2    C5  751   3.781   0.848   9.699  0.2347 -0.5669 -0.4476
   49MPD2     H  752   3.638   0.795  10.054  0.3235 -0.3010  0.1431
   49MPD2    H1  753   3.876   1.029   9.770  0.9926 -0.2336  1.8858
   49MPD2    H2  754   3.690   0.678   9.647  0.5960 -1.1561  1.3458
   49MPD2    H3  755   3.822   0.856   9.599  2.9559 -1.8460  0.5661
   49MPD2     N  756   3.816   1.009  10.023  1.0267  0.1629  0.4120
   49MPD2    H5  757   3.885   1.080   9.997 -0.0777  0.0474 -2.8476
   49MPD2    N1  758   3.551   0.631   9.885 -0.0840  0.3068  0.0071
   49MPD2    H7  759   3.527   0.618   9.983  3.4396 -0.2620  0.7924
   50TCq2    C1  760   3.461   0.577   9.795  0.1752 -0.5150  0.3922
   50TCq2    O2  761   3.443   0.603   9.678  0.2713  0.1540  0.5400
   50TCq2    C2  762   3.379   0.465   9.855  0.0435 -0.1395 -0.0269
   50TCq2    C3  763   3.269   0.425   9.784 -0.5133  0.2016  0.0485
   50TCq2    C4  764   3.185   0.327   9.829 -0.2745 -0.0937  0.0765
   50TCq2    C5  765   3.206   0.278   9.957  0.1459  0.0410 -1.0124
   50TCq2    C6  766   3.323   0.306  10.018 -0.3063  0.3159  0.5021
   50TCq2    C7  767   3.412   0.401   9.974  0.2869 -0.2759 -0.1317
   50TCq2    C8  768   3.350   0.252  10.152 -0.5437 -0.1967 -0.6644
   50TCq2    O4  769   3.442   0.294  10.224  0.1401 -0.1210 -0.4784
   50TCq2    C9  770   3.063   0.286   9.767  0.2746 -0.3332  0.2121
   50TCq2    O5  771   3.069   0.297   9.644 -0.2300  0.3883 -0.2861
   50TCq2    O6  772   2.982   0.216   9.834  0.1512 -0.2355 -0.2394
   50TCq2    H2  773   3.243   0.474   9.690 -2.2994 -2.4295 -0.8253
   50TCq2    H3  774   3.131   0.222  10.011  1.1577  0.5917  0.9792
   50TCq2    H4  775   3.502   0.432  10.025  0.2498 -1.0268  0.3838
   51MPD2     C  776   4.187   4.328   0.820 -0.1315  0.4920 -0.0325
   51MPD2    C1  777   4.277   4.225   0.851  0.6082  0.5494 -0.0528
   51MPD2    C2  778   4.338   4.225   0.978 -0.5474  0.0600  0.1236
   51MPD2    C3  779   4.307   4.310   1.073  0.0492  0.3447 -0.0615
   51MPD2    C4  780   4.223   4.415   1.043 -0.0242 -0.7396  0.8346
   51MPD2    C5  781   4.165   4.427   0.914 -0.2050  0.7732 -0.1132
   51MPD2     H  782   4.394   4.135   1.000  2.8309  2.1495  0.1055
   51MPD2    H1  783   4.188   4.484   1.119 -0.3793  0.8336 -0.7581
   51MPD2    H2  784   4.146   4.349   0.722  0.8163 -0.6046 -0.6736
   51MPD2    H3  785   4.100   4.512   0.901 -2.6490 -1.4399 -2.1111
   51MPD2     N  786   4.354   4.302   1.207  0.5030 -0.1612  0.2002
   51MPD2    H5  787   4.329   4.384   1.261  1.3458  0.2141  0.0405
   51MPD2    N1  788   4.327   4.136   0.748  0.5193 -0.6611 -0.3091
   51MPD2    H7  789   4.407   4.075   0.763 -0.3162 -1.9247 -1.0094
   52TCq2    C1  790   4.451   4.220   1.258 -0.1020  0.1878  0.1621
   52TCq2    O2  791   4.502   4.115   1.219 -0.7602  0.0306 -0.2617
   52TCq2    C2  792   4.498   4.263   1.386 -0.9130  0.5799  0.3567
   52TCq2    C3  793   4.413   4.338   1.464  0.0006  0.0814 -0.7245
   52TCq2    C4  794   4.457   4.378   1.583  0.1541 -0.0839 -0.4003
   52TCq2    C5  795   4.584   4.348   1.626  0.4143  0.6162  0.7911
   52TCq2    C6  796   4.663   4.272   1.546  0.4105 -0.1900 -0.9187
   52TCq2    C7  797   4.623   4.228   1.423  0.2930  0.7844 -0.0212
   52TCq2    C8  798   0.074   4.249   1.602  0.4403 -0.2685  0.5383
   52TCq2    O4  799   0.104   4.311   1.705  0.0155 -0.1439  0.4095
   52TCq2    C9  800   4.371   4.454   1.665 -0.2929 -0.4979  0.6575
   52TCq2    O5  801   4.285   4.522   1.605 -0.6010  0.1406  0.2575
   52TCq2    O6  802   4.404   4.472   1.783  0.0108 -0.9583 -0.3053
   52TCq2    H2  803   4.307   4.343   1.442 -0.0959 -2.1485 -0.7975
   52TCq2    H3  804   4.614   4.385   1.723  0.7819  0.7573  0.6227
   52TCq2    H4  805   4.685   4.167   1.358  0.7889 -1.3040  2.3962
   53TMC2    C1  806   0.539   2.368  11.950  0.0574  0.0773  0.1041
   53TMC2    C2  807   0.643   2.445  11.995  0.0689 -0.3229 -0.1066
   53TMC2    C3  808   0.638   2.485  12.121  0.1144 -0.1185 -0.2386
   53TMC2    C4  809   0.425   2.357  12.025 -0.5471  0.5666  0.3688
   53TMC2    C5  810   0.424   2.404  12.154 -0.2243 -0.0449  0.0115
   53TMC2    C6  811   0.533   2.471  12.206  0.4202 -0.2542  0.0707
   53TMC2     C  812   0.524   2.341  11.808 -0.1690 -0.4279 -0.0727
   53TMC2     O  813   0.624   2.333  11.736 -0.3833 -0.1246 -0.1772
   53TMC2     H  814   0.737   2.438  11.943 -0.7854 -1.5791 -1.4560
   53TMC2    H1  815   0.346   2.290  11.993 -0.6793  1.3746 -0.9808
   53TMC2    H2  816   0.536   2.512  12.306  2.2243 -1.4379  0.4967
   53TMC2    C7  817   0.296   2.436  12.207  0.4113  0.5656  0.6710
   53TMC2    C8  818   0.762   2.502  12.195 -0.1032  0.4493  0.2206
   53TMC2    O1  819   0.215   2.449  12.122  0.7488 -0.5075  0.2689
   53TMC2    O2  820   0.776   2.475  12.313  0.7794 -0.3835 -0.1978
   53TMC2    O5  821   0.839   2.589  12.121 -0.0632  0.1452 -0.2610
   53TMC2    H5  822   0.787   2.628  12.047  1.2392  0.1804 -1.1579
   54MPD2     C  823   0.409   2.293  11.526  0.3326  0.5924  0.5681
   54MPD2    C1  824   0.339   2.346  11.635  0.0944 -0.4514  0.2120
   54MPD2    C2  825   0.216   2.397  11.623  0.7447 -0.4582 -0.6151
   54MPD2    C3  826   0.162   2.406  11.494 -0.1026  0.6265 -0.0488
   54MPD2    C4  827   0.229   2.359  11.383 -0.4754 -0.5243 -0.9705
   54MPD2    C5  828   0.359   2.304  11.400 -0.6558 -0.5785  0.7788
   54MPD2     H  829   0.167   2.437  11.711  1.6319 -1.1120  0.1778
   54MPD2    H1  830   0.201   2.359  11.279 -0.2134  1.3988 -1.0440
   54MPD2    H2  831   0.499   2.232  11.539  0.3952  0.1495 -1.9512
   54MPD2    H3  832   0.410   2.266  11.312 -0.9143  1.4905 -0.2727
   54MPD2     N  833   0.029   2.453  11.479 -0.1512 -1.2739  0.3149
   54MPD2    H5  834   4.698   2.472  11.563 -0.3138  1.4475 -0.3906
   54MPD2    N1  835   0.394   2.351  11.769  0.3139 -0.2808 -1.0092
   54MPD2    H7  836   0.329   2.390  11.836  2.7050 -2.2533  2.4432
   55MPD2     C  837   0.914   0.512   0.742 -0.1148  0.7191  0.4900
   55MPD2    C1  838   0.801   0.451   0.798  0.0901  0.1100  0.3599
   55MPD2    C2  839   0.682   0.515   0.796 -0.6222  0.1366 -0.4810
   55MPD2    C3  840   0.677   0.641   0.742  0.6755 -1.0281  0.6825
   55MPD2    C4  841   0.793   0.705   0.684 -0.1355 -0.5223 -0.0399
   55MPD2    C5  842   0.911   0.637   0.687  0.4827  0.0476  0.7286
   55MPD2     H  843   0.595   0.467   0.840  0.5676 -2.1712 -0.6941
   55MPD2    H1  844   0.786   0.801   0.635  3.6032 -0.6500 -0.7934
   55MPD2    H2  845   1.011   0.464   0.746  0.1884  1.2620 -0.4181
   55MPD2    H3  846   0.996   0.691   0.646  0.1151 -0.7823 -1.1066
   55MPD2     N  847   0.547   0.702   0.730 -0.6047  1.1311 -0.2633
   55MPD2    H5  848   0.471   0.640   0.755 -0.1046  0.2270 -0.9734
   55MPD2    N1  849   0.817   0.320   0.855 -0.1928 -0.0656  0.4470
   55MPD2    H7  850   0.913   0.290   0.867 -0.9069 -2.1731  0.7751
   56TCq2    C1  851   0.721   0.234   0.903 -0.0464  0.9551  0.0046
   56TCq2    O2  852   0.600   0.236   0.883 -0.1243 -0.0036  0.1850
   56TCq2    C2  853   0.779   0.107   0.952 -0.4552  0.2467 -0.4264
   56TCq2    C3  854   0.914   0.077   0.944  0.0926 -0.5155 -0.0521
   56TCq2    C4  855   0.952   4.672   0.973  0.2563 -0.0900 -0.0938
   56TCq2    C5  856   0.870   4.577   1.014  0.2762  0.3276 -0.2095
   56TCq2    C6  857   0.742   4.615   1.044  0.3678 -0.1957  0.6754
   56TCq2    C7  858   0.696   0.016   1.006 -0.1136  0.2227 -0.4734
   56TCq2    C8  859   0.650   4.517   1.088 -0.0072 -0.4514  0.8066
   56TCq2    O4  860   0.696   4.402   1.103 -0.7526 -0.4411  0.2459
   56TCq2    C9  861   1.089   4.640   0.943  0.0193  1.0954 -0.1277
   56TCq2    O5  862   1.161   4.723   0.892  0.4528 -0.0201 -0.4758
   56TCq2    O6  863   1.126   4.525   0.977 -0.0094  0.3974  0.1250
   56TCq2    H2  864   0.985   0.151   0.908 -1.1377  0.8545  0.2979
   56TCq2    H3  865   0.901   4.474   1.033  1.9519  0.8154 -0.2448
   56TCq2    H4  866   0.592   0.044   1.017 -0.7140 -1.1910 -2.5887
   57TMC2    C1  867   0.206   1.679  13.664  0.2179 -0.2699 -0.0874
   57TMC2    C2  868   0.264   1.563  13.710  0.2302  0.5325  0.1184
   57TMC2    C3  869   0.371   1.520  13.635  0.2461  0.4841 -0.5239
   57TMC2    C4  870   0.248   1.744  13.548 -0.5674 -0.2244 -0.5092
   57TMC2    C5  871   0.360   1.700  13.491  0.6294  0.0082 -0.0889
   57TMC2    C6  872   0.420   1.581  13.520  0.2646 -0.0520  0.2288
   57TMC2     C  873   0.072   1.709  13.711  0.8641 -0.2547 -0.0367
   57TMC2     O  874   0.024   1.822  13.690 -0.1647 -0.3687 -0.4337
   57TMC2     H  875   0.237   1.516  13.803  0.3327  2.3053  1.0321
   57TMC2    H1  876   0.186   1.831  13.527 -2.7854 -1.9556 -1.1863
   57TMC2    H2  877   0.508   1.535  13.475  0.1624 -1.7623  1.7588
   57TMC2    C7  878   0.378   1.748  13.354 -0.4031  0.6849  0.3551
   57TMC2    C8  879   0.439   1.391  13.676 -0.9758  0.3266  0.5480
   57TMC2    O1  880   0.363   1.869  13.335 -0.3766  0.2054 -0.1117
   57TMC2    O2  881   0.521   1.382  13.766  0.5663  0.0979 -0.0149
   57TMC2    O5  882   0.405   1.302  13.586  0.7750  0.0439 -0.5049
   57TMC2    H5  883   0.328   1.339  13.538  1.2622 -0.1311 -1.4175
   58MPD2     C  884   4.372   1.507  13.900 -0.0108  0.0586  0.0638
   58MPD2    C1  885   4.396   1.637  13.867  0.5229  0.6235 -0.3116
   58MPD2    C2  886   4.522   1.665  13.819  0.9651  0.0223  0.3682
   58MPD2    C3  887   4.608   1.562  13.784  0.1521 -0.3293 -0.0738
   58MPD2    C4  888   4.568   1.433  13.797 -0.0612  0.1745  0.3084
   58MPD2    C5  889   4.452   1.403  13.863  0.1832 -0.7203 -0.9238
   58MPD2     H  890   4.548   1.768  13.796 -0.4700  0.1118 -0.8166
   58MPD2    H1  891   4.638   1.352  13.783  0.9293  0.8656  1.2587
   58MPD2    H2  892   4.290   1.487  13.968  0.2086  2.5743  1.0701
   58MPD2    H3  893   4.419   1.305  13.896  0.2715 -0.4109  0.0911
   58MPD2     N  894   0.016   1.589  13.737 -0.1511 -0.1119  0.4587
   58MPD2    H5  895   0.067   1.511  13.697  0.0672 -0.0501  0.6184
   58MPD2    N1  896   4.313   1.739  13.905  1.1625 -0.5724  0.5388
   58MPD2    H7  897   4.349   1.834  13.905  0.3552 -0.2664 -0.7691
   59MPD2     C  898   2.377   1.601  12.963  0.4345  0.0150 -0.0166
   59MPD2    C1  899   2.340   1.604  13.091  0.5850 -0.2951  0.1497
   59MPD2    C2  900   2.436   1.611  13.190  0.1473  0.7763  0.2263
   59MPD2    C3  901   2.568   1.615  13.159 -0.2365  0.7792 -0.8304
   59MPD2    C4  902   2.598   1.611  13.023 -0.5374  0.4608 -0.3652
   59MPD2    C5  903   2.507   1.600  12.927 -0.1966 -0.3652  0.1531
   59MPD2     H  904   2.404   1.602  13.293  1.7888 -1.3114  0.5677
   59MPD2    H1  905   2.702   1.614  12.994 -0.1535  0.5440  1.0418
   59MPD2    H2  906   2.308   1.581  12.882  0.5448  0.1824 -0.1527
   59MPD2    H3  907   2.537   1.593  12.824  0.9883  0.7144  0.4307
   59MPD2     N  908   2.677   1.629  13.245  0.6654  0.5593  0.1084
   59MPD2    H5  909   2.767   1.633  13.199  0.2332 -0.8227 -0.8547
   59MPD2    N1  910   2.199   1.596  13.134 -0.0155 -0.1215 -0.2505
   59MPD2    H7  911   2.180   1.593  13.233 -0.3727 -1.4041 -0.3489
   60TCq2    C1  912   2.098   1.602  13.044  0.0884 -0.6948  0.8466
   60TCq2    O2  913   2.099   1.598  12.922 -0.6249 -0.3690 -0.2704
   60TCq2    C2  914   1.973   1.618  13.113 -0.1709  0.9731 -0.2122
   60TCq2    C3  915   1.952   1.563  13.240  0.1460 -0.0101  0.5422
   60TCq2    C4  916   1.830   1.582  13.299 -0.7603 -0.3168 -0.2954
   60TCq2    C5  917   1.740   1.666  13.238  0.0250  0.4082 -0.2398
   60TCq2    C6  918   1.778   1.730  13.117 -0.0805 -0.0431 -0.2927
   60TCq2    C7  919   1.889   1.703  13.051  1.3898  0.0138 -0.2253
   60TCq2    C8  920   1.707   1.854  13.085  0.6616 -0.6456  1.1988
   60TCq2    O4  921   1.587   1.864  13.115  0.1899  0.0776  0.3962
   60TCq2    C9  922   1.807   1.521  13.425  0.1832 -0.1620  0.3275
   60TCq2    O5  923   1.848   1.407  13.448 -0.1582 -0.2586  0.0615
   60TCq2    O6  924   1.716   1.569  13.499 -0.5165 -0.4139  0.1791
   60TCq2    H2  925   2.024   1.490  13.278 -0.5201 -1.5586 -1.1536
   60TCq2    H3  926   1.648   1.694  13.288 -0.1974 -1.1839  0.2404
   60TCq2    H4  927   1.916   1.748  12.956  1.6696  0.8751  0.2608
   61MPD2     C  928   1.443   3.375  14.852 -0.2221  0.3678  0.0418
   61MPD2    C1  929   1.537   3.484  14.876 -0.9132 -0.1118  0.1946
   61MPD2    C2  930   1.641   3.504  14.781 -0.3223 -0.0569  0.1074
   61MPD2    C3  931   1.645   3.434  14.663 -0.0516 -0.3425  1.0575
   61MPD2    C4  932   1.548   3.329  14.642 -0.7888  0.2643 -0.7193
   61MPD2    C5  933   1.453   3.300  14.737 -0.0072  0.0262  0.3658
   61MPD2     H  934   1.715   3.581  14.799 -0.7855 -0.0493  1.9348
   61MPD2    H1  935   1.547   3.257  14.561  1.1554 -2.1226  1.3428
   61MPD2    H2  936   1.371   3.335  14.922  0.5444  2.5249  2.0732
   61MPD2    H3  937   1.399   3.206  14.731  1.3645 -0.6589 -1.3178
   61MPD2     N  938   1.749   3.472  14.573  0.5921 -0.1127 -0.0319
   61MPD2    H5  939   1.802   3.555  14.596  2.3887 -1.0071 -0.9493
   61MPD2    N1  940   1.538   3.562  14.994  0.0373 -0.2653  0.0224
   61MPD2    H7  941   1.607   3.634  15.013  0.1004 -0.1763 -0.5452
   62TCq2    C1  942   1.451   3.540  15.098  0.5732  0.2363 -0.1412
   62TCq2    O2  943   1.343   3.475  15.102  0.2413 -0.1625  0.2127
   62TCq2    C2  944   1.507   3.585  15.223  0.8128  0.4331 -0.3944
   62TCq2    C3  945   1.514   3.481  15.319  0.2827 -0.1732 -0.4376
   62TCq2    C4  946   1.612   3.496  15.412  0.7955 -0.1201 -0.0196
   62TCq2    C5  947   1.709   3.593  15.402  0.3166  0.0808  0.2683
   62TCq2    C6  948   1.692   3.690  15.304 -0.9844 -0.6193 -0.4336
   62TCq2    C7  949   1.594   3.690  15.211  0.3409 -0.4420 -0.9058
   62TCq2    C8  950   1.765   3.813  15.320 -0.1612 -0.4460 -0.1561
   62TCq2    O4  951   1.750   3.897  15.232 -0.2104  0.4538  0.1251
   62TCq2    C9  952   1.641   3.387  15.503 -0.0941 -0.9784 -0.3458
   62TCq2    O5  953   1.637   3.277  15.440 -0.1152  0.3890 -0.4939
   62TCq2    O6  954   1.686   3.415  15.616  0.0256  0.2487  0.2539
   62TCq2    H2  955   1.449   3.394  15.315 -0.1994  0.1239  0.8001
   62TCq2    H3  956   1.795   3.598  15.468  0.6224  0.2411 -0.1396
   62TCq2    H4  957   1.575   3.772  15.144  2.4336 -1.7265 -3.0518
   63TMC2    C1  958   1.782   3.452  10.660 -0.0086 -0.2109  0.1431
   63TMC2    C2  959   1.851   3.468  10.777 -0.9033  0.8469  0.1212
   63TMC2    C3  960   1.914   3.591  10.795  0.3048  0.0237  0.1895
   63TMC2    C4  961   1.770   3.548  10.565 -0.1924 -0.4136 -0.3496
   63TMC2    C5  962   1.820   3.671  10.599  0.1677  0.0786  0.1449
   63TMC2    C6  963   1.900   3.697  10.706 -0.1880  0.5787  0.5328
   63TMC2     C  964   1.726   3.315  10.635  0.2652 -0.1910 -0.5584
   63TMC2     O  965   1.784   3.220  10.691  0.4170  0.2520 -0.0300
   63TMC2     H  966   1.850   3.383  10.845 -0.3670  1.4885  0.9311
   63TMC2    H1  967   1.719   3.530  10.471 -0.5796 -0.1469 -0.1919
   63TMC2    H2  968   1.946   3.792  10.730  0.7369  0.3341 -0.2689
   63TMC2    C7  969   1.789   3.765  10.495  0.4371 -0.3241 -0.0387
   63TMC2    C8  970   1.979   3.626  10.924 -0.2550  0.4260 -0.1580
   63TMC2    O1  971   1.737   3.723  10.399 -0.0876 -0.0528 -0.0822
   63TMC2    O2  972   2.042   3.726  10.949  0.3846 -0.2739 -0.7163
   63TMC2    O5  973   1.918   3.541  11.012  0.0819  0.4297 -0.1594
   63TMC2    H5  974   1.873   3.465  10.970 -0.4933 -0.1475  1.5081
   64MPD2     C  975   1.428   3.023  10.347 -0.2390  0.6715 -0.0431
   64MPD2    C1  976   1.516   2.984  10.448  0.4405 -0.1749 -0.3556
   64MPD2    C2  977   1.574   3.082  10.527 -0.0679  0.4412  0.7378
   64MPD2    C3  978   1.550   3.215  10.496  0.1593 -0.9449 -0.2907
   64MPD2    C4  979   1.455   3.251  10.408 -0.2915 -0.3098  0.2089
   64MPD2    C5  980   1.406   3.153  10.327 -0.3547  0.4700 -0.6173
   64MPD2     H  981   1.643   3.047  10.603 -1.1686  0.5654  1.8021
   64MPD2    H1  982   1.429   3.355  10.395 -0.3351 -0.4835 -1.0343
   64MPD2    H2  983   1.385   2.961  10.269  1.4668  0.4692 -0.8148
   64MPD2    H3  984   1.336   3.173  10.247  1.8232 -0.9668 -2.8810
   64MPD2     N  985   1.622   3.320  10.550 -0.5321 -0.5112 -0.2929
   64MPD2    H5  986   1.578   3.411  10.535 -1.6182 -0.9814  0.0989
   64MPD2    N1  987   1.546   2.853  10.477  0.4473 -0.5913 -0.1462
   64MPD2    H7  988   1.593   2.831  10.564  1.6430 -0.3236 -0.7113
   65MPD2     C  989   2.428   2.598  16.021  0.4217 -0.6715 -0.4676
   65MPD2    C1  990   2.480   2.556  15.904 -0.3152 -0.3471  0.0593
   65MPD2    C2  991   2.501   2.421  15.900 -0.0091  0.3395  0.2236
   65MPD2    C3  992   2.478   2.330  16.002  0.0002  0.2207 -0.6062
   65MPD2    C4  993   2.424   2.381  16.113  0.1040  0.2642  0.0832
   65MPD2    C5  994   2.402   2.516  16.128  0.1552  0.2677  0.1772
   65MPD2     H  995   2.533   2.376  15.807  0.2570  0.2792  0.3424
   65MPD2    H1  996   2.411   2.318  16.200 -0.0739  0.6937  0.3700
   65MPD2    H2  997   2.422   2.706  16.034  1.6749 -0.3675 -2.3793
   65MPD2    H3  998   2.356   2.562  16.215  0.4243  1.1870 -0.1684
   65MPD2     N  999   2.489   2.189  15.995  0.2887  0.0773 -0.3733
   65MPD2    H5 1000   2.470   2.140  16.082  4.2735  2.5133  1.8978
   65MPD2    N1 1001   2.501   2.637  15.794  0.6303  0.1847  0.6826
   65MPD2    H7 1002   2.524   2.589  15.708  0.2693  2.2374 -0.5531
   66TCq2    C1 1003   2.507   2.775  15.791  0.4141 -0.1808 -1.0679
   66TCq2    O2 1004   2.485   2.852  15.885  0.3273 -0.5009  0.4510
   66TCq2    C2 1005   2.535   2.827  15.658  0.3479 -0.0319  0.3547
   66TCq2    C3 1006   2.603   2.750  15.559  0.5808 -0.0657 -0.5559
   66TCq2    C4 1007   2.623   2.806  15.440 -0.5839 -0.3670 -0.0940
   66TCq2    C5 1008   2.573   2.932  15.414  0.6791  0.1466 -0.0576
   66TCq2    C6 1009   2.508   3.006  15.510  0.6724 -0.1515  0.2053
   66TCq2    C7 1010   2.484   2.954  15.631 -0.0580 -0.3253 -0.3556
   66TCq2    C8 1011   2.471   3.143  15.480  0.5011 -0.7074 -0.1357
   66TCq2    O4 1012   2.461   3.173  15.359 -0.0003 -0.2091 -0.5484
   66TCq2    C9 1013   2.697   2.732  15.340 -0.1380 -0.1573  0.2646
   66TCq2    O5 1014   2.764   2.632  15.357  0.0843  0.2158 -0.2483
   66TCq2    O6 1015   2.657   2.759  15.225 -0.3442 -0.2204 -0.5801
   66TCq2    H2 1016   2.640   2.651  15.581  0.4113 -0.0034  0.0138
   66TCq2    H3 1017   2.595   2.981  15.320 -0.2751 -0.6150 -0.6737
   66TCq2    H4 1018   2.433   3.006  15.711  1.8010  0.6939  0.1745
   67MPD2     C 1019   2.751   2.165  14.344  0.5060  0.2200 -0.5194
   67MPD2    C1 1020   2.692   2.254  14.431 -0.1305  0.3467 -0.5302
   67MPD2    C2 1021   2.567   2.302  14.397  0.9163 -0.1291  0.1078
   67MPD2    C3 1022   2.513   2.282  14.270  0.3139 -0.2358  0.1198
   67MPD2    C4 1023   2.578   2.198  14.185 -0.0849 -0.0815  0.2587
   67MPD2    C5 1024   2.697   2.138  14.223 -0.4879  0.3568  0.2433
   67MPD2     H 1025   2.514   2.374  14.459 -1.4964 -0.7879 -1.1992
   67MPD2    H1 1026   2.542   2.171  14.086 -0.5063  0.0000  0.3885
   67MPD2    H2 1027   2.845   2.111  14.350  0.6500  0.4448 -0.7537
   67MPD2    H3 1028   2.755   2.084  14.150 -0.5208  0.4768  0.1277
   67MPD2     N 1029   2.387   2.338  14.236 -0.3051 -0.1433  0.2351
   67MPD2    H5 1030   2.351   2.329  14.141  0.0898  0.2689  0.0500
   67MPD2    N1 1031   2.760   2.294  14.552 -0.3465 -0.3608  0.0733
   67MPD2    H7 1032   2.713   2.359  14.615 -0.2055 -0.3671  0.1868
   68TCq2    C1 1033   2.886   2.252  14.594  0.1255  0.3730  0.0406
   68TCq2    O2 1034   2.974   2.184  14.531  0.2748  0.2137 -0.2878
   68TCq2    C2 1035   2.927   2.320  14.716 -0.1778  0.2223 -0.0170
   68TCq2    C3 1036   2.865   2.435  14.750 -0.0963  0.2680 -0.4544
   68TCq2    C4 1037   2.887   2.485  14.874 -0.1489  1.3119  0.0616
   68TCq2    C5 1038   2.973   2.425  14.965 -0.2314  0.4918 -0.3666
   68TCq2    C6 1039   3.032   2.307  14.929  0.0461 -0.2371 -0.0900
   68TCq2    C7 1040   3.014   2.247  14.801 -0.0384 -0.9320 -0.8061
   68TCq2    C8 1041   3.122   2.244  15.019  0.9967 -0.9274  0.7063
   68TCq2    O4 1042   3.186   2.146  14.977  0.0057 -0.2496  0.7311
   68TCq2    C9 1043   2.836   2.615  14.917 -0.4013 -0.0788 -0.3594
   68TCq2    O5 1044   2.774   2.684  14.835  0.2768  0.2149  0.5181
   68TCq2    O6 1045   2.825   2.635  15.042 -0.6127  0.3040  0.3259
   68TCq2    H2 1046   2.807   2.495  14.681 -0.5842  0.0877 -0.1981
   68TCq2    H3 1047   2.994   2.476  15.058 -2.5160 -0.4737  0.6796
   68TCq2    H4 1048   3.054   2.149  14.780  1.4863 -0.6863  0.9414
   69TMC2    C1 1049   3.863   3.166  12.112 -0.3137 -0.0143 -0.3745
   69TMC2    C2 1050   3.759   3.257  12.144 -0.6763 -0.0759 -0.2810
   69TMC2    C3 1051   3.736   3.355  12.057 -0.3858 -0.6211  0.7153
   69TMC2    C4 1052   3.939   3.180  11.996  0.2974 -0.1612 -0.3424
   69TMC2    C5 1053   3.908   3.281  11.906  0.4704 -0.9091 -0.2790
   69TMC2    C6 1054   3.803   3.371  11.937 -0.0422 -0.6077  0.8034
   69TMC2     C 1055   3.918   3.091  12.224 -0.0576 -0.8835  0.8643
   69TMC2     O 1056   3.850   3.085  12.327 -0.2207 -0.1557  0.5440
   69TMC2     H 1057   3.700   3.244  12.234 -1.4367  1.7434 -0.5121
   69TMC2    H1 1058   4.018   3.111  11.968 -0.6553 -2.2723  2.2681
   69TMC2    H2 1059   3.784   3.458  11.875  1.0649 -1.5059 -0.7831
   69TMC2    C7 1060   4.012   3.308  11.817  0.0565 -0.1217  0.5460
   69TMC2    C8 1061   3.657   3.472  12.105 -0.1257 -0.1325 -0.1345
   69TMC2    O1 1062   4.116   3.251  11.836  0.0194  0.6090 -0.0431
   69TMC2    O2 1063   3.666   3.586  12.072  0.1597 -0.8876  0.2328
   69TMC2    O5 1064   3.569   3.438  12.205  0.1965 -0.0089 -0.2199
   69TMC2    H5 1065   3.557   3.341  12.213 -2.0061  0.2078 -1.0052
   70MPD2     C 1066   4.280   3.044  12.282 -0.2692  0.9532  0.4906
   70MPD2    C1 1067   4.144   3.034  12.303  0.3907  0.7014  0.1883
   70MPD2    C2 1068   4.105   2.964  12.421 -0.5872 -0.7916  0.5009
   70MPD2    C3 1069   4.196   2.906  12.509 -0.1603  0.3550 -0.2225
   70MPD2    C4 1070   4.332   2.921  12.481  0.3724 -0.0399  0.0554
   70MPD2    C5 1071   4.370   2.982  12.367 -0.4746  0.4658 -1.1173
   70MPD2     H 1072   4.005   2.928  12.439  0.8666 -4.4067  1.3527
   70MPD2    H1 1073   4.403   2.859  12.535  1.4715  0.5233 -0.7371
   70MPD2    H2 1074   4.321   3.091  12.194  2.8380 -0.9022  0.9373
   70MPD2    H3 1075   4.474   2.976  12.335  0.5130 -1.4802  2.5294
   70MPD2     N 1076   4.169   2.820  12.614  0.2045 -0.2092  0.3529
   70MPD2    H5 1077   4.250   2.778  12.660 -0.0196 -0.6718  0.3294
   70MPD2    N1 1078   4.053   3.075  12.205  0.4138 -0.4853 -0.0683
   70MPD2    H7 1079   4.080   3.119  12.118  0.1619  1.8231  1.0168
   71TMC2    C1 1080   2.694   4.679   1.875 -0.0756  0.3925  0.1329
   71TMC2    C2 1081   2.799   4.630   1.955  0.4385  0.5279  0.1623
   71TMC2    C3 1082   2.772   4.631   2.089  0.5154 -0.0213 -0.0906
   71TMC2    C4 1083   2.575   0.004   1.919  0.0751  0.5587 -0.6344
   71TMC2    C5 1084   2.557   4.718   2.058  0.0343 -0.0899 -0.5355
   71TMC2    C6 1085   2.657   4.682   2.142 -0.7551 -1.2589  0.2976
   71TMC2     C 1086   2.701   4.636   1.736 -0.4252 -0.0560 -0.3203
   71TMC2     O 1087   2.624   4.695   1.668  0.1557  0.6033  0.5238
   71TMC2     H 1088   2.898   4.606   1.917 -0.0399 -0.6099 -0.3479
   71TMC2    H1 1089   2.494   0.029   1.852 -1.0643  0.2960  0.6552
   71TMC2    H2 1090   2.637   4.666   2.247  1.2017  0.3414  0.9135
   71TMC2    C7 1091   2.425   4.719   2.119  0.2239  0.2445 -0.3725
   71TMC2    C8 1092   2.860   4.568   2.179  0.8680 -0.7509  0.2276
   71TMC2    O1 1093   2.399   0.059   2.217 -0.3695  0.0660  0.4151
   71TMC2    O2 1094   2.858   4.608   2.294 -0.1655  0.0691  0.2211
   71TMC2    O5 1095   2.849   4.440   2.151 -0.1077 -0.1694  0.0277
   71TMC2    H5 1096   2.865   4.423   2.055  2.3015 -0.3083  0.4395
   72MPD2     C 1097   2.897   4.436   1.304  0.3703  0.2719  0.3042
   72MPD2    C1 1098   2.806   4.537   1.323  0.5062  0.1348  0.3091
   72MPD2    C2 1099   2.776   4.583   1.454 -0.1215  0.2046  0.6416
   72MPD2    C3 1100   2.822   4.505   1.561  0.4890  0.1675  0.0334
   72MPD2    C4 1101   2.908   4.398   1.542 -0.3608 -0.4503  0.1385
   72MPD2    C5 1102   2.949   4.371   1.412  0.5872  0.4415  0.2411
   72MPD2     H 1103   2.713   4.670   1.457  0.6181  0.7025  1.6318
   72MPD2    H1 1104   2.948   4.343   1.627  3.9138  0.2188 -1.4552
   72MPD2    H2 1105   2.934   4.407   1.206  2.2780 -1.2368  1.4833
   72MPD2    H3 1106   3.023   4.292   1.404 -1.0534 -0.9743 -1.0653
   72MPD2     N 1107   2.787   4.535   1.697 -0.3044 -0.3422 -0.1455
   72MPD2    H5 1108   2.842   4.484   1.766 -0.1878  0.1824  0.1551
   72MPD2    N1 1109   2.756   4.608   1.212  0.0879  0.2758 -0.1343
   72MPD2    H7 1110   2.732   4.705   1.230  2.8091  1.2774 -1.9860
   73TMC2    C1 1111   2.763   0.908  13.915  0.1855  0.7068  0.4261
   73TMC2    C2 1112   2.743   0.859  14.040 -0.2051 -0.0915 -0.4255
   73TMC2    C3 1113   2.749   0.940  14.145 -0.1248 -0.3170  0.0199
   73TMC2    C4 1114   2.777   1.043  13.907 -0.2846 -0.2152  0.1163
   73TMC2    C5 1115   2.769   1.124  14.018  0.3541 -0.0700  0.2040
   73TMC2    C6 1116   2.759   1.074  14.144 -0.3454  0.1747  0.1094
   73TMC2     C 1117   2.659   0.872  13.823  0.7374 -0.2831  0.5984
   73TMC2     O 1118   2.594   0.973  13.790  0.4354  0.9484  0.0655
   73TMC2     H 1119   2.731   0.752  14.055 -0.2984  0.0424  0.4602
   73TMC2    H1 1120   2.792   1.086  13.809 -0.2161 -0.9732 -0.2043
   73TMC2    H2 1121   2.773   1.131  14.235  2.3489  0.1562 -0.3075
   73TMC2    C7 1122   2.712   1.257  13.987 -0.0594 -0.2416 -0.1187
   73TMC2    C8 1123   2.778   0.876  14.273 -0.6147  0.3811 -0.4755
   73TMC2    O1 1124   2.738   1.356  14.054 -0.3962  0.0915 -0.1517
   73TMC2    O2 1125   2.818   0.762  14.281 -0.0660 -0.2180  0.5232
   73TMC2    O5 1126   2.674   0.921  14.350 -0.1903  0.5570 -0.6598
   73TMC2    H5 1127   2.621   0.993  14.311  0.6792  0.2880 -2.3225
   74MPD2     C 1128   2.388   0.615  13.481  0.0223 -0.6688 -0.2218
   74MPD2    C1 1129   2.379   0.743  13.529 -0.5765  0.3253  0.9723
   74MPD2    C2 1130   2.460   0.784  13.636  0.5028  0.2162  0.0365
   74MPD2    C3 1131   2.551   0.698  13.696  0.3268 -0.9765 -0.5558
   74MPD2    C4 1132   2.555   0.570  13.638 -0.4401 -0.6533 -0.4994
   74MPD2    C5 1133   2.471   0.530  13.538  0.5280 -0.1581  0.0355
   74MPD2     H 1134   2.441   0.880  13.683  1.9697  0.8428 -0.6287
   74MPD2    H1 1135   2.627   0.499  13.679 -0.5972 -0.6039 -0.1328
   74MPD2    H2 1136   2.326   0.575  13.402 -0.9756  0.7743 -0.1710
   74MPD2    H3 1137   2.469   0.426  13.506 -0.0007 -0.4196  0.9049
   74MPD2     N 1138   2.645   0.735  13.791  0.1614 -0.0059  0.1288
   74MPD2    H5 1139   2.705   0.657  13.815 -1.1205 -1.4964 -1.4997
   74MPD2    N1 1140   2.290   0.827  13.460  0.4042  0.5461 -0.0285
   74MPD2    H7 1141   2.242   0.789  13.380  0.4471  0.6036 -0.0818
   75TCq2    C1 1142   2.301   2.413  14.318  0.2088 -0.4512 -0.3697
   75TCq2    O2 1143   2.284   2.396  14.439  0.4752  0.1238 -0.0268
   75TCq2    C2 1144   2.185   2.466  14.238  0.6347  0.5736  0.6800
   75TCq2    C3 1145   2.067   2.497  14.301 -0.0490  0.4939 -0.0014
   75TCq2    C4 1146   1.976   2.560  14.230  0.0682 -0.3925 -0.0183
   75TCq2    C5 1147   1.988   2.583  14.098 -0.1252  0.4261 -0.5684
   75TCq2    C6 1148   2.106   2.556  14.041  0.6198  0.2119 -0.6540
   75TCq2    C7 1149   2.209   2.506  14.106 -0.0256  0.1704  0.0621
   75TCq2    C8 1150   2.118   2.578  13.900 -0.6854  1.0883 -0.4770
   75TCq2    O4 1151   2.236   2.594  13.861 -0.7383 -1.0047 -0.0868
   75TCq2    C9 1152   1.849   2.605  14.295 -0.3821 -0.5857 -0.1167
   75TCq2    O5 1153   1.816   2.565  14.409  0.1259 -0.1741 -0.3825
   75TCq2    O6 1154   1.769   2.687  14.230 -0.0112 -0.4454 -0.0080
   75TCq2    H2 1155   2.036   2.467  14.400 -0.0505 -0.4312 -0.2778
   75TCq2    H3 1156   1.913   2.638  14.043  0.9158  1.0093 -1.4202
   75TCq2    H4 1157   2.288   2.469  14.042 -0.7162  1.8451 -1.7469
   76MPD2     C 1158   0.470   3.290  11.820  0.1457  0.3135  0.5329
   76MPD2    C1 1159   0.465   3.225  11.700 -0.2389 -0.0150 -0.1970
   76MPD2    C2 1160   0.573   3.158  11.651  0.2100 -0.9503 -0.8164
   76MPD2    C3 1161   0.693   3.171  11.717 -0.4968  0.1896  0.7518
   76MPD2    C4 1162   0.699   3.235  11.829  0.0939 -0.0246  0.3871
   76MPD2    C5 1163   0.591   3.300  11.885  1.3443  0.3076 -0.3653
   76MPD2     H 1164   0.583   3.090  11.567  2.1931  1.5400 -2.5997
   76MPD2    H1 1165   0.797   3.244  11.873 -0.1872  2.3021  0.5329
   76MPD2    H2 1166   0.382   3.338  11.861 -0.4593  0.0315 -0.4286
   76MPD2    H3 1167   0.608   3.343  11.983 -2.6115 -0.5300  0.6996
   76MPD2     N 1168   0.814   3.098  11.681  0.4235 -0.5146 -0.1824
   76MPD2    H5 1169   0.891   3.093  11.747 -0.7396  2.1588  1.3637
   76MPD2    N1 1170   0.346   3.214  11.627 -0.3955 -0.3992  0.5132
   76MPD2    H7 1171   0.366   3.165  11.541 -0.9720 -0.1133  0.2184
   77TCq2    C1 1172   0.847   3.044  11.560 -0.1334  0.1829  0.0737
   77TCq2    O2 1173   0.781   3.025  11.455  0.6164 -0.3449  0.1917
   77TCq2    C2 1174   0.971   2.970  11.571  0.0268  0.5953  0.6974
   77TCq2    C3 1175   0.987   2.862  11.488 -0.2691 -0.0058  0.2336
   77TCq2    C4 1176   1.089   2.772  11.507  0.5437 -0.4585  0.6536
   77TCq2    C5 1177   1.177   2.795  11.610 -0.0056 -0.0877  0.4184
   77TCq2    C6 1178   1.155   2.903  11.694  0.0671  0.2601  0.2024
   77TCq2    C7 1179   1.046   2.982  11.684  0.4085  0.1473  0.3605
   77TCq2    C8 1180   1.253   2.943  11.798  0.4201  0.4593  0.1978
   77TCq2    O4 1181   1.290   3.061  11.793  0.2020  0.4785 -0.4312
   77TCq2    C9 1182   1.114   2.668  11.414 -0.1922 -0.3797 -0.4379
   77TCq2    O5 1183   1.066   2.676  11.296 -0.0773  0.5997  0.1744
   77TCq2    O6 1184   1.201   2.582  11.447  0.2764  0.4037 -0.0107
   77TCq2    H2 1185   0.913   2.841  11.411  0.6162 -0.1153 -0.5823
   77TCq2    H3 1186   1.269   2.738  11.618  0.2850  0.1099 -1.4160
   77TCq2    H4 1187   1.050   3.067  11.751 -1.3748 -0.2268  0.9605
   78MPD1     C 1188   1.719   4.531   1.481  0.0708  0.4002 -0.0621
   78MPD1    C1 1189   1.784   4.454   1.387 -0.6785 -0.2115  0.0452
   78MPD1    C2 1190   1.908   4.401   1.418 -0.2103 -0.4982 -0.8495
   78MPD1    C3 1191   1.982   4.449   1.528 -0.0176  1.0610  0.2741
   78MPD1    C4 1192   1.920   4.526   1.624 -0.1004 -0.4595  0.0654
   78MPD1    C5 1193   1.786   4.564   1.602  0.1131 -0.2286  0.1975
   78MPD1     H 1194   1.951   4.340   1.339 -0.0904  1.4606 -2.2987
   78MPD1    H1 1195   1.970   4.573   1.708 -2.3315 -2.7545  2.6519
   78MPD1    H2 1196   1.617   4.561   1.462  0.3864 -0.5085 -3.2902
   78MPD1    H3 1197   1.730   4.619   1.677  2.4847  3.3493 -0.6098
   78MPD1     N 1198   2.114   4.416   1.550 -0.8639 -0.4821  0.0251
   78MPD1    H5 1199   2.139   4.429   1.647 -1.7508  0.4099  0.1245
   78MPD1    N1 1200   1.715   4.402   1.281  0.5549  0.2142  0.1899
   78MPD1    H6 1201   1.771   4.390   1.197  0.8206  0.2625  0.3626
   78MPD1    H7 1202   1.639   4.464   1.253  0.3627 -0.3018 -0.4456
   79TCq2    C1 1203   2.199   4.357   1.461  0.2325  1.1964 -0.1295
   79TCq2    O2 1204   2.181   4.319   1.346 -0.0557  0.5828 -0.0478
   79TCq2    C2 1205   2.327   4.321   1.531  0.0961 -0.0503 -0.2361
   79TCq2    C3 1206   2.346   4.342   1.663  0.8143 -0.0662 -0.3778
   79TCq2    C4 1207   2.460   4.304   1.725  0.0155  0.0943 -0.6042
   79TCq2    C5 1208   2.561   4.237   1.660 -0.4007  0.4234  0.2762
   79TCq2    C6 1209   2.538   4.219   1.526  0.1104  0.2888  1.0026
   79TCq2    C7 1210   2.420   4.246   1.463 -0.1446 -0.6254 -0.7125
   79TCq2    C8 1211   2.630   4.134   1.459 -0.2677  0.0227 -0.1478
   79TCq2    O4 1212   2.690   4.049   1.528 -0.6504 -0.2066 -1.1564
   79TCq2    C9 1213   2.502   4.349   1.857 -0.0195 -0.1367  0.2224
   79TCq2    O5 1214   2.607   4.298   1.899  0.7208  0.1978  0.3461
   79TCq2    O6 1215   2.433   4.435   1.910 -0.0116  0.4231  0.5400
   79TCq2    H2 1216   2.268   4.390   1.721  0.5681  0.0068 -0.7667
   79TCq2    H3 1217   2.654   4.211   1.709 -0.7572 -0.3793  0.5236
   79TCq2    H4 1218   2.405   4.214   1.361 -1.8819 -3.5607  0.4670
   80MPD2     C 1219   0.420   2.049  12.165 -0.8227  0.0750 -0.0113
   80MPD2    C1 1220   0.311   2.015  12.083 -0.3824  0.1966 -0.8964
   80MPD2    C2 1221   0.187   2.032  12.138  0.5786  0.3365  0.0168
   80MPD2    C3 1222   0.162   2.075  12.264 -0.5240  0.6329 -0.0669
   80MPD2    C4 1223   0.272   2.099  12.344 -0.2779 -0.3592  0.0017
   80MPD2    C5 1224   0.400   2.083  12.297  0.4943  0.7709  0.2912
   80MPD2     H 1225   0.101   2.012  12.075  1.5312 -0.4536 -1.0238
   80MPD2    H1 1226   0.262   2.121  12.450 -1.7631 -2.5520  0.3158
   80MPD2    H2 1227   0.522   2.050  12.127 -0.4553 -1.1830  0.9562
   80MPD2    H3 1228   0.488   2.115  12.352 -0.0739  1.5482  0.7339
   80MPD2     N 1229   0.033   2.092  12.324  0.2381  0.3057  0.3625
   80MPD2    H5 1230   0.035   2.114  12.423 -0.5013  1.1214  0.1974
   80MPD2    N1 1231   0.323   1.970  11.944 -0.1841 -0.0188  0.1906
   80MPD2    H7 1232   0.237   1.945  11.897 -0.2684 -0.1486  0.4146
   81TCq2    C1 1233   0.446   1.978  11.870  0.1490 -0.2206 -0.4943
   81TCq2    O2 1234   0.557   2.019  11.899  0.5107  0.0915 -0.6179
   81TCq2    C2 1235   0.433   1.917  11.740 -0.1649 -0.2718  0.3768
   81TCq2    C3 1236   0.520   1.968  11.644  0.5004  0.1544 -0.0396
   81TCq2    C4 1237   0.501   1.928  11.515  0.0243  0.8228 -0.0062
   81TCq2    C5 1238   0.395   1.841  11.484  0.7263 -0.3587 -0.7425
   81TCq2    C6 1239   0.313   1.798  11.583  0.1968  0.1946 -0.2905
   81TCq2    C7 1240   0.331   1.834  11.715 -0.3520  0.2341  0.6374
   81TCq2    C8 1241   0.216   1.692  11.548 -0.4416  0.0678  0.4190
   81TCq2    O4 1242   0.222   1.644  11.435 -0.3038  0.1801  0.1951
   81TCq2    C9 1243   0.563   1.986  11.401 -0.1182  0.1168  0.4108
   81TCq2    O5 1244   0.668   2.050  11.419  0.4309  0.5783  0.3451
   81TCq2    O6 1245   0.509   1.961  11.290 -0.2285  0.4747 -0.3152
   81TCq2    H2 1246   0.592   2.047  11.661  1.7925 -1.2682  1.1117
   81TCq2    H3 1247   0.383   1.804  11.383  0.0470  0.3322 -0.9070
   81TCq2    H4 1248   0.294   1.770  11.795  0.9835 -0.8533  0.3924
   82MPD2     C 1249   2.833   2.392  10.625 -0.6218  0.2028 -0.0378
   82MPD2    C1 1250   2.723   2.310  10.640 -0.0332 -0.4029  0.4562
   82MPD2    C2 1251   2.694   2.274  10.770 -0.0623  0.1213  0.1858
   82MPD2    C3 1252   2.763   2.312  10.888 -0.0415 -0.5980 -0.0606
   82MPD2    C4 1253   2.879   2.388  10.860  0.1203 -0.5374  0.0417
   82MPD2    C5 1254   2.907   2.426  10.733 -0.3141 -0.2647  0.9581
   82MPD2     H 1255   2.603   2.216  10.782  0.5658 -0.6097  1.4301
   82MPD2    H1 1256   2.950   2.405  10.941  0.7895 -2.1871 -0.2023
   82MPD2    H2 1257   2.865   2.427  10.528 -1.4353 -1.8578 -1.0327
   82MPD2    H3 1258   2.985   2.498  10.714 -1.9857  1.4908  0.7130
   82MPD2     N 1259   2.738   2.254  11.019  0.5167  0.0103  0.3145
   82MPD2    H5 1260   2.793   2.278  11.101  1.7403 -1.5512 -0.0460
   82MPD2    N1 1261   2.653   2.278  10.521 -0.1745  0.5413  0.2720
   82MPD2    H7 1262   2.690   2.325  10.439 -0.5733  0.5988  0.1279
   83TCq2    C1 1263   2.651   2.151  11.048  0.3346 -0.7447 -0.1476
   83TCq2    O2 1264   2.572   2.092  10.973  0.4414 -0.1520 -0.1360
   83TCq2    C2 1265   2.678   2.099  11.176 -0.5531  0.2666 -0.2018
   83TCq2    C3 1266   2.765   2.168  11.252  0.1545 -0.2413 -0.0508
   83TCq2    C4 1267   2.804   2.106  11.368 -0.1727 -0.1157  0.3071
   83TCq2    C5 1268   2.754   1.986  11.403 -0.0028  0.1799  0.2378
   83TCq2    C6 1269   2.669   1.924  11.324  0.7482  0.3442 -0.0114
   83TCq2    C7 1270   2.633   1.972  11.199  0.7048 -0.0236 -0.1422
   83TCq2    C8 1271   2.630   1.778  11.357 -0.0468 -0.7180  0.3934
   83TCq2    O4 1272   2.696   1.723  11.443  0.0703 -0.5389  0.0328
   83TCq2    C9 1273   2.901   2.174  11.453 -0.0163 -0.2372 -0.1780
   83TCq2    O5 1274   2.952   2.287  11.416  0.0779 -0.1859 -0.4118
   83TCq2    O6 1275   2.914   2.132  11.573 -0.2990  0.0179  0.1464
   83TCq2    H2 1276   2.803   2.269  11.241 -0.9874  0.1433 -0.4641
   83TCq2    H3 1277   2.768   1.946  11.503  2.5794 -0.0569 -0.2109
   83TCq2    H4 1278   2.576   1.913  11.127  1.4628  0.0033 -0.7627
   84TCq2    C1 1279   3.799   1.001  10.162  0.0063  0.3285 -0.7760
   84TCq2    O2 1280   3.721   0.943  10.233 -0.0594 -0.1195  0.1321
   84TCq2    C2 1281   3.882   1.111  10.236  0.0786 -0.6016 -0.6841
   84TCq2    C3 1282   3.983   1.176  10.165 -0.1268 -0.4352  0.0828
   84TCq2    C4 1283   4.046   1.276  10.232  0.2454  0.2835  0.3352
   84TCq2    C5 1284   4.014   1.309  10.360 -0.5964 -0.5761 -0.5906
   84TCq2    C6 1285   3.920   1.237  10.434 -0.1880  0.1514 -0.2084
   84TCq2    C7 1286   3.845   1.148  10.365  0.2371 -0.6179 -0.0450
   84TCq2    C8 1287   3.884   1.282  10.569 -0.2946 -0.0627 -0.4426
   84TCq2    O4 1288   3.971   1.342  10.634  0.1495  0.3750  0.0414
   84TCq2    C9 1289   4.159   1.339  10.165 -0.8899 -1.1680  0.2481
   84TCq2    O5 1290   4.172   1.310  10.044 -0.1597 -0.2270 -0.1718
   84TCq2    O6 1291   4.196   1.446  10.213  0.3867 -0.1487  0.1953
   84TCq2    H2 1292   4.012   1.156  10.062 -1.0529  1.8022 -0.6193
   84TCq2    H3 1293   4.068   1.392  10.405 -1.4880 -0.6882  0.6707
   84TCq2    H4 1294   3.769   1.085  10.411 -1.6772  1.3254 -0.5479
   85MPD2     C 1295   0.623   3.599  16.593 -0.3268  0.0553  0.3171
   85MPD2    C1 1296   0.566   3.616  16.465  0.1122  1.1044  0.0223
   85MPD2    C2 1297   0.584   3.736  16.399 -0.0117  0.7707 -0.1505
   85MPD2    C3 1298   0.662   3.840  16.452  0.2726 -0.2255  0.1125
   85MPD2    C4 1299   0.722   3.818  16.577 -0.1906 -0.1829  0.9597
   85MPD2    C5 1300   0.699   3.701  16.645 -0.8298 -0.0364  0.1174
   85MPD2     H 1301   0.539   3.747  16.301  0.1038  2.0128 -0.0691
   85MPD2    H1 1302   0.787   3.888  16.630 -1.6164  0.3116  2.0552
   85MPD2    H2 1303   0.641   3.506  16.645  3.6034 -0.1084 -1.3385
   85MPD2    H3 1304   0.756   3.679  16.735  0.3353  0.2424 -0.5461
   85MPD2     N 1305   0.675   3.953  16.367 -0.3373  0.2098 -0.0722
   85MPD2    H5 1306   0.634   3.945  16.274 -0.3587 -2.0270  0.1345
   85MPD2    N1 1307   0.497   3.508  16.411 -0.2590 -0.4035  0.0609
   85MPD2    H7 1308   0.460   3.521  16.317 -2.5153  1.9462  1.2808
   86TCq2    C1 1309   0.764   4.057  16.389 -0.7865  0.5498  0.0666
   86TCq2    O2 1310   0.824   4.084  16.496  1.0780  0.0230  0.7139
   86TCq2    C2 1311   0.803   4.143  16.269 -0.6872  0.2251  0.7287
   86TCq2    C3 1312   0.931   4.198  16.273 -0.4412 -0.2258  0.5393
   86TCq2    C4 1313   1.003   4.207  16.148 -0.3383  0.5412 -0.7094
   86TCq2    C5 1314   0.942   4.181  16.027 -0.4956 -0.2419 -0.0569
   86TCq2    C6 1315   0.806   4.147  16.028 -0.2025  0.1849  0.2303
   86TCq2    C7 1316   0.740   4.120  16.151  0.4131  0.1495  0.2519
   86TCq2    C8 1317   0.746   4.104  15.902 -0.3173 -0.3473  0.5515
   86TCq2    O4 1318   0.640   4.147  15.863 -0.4415 -0.3211  0.1594
   86TCq2    C9 1319   1.132   4.258  16.148 -0.0876  0.2213 -0.6140
   86TCq2    O5 1320   1.178   4.285  16.260  0.2550  0.2600 -0.0645
   86TCq2    O6 1321   1.195   4.262  16.040  0.2205 -0.3101 -0.5843
   86TCq2    H2 1322   0.985   4.215  16.365 -0.4148  0.4578  0.3922
   86TCq2    H3 1323   0.995   4.196  15.933 -2.2369  1.1038 -0.8257
   86TCq2    H4 1324   0.636   4.091  16.144  1.5710 -3.1714 -3.6665
   87MPD2     C 1325   2.680   3.115   1.528  0.6843 -0.5176  0.0278
   87MPD2    C1 1326   2.647   3.071   1.394  0.3058  0.2842  0.0202
   87MPD2    C2 1327   2.516   3.094   1.349 -0.3625 -0.1678  0.1586
   87MPD2    C3 1328   2.421   3.157   1.422 -0.4131 -0.0569  0.1880
   87MPD2    C4 1329   2.460   3.200   1.547  0.1465 -0.9977  0.1360
   87MPD2    C5 1330   2.578   3.164   1.602  0.0702 -0.7535  1.1737
   87MPD2     H 1331   2.496   3.065   1.246  0.1366  0.7811 -0.2082
   87MPD2    H1 1332   2.386   3.252   1.606  0.7775  0.2869 -0.2187
   87MPD2    H2 1333   2.769   3.078   1.577  0.0580  0.7987  2.1383
   87MPD2    H3 1334   2.595   3.181   1.708  0.8154 -0.2577  0.9710
   87MPD2     N 1335   2.300   3.207   1.363  0.3255 -1.1603 -0.1201
   87MPD2    H5 1336   2.252   3.273   1.423  1.5369 -0.0598 -0.3507
   87MPD2    N1 1337   2.756   3.015   1.320 -0.0252 -0.1310  0.5364
   87MPD2    H7 1338   2.846   3.002   1.365  0.1611 -1.2676 -0.1710
   88TCq2    C1 1339   2.751   2.986   1.184  0.1900 -0.7680 -0.5382
   88TCq2    O2 1340   2.654   2.994   1.112 -0.4148  0.3522  0.2477
   88TCq2    C2 1341   2.874   2.935   1.131 -0.2175 -0.3707 -0.5900
   88TCq2    C3 1342   2.989   2.935   1.211  0.9727  0.3169 -0.3193
   88TCq2    C4 1343   3.101   2.871   1.165  0.3822  1.2353  0.1757
   88TCq2    C5 1344   3.094   2.803   1.044 -0.0141 -0.1129  0.6684
   88TCq2    C6 1345   2.978   2.803   0.970  0.6722 -0.0038 -0.0660
   88TCq2    C7 1346   2.864   2.863   1.016  0.4265 -0.3966  0.8032
   88TCq2    C8 1347   2.982   2.743   0.839  0.0509 -0.2344  0.0670
   88TCq2    O4 1348   3.088   2.709   0.796  0.0232 -0.2398 -0.0105
   88TCq2    C9 1349   3.212   2.842   1.251 -0.1714 -0.5153  0.0949
   88TCq2    O5 1350   3.297   2.755   1.212  0.6436 -0.5055  0.2696
   88TCq2    O6 1351   3.200   2.893   1.370  0.4204  0.6869  0.6250
   88TCq2    H2 1352   2.994   2.990   1.305 -3.6963 -0.9628  0.6692
   88TCq2    H3 1353   3.185   2.757   1.006  0.3627  2.1999 -1.2126
   88TCq2    H4 1354   2.770   2.869   0.963  1.0394 -0.2577 -0.2621
   89MPD2     C 1355   2.951   1.289   2.367 -0.0843  0.6969 -0.3809
   89MPD2    C1 1356   2.884   1.289   2.247  0.0109 -0.2303  0.4070
   89MPD2    C2 1357   2.945   1.337   2.132 -0.3380  0.3004  0.0913
   89MPD2    C3 1358   3.065   1.401   2.139 -0.2635 -0.6797  0.4874
   89MPD2    C4 1359   3.128   1.413   2.263  0.2830 -0.2508  0.7644
   89MPD2    C5 1360   3.074   1.352   2.368 -0.0131  0.4247  0.6527
   89MPD2     H 1361   2.899   1.342   2.035  1.0905 -0.6426 -0.6327
   89MPD2    H1 1362   3.219   1.469   2.282  0.4619 -0.4471  0.4831
   89MPD2    H2 1363   2.918   1.233   2.453  0.5622 -1.3432 -1.4623
   89MPD2    H3 1364   3.125   1.356   2.464 -2.8448  0.9005  2.1439
   89MPD2     N 1365   3.116   1.471   2.023  0.7197  0.2791  0.2454
   89MPD2    H5 1366   3.072   1.458   1.933 -0.8443 -0.4937  1.1317
   89MPD2    N1 1367   2.758   1.232   2.223 -0.3869 -0.3404  0.8895
   89MPD2    H7 1368   2.728   1.225   2.127  1.9789 -0.9971  0.1963
   90TCq2    C1 1369   3.244   1.531   2.017 -0.2979 -0.2868  0.7547
   90TCq2    O2 1370   3.337   1.540   2.098  0.3368  0.0881 -0.5213
   90TCq2    C2 1371   3.286   1.558   1.881 -0.1589  0.0641  0.0569
   90TCq2    C3 1372   3.418   1.543   1.868 -0.5560 -0.9080 -0.1066
   90TCq2    C4 1373   3.476   1.537   1.748  0.3223 -0.1027  0.4383
   90TCq2    C5 1374   3.398   1.545   1.632  0.7844 -0.3653 -0.4543
   90TCq2    C6 1375   3.265   1.579   1.652  0.0396 -0.0321  0.0098
   90TCq2    C7 1376   3.202   1.577   1.777 -0.4069  0.7967 -0.3135
   90TCq2    C8 1377   3.188   1.616   1.534 -0.2915  0.1055  0.1118
   90TCq2    O4 1378   3.067   1.612   1.535  0.2786  0.1049  0.2128
   90TCq2    C9 1379   3.617   1.534   1.743 -0.2986 -0.6257 -0.3368
   90TCq2    O5 1380   3.656   1.531   1.626 -0.3630 -0.0672 -0.5320
   90TCq2    O6 1381   3.676   1.503   1.848  0.1301 -0.1043  0.4235
   90TCq2    H2 1382   3.487   1.539   1.951 -0.5819  3.3067  0.1188
   90TCq2    H3 1383   3.444   1.537   1.535  2.0566  0.8655  0.0619
   90TCq2    H4 1384   3.099   1.612   1.784 -0.6408 -0.0867  0.6202
   91TMC2    C1 1385   0.421   4.690  16.442  0.2282 -1.2184 -0.8080
   91TMC2    C2 1386   0.448   4.711  16.577  0.5603  0.2511  0.4864
   91TMC2    C3 1387   0.332   4.704  16.652  0.1662  0.3675 -0.4310
   91TMC2    C4 1388   0.300   4.640  16.393 -0.4736  0.1227 -0.1734
   91TMC2    C5 1389   0.197   4.634  16.478 -0.2318 -0.0908  0.0860
   91TMC2    C6 1390   0.210   4.668  16.608  0.0733  0.0207 -0.0209
   91TMC2     C 1391   0.539   4.676  16.354 -0.0527 -0.9364 -1.0415
   91TMC2     O 1392   0.512   4.667  16.234  0.8868 -0.4288 -0.3824
   91TMC2     H 1393   0.540   0.034  16.608 -1.7945  4.7079  0.7646
   91TMC2    H1 1394   0.298   4.614  16.287 -1.1014 -1.8005  0.3110
   91TMC2    H2 1395   0.121   4.664  16.669 -0.1646  0.5015 -0.3307
   91TMC2    C7 1396   0.078   4.564  16.438  0.5471 -0.6007 -0.1105
   91TMC2    C8 1397   0.342   4.706  16.797  0.8093 -0.5991  0.2068
   91TMC2    O1 1398   0.012   4.516  16.533 -0.5645  0.4125  0.0446
   91TMC2    O2 1399   0.248   4.689  16.870 -0.1619  0.1053  0.2654
   91TMC2    O5 1400   0.473   4.700  16.824 -0.1988 -0.5115  0.0248
   91TMC2    H5 1401   0.533   4.709  16.746 -0.0991  1.7085  0.3629
   92MPD2     C 1402   0.809   4.642  16.226  0.1320  0.2071 -0.5981
   92MPD2    C1 1403   0.792   4.667  16.360  0.0365 -0.0139  0.3144
   92MPD2    C2 1404   0.902   4.689  16.439 -0.6128 -0.5522  0.2330
   92MPD2    C3 1405   1.035   4.688  16.386  0.1632 -0.8241  0.2052
   92MPD2    C4 1406   1.047   4.672  16.251  0.7733 -0.0698 -0.4276
   92MPD2    C5 1407   0.939   4.644  16.177 -0.3988  0.1581 -0.0526
   92MPD2     H 1408   0.887   4.683  16.546 -0.2146  1.1419  0.3774
   92MPD2    H1 1409   1.140   4.686  16.197  1.1525  2.1130  0.7853
   92MPD2    H2 1410   0.738   4.607  16.152  0.5913 -0.1697 -0.8601
   92MPD2    H3 1411   0.962   4.622  16.074 -1.6342  1.0966 -0.5205
   92MPD2     N 1412   1.137   4.702  16.478 -0.1435  0.0492 -0.2795
   92MPD2    H5 1413   1.096   4.722  16.569 -0.6738  0.5226 -0.6208
   92MPD2    N1 1414   0.666   4.668  16.419 -0.0151  0.1409 -0.2234
   92MPD2    H7 1415   0.659   4.674  16.520 -0.6430  0.1391 -0.2657
   93MPD2     C 1416   1.671   0.019  13.545 -0.1766 -0.6288  0.1125
   93MPD2    C1 1417   1.583   0.089  13.626 -0.3613  0.0913  0.6338
   93MPD2    C2 1418   1.449   0.050  13.620  0.3791  1.0310 -1.0737
   93MPD2    C3 1419   1.403   4.688  13.521 -0.2396 -0.2853  0.3580
   93MPD2    C4 1420   1.491   4.631  13.434  0.1532 -0.0064  0.0638
   93MPD2    C5 1421   1.626   4.652  13.457 -0.4950 -0.6436 -0.1348
   93MPD2     H 1422   1.371   0.102  13.675 -1.0134 -2.9658  0.7239
   93MPD2    H1 1423   1.465   4.559  13.357 -2.9439  0.7897  0.3587
   93MPD2    H2 1424   1.773   0.051  13.524 -0.8780  1.5178 -0.0915
   93MPD2    H3 1425   1.690   4.600  13.386 -0.2885 -0.5584 -0.0084
   93MPD2     N 1426   1.269   4.644  13.503  0.1407  0.1011  0.2017
   93MPD2    H5 1427   1.258   4.581  13.424  1.1838 -0.8795  0.8393
   93MPD2    N1 1428   1.629   0.177  13.730  0.0468  0.7254 -0.2436
   93MPD2    H7 1429   1.574   0.230  13.796  0.2910  0.3113  0.2890
   94TCq2    C1 1430   1.760   0.180  13.771  0.3988 -0.1761 -0.3367
   94TCq2    O2 1431   1.853   0.115  13.722 -0.3399  0.2151 -0.0381
   94TCq2    C2 1432   1.795   0.278  13.872 -0.5161 -0.0909  0.4850
   94TCq2    C3 1433   1.723   0.395  13.887 -0.2925  0.7927 -0.3562
   94TCq2    C4 1434   1.783   0.503  13.942  0.6960 -0.5014 -0.4159
   94TCq2    C5 1435   1.915   0.503  13.988  0.8734  0.1206  0.3981
   94TCq2    C6 1436   1.988   0.384  13.961  0.0621  0.6718  0.4576
   94TCq2    C7 1437   1.926   0.275  13.907  0.3623  0.8091 -0.3086
   94TCq2    C8 1438   2.136   0.381  13.964 -0.5756 -0.5478 -0.2343
   94TCq2    O4 1439   2.192   0.286  13.908  0.6644 -0.1090 -0.2549
   94TCq2    C9 1440   1.710   0.630  13.948 -0.4440  0.3506 -0.0009
   94TCq2    O5 1441   1.780   0.727  13.988  0.6017  0.3719  0.2022
   94TCq2    O6 1442   1.595   0.644  13.893  0.0116 -0.3022  0.0553
   94TCq2    H2 1443   1.628   0.402  13.835 -0.2000  0.0712 -0.6312
   94TCq2    H3 1444   1.968   0.594  14.013  1.9911 -0.3927 -0.0956
   94TCq2    H4 1445   1.989   0.194  13.872 -0.1385 -0.2607  1.3270
   95TMC2    C1 1446   1.774   1.332  16.145  0.0985  0.1708 -0.2195
   95TMC2    C2 1447   1.723   1.222  16.088  0.0207 -0.2886  0.0393
   95TMC2    C3 1448   1.700   1.112  16.163 -0.0838 -0.2313 -0.5484
   95TMC2    C4 1449   1.801   1.339  16.280  0.9881 -0.3210 -0.4385
   95TMC2    C5 1450   1.766   1.232  16.361  0.3033  0.1776  0.2749
   95TMC2    C6 1451   1.707   1.120  16.304  0.2267  0.8029 -0.4349
   95TMC2     C 1452   1.834   1.448  16.071 -0.2970  0.4584 -0.1166
   95TMC2     O 1453   1.893   1.533  16.136 -0.1043  0.3018 -0.1181
   95TMC2     H 1454   1.700   1.221  15.982 -2.0494 -0.1782  0.4887
   95TMC2    H1 1455   1.849   1.423  16.330  2.3898 -0.1699 -2.0610
   95TMC2    H2 1456   1.669   1.043  16.370 -1.2041  0.8340 -1.2444
   95TMC2    C7 1457   1.750   1.259  16.498 -0.2411  0.0976 -0.1457
   95TMC2    C8 1458   1.611   1.015  16.098 -0.1621 -0.1719 -0.0612
   95TMC2    O1 1459   1.795   1.170  16.571 -0.1785 -0.0145  0.3368
   95TMC2    O2 1460   1.526   1.058  16.022 -0.9047  0.2062 -0.5773
   95TMC2    O5 1461   1.603   0.909  16.178 -0.1278  0.3650  0.4570
   95TMC2    H5 1462   1.691   0.880  16.209 -0.7481 -2.1810 -0.1277
   96MPD2     C 1463   1.909   1.725  15.633  0.5669 -0.5240  0.3096
   96MPD2    C1 1464   1.988   1.712  15.748 -0.4503  0.1080  0.5970
   96MPD2    C2 1465   1.945   1.625  15.860  0.7348  0.3865  0.8401
   96MPD2    C3 1466   1.831   1.548  15.847  1.0805 -0.4204  0.2342
   96MPD2    C4 1467   1.757   1.562  15.728 -0.2205  1.0828 -0.3799
   96MPD2    C5 1468   1.797   1.649  15.624 -0.1785 -0.0924  0.2404
   96MPD2     H 1469   2.006   1.625  15.950  1.0284 -1.3341  0.6298
   96MPD2    H1 1470   1.661   1.514  15.713  1.5769 -2.5936 -0.2083
   96MPD2    H2 1471   1.927   1.789  15.547 -0.0543 -0.2549  0.3841
   96MPD2    H3 1472   1.747   1.670  15.529  0.3575  0.4006  0.0625
   96MPD2     N 1473   1.779   1.459  15.946 -0.3548  0.5198 -0.0935
   96MPD2    H5 1474   1.692   1.415  15.916 -0.7563  0.1727  1.5928
   96MPD2    N1 1475   2.105   1.796  15.757 -0.3796  0.3051  0.1142
   96MPD2    H7 1476   2.134   1.860  15.684 -0.6555 -0.1055 -0.3603
   97MPD2     C 1477   3.836   4.101   0.438 -0.1459 -0.1095 -0.3586
   97MPD2    C1 1478   3.878   4.233   0.415 -0.1622 -0.4430  0.2496
   97MPD2    C2 1479   3.931   4.259   0.290 -0.0657  0.0641 -0.4889
   97MPD2    C3 1480   3.926   4.163   0.187 -0.2319  0.2190  0.2010
   97MPD2    C4 1481   3.880   4.036   0.214 -0.2171 -0.4923 -0.2344
   97MPD2    C5 1482   3.840   4.003   0.338  0.4657  0.3868 -0.2543
   97MPD2     H 1483   3.973   4.357   0.275 -0.4254  0.1138 -1.1648
   97MPD2    H1 1484   3.878   3.969   0.129  0.8526  0.6219 -1.1449
   97MPD2    H2 1485   3.801   4.069   0.536  0.4898 -1.9945 -0.7543
   97MPD2    H3 1486   3.799   3.905   0.357 -1.2898  1.2002  0.1455
   97MPD2     N 1487   3.974   4.189   0.052  0.0363 -0.2509 -0.3551
   97MPD2    H5 1488   3.977   4.105  17.692 -1.3226  0.3757 -1.3752
   97MPD2    N1 1489   3.852   4.339   0.515 -0.6555  0.0733  0.0050
   97MPD2    H7 1490   3.826   4.308   0.608  0.7990 -1.0696  0.0335
   98TCq2    C1 1491   4.022   4.311   0.003 -0.2137 -0.7292  0.1050
   98TCq2    O2 1492   4.031   4.421   0.054 -0.4342 -0.4815  0.2716
   98TCq2    C2 1493   4.065   4.312  17.558  0.0785 -0.6575  0.1423
   98TCq2    C3 1494   3.996   4.237  17.471  0.5822 -0.2059 -0.3757
   98TCq2    C4 1495   4.022   4.260  17.337 -0.0215  0.4938 -0.4561
   98TCq2    C5 1496   4.102   4.367  17.298 -0.0422  0.8239  0.4541
   98TCq2    C6 1497   4.171   4.441  17.394 -0.5054  0.2426 -0.2370
   98TCq2    C7 1498   4.154   4.406  17.522 -0.5148  0.3729  0.5541
   98TCq2    C8 1499   4.238   4.573  17.366 -0.2224 -0.3665 -0.6546
   98TCq2    O4 1500   4.257   4.640  17.463  0.2290 -0.2126 -0.3708
   98TCq2    C9 1501   3.948   4.181  17.243 -0.2608  0.1962  0.0797
   98TCq2    O5 1502   3.954   4.210  17.123  0.1371 -0.2186  0.0564
   98TCq2    O6 1503   3.898   4.080  17.295  0.3052  0.4293 -0.1778
   98TCq2    H2 1504   3.910   4.174  17.492 -0.5668  0.6263 -2.5918
   98TCq2    H3 1505   4.119   4.378  17.192 -2.2393 -1.8108 -0.1590
   98TCq2    H4 1506   4.203   4.457  17.604 -1.8374  0.9765  0.9763
   99MPD2     C 1507   2.230   2.406   1.362  0.6453 -0.0071  0.5198
   99MPD2    C1 1508   2.363   2.396   1.410  0.0334 -0.2942  0.2880
   99MPD2    C2 1509   2.461   2.375   1.319 -0.0580  0.2580 -0.2285
   99MPD2    C3 1510   2.426   2.339   1.190  0.1903  0.1170  0.3410
   99MPD2    C4 1511   2.298   2.339   1.147  0.4072 -0.6566 -0.3267
   99MPD2    C5 1512   2.199   2.380   1.232 -0.5502  0.7243 -0.3279
   99MPD2     H 1513   2.564   2.359   1.347  0.3769 -0.1781 -2.1198
   99MPD2    H1 1514   2.271   2.317   1.044 -0.0511  0.0581 -0.3528
   99MPD2    H2 1515   2.145   2.429   1.425 -0.5090 -2.4835 -0.1016
   99MPD2    H3 1516   2.093   2.373   1.210 -0.4010 -0.3553 -0.7457
   99MPD2     N 1517   2.532   2.287   1.111  0.6974  0.2017 -0.8141
   99MPD2    H5 1518   2.621   2.281   1.158 -0.1368  1.3058  0.8819
   99MPD2    N1 1519   2.395   2.399   1.547 -0.2871 -0.1632 -0.4198
   99MPD2    H7 1520   2.492   2.376   1.569 -0.3116  0.4232  0.3197
  100TCq2    C1 1521   2.307   2.438   1.648 -0.9888  0.0380 -0.6657
  100TCq2    O2 1522   2.195   2.489   1.650 -0.0114  0.0020  0.4635
  100TCq2    C2 1523   2.359   2.391   1.781 -0.1515 -0.0541 -0.2839
  100TCq2    C3 1524   2.302   2.442   1.891 -0.0377 -0.1786  0.1805
  100TCq2    C4 1525   2.361   2.431   2.017  0.7546  0.1386 -0.4842
  100TCq2    C5 1526   2.489   2.384   2.024  0.1965  0.3327  0.5225
  100TCq2    C6 1527   2.548   2.329   1.913 -0.4787 -0.1766 -0.4950
  100TCq2    C7 1528   2.483   2.334   1.792  0.1977 -0.5553 -0.4314
  100TCq2    C8 1529   2.656   2.226   1.921 -0.0728 -0.1676 -0.1298
  100TCq2    O4 1530   2.756   2.259   1.984  0.8015 -0.3775 -0.6744
  100TCq2    C9 1531   2.300   2.512   2.126  0.1883  0.6113  0.8459
  100TCq2    O5 1532   2.361   2.525   2.232  0.0623 -0.9354  0.4066
  100TCq2    O6 1533   2.190   2.567   2.089 -0.2613  0.5079  0.3621
  100TCq2    H2 1534   2.206   2.492   1.885 -0.1322 -0.6104 -1.9052
  100TCq2    H3 1535   2.545   2.387   2.117  0.0523  0.1621  0.6144
  100TCq2    H4 1536   2.534   2.290   1.707  0.6330 -3.4439  1.3300
  101MPD2     C 1537   3.427   1.967  12.943  0.2913  0.0118 -0.7368
  101MPD2    C1 1538   3.404   2.060  13.044  0.1728 -0.8964  0.0226
  101MPD2    C2 1539   3.323   2.014  13.152 -0.0362 -0.4000 -0.9074
  101MPD2    C3 1540   3.268   1.889  13.151  0.0725  0.3474 -0.3292
  101MPD2    C4 1541   3.297   1.799  13.055 -0.4573  0.1521  0.2932
  101MPD2    C5 1542   3.375   1.838  12.950  1.5260 -0.3517  0.0544
  101MPD2     H 1543   3.274   2.085  13.218 -0.2560 -1.1139 -0.3141
  101MPD2    H1 1544   3.267   1.696  13.043  1.5918 -0.5526  1.2516
  101MPD2    H2 1545   3.482   2.000  12.855  1.8877 -1.6232 -0.3612
  101MPD2    H3 1546   3.384   1.770  12.866 -1.5830  0.1689 -0.6761
  101MPD2     N 1547   3.177   1.863  13.254 -0.0504 -0.6212 -0.5021
  101MPD2    H5 1548   3.160   1.937  13.321  3.1082  0.7095 -1.1385
  101MPD2    N1 1549   3.459   2.188  13.028  0.9938 -0.0428 -0.5183
  101MPD2    H7 1550   3.511   2.200  12.941 -0.3770  1.7555 -1.0962
  102TCq2    C1 1551   3.651   2.589  12.816  0.1754  0.2354  0.0880
  102TCq2    O2 1552   3.707   2.493  12.770  0.0798  0.7125 -0.7497
  102TCq2    C2 1553   3.578   2.575  12.941  0.3517  0.4301 -0.2602
  102TCq2    C3 1554   3.508   2.682  12.996 -0.3605 -0.5868  0.0357
  102TCq2    C4 1555   3.410   2.659  13.083  0.1863  0.3409  0.1746
  102TCq2    C5 1556   3.376   2.529  13.117  0.1531  0.2344  0.1089
  102TCq2    C6 1557   3.449   2.425  13.058 -0.5933 -0.5267  0.1137
  102TCq2    C7 1558   3.558   2.446  12.979 -0.6154 -0.4179 -0.2389
  102TCq2    C8 1559   3.431   2.296  13.114  0.5556  0.1701 -0.1942
  102TCq2    O4 1560   3.360   2.294  13.214 -0.3233 -0.6068 -0.4304
  102TCq2    C9 1561   3.330   2.770  13.134  0.7349 -0.9461 -0.0958
  102TCq2    O5 1562   3.246   2.736  13.219 -0.6592  0.8221 -0.8031
  102TCq2    O6 1563   3.356   2.891  13.094  0.9741  0.4622 -0.1419
  102TCq2    H2 1564   3.524   2.788  12.981 -1.2526 -0.6904 -1.6339
  102TCq2    H3 1565   3.294   2.502  13.183  0.0227  1.4469  0.4352
  102TCq2    H4 1566   3.628   2.369  12.951 -0.9758 -0.6065 -0.6155
  103TMC2    C1 1567   1.351   2.492  12.434 -0.6564 -0.6331  0.1459
  103TMC2    C2 1568   1.283   2.375  12.447 -0.3970  0.3589 -0.6825
  103TMC2    C3 1569   1.276   2.325  12.571  0.3101 -0.9301 -0.1658
  103TMC2    C4 1570   1.409   2.552  12.536  0.0416  0.4825  0.9386
  103TMC2    C5 1571   1.410   2.498  12.656  0.0400 -0.1936  1.1240
  103TMC2    C6 1572   1.344   2.384  12.675 -0.1893  0.4372  0.3711
  103TMC2     C 1573   1.358   2.545  12.299  0.1908  0.5540 -0.1934
  103TMC2     O 1574   1.280   2.500  12.214 -0.9524  0.4508 -0.1449
  103TMC2     H 1575   1.242   2.322  12.361  0.1147 -2.0882  0.5798
  103TMC2    H1 1576   1.458   2.649  12.535 -0.9975  0.9895 -0.3163
  103TMC2    H2 1577   1.336   2.341  12.774 -0.8338  2.8922  1.3977
  103TMC2    C7 1578   1.474   2.563  12.768 -0.4135 -0.2682 -0.6071
  103TMC2    C8 1579   1.195   2.203  12.586  0.5200 -0.3366 -0.6550
  103TMC2    O1 1580   1.425   2.547  12.882  0.3337 -0.4246 -0.0420
  103TMC2    O2 1581   1.241   2.088  12.596  0.1843  1.0722 -0.1863
  103TMC2    O5 1582   1.081   2.222  12.518 -0.2949 -0.5018  0.8138
  103TMC2    H5 1583   1.061   2.318  12.515  1.9112  0.0472  3.5491
  104MPD2     C 1584   1.549   2.841  12.213 -0.5261 -0.7638 -0.5341
  104MPD2    C1 1585   1.457   2.745  12.192 -0.7014 -0.4816  0.0148
  104MPD2    C2 1586   1.375   2.741  12.077  0.2506 -0.3275  0.0480
  104MPD2    C3 1587   1.378   2.842  11.988  0.0349 -0.7018  0.1114
  104MPD2    C4 1588   1.474   2.943  12.010  0.1277  0.9609  0.0090
  104MPD2    C5 1589   1.556   2.936  12.117  0.6797  0.2672  0.6817
  104MPD2     H 1590   1.295   2.669  12.068  0.2439 -0.3471  0.2532
  104MPD2    H1 1591   1.489   3.029  11.945 -0.6187  0.9357 -0.1945
  104MPD2    H2 1592   1.618   2.854  12.295 -2.6016 -1.0875  1.2546
  104MPD2    H3 1593   1.631   3.014  12.129  1.3650 -0.1012 -1.2434
  104MPD2     N 1594   1.282   2.843  11.886 -0.3767 -0.2780  0.3044
  104MPD2    H5 1595   1.221   2.762  11.880 -0.0672 -0.3518 -1.9009
  104MPD2    N1 1596   1.446   2.644  12.291  0.1325  0.3285  0.4263
  104MPD2    H7 1597   1.512   2.655  12.367  1.3840 -0.3538 -0.5613
  105MPD2     C 1598   3.670   2.030  17.581  0.5094  0.2043  0.1209
  105MPD2    C1 1599   3.690   2.158  17.533  0.3576 -0.2140 -0.2555
  105MPD2    C2 1600   3.620   2.267  17.585 -0.0072 -0.3906 -0.6942
  105MPD2    C3 1601   3.522   2.253  17.678 -0.1159  0.1337 -0.9140
  105MPD2    C4 1602   3.510   2.129   0.047  0.1152 -0.7568 -0.2102
  105MPD2    C5 1603   3.595   2.029   0.003 -0.7887 -0.0808 -0.1417
  105MPD2     H 1604   3.631   2.363  17.536 -1.4695  0.2656  0.2335
  105MPD2    H1 1605   3.444   2.112   0.130  0.4000 -0.3284  0.1061
  105MPD2    H2 1606   3.730   1.942  17.558 -3.5037 -1.8052 -2.7022
  105MPD2    H3 1607   3.574   1.932   0.047  2.0047  0.0576  1.5112
  105MPD2     N 1608   3.449   2.369   0.010 -0.7377  0.4421 -0.0817
  105MPD2    H5 1609   3.477   2.463  17.680 -0.5251 -0.1743 -2.0887
  105MPD2    N1 1610   3.779   2.190  17.427  0.8998  0.8076  0.1473
  105MPD2    H7 1611   3.783   2.290  17.409  0.1155  0.9334  0.6971
  106TCq2    C1 1612   3.332   2.371   0.084  0.3911  0.9149  0.5267
  106TCq2    O2 1613   3.277   2.274   0.125  0.2664  0.1095  0.8104
  106TCq2    C2 1614   3.252   2.491   0.052  0.1734  0.4724 -0.3074
  106TCq2    C3 1615   3.290   2.565  17.636 -0.2789 -0.5925  0.6192
  106TCq2    C4 1616   3.228   2.681  17.615 -0.6075 -0.4907  0.1208
  106TCq2    C5 1617   3.133   2.726  17.694 -1.0936 -0.4836 -1.0890
  106TCq2    C6 1618   3.090   2.651   0.105  0.3408 -0.0740 -0.0974
  106TCq2    C7 1619   3.147   2.530   0.135 -0.3706 -0.0071 -0.3742
  106TCq2    C8 1620   2.978   2.698   0.184  0.1471 -0.7132  0.9634
  106TCq2    O4 1621   2.914   2.792   0.136  0.1724  0.5178  0.4063
  106TCq2    C9 1622   3.280   2.771  17.514 -0.2936  0.2255 -0.1835
  106TCq2    O5 1623   3.396   2.750  17.471  0.2283 -0.4124  0.1800
  106TCq2    O6 1624   3.216   2.871  17.478 -0.0192 -0.2128  0.8572
  106TCq2    H2 1625   3.364   2.533  17.564  0.0969  2.4268 -0.3409
  106TCq2    H3 1626   3.091   2.825  17.679  0.0704 -0.0892 -1.7358
  106TCq2    H4 1627   3.106   2.454   0.201 -0.9761 -1.1759 -2.0886
  107TMC2    C1 1628   3.863   1.512  11.506  0.0302 -0.3676  0.1909
  107TMC2    C2 1629   3.963   1.590  11.464  0.4438  0.4826 -0.4219
  107TMC2    C3 1630   3.987   1.589  11.329 -0.5288  0.1878 -0.8389
  107TMC2    C4 1631   3.786   1.442  11.422 -0.2106 -0.4477  0.0468
  107TMC2    C5 1632   3.817   1.442  11.285 -0.5965 -0.1664  1.0073
  107TMC2    C6 1633   3.925   1.511  11.233  0.4523 -0.3902  0.4342
  107TMC2     C 1634   3.800   1.540  11.628  0.0662 -0.4182 -0.5750
  107TMC2     O 1635   3.717   1.463  11.678  0.3873 -0.5212  0.1336
  107TMC2     H 1636   4.038   1.622  11.536 -0.0893 -0.6552  0.6384
  107TMC2    H1 1637   3.701   1.387  11.461  0.1665 -0.6238  0.6160
  107TMC2    H2 1638   3.961   1.501  11.131 -0.2941  0.5561  0.0792
  107TMC2    C7 1639   3.727   1.362  11.205  0.0531  0.1836  0.7031
  107TMC2    C8 1640   4.096   1.672  11.277  0.2713  0.3952 -0.5938
  107TMC2    O1 1641   3.642   1.297  11.259  0.1037 -0.2116 -0.1049
  107TMC2    O2 1642   4.164   1.646  11.176 -0.7919  0.6049  0.2054
  107TMC2    O5 1643   4.131   1.761  11.368 -0.3157  0.1904  0.1142
  107TMC2    H5 1644   4.050   1.798  11.408 -0.4843 -1.6124  1.4326
  108MPD2     C 1645   3.757   1.882  11.754 -0.4904  0.0292  0.9726
  108MPD2    C1 1646   3.745   1.744  11.764  0.5043 -0.5052  0.0676
  108MPD2    C2 1647   3.682   1.682  11.872  0.2321  0.4358 -0.4114
  108MPD2    C3 1648   3.614   1.761  11.969  1.0370  0.3200  0.4848
  108MPD2    C4 1649   3.609   1.894  11.937 -0.3724 -0.5348  0.1936
  108MPD2    C5 1650   3.681   1.956  11.837 -0.0433  0.3699  0.3450
  108MPD2     H 1651   3.680   1.573  11.874 -0.4462  0.4263 -1.6595
  108MPD2    H1 1652   3.554   1.963  12.001  0.0752  0.2405 -0.2602
  108MPD2    H2 1653   3.814   1.928  11.675 -0.6436  2.4635  2.3053
  108MPD2    H3 1654   3.678   2.064  11.846 -0.8841  0.1516  2.6747
  108MPD2     N 1655   3.547   1.710  12.072  0.2143 -0.2005  0.1484
  108MPD2    H5 1656   3.492   1.768  12.135  2.0792 -1.0790  2.5931
  108MPD2    N1 1657   3.816   1.674  11.663 -0.0977  0.4992 -0.6663
  108MPD2    H7 1658   3.861   1.728  11.590 -0.6689  0.5324 -0.9962
  109MPD2     C 1659   3.692   3.385   1.658  0.1194 -0.1129 -0.5614
  109MPD2    C1 1660   3.646   3.484   1.567 -0.0546  0.1960  0.0426
  109MPD2    C2 1661   3.744   3.555   1.497  0.1842 -0.9214  0.5573
  109MPD2    C3 1662   3.878   3.513   1.499  0.2309 -0.3823 -0.0190
  109MPD2    C4 1663   3.918   3.411   1.582 -0.5100 -0.6822  1.0164
  109MPD2    C5 1664   3.828   3.350   1.666  0.0082 -0.4997 -0.3008
  109MPD2     H 1665   3.705   3.627   1.426  0.3981 -0.0585  1.3298
  109MPD2    H1 1666   4.020   3.373   1.574 -0.5915 -0.8962  1.0014
  109MPD2    H2 1667   3.627   3.328   1.723  0.1165 -1.0159 -1.3596
  109MPD2    H3 1668   3.860   3.263   1.722  1.7533 -1.2681 -2.5107
  109MPD2     N 1669   3.955   3.579   1.404  0.2934 -0.4104 -0.5099
  109MPD2    H5 1670   3.901   3.637   1.340 -1.6044 -0.7416  0.7768
  109MPD2    N1 1671   3.509   3.500   1.539 -0.6328 -0.1059  0.0622
  109MPD2    H7 1672   3.440   3.437   1.579 -0.5593 -0.3958 -0.2631
  110TCq2    C1 1673   4.094   3.565   1.399 -0.1006  0.5792  0.0561
  110TCq2    O2 1674   4.178   3.520   1.474 -0.0497  0.1172  0.8924
  110TCq2    C2 1675   4.158   3.658   1.305 -0.7039 -0.2182 -0.4685
  110TCq2    C3 1676   4.279   3.626   1.248  0.8547  0.2389  0.6843
  110TCq2    C4 1677   4.334   3.702   1.155  0.1868  0.0329 -0.0553
  110TCq2    C5 1678   4.272   3.823   1.128  0.1165  0.3768  0.3015
  110TCq2    C6 1679   4.160   3.864   1.197 -0.3702 -0.0235  0.1300
  110TCq2    C7 1680   4.100   3.783   1.289  0.1051 -0.4175 -0.0713
  110TCq2    C8 1681   4.089   3.976   1.145 -0.0668  0.1135 -0.4163
  110TCq2    O4 1682   4.112   4.003   1.027 -0.6426  0.1902  0.2998
  110TCq2    C9 1683   4.469   3.680   1.105 -0.4809 -0.3312  1.5016
  110TCq2    O5 1684   4.525   3.778   1.044  0.6995 -0.3814 -0.1681
  110TCq2    O6 1685   4.521   3.568   1.136  0.0218  0.1384  0.4381
  110TCq2    H2 1686   4.327   3.532   1.270  0.5663  0.1547  0.9535
  110TCq2    H3 1687   4.311   3.893   1.055 -1.4413  0.6292 -0.2858
  110TCq2    H4 1688   4.006   3.815   1.332  1.4532  1.8452  1.2174
  111TMC2    C1 1689   3.867   3.169  11.434  0.7434  0.7676  0.4462
  111TMC2    C2 1690   3.918   3.196  11.313 -0.2937 -0.4986  0.2668
  111TMC2    C3 1691   4.055   3.186  11.301  0.9291  0.3153 -0.6792
  111TMC2    C4 1692   3.944   3.121  11.535  0.3939 -1.0249  0.3039
  111TMC2    C5 1693   4.076   3.108  11.517 -0.1227  0.0373  0.0258
  111TMC2    C6 1694   4.135   3.143  11.403 -0.1094  0.0264 -0.5425
  111TMC2     C 1695   3.747   3.251  11.464  0.1716 -0.6462  0.0787
  111TMC2     O 1696   3.725   3.325  11.370 -0.2338  0.6047  0.5012
  111TMC2     H 1697   3.861   3.241  11.233 -0.8640 -2.0522 -0.2022
  111TMC2    H1 1698   3.895   3.101  11.630  2.2936  2.7030  2.0798
  111TMC2    H2 1699   4.242   3.130  11.397  0.1772  1.8168  0.7421
  111TMC2    C7 1700   4.144   3.036  11.624 -0.0981 -0.0808  0.1665
  111TMC2    C8 1701   4.124   3.232  11.191 -0.3154  0.1419 -0.5159
  111TMC2    O1 1702   4.076   2.989  11.712  0.2252 -0.6760  0.0400
  111TMC2    O2 1703   4.245   3.250  11.203  0.3735 -0.1145  0.2053
  111TMC2    O5 1704   4.043   3.281  11.091  0.3594  0.1075 -0.3539
  111TMC2    H5 1705   3.948   3.257  11.092  0.5011 -0.5267 -1.1717
  112MPD2     C 1706   3.453   3.522  11.783 -0.3245  0.4858 -0.3486
  112MPD2    C1 1707   3.512   3.558  11.663  0.3016 -0.7789 -0.2866
  112MPD2    C2 1708   3.598   3.462  11.608  0.2468  0.3931  0.2480
  112MPD2    C3 1709   3.613   3.331  11.654 -0.2980  0.2178 -0.3133
  112MPD2    C4 1710   3.547   3.302  11.767  0.3583  0.3088  0.4750
  112MPD2    C5 1711   3.467   3.395  11.824  0.1259  0.1390 -0.0921
  112MPD2     H 1712   3.659   3.495  11.524 -0.8336  3.1439  0.5444
  112MPD2    H1 1713   3.546   3.202  11.809 -1.7717 -0.1554 -0.6233
  112MPD2    H2 1714   3.405   3.595  11.847 -1.4207 -0.6682  0.1389
  112MPD2    H3 1715   3.420   3.361  11.916  1.0960  0.0102  0.3636
  112MPD2     N 1716   3.703   3.235  11.598 -0.0545 -0.4991  0.1636
  112MPD2    H5 1717   3.727   3.148  11.643  1.0950  0.1655  0.8262
  112MPD2    N1 1718   3.494   3.687  11.602 -0.1824  0.0217 -0.1355
  112MPD2    H7 1719   3.533   3.694  11.509  0.2634  0.6643  0.1048
  113MPD2     C 1720   1.736   2.063   0.582 -0.3535  0.5780 -0.0853
  113MPD2    C1 1721   1.717   2.022   0.705 -0.0428  0.4786 -0.3602
  113MPD2    C2 1722   1.735   1.891   0.739  0.0683 -0.5704  0.3846
  113MPD2    C3 1723   1.769   1.801   0.642  0.5041 -0.0303  0.5801
  113MPD2    C4 1724   1.804   1.845   0.517  0.1968 -0.3247  0.6109
  113MPD2    C5 1725   1.784   1.975   0.485 -0.6623  0.6274 -0.3111
  113MPD2     H 1726   1.715   1.857   0.840  0.4507 -0.8431  0.3683
  113MPD2    H1 1727   1.812   1.771   0.438 -1.1962  1.1969 -0.9838
  113MPD2    H2 1728   1.722   2.164   0.545 -2.8175 -0.4742 -1.9954
  113MPD2    H3 1729   1.785   2.009   0.382 -3.0167 -0.8867 -0.8230
  113MPD2     N 1730   1.779   1.657   0.657 -0.1903  0.1143  0.0155
  113MPD2    H5 1731   1.780   1.601   0.573 -0.4059  1.0149 -0.5929
  113MPD2    N1 1732   1.667   2.120   0.794 -0.4520 -0.3269  0.0353
  113MPD2    H7 1733   1.643   2.207   0.748  1.7224  0.2950  0.0830
  114TCq2    C1 1734   1.794   1.593   0.778  0.1620  0.0147  0.2052
  114TCq2    O2 1735   1.797   1.636   0.893  0.2175  0.3279  0.0511
  114TCq2    C2 1736   1.810   1.452   0.757 -0.3999 -0.1635 -0.1589
  114TCq2    C3 1737   1.900   1.396   0.840  0.3986 -0.1347 -0.4278
  114TCq2    C4 1738   1.893   1.261   0.861  0.3504  0.4867  0.2665
  114TCq2    C5 1739   1.790   1.186   0.802 -0.2914 -0.2527 -0.4005
  114TCq2    C6 1740   1.699   1.252   0.725 -0.4217  0.2777  0.5942
  114TCq2    C7 1741   1.711   1.389   0.700 -0.1182 -0.4960  0.3341
  114TCq2    C8 1742   1.579   1.188   0.682 -0.0276 -0.4318 -0.0186
  114TCq2    O4 1743   1.498   1.247   0.612  0.0758  0.0498 -0.2082
  114TCq2    C9 1744   1.994   1.197   0.937 -0.3751  0.2035  0.5090
  114TCq2    O5 1745   1.973   1.073   0.958  0.6908 -0.0583  0.0188
  114TCq2    O6 1746   2.102   1.260   0.938 -0.3691  0.1330  0.2851
  114TCq2    H2 1747   1.974   1.454   0.893 -0.5578  1.3144 -0.6814
  114TCq2    H3 1748   1.789   1.078   0.810 -0.1575 -0.1874  0.4824
  114TCq2    H4 1749   1.633   1.438   0.643 -0.1768 -0.8864  0.0788
  115TMC2    C1 1750   3.131   3.806  17.636  0.3258  0.3536  0.6022
  115TMC2    C2 1751   3.202   3.750  17.535  0.6498  0.0679  0.3284
  115TMC2    C3 1752   3.283   3.832  17.471  0.4962  0.1510 -0.3249
  115TMC2    C4 1753   3.121   3.944  17.653 -0.3414 -0.1224  0.2147
  115TMC2    C5 1754   3.202   4.025  17.579 -0.5806 -1.2226  0.0314
  115TMC2    C6 1755   3.285   3.969  17.482 -0.6609  0.2715 -0.0456
  115TMC2     C 1756   3.015   3.724  17.674 -0.4914 -0.0960  0.1327
  115TMC2     O 1757   3.008   3.609  17.635  0.1167 -0.0898  0.1174
  115TMC2     H 1758   3.212   3.642  17.537  0.1779  0.0735  2.5251
  115TMC2    H1 1759   3.070   3.997   0.037 -0.3002 -1.6823  1.2806
  115TMC2    H2 1760   3.336   4.042  17.420 -2.1598  1.2533 -0.1187
  115TMC2    C7 1761   3.230   4.159  17.629 -0.0175 -0.3795  0.7170
  115TMC2    C8 1762   3.336   3.771  17.343  0.1150 -0.5845  0.1383
  115TMC2    O1 1763   3.224   4.165   0.059 -0.4283  0.3711 -0.3367
  115TMC2    O2 1764   3.383   3.659  17.350  0.3823 -0.1341 -0.0258
  115TMC2    O5 1765   3.234   3.801  17.265 -0.6329  0.0599  0.2664
  115TMC2    H5 1766   3.200   3.893  17.268  0.6525  0.5192  0.4828
  116MPD2     C 1767   2.568   3.643   0.201 -0.1050 -0.5634 -1.0973
  116MPD2    C1 1768   2.635   3.573   0.101 -1.2390  0.2510  0.4751
  116MPD2    C2 1769   2.752   3.622   0.053  0.3345  0.2456 -0.4197
  116MPD2    C3 1770   2.813   3.729   0.114 -0.2117 -0.4623  0.1546
  116MPD2    C4 1771   2.743   3.793   0.216  0.9824 -0.7112  0.1707
  116MPD2    C5 1772   2.620   3.757   0.258 -0.5274  0.0289  0.2528
  116MPD2     H 1773   2.788   3.575  17.658  0.5995 -2.3384  1.0053
  116MPD2    H1 1774   2.790   3.879   0.262  1.8810 -1.3246  0.4056
  116MPD2    H2 1775   2.474   3.605   0.238 -1.0953  5.0028  2.1803
  116MPD2    H3 1776   2.567   3.807   0.338  1.0515  0.7459  0.8503
  116MPD2     N 1777   2.928   3.787   0.064 -0.4771  0.4057  0.5949
  116MPD2    H5 1778   2.951   3.878   0.102 -2.2826  0.5486  1.3262
  116MPD2    N1 1779   2.559   3.469   0.039 -0.1538  0.2939  0.5683
  116MPD2    H7 1780   2.465   3.443   0.067 -0.7754 -0.9940 -2.6915
  117TMC2    C1 1781   1.841   0.485  13.528 -0.3254 -0.4511  0.2023
  117TMC2    C2 1782   1.945   0.402  13.517 -0.9486  0.1486  0.3564
  117TMC2    C3 1783   2.068   0.438  13.571  0.4412  1.6206  0.0838
  117TMC2    C4 1784   1.858   0.596  13.605 -0.3954 -0.2976  0.2574
  117TMC2    C5 1785   1.983   0.633  13.650  0.4747 -0.5861  0.7699
  117TMC2    C6 1786   2.092   0.557  13.630  0.3295 -0.1133  0.2016
  117TMC2     C 1787   1.711   0.438  13.493 -0.1506  0.0986  0.4696
  117TMC2     O 1788   1.713   0.343  13.412 -0.4781  0.6900 -0.1146
  117TMC2     H 1789   1.940   0.318  13.449 -2.0324 -0.4632  1.1995
  117TMC2    H1 1790   1.778   0.667  13.622  0.0066  0.0732  0.5993
  117TMC2    H2 1791   2.193   0.583  13.656  0.3138 -0.4151  0.5537
  117TMC2    C7 1792   1.990   0.764  13.713  0.2415  0.0262  0.2749
  117TMC2    C8 1793   2.176   0.335  13.550 -0.6877  0.3340  0.1429
  117TMC2    O1 1794   1.900   0.840  13.697 -0.3358 -0.4642  0.5805
  117TMC2    O2 1795   2.272   0.335  13.629  0.4056  0.0396  0.8896
  117TMC2    O5 1796   2.190   0.320  13.416  0.2442  0.4206 -0.6155
  117TMC2    H5 1797   2.108   0.338  13.366  0.0001 -3.1388 -1.4773
  118MPD2     C 1798   2.262   0.866  13.920  0.8840 -0.0601  0.1657
  118MPD2    C1 1799   2.159   0.897  13.838  0.0599 -0.2295 -0.2331
  118MPD2    C2 1800   2.115   1.021  13.808  0.2823 -0.0010  0.3906
  118MPD2    C3 1801   2.170   1.123  13.884  0.0047  0.2979  0.3942
  118MPD2    C4 1802   2.270   1.091  13.970  0.2358  0.5994 -0.0483
  118MPD2    C5 1803   2.329   0.963  13.989  1.0751 -0.4355 -0.2499
  118MPD2     H 1804   2.028   1.032  13.743  1.6758 -0.4967 -1.5400
  118MPD2    H1 1805   2.319   1.173  14.021  1.0391 -0.4957  0.9407
  118MPD2    H2 1806   2.298   0.765  13.937  0.3037 -0.5238 -1.3416
  118MPD2    H3 1807   2.407   0.947  14.062 -0.7015  0.5785  1.8600
  118MPD2     N 1808   2.125   1.252  13.878 -0.0591 -0.0952  0.3402
  118MPD2    H5 1809   2.166   1.323  13.939  2.4106 -0.1816 -1.2205
  118MPD2    N1 1810   2.107   0.778  13.785  0.2837  0.1679 -0.2853
  118MPD2    H7 1811   2.157   0.692  13.801  0.6361  0.9218  2.6810
  119MPD2     C 1812   4.261   2.338  13.608 -0.4725 -0.4791  0.2313
  119MPD2    C1 1813   4.156   2.266  13.647 -0.7596 -0.3323  0.4217
  119MPD2    C2 1814   4.052   2.257  13.565 -0.4903 -0.2311  0.5929
  119MPD2    C3 1815   4.053   2.309  13.437  0.0125  0.3542 -0.0463
  119MPD2    C4 1816   4.165   2.380  13.394  0.4082 -0.3161 -0.1893
  119MPD2    C5 1817   4.270   2.395  13.485  0.4614  0.2043 -0.2525
  119MPD2     H 1818   3.973   2.186  13.587  0.3354 -2.0418 -2.2115
  119MPD2    H1 1819   4.163   2.424  13.295 -1.1585 -1.0742 -0.4863
  119MPD2    H2 1820   4.337   2.355  13.683  0.3118 -2.7890 -0.0390
  119MPD2    H3 1821   4.351   2.460  13.454 -0.0262  0.6155 -0.6762
  119MPD2     N 1822   3.951   2.283  13.339 -0.4794 -0.1720 -0.1123
  119MPD2    H5 1823   3.961   2.328  13.249  1.5688  1.3018  0.8561
  119MPD2    N1 1824   4.162   2.198  13.766 -0.5741  0.5082 -0.2773
  119MPD2    H7 1825   4.247   2.201  13.822 -2.1305  1.9802  2.0004
  120TCq2    C1 1826   3.821   2.243  13.379  1.0039  0.4486  0.6212
  120TCq2    O2 1827   3.774   2.248  13.490 -0.1498  0.4028 -0.2846
  120TCq2    C2 1828   3.747   2.184  13.271  0.2147  0.4082  0.0231
  120TCq2    C3 1829   3.796   2.188  13.142  0.1219  0.1602 -0.2250
  120TCq2    C4 1830   3.793   2.077  13.069  0.3021  0.1944  0.2806
  120TCq2    C5 1831   3.727   1.967  13.111 -0.0081 -0.3819  0.2455
  120TCq2    C6 1832   3.675   1.968  13.234  0.0521  0.5085  0.3399
  120TCq2    C7 1833   3.682   2.079  13.315 -0.2041 -0.3775  0.0391
  120TCq2    C8 1834   3.611   1.849  13.285 -0.2024  0.1078 -0.3368
  120TCq2    O4 1835   3.607   1.755  13.208 -0.2120  0.2183  0.0079
  120TCq2    C9 1836   3.874   2.066  12.949 -0.1788 -0.0796 -0.2572
  120TCq2    O5 1837   3.960   2.148  12.936 -0.6386 -0.5645 -0.2157
  120TCq2    O6 1838   3.859   1.971  12.872 -0.0665  0.1205 -0.0083
  120TCq2    H2 1839   3.856   2.272  13.110 -1.0673  0.6992 -1.0232
  120TCq2    H3 1840   3.734   1.880  13.047  0.3627 -0.1738  0.0011
  120TCq2    H4 1841   3.636   2.086  13.413  1.5748 -2.1898  1.0113
  121TMC2    C1 1842   0.964   3.577  14.212 -0.5110 -0.1721  0.2924
  121TMC2    C2 1843   1.042   3.477  14.173 -0.1165  0.2048  0.3614
  121TMC2    C3 1844   0.989   3.348  14.172 -0.4427  0.1158  0.3383
  121TMC2    C4 1845   0.838   3.558  14.270  0.3888  0.0971  0.8061
  121TMC2    C5 1846   0.793   3.425  14.267 -0.2473  0.5715  0.3836
  121TMC2    C6 1847   0.860   3.323  14.211 -0.7506  0.3966  0.7626
  121TMC2     C 1848   0.999   3.718  14.197 -0.5017 -0.4554 -0.1135
  121TMC2     O 1849   0.951   3.799  14.274 -0.3004  0.4936 -0.1614
  121TMC2     H 1850   1.142   3.496  14.136 -0.4071 -2.6253 -1.8852
  121TMC2    H1 1851   0.774   3.636  14.309  0.1220  0.8995 -1.2747
  121TMC2    H2 1852   0.803   3.231  14.208  3.3053 -2.0130 -2.5148
  121TMC2    C7 1853   0.651   3.402  14.268 -0.2680 -0.6237  0.2298
  121TMC2    C8 1854   1.061   3.261  14.079 -0.1296 -0.3065 -0.2287
  121TMC2    O1 1855   0.619   3.301  14.328  0.3617  0.2300 -0.8054
  121TMC2    O2 1856   1.160   3.299  14.017  0.1928  0.1823  0.3241
  121TMC2    O5 1857   1.046   3.141  14.124  0.1942  0.1446  0.4797
  121TMC2    H5 1858   0.971   3.137  14.187 -0.2292 -2.7257 -0.2004
  122MPD2     C 1859   1.121   3.974  14.108  0.1258 -0.7793 -0.0618
  122MPD2    C1 1860   1.132   3.851  14.042 -0.1103 -0.0435  0.4244
  122MPD2    C2 1861   1.204   3.847  13.928  0.1959 -0.3698 -0.4973
  122MPD2    C3 1862   1.265   3.962  13.879 -0.0390  0.2028  0.9783
  122MPD2    C4 1863   1.258   4.079  13.950  0.1061  0.0604 -0.2385
  122MPD2    C5 1864   1.173   4.086  14.051 -0.1577 -0.3265  0.8694
  122MPD2     H 1865   1.203   3.754  13.872 -0.3285  0.0103 -1.1349
  122MPD2    H1 1866   1.300   4.170  13.908  0.5157 -0.4733 -0.9875
  122MPD2    H2 1867   1.058   3.980  14.197  1.1254 -0.7082  0.6432
  122MPD2    H3 1868   1.162   4.185  14.093 -1.0594 -1.2000  2.7147
  122MPD2     N 1869   1.342   3.977  13.760 -0.2170 -0.6395 -0.0357
  122MPD2    H5 1870   1.371   4.069  13.729 -1.5207 -0.4921 -0.8089
  122MPD2    N1 1871   1.070   3.736  14.085  0.5356 -0.1716  0.1982
  122MPD2    H7 1872   1.084   3.661  14.017 -1.6658 -1.0551  0.7195
  123MPD2     C 1873   3.693   1.705  11.010  0.2204 -0.1071 -0.1843
  123MPD2    C1 1874   3.705   1.714  10.871 -0.2712 -0.2076 -0.7565
  123MPD2    C2 1875   3.782   1.814  10.817 -0.1878  0.1321  0.5020
  123MPD2    C3 1876   3.866   1.885  10.898 -0.0810 -0.0451 -0.0065
  123MPD2    C4 1877   3.857   1.874  11.032  0.1486 -0.3443 -0.1644
  123MPD2    C5 1878   3.773   1.781  11.083 -0.4402  0.2530 -0.2491
  123MPD2     H 1879   3.803   1.825  10.711 -0.3915  0.3423  0.4850
  123MPD2    H1 1880   3.925   1.924  11.100 -0.5555 -0.0239  0.2949
  123MPD2    H2 1881   3.628   1.635  11.060  1.7542 -0.8044  0.8158
  123MPD2    H3 1882   3.761   1.775  11.191  1.0908  0.3601 -0.0746
  123MPD2     N 1883   3.956   1.975  10.835 -0.4811  0.2881  0.3539
  123MPD2    H5 1884   3.945   1.993  10.735 -2.2494 -2.1985  0.1290
  123MPD2    N1 1885   3.623   1.626  10.787 -0.4449 -0.3762 -0.0438
  123MPD2    H7 1886   3.561   1.566  10.841  0.7829  0.0555  1.8428
  124TCq2    C1 1887   4.038   2.063  10.901 -0.2417  0.4591 -0.2000
  124TCq2    O2 1888   4.041   2.103  11.018  0.0506  0.5562  0.2382
  124TCq2    C2 1889   4.123   2.141  10.813  0.8054 -0.1736  0.2668
  124TCq2    C3 1890   4.140   2.273  10.856 -0.5017  0.1874  0.7519
  124TCq2    C4 1891   4.216   2.351  10.771 -0.7337 -0.0650  0.1183
  124TCq2    C5 1892   4.284   2.302  10.657 -0.2528 -0.0334  0.9004
  124TCq2    C6 1893   4.254   2.174  10.620 -0.1793 -0.3152  0.0002
  124TCq2    C7 1894   4.179   2.088  10.701 -0.8520 -1.1178  0.7083
  124TCq2    C8 1895   4.276   2.139  10.480 -0.0217 -0.6617  0.3531
  124TCq2    O4 1896   4.216   2.043  10.436 -0.5823 -0.8652 -0.0666
  124TCq2    C9 1897   4.222   2.494  10.802 -0.0586  0.1720  0.6071
  124TCq2    O5 1898   4.133   2.525  10.881 -0.1045 -0.7450  0.3760
  124TCq2    O6 1899   4.267   2.561  10.703  0.1645 -0.5935 -0.4307
  124TCq2    H2 1900   4.081   2.317  10.936  0.9084  4.3340 -0.4865
  124TCq2    H3 1901   4.323   2.375  10.587  0.8299 -0.1881  1.3391
  124TCq2    H4 1902   4.167   1.982  10.681 -0.2120 -0.7679 -1.5796
  125TMC2    C1 1903   0.774   3.485   8.626  0.2889 -0.0489 -0.7694
  125TMC2    C2 1904   0.766   3.480   8.489  0.0361  0.3635  0.3486
  125TMC2    C3 1905   0.863   3.423   8.413 -0.6475 -0.3376 -0.4406
  125TMC2    C4 1906   0.889   3.439   8.694  0.8098 -0.6893  0.2452
  125TMC2    C5 1907   0.985   3.392   8.611  0.5272 -0.2426 -0.3818
  125TMC2    C6 1908   0.975   3.385   8.474 -0.2685  0.1273  0.3431
  125TMC2     C 1909   0.668   3.564   8.693 -0.0093  0.7991 -0.4396
  125TMC2     O 1910   0.590   3.635   8.633 -0.4292 -0.4727 -0.2895
  125TMC2     H 1911   0.680   3.530   8.446 -0.3885  0.7977  1.6881
  125TMC2    H1 1912   0.895   3.444   8.802 -0.9677 -0.9593  0.3585
  125TMC2    H2 1913   1.055   3.345   8.412 -0.2564  0.2979  0.2454
  125TMC2    C7 1914   1.117   3.358   8.670 -0.3057 -0.3021  0.1149
  125TMC2    C8 1915   0.850   3.406   8.272 -0.1796  0.1167 -0.2227
  125TMC2    O1 1916   1.182   3.277   8.609  0.4242  0.0393 -0.4310
  125TMC2    O2 1917   0.946   3.388   8.202 -0.3081 -0.0009  0.2438
  125TMC2    O5 1918   0.742   3.328   8.253 -0.0896  0.0093  0.1838
  125TMC2    H5 1919   0.667   3.340   8.315  1.2375  0.8222  1.6382
  126MPD1     C 1920   0.438   3.715   9.127  0.0314  0.1651 -0.2854
  126MPD1    C1 1921   0.489   3.583   9.137  0.2063  0.1715  0.3543
  126MPD1    C2 1922   0.584   3.544   9.044 -0.2299  0.1762  0.2463
  126MPD1    C3 1923   0.590   3.605   8.918  0.5431 -0.5892  0.4095
  126MPD1    C4 1924   0.536   3.729   8.907  0.3333 -0.5890  0.5896
  126MPD1    C5 1925   0.461   3.786   9.008 -0.1726  0.6358 -0.3465
  126MPD1     H 1926   0.625   3.444   9.054 -1.1206 -0.1943  0.1598
  126MPD1    H1 1927   0.565   3.789   8.822  0.0772 -0.8006  0.3507
  126MPD1    H2 1928   0.381   3.763   9.206  1.1833  1.1701 -0.0742
  126MPD1    H3 1929   0.444   3.893   9.001 -2.3049  0.1460 -2.3457
  126MPD1     N 1930   0.667   3.532   8.822 -0.4394  0.5343 -0.0096
  126MPD1    H5 1931   0.721   3.450   8.846 -0.9207  0.5768  1.1857
  126MPD1    N1 1932   0.469   3.521   9.261 -0.2461  0.1101  0.8877
  126MPD1    H6 1933   0.488   3.422   9.245 -0.7348  0.0455  0.6967
  126MPD1    H7 1934   0.371   3.525   9.291 -0.1844 -0.0060  1.1107
  127MPD2     C 1935   1.987   2.632   9.412  0.1896  0.4205  0.9125
  127MPD2    C1 1936   1.980   2.590   9.542 -0.4123 -0.2813  0.7775
  127MPD2    C2 1937   1.993   2.682   9.646  0.3319  0.2452  0.8075
  127MPD2    C3 1938   2.026   2.817   9.619  0.4801 -0.1963 -1.0996
  127MPD2    C4 1939   2.043   2.850   9.487  0.2490 -0.7079  1.3922
  127MPD2    C5 1940   2.027   2.758   9.383  0.6135  0.3335 -0.1093
  127MPD2     H 1941   1.976   2.652   9.749 -0.1852 -0.6397  0.4546
  127MPD2    H1 1942   2.075   2.952   9.472  1.2219 -1.4186 -1.3472
  127MPD2    H2 1943   1.991   2.567   9.326 -2.2392  1.3760  0.0624
  127MPD2    H3 1944   2.048   2.774   9.277  0.4167 -0.1537 -0.2223
  127MPD2     N 1945   2.032   2.917   9.719 -0.2263 -0.0206 -0.2903
  127MPD2    H5 1946   2.029   2.881   9.814 -1.6535 -3.0634 -1.4870
  127MPD2    N1 1947   1.950   2.450   9.567 -0.1329 -0.1108  0.7918
  127MPD2    H7 1948   1.928   2.386   9.492 -1.6719 -0.8924  1.9145
  128TCq2    C1 1949   1.967   2.387   9.688 -0.7676  0.5151  0.1467
  128TCq2    O2 1950   2.040   2.415   9.778  0.0007  0.7185  0.1764
  128TCq2    C2 1951   1.908   2.254   9.689 -0.5040  0.1988  0.2244
  128TCq2    C3 1952   1.966   2.150   9.768 -0.8158 -0.0823 -0.1662
  128TCq2    C4 1953   1.906   2.030   9.769  0.8030  0.0919  0.4054
  128TCq2    C5 1954   1.779   2.006   9.706 -0.3172  0.1058  0.0477
  128TCq2    C6 1955   1.729   2.118   9.637 -0.1071 -0.5618 -0.1373
  128TCq2    C7 1956   1.789   2.242   9.632  0.2514  0.2865  0.5583
  128TCq2    C8 1957   1.651   2.091   9.518 -0.2785  0.1923 -0.3672
  128TCq2    O4 1958   1.674   2.150   9.411  0.7358  0.1109 -0.1831
  128TCq2    C9 1959   1.971   1.917   9.828 -0.9694 -0.2875  0.1398
  128TCq2    O5 1960   2.089   1.932   9.856  0.1906 -0.2888 -0.3624
  128TCq2    O6 1961   1.898   1.817   9.852  0.6726  0.0815 -0.7565
  128TCq2    H2 1962   2.059   2.160   9.822 -1.4604 -0.5598  1.0281
  128TCq2    H3 1963   1.745   1.904   9.692 -1.1157  0.7119 -2.5669
  128TCq2    H4 1964   1.728   2.326   9.602 -0.2438 -0.1761  0.2740
  129MPD2     C 1965   3.929   3.318   0.542 -0.1627  0.3112 -0.2445
  129MPD2    C1 1966   3.960   3.409   0.638  0.1126  0.2628 -0.3319
  129MPD2    C2 1967   4.024   3.524   0.604  0.1295  0.1982  0.5000
  129MPD2    C3 1968   4.067   3.559   0.481  0.0682 -0.5263  0.1407
  129MPD2    C4 1969   4.044   3.460   0.383  0.1868 -0.2397  0.3782
  129MPD2    C5 1970   3.970   3.348   0.417 -0.6786 -0.1086 -0.1435
  129MPD2     H 1971   4.054   3.594   0.681  0.4390 -0.5812  1.0879
  129MPD2    H1 1972   4.089   3.468   0.284 -3.3218  1.2588 -1.1041
  129MPD2    H2 1973   3.889   3.218   0.561  1.4758 -0.7874 -2.6491
  129MPD2    H3 1974   3.946   3.280   0.336 -0.5602  0.7857 -0.9349
  129MPD2     N 1975   4.128   3.682   0.461 -0.2195  0.4889  0.3281
  129MPD2    H5 1976   4.136   3.741   0.543  0.0759  1.5707 -0.4739
  129MPD2    N1 1977   3.948   3.375   0.767  0.8074  0.4389 -0.6343
  129MPD2    H7 1978   3.983   3.446   0.832  0.5737  1.6536 -1.8494
  130TCq2    C1 1979   3.887   3.271   0.822 -0.8415  0.1438 -0.7057
  130TCq2    O2 1980   3.796   3.203   0.772 -0.0980  0.3876 -0.5320
  130TCq2    C2 1981   3.932   3.261   0.959  0.3746 -0.8454  0.6214
  130TCq2    C3 1982   4.062   3.285   0.983  0.3694  0.2764  0.5912
  130TCq2    C4 1983   4.112   3.262   1.108  0.1055  0.2050  0.4566
  130TCq2    C5 1984   4.035   3.201   1.207 -0.6117 -0.1749 -0.3231
  130TCq2    C6 1985   3.902   3.162   1.175 -0.4373  0.0389 -0.2987
  130TCq2    C7 1986   3.852   3.205   1.056 -0.1488 -0.0341  0.5257
  130TCq2    C8 1987   3.814   3.140   1.287 -0.1551  0.4493 -0.0287
  130TCq2    O4 1988   3.696   3.168   1.275 -0.1000 -0.0901  0.4613
  130TCq2    C9 1989   4.255   3.295   1.134 -0.0739 -0.6184  0.2288
  130TCq2    O5 1990   4.301   3.266   1.246 -0.9216  0.6251  0.3895
  130TCq2    O6 1991   4.326   3.335   1.035  0.4226  0.9691 -0.0042
  130TCq2    H2 1992   4.133   3.327   0.912  0.0430  0.0486  0.1380
  130TCq2    H3 1993   4.080   3.171   1.301  1.6965  2.5287 -0.5792
  130TCq2    H4 1994   3.747   3.192   1.033 -0.0549  2.1836 -1.2188
  131MPD2     C 1995   3.630   1.897   9.942  0.7478  0.4394 -0.3220
  131MPD2    C1 1996   3.674   1.930  10.068 -0.2142 -0.0928 -0.4781
  131MPD2    C2 1997   3.666   1.833  10.168 -0.6181 -0.1223  0.4363
  131MPD2    C3 1998   3.605   1.708  10.151  0.4346 -0.2274  0.1024
  131MPD2    C4 1999   3.554   1.683  10.026  0.0373 -0.4692 -0.2957
  131MPD2    C5 2000   3.569   1.773   9.927 -0.0153 -0.1181  0.3942
  131MPD2     H 2001   3.702   1.856  10.267 -1.4218 -1.4353  1.0335
  131MPD2    H1 2002   3.533   1.580  10.000 -1.8034  1.0001 -4.6779
  131MPD2    H2 2003   3.644   1.970   9.863 -0.0724  0.5069 -0.4008
  131MPD2    H3 2004   3.522   1.756   9.831  1.1387 -0.9706 -0.0225
  131MPD2     N 2005   3.593   1.618  10.261  0.0432  0.0400  0.5405
  131MPD2    H5 2006   3.627   1.637  10.355 -2.2582  3.6237  0.6158
  131MPD2    N1 2007   3.738   2.050  10.085  0.2521 -0.2743  0.4263
  131MPD2    H7 2008   3.739   2.116  10.008 -3.1521  2.4330  2.6406
  132TCq2    C1 2009   4.034   2.341   9.846 -0.2761 -0.4249  0.3562
  132TCq2    O2 2010   3.971   2.268   9.765  0.4312  0.2410  0.2693
  132TCq2    C2 2011   3.991   2.338   9.986  0.3742  0.0795  0.4588
  132TCq2    C3 2012   4.063   2.409  10.085 -0.1532  0.2376 -0.3951
  132TCq2    C4 2013   4.036   2.392  10.217 -0.8670 -0.0655  0.1991
  132TCq2    C5 2014   3.955   2.290  10.261  0.6731  0.3252  0.0852
  132TCq2    C6 2015   3.890   2.217  10.164  0.3470 -0.3203  0.5878
  132TCq2    C7 2016   3.908   2.236  10.025 -0.2888  0.2156  0.2564
  132TCq2    C8 2017   3.796   2.104  10.195  0.9013 -0.4961 -0.1669
  132TCq2    O4 2018   3.792   2.076  10.317  0.1525 -0.4770 -0.5648
  132TCq2    C9 2019   4.096   2.489  10.314  0.0872 -0.2546  0.0629
  132TCq2    O5 2020   4.051   2.490  10.433  0.0988  0.6256 -0.3134
  132TCq2    O6 2021   4.192   2.556  10.273  0.1215 -0.4687  0.4530
  132TCq2    H2 2022   4.127   2.493  10.057  2.1718 -0.4207  2.9191
  132TCq2    H3 2023   3.954   2.273  10.369 -1.2417  1.9261  0.3188
  132TCq2    H4 2024   3.869   2.179   9.941  0.5744  0.8597 -0.5952
  133MPD2     C 2025   3.175   3.594   9.306 -0.0947 -0.0097 -0.7932
  133MPD2    C1 2026   3.275   3.517   9.363 -1.0150  0.5334  0.7635
  133MPD2    C2 2027   3.278   3.386   9.319  0.0638  0.1380 -0.1586
  133MPD2    C3 2028   3.181   3.332   9.236 -0.1480 -0.2213  0.0367
  133MPD2    C4 2029   3.066   3.406   9.217 -0.0357  0.0718 -0.1310
  133MPD2    C5 2030   3.065   3.541   9.237  0.2717  0.0422 -0.1093
  133MPD2     H 2031   3.357   3.318   9.350  1.6331  2.2284  0.4304
  133MPD2    H1 2032   2.980   3.364   9.164 -0.8588  1.9699 -0.2867
  133MPD2    H2 2033   3.178   3.697   9.339 -1.1994 -0.9336  2.1469
  133MPD2    H3 2034   2.981   3.603   9.208  0.0641 -0.2763 -0.1943
  133MPD2     N 2035   3.188   3.211   9.163 -0.0323 -0.4972 -0.2149
  133MPD2    H5 2036   3.107   3.179   9.111 -1.3854  2.6732 -0.0128
  133MPD2    N1 2037   3.375   3.577   9.447  0.3949 -0.4154  0.4330
  133MPD2    H7 2038   3.363   3.675   9.470  2.6689 -0.0129 -0.0771
  134TCq2    C1 2039   3.485   3.512   9.497  0.5030  0.8258  0.8677
  134TCq2    O2 2040   3.513   3.394   9.486 -0.6320 -0.1820 -0.3133
  134TCq2    C2 2041   3.584   3.592   9.560  0.9348 -0.0655 -0.7441
  134TCq2    C3 2042   3.707   3.530   9.577 -0.5591  0.1001 -0.5790
  134TCq2    C4 2043   3.810   3.605   9.637  0.1991  0.0068  0.0648
  134TCq2    C5 2044   3.784   3.720   9.709  0.0728  0.0760 -0.1736
  134TCq2    C6 2045   3.660   3.772   9.699 -0.6517  0.2248  0.3594
  134TCq2    C7 2046   3.560   3.719   9.620  0.5976 -0.1650 -0.4887
  134TCq2    C8 2047   3.643   3.906   9.744  0.3803 -0.2418 -0.2809
  134TCq2    O4 2048   3.548   3.973   9.702  0.1497  0.3293  0.0145
  134TCq2    C9 2049   3.942   3.559   9.611 -0.8766  0.4260 -0.3105
  134TCq2    O5 2050   3.955   3.468   9.522 -0.3473 -0.7238 -0.0101
  134TCq2    O6 2051   4.027   3.602   9.692  0.4478  0.2622 -0.1827
  134TCq2    H2 2052   3.714   3.434   9.528  0.4199 -0.3467  0.4119
  134TCq2    H3 2053   3.870   3.772   9.749 -1.1631  2.0083 -0.0191
  134TCq2    H4 2054   3.461   3.762   9.622  0.8113  0.2200  1.4478
  135MPD2     C 2055   0.722   4.691   9.537  0.5844 -0.1430 -0.5785
  135MPD2    C1 2056   0.815   4.600   9.582  0.4652 -0.1778 -0.1643
  135MPD2    C2 2057   0.928   4.590   9.508 -0.0516 -0.4347 -0.1812
  135MPD2    C3 2058   0.957   4.659   9.394 -0.3852 -0.4026  0.0784
  135MPD2    C4 2059   0.863   0.024   9.350 -0.7153  0.2506 -0.7521
  135MPD2    C5 2060   0.750   0.042   9.427 -0.2147 -0.4544 -0.2953
  135MPD2     H 2061   1.004   4.517   9.534  0.1218 -0.6522 -1.2897
  135MPD2    H1 2062   0.881   0.103   9.278  0.3392 -0.9305 -1.7935
  135MPD2    H2 2063   0.624   4.695   9.584  0.5844  3.4252 -0.9561
  135MPD2    H3 2064   0.675   0.116   9.400  0.6145  0.5337  0.0678
  135MPD2     N 2065   1.084   4.654   9.326  1.0120 -0.3115 -0.0597
  135MPD2    H5 2066   1.092   0.005   9.257 -1.1615  1.6820  1.8710
  135MPD2    N1 2067   0.785   4.507   9.676 -0.8927  0.0562 -0.2988
  135MPD2    H7 2068   0.864   4.448   9.702 -0.5699  2.4121  3.9762
  136TCq2    C1 2069   0.674   4.495   9.762 -0.5323 -0.5922  0.3735
  136TCq2    O2 2070   0.565   4.546   9.751 -0.0688 -0.3367 -0.1157
  136TCq2    C2 2071   0.698   4.394   9.859  0.6349 -0.1100  0.1952
  136TCq2    C3 2072   0.627   4.391   9.971  0.0761  0.5352 -0.4477
  136TCq2    C4 2073   0.641   4.290  10.066  0.1849  0.4537  0.2902
  136TCq2    C5 2074   0.718   4.184  10.040 -0.6016  0.3122  0.0211
  136TCq2    C6 2075   0.797   4.186   9.927 -0.3892 -0.2018 -0.2701
  136TCq2    C7 2076   0.782   4.288   9.831  0.4448  0.1860 -0.0162
  136TCq2    C8 2077   0.860   4.063   9.878  0.5120 -0.2866 -0.1095
  136TCq2    O4 2078   0.931   4.073   9.780 -0.0886 -0.2594 -0.3082
  136TCq2    C9 2079   0.547   4.284  10.178  0.1460 -0.5548 -0.5235
  136TCq2    O5 2080   0.542   4.177  10.243 -0.4096 -0.2090 -0.1903
  136TCq2    O6 2081   0.461   4.369  10.192 -0.4412 -0.6044  0.3332
  136TCq2    H2 2082   0.557   4.471   9.990 -1.4614 -1.2669  1.5462
  136TCq2    H3 2083   0.722   4.104  10.113  0.1657  0.4183  0.0949
  136TCq2    H4 2084   0.833   4.280   9.736 -1.1318  0.0007 -0.8468
  137MPD2     C 2085   0.921   2.967   8.662 -0.3592 -0.2386 -0.2432
  137MPD2    C1 2086   0.873   3.070   8.745 -0.0435 -0.0041 -0.5612
  137MPD2    C2 2087   0.957   3.110   8.842  0.5839  0.4957 -0.7156
  137MPD2    C3 2088   1.081   3.050   8.869  0.2665  0.3510 -0.8309
  137MPD2    C4 2089   1.131   2.955   8.779  0.3863 -0.3731 -0.9521
  137MPD2    C5 2090   1.046   2.912   8.679  0.1907 -0.3983 -0.3047
  137MPD2     H 2091   0.915   3.183   8.911  0.6999  1.3840 -1.5809
  137MPD2    H1 2092   1.228   2.911   8.796  1.1213  1.3847 -0.5648
  137MPD2    H2 2093   0.854   2.922   8.591 -0.4478  0.1077 -0.3775
  137MPD2    H3 2094   1.080   2.839   8.608  0.4323  0.0987 -0.6979
  137MPD2     N 2095   1.143   3.086   8.987  0.1818 -0.6568 -0.3521
  137MPD2    H5 2096   1.114   3.175   9.027 -0.6232 -0.6336 -0.9830
  137MPD2    N1 2097   0.737   3.109   8.730  0.2034  0.2482  0.2686
  137MPD2    H7 2098   0.693   3.070   8.647  2.9482 -1.6684 -0.3010
  138TCq2    C1 2099   0.653   3.177   8.820  0.2250 -0.1648 -0.7739
  138TCq2    O2 2100   0.684   3.225   8.927  0.2411  0.2030 -0.2307
  138TCq2    C2 2101   0.524   3.210   8.758 -0.0345  0.2318  0.2951
  138TCq2    C3 2102   0.521   3.246   8.627 -0.0729 -0.8203 -1.4480
  138TCq2    C4 2103   0.422   3.333   8.580  0.1350  0.4282  0.1730
  138TCq2    C5 2104   0.326   3.376   8.665  0.6537 -0.1028 -0.0378
  138TCq2    C6 2105   0.318   3.313   8.785 -0.3988  0.1996  0.3960
  138TCq2    C7 2106   0.417   3.237   8.840  0.0320  0.5761 -0.4549
  138TCq2    C8 2107   0.190   3.341   8.848  0.1939 -0.3026 -0.5053
  138TCq2    O4 2108   0.123   3.436   8.807 -0.1029  0.6305  0.3765
  138TCq2    C9 2109   0.429   3.389   8.445  0.1715 -0.2638  0.7510
  138TCq2    O5 2110   0.531   3.363   8.375  0.4610  0.4378  0.3956
  138TCq2    O6 2111   0.341   3.475   8.416  0.0701 -0.4821  0.5826
  138TCq2    H2 2112   0.604   3.220   8.562  1.4328  0.6172 -0.1025
  138TCq2    H3 2113   0.250   3.439   8.621 -0.0392  0.1322  1.4760
  138TCq2    H4 2114   0.406   3.182   8.933 -1.6316  1.7344  0.0201
  139TMC2    C1 2115   0.902   1.611  13.277 -0.1394  0.3675  0.3064
  139TMC2    C2 2116   0.923   1.687  13.167 -0.5391 -0.3146 -0.5682
  139TMC2    C3 2117   0.877   1.814  13.162 -0.0720 -0.1145 -0.2202
  139TMC2    C4 2118   0.834   1.660  13.383 -0.6279  0.0488 -0.0470
  139TMC2    C5 2119   0.790   1.788  13.381 -0.2231 -0.2432  0.0997
  139TMC2    C6 2120   0.813   1.871  13.272  0.5033  0.4991 -0.7224
  139TMC2     C 2121   0.979   1.489  13.279  0.1663  0.7758  0.1891
  139TMC2     O 2122   1.004   1.431  13.179  0.1365  0.3171  0.2739
  139TMC2     H 2123   0.965   1.645  13.076  0.5321 -2.4472  0.9247
  139TMC2    H1 2124   0.807   1.592  13.462 -1.5056 -0.8949 -1.1678
  139TMC2    H2 2125   0.758   1.961  13.249  0.2678  0.8825  1.3759
  139TMC2    C7 2126   0.723   1.861  13.488 -0.3035  0.4744 -0.0695
  139TMC2    C8 2127   0.924   1.891  13.049  0.2011 -0.0427 -0.2909
  139TMC2    O1 2128   0.695   1.974  13.462  0.4141 -0.4362  0.4667
  139TMC2    O2 2129   0.949   1.852  12.939  1.0243  0.6720 -0.3513
  139TMC2    O5 2130   0.953   2.009  13.112  0.4503 -0.3609 -0.2336
  139TMC2    H5 2131   0.975   1.999  13.207 -2.9758  1.4853  0.7451
  140MPD2     C 2132   1.109   1.343  13.589 -0.5845 -0.2472  0.1552
  140MPD2    C1 2133   1.089   1.356  13.454  0.1248 -0.1169 -0.0689
  140MPD2    C2 2134   1.149   1.264  13.364 -0.1941 -0.0826 -0.8305
  140MPD2    C3 2135   1.232   1.163  13.414  0.2821  0.1971 -0.0221
  140MPD2    C4 2136   1.260   1.155  13.550  0.3952  0.0141 -0.2152
  140MPD2    C5 2137   1.197   1.243  13.631 -0.5348 -0.2814  0.1594
  140MPD2     H 2138   1.124   1.263  13.258  0.6920 -1.0959 -1.0277
  140MPD2    H1 2139   1.335   1.092  13.597  0.8092  0.4873 -0.2410
  140MPD2    H2 2140   1.072   1.417  13.658  0.4905  1.3493 -0.9685
  140MPD2    H3 2141   1.225   1.235  13.735  0.5732  1.3393 -0.0197
  140MPD2     N 2142   1.293   1.084  13.315  0.7092 -0.4071  0.8616
  140MPD2    H5 2143   1.305   1.131  13.225  0.1239 -0.3923  0.7968
  140MPD2    N1 2144   1.017   1.472  13.407  0.2533 -0.4410 -0.0787
  140MPD2    H7 2145   1.001   1.548  13.472 -0.0220 -1.1257  0.6599
  141TCq2    C1 2146   1.233   2.800  14.154  0.4418  0.0056 -1.1118
  141TCq2    O2 2147   1.300   2.884  14.098  0.0207 -0.1560  0.2039
  141TCq2    C2 2148   1.214   2.820  14.291  0.3070 -0.0114 -0.1994
  141TCq2    C3 2149   1.202   2.717  14.381  1.0144 -0.0753 -0.5910
  141TCq2    C4 2150   1.185   2.751  14.511  0.3725  0.1302 -0.4844
  141TCq2    C5 2151   1.196   2.881  14.551  0.3441 -0.5438  0.0636
  141TCq2    C6 2152   1.212   2.978  14.463 -0.4201 -0.0011  0.7416
  141TCq2    C7 2153   1.209   2.956  14.326 -0.5330 -0.0750  0.4758
  141TCq2    C8 2154   1.215   3.113  14.500  0.0597  0.3490  0.1713
  141TCq2    O4 2155   1.155   3.150  14.598 -0.1597  0.3741  0.4584
  141TCq2    C9 2156   1.172   2.651  14.616  0.0278 -0.6352  0.1043
  141TCq2    O5 2157   1.205   2.692  14.732 -0.0156  0.0006  0.6003
  141TCq2    O6 2158   1.154   2.531  14.583  0.3028  0.1377 -0.4217
  141TCq2    H2 2159   1.213   2.611  14.358  0.9229  0.0207 -1.0716
  141TCq2    H3 2160   1.188   2.903  14.657  2.5529 -1.8968  0.5267
  141TCq2    H4 2161   1.214   3.024  14.242  3.5261  2.5541  2.8085
  142MPD2     C 2162   3.691   1.334  10.001  0.0169  0.2037 -0.3907
  142MPD2    C1 2163   3.691   1.350   9.863  0.1586  0.1651  0.9476
  142MPD2    C2 2164   3.768   1.451   9.808  0.2042 -0.1324  0.0119
  142MPD2    C3 2165   3.847   1.536   9.894  0.3072  0.6509  0.2474
  142MPD2    C4 2166   3.851   1.512  10.032 -0.4426 -0.2004 -0.2396
  142MPD2    C5 2167   3.767   1.415  10.080 -0.2196  0.8079  0.5137
  142MPD2     H 2168   3.762   1.464   9.701  0.5630  0.9646  0.1310
  142MPD2    H1 2169   3.904   1.569  10.107 -0.0044 -1.0183  0.0687
  142MPD2    H2 2170   3.625   1.259  10.044  3.2561 -2.1261  0.5395
  142MPD2    H3 2171   3.762   1.396  10.187 -1.7176  1.1536  0.5006
  142MPD2     N 2172   3.928   1.640   9.844 -0.2962  0.0071  0.5047
  142MPD2    H5 2173   3.994   1.671   9.914 -1.4864  0.8684  1.2305
  142MPD2    N1 2174   3.609   1.257   9.792 -0.0549  0.1165 -0.0391
  142MPD2    H7 2175   3.557   1.196   9.854 -2.2649  1.3338 -0.6849
  143TCq2    C1 2176   3.933   1.693   9.721 -0.6297 -0.3968  0.2330
  143TCq2    O2 2177   3.858   1.673   9.625 -0.4466  0.1994 -0.5785
  143TCq2    C2 2178   4.020   1.804   9.716  0.0943  0.1937 -0.1498
  143TCq2    C3 2179   4.055   1.855   9.598  0.2808 -0.1512  0.1593
  143TCq2    C4 2180   4.138   1.966   9.597  0.1685 -0.6618  0.2636
  143TCq2    C5 2181   4.193   2.019   9.712  0.0560 -0.4217  0.3057
  143TCq2    C6 2182   4.155   1.965   9.831 -0.5763  0.5069  0.5214
  143TCq2    C7 2183   4.061   1.869   9.833 -0.2640  0.4993  0.8600
  143TCq2    C8 2184   4.202   2.016   9.961  0.1908 -0.2688 -0.9138
  143TCq2    O4 2185   4.129   1.991  10.056  0.6892 -0.5224  0.6676
  143TCq2    C9 2186   4.177   2.016   9.467  0.1528  0.8397  0.6903
  143TCq2    O5 2187   4.287   2.079   9.460  0.4099  0.1531  0.0361
  143TCq2    O6 2188   4.109   1.968   9.370 -0.2298 -0.2499  0.2179
  143TCq2    H2 2189   4.018   1.814   9.505  2.1978 -0.2333 -0.5837
  143TCq2    H3 2190   4.256   2.106   9.726  0.6778 -0.3915 -2.6820
  143TCq2    H4 2191   4.005   1.858   9.925 -0.2074 -1.1854  0.6931
  144MPD2     C 2192   2.208   0.775   0.659  0.0030 -0.0266  0.3161
  144MPD2    C1 2193   2.264   0.648   0.665 -1.3771  0.2350  0.8756
  144MPD2    C2 2194   2.394   0.642   0.699 -0.4252 -0.2065 -0.0081
  144MPD2    C3 2195   2.473   0.755   0.713 -0.5858  0.0941  0.4068
  144MPD2    C4 2196   2.417   0.880   0.691 -0.1243 -0.1393  0.2229
  144MPD2    C5 2197   2.286   0.893   0.673  0.6832  0.0467 -1.1840
  144MPD2     H 2198   2.438   0.543   0.714 -3.6722 -1.5398  0.6710
  144MPD2    H1 2199   2.475   0.969   0.713  1.5083 -0.7560 -1.6232
  144MPD2    H2 2200   2.104   0.796   0.632  0.8889  2.9885 -0.7822
  144MPD2    H3 2201   2.225   0.982   0.664 -0.6526 -0.7212  0.4020
  144MPD2     N 2202   2.610   0.751   0.747 -0.1347 -0.2413  0.0775
  144MPD2    H5 2203   2.645   0.844   0.764  1.0085 -0.4410 -1.1320
  144MPD2    N1 2204   2.199   0.523   0.655 -0.0995  0.1691  0.3633
  144MPD2    H7 2205   2.251   0.436   0.666 -0.2547 -0.0679 -0.7919
  145TCq2    C1 2206   2.679   0.636   0.754 -0.0528 -0.2650  0.0237
  145TCq2    O2 2207   2.662   0.535   0.690  0.2997  0.9942 -0.3793
  145TCq2    C2 2208   2.794   0.638   0.845  0.6140 -0.5045  0.3445
  145TCq2    C3 2209   2.863   0.517   0.844 -0.3944  0.3646  0.2196
  145TCq2    C4 2210   2.978   0.504   0.915  0.6907  0.2320 -0.6908
  145TCq2    C5 2211   3.017   0.614   0.992  0.1698  0.2000 -0.0542
  145TCq2    C6 2212   2.934   0.724   1.003 -0.6187 -0.1184 -0.4297
  145TCq2    C7 2213   2.826   0.742   0.933 -0.5285  0.1623  0.5810
  145TCq2    C8 2214   2.988   0.829   1.086  0.7472  0.1494 -0.4947
  145TCq2    O4 2215   3.103   0.819   1.128 -0.4053 -0.1869  0.3046
  145TCq2    C9 2216   3.051   0.380   0.915  0.9731  0.1733  1.1412
  145TCq2    O5 2217   3.150   0.370   0.995  0.3317  0.6950 -0.3562
  145TCq2    O6 2218   3.014   0.301   0.823 -0.1752  0.5522 -0.1638
  145TCq2    H2 2219   2.832   0.429   0.789  0.4509  0.5438 -0.5469
  145TCq2    H3 2220   3.100   0.602   1.060  0.9266  2.3461 -0.5789
  145TCq2    H4 2221   2.762   0.829   0.942 -0.3005  0.3861  0.0624
  146TMC2    C1 2222   3.629   3.972  12.189 -0.3315  0.0482 -0.5444
  146TMC2    C2 2223   3.574   4.036  12.082  0.0003 -0.7625  0.1715
  146TMC2    C3 2224   3.613   4.001  11.955 -0.7389 -0.3544 -0.5357
  146TMC2    C4 2225   3.729   3.876  12.186  0.4181 -0.4248 -0.9059
  146TMC2    C5 2226   3.780   3.861  12.051 -0.3685  0.1883 -0.0200
  146TMC2    C6 2227   3.717   3.918  11.941  0.3919  0.3803  0.2488
  146TMC2     C 2228   3.586   4.017  12.322  0.4318  0.0948 -0.4079
  146TMC2     O 2229   3.535   4.125  12.327 -0.1963 -0.4598  0.3853
  146TMC2     H 2230   3.482   4.093  12.094  0.3310 -0.4678  1.3089
  146TMC2    H1 2231   3.778   3.834  12.273  0.2173  1.0567 -0.0749
  146TMC2    H2 2232   3.751   3.893  11.841 -1.2565 -0.4117 -0.1064
  146TMC2    C7 2233   3.884   3.768  12.022  0.4120  0.0198 -0.3257
  146TMC2    C8 2234   3.555   4.088  11.849 -0.5970  0.3709  0.4881
  146TMC2    O1 2235   3.914   3.759  11.903  1.0682  0.3402  0.0944
  146TMC2    O2 2236   3.441   4.115  11.842  0.1918 -0.8812  0.0599
  146TMC2    O5 2237   3.632   4.081  11.741 -0.5380  0.4612  0.7652
  146TMC2    H5 2238   3.726   4.085  11.769 -0.6681 -0.1323  1.2741
  147MPD2     C 2239   4.240   3.433  12.131  1.0277 -0.1042 -0.0989
  147MPD2    C1 2240   4.174   3.458  12.249  0.0888 -0.1036  0.1654
  147MPD2    C2 2241   4.078   3.555  12.251 -0.2209 -0.2871  0.0610
  147MPD2    C3 2242   4.054   3.628  12.133  0.3864 -0.6975  0.4949
  147MPD2    C4 2243   4.132   3.610  12.025  0.3566  0.0367  0.2222
  147MPD2    C5 2244   4.223   3.511  12.024  0.3803  0.2036 -0.4553
  147MPD2     H 2245   4.013   3.565  12.337 -2.1022 -1.7107 -1.1941
  147MPD2    H1 2246   4.126   3.673  11.937  2.9567 -0.3153 -0.1965
  147MPD2    H2 2247   4.314   3.354  12.130  1.2040  0.0441  1.8302
  147MPD2    H3 2248   4.281   3.493  11.934  1.4748 -2.1266  0.7525
  147MPD2     N 2249   3.944   3.715  12.135  0.5504 -0.2174  0.3847
  147MPD2    H5 2250   3.903   3.742  12.224  1.8837  1.0003  0.6147
  147MPD2    N1 2251   4.215   3.371  12.356 -0.2650  0.2181 -0.2061
  147MPD2    H7 2252   4.290   3.306  12.333 -1.3409 -1.8908  2.3184
  148MPD2     C 2253   3.176   1.770  11.446 -0.3812  0.8165  0.3897
  148MPD2    C1 2254   3.209   1.888  11.388  0.7327 -0.5875 -0.2491
  148MPD2    C2 2255   3.144   1.936  11.278  0.2795  0.3300  0.7138
  148MPD2    C3 2256   3.038   1.866  11.221 -0.2785 -0.6951 -0.3050
  148MPD2    C4 2257   3.006   1.743  11.280  0.3016  0.1852  0.2542
  148MPD2    C5 2258   3.072   1.698  11.391  0.0874  0.4181 -0.7457
  148MPD2     H 2259   3.169   2.031  11.231  1.1797  0.2566  1.0514
  148MPD2    H1 2260   2.922   1.686  11.241 -1.0944  1.8039  0.8922
  148MPD2    H2 2261   3.242   1.728  11.521  0.7093  2.1782  0.1872
  148MPD2    H3 2262   3.038   1.604  11.433  1.7015  0.0572 -0.2304
  148MPD2     N 2263   2.974   1.909  11.099  0.0725  0.2335  1.1862
  148MPD2    H5 2264   2.919   1.833  11.061 -2.5333  2.2843  0.9250
  148MPD2    N1 2265   3.318   1.966  11.427  0.2897  0.2452  0.1352
  148MPD2    H7 2266   3.321   2.057  11.382  2.6752  0.0392 -0.1077
  149TCq2    C1 2267   3.437   1.902  11.450 -0.5282 -0.2737 -0.7026
  149TCq2    O2 2268   3.467   1.787  11.481  0.5414  0.2115  0.4649
  149TCq2    C2 2269   3.549   1.980  11.392 -0.6593 -0.7512 -0.3620
  149TCq2    C3 2270   3.676   1.941  11.428 -0.3520 -0.0333 -0.1250
  149TCq2    C4 2271   3.777   2.019  11.386  0.1512  0.4020 -0.1416
  149TCq2    C5 2272   3.761   2.097  11.276  0.2604 -0.5142  0.2557
  149TCq2    C6 2273   3.639   2.127  11.232  0.6159  0.2074 -0.3153
  149TCq2    C7 2274   3.527   2.072  11.294  0.4781  0.8258 -0.6257
  149TCq2    C8 2275   3.623   2.170  11.091 -0.3875 -1.0340  0.0370
  149TCq2    O4 2276   3.527   2.115  11.038  0.7155  0.7537  0.3409
  149TCq2    C9 2277   3.905   1.964  11.409  0.6217 -0.2752  0.0382
  149TCq2    O5 2278   3.913   1.857  11.478  0.3143 -0.2440 -0.2385
  149TCq2    O6 2279   4.002   2.015  11.344 -0.3507  0.3465 -0.4606
  149TCq2    H2 2280   3.687   1.857  11.495 -1.4534 -0.6460 -0.7189
  149TCq2    H3 2281   3.847   2.130  11.220  0.1623 -1.2398 -0.3179
  149TCq2    H4 2282   3.429   2.102  11.259  0.2450  2.9255  1.7916
  150MPD2     C 2283   0.831   2.145  12.053  0.3993  0.1599  0.3627
  150MPD2    C1 2284   0.918   2.101  11.950 -1.2837 -0.2699 -0.3875
  150MPD2    C2 2285   1.038   2.158  11.928 -0.5224 -0.0800 -0.0597
  150MPD2    C3 2286   1.081   2.265  12.009 -0.8286 -0.0551 -0.0996
  150MPD2    C4 2287   1.010   2.291  12.122 -0.3178 -0.1465  0.1082
  150MPD2    C5 2288   0.889   2.231  12.145  0.1978 -0.0331 -0.3009
  150MPD2     H 2289   1.099   2.128  11.844  2.0029 -1.6804  2.3574
  150MPD2    H1 2290   1.045   2.366  12.191  2.6569 -0.4937 -1.0208
  150MPD2    H2 2291   0.741   2.088  12.071 -1.0410  2.2299 -0.2853
  150MPD2    H3 2292   0.842   2.235  12.243 -0.5537 -0.9734 -0.6186
  150MPD2     N 2293   1.205   2.324  11.994  0.5553 -0.0006  0.8101
  150MPD2    H5 2294   1.241   2.393  12.060 -1.2128  1.8963 -0.1919
  150MPD2    N1 2295   0.872   1.989  11.891 -0.1537 -0.5509 -0.0078
  150MPD2    H7 2296   0.780   1.953  11.914 -0.9749  1.1868 -0.5731
  151TCq2    C1 2297   1.277   2.319  11.878 -0.2565  0.4957  0.1800
  151TCq2    O2 2298   1.249   2.287  11.764 -0.5861 -0.4707  0.3916
  151TCq2    C2 2299   1.399   2.378  11.900  0.2763  0.2184  0.2469
  151TCq2    C3 2300   1.441   2.475  11.817  0.0790  0.3327  0.7569
  151TCq2    C4 2301   1.553   2.543  11.853 -0.0306  0.1376  0.5200
  151TCq2    C5 2302   1.625   2.511  11.962  0.7862 -0.2700  0.0466
  151TCq2    C6 2303   1.577   2.417  12.044 -0.5044 -0.2159  0.5957
  151TCq2    C7 2304   1.460   2.346  12.018  0.2188 -0.4683 -0.6400
  151TCq2    C8 2305   1.635   2.388  12.178 -0.2286 -0.2072 -0.0040
  151TCq2    O4 2306   1.691   2.485  12.226 -0.2578  0.3085 -0.2211
  151TCq2    C9 2307   1.598   2.640  11.762 -0.2882  0.0105 -0.2526
  151TCq2    O5 2308   1.715   2.695  11.791  0.0978 -0.4317  0.2648
  151TCq2    O6 2309   1.522   2.675  11.667 -0.1912  0.3979  0.0169
  151TCq2    H2 2310   1.404   2.481  11.716 -0.1056  2.4124  0.9497
  151TCq2    H3 2311   1.718   2.563  11.981 -0.0897  0.8919  1.1105
  151TCq2    H4 2312   1.433   2.256  12.072  0.0060 -1.0515 -1.7267
  152MPD2     C 2313   0.169   1.766  12.745  0.3835  0.3941 -0.4970
  152MPD2    C1 2314   0.178   1.791  12.611  0.2045  0.0504  0.3062
  152MPD2    C2 2315   0.091   1.732  12.522  0.1795 -0.3293 -0.8046
  152MPD2    C3 2316   4.706   1.654  12.568  0.7136 -0.4622 -0.4634
  152MPD2    C4 2317   4.692   1.635  12.705  0.1492  0.5555 -0.5405
  152MPD2    C5 2318   0.069   1.688  12.788 -0.5388  0.1208 -0.0202
  152MPD2     H 2319   0.117   1.742  12.418  0.3145  0.0522 -0.7328
  152MPD2    H1 2320   4.601   1.588  12.740  1.3223 -1.3081  0.0335
  152MPD2    H2 2321   0.241   1.794  12.821  2.1620  0.9969 -2.4372
  152MPD2    H3 2322   0.059   1.669  12.894 -2.4202 -0.5948 -0.3257
  152MPD2     N 2323   4.631   1.585  12.466 -0.4079 -0.0924  0.0563
  152MPD2    H5 2324   4.649   1.607  12.369  2.9508 -1.9696  0.2677
  152MPD2    N1 2325   0.297   1.845  12.561  0.1189 -0.0579  0.2629
  152MPD2    H7 2326   0.320   1.823  12.465 -0.0935 -1.1118  0.4566
  153TCq2    C1 2327   0.382   1.919  12.645 -0.1379 -1.0415  0.1608
  153TCq2    O2 2328   0.331   1.987  12.736  0.2508 -0.0516 -0.7236
  153TCq2    C2 2329   0.523   1.924  12.614 -0.2903  0.4781 -0.0292
  153TCq2    C3 2330   0.587   1.826  12.551  0.1911 -0.1541 -1.1956
  153TCq2    C4 2331   0.717   1.815  12.574 -0.9001 -0.3797  0.0027
  153TCq2    C5 2332   0.791   1.904  12.645  0.0205 -0.6807  1.2288
  153TCq2    C6 2333   0.726   2.010  12.696 -0.2025  0.8093  0.0763
  153TCq2    C7 2334   0.591   2.017  12.681  0.0392 -0.3876  0.1802
  153TCq2    C8 2335   0.786   2.140  12.706 -0.3886 -0.9008 -0.2517
  153TCq2    O4 2336   0.730   2.233  12.650 -0.3218 -0.1635 -0.0179
  153TCq2    C9 2337   0.788   1.719  12.499 -0.3990  0.1425 -0.5616
  153TCq2    O5 2338   0.728   1.682  12.397 -0.4159 -0.1207  0.2436
  153TCq2    O6 2339   0.894   1.681  12.549  0.0189 -0.1396 -0.1568
  153TCq2    H2 2340   0.541   1.741  12.502 -2.4055  0.1829  0.6405
  153TCq2    H3 2341   0.899   1.907  12.642  0.0769 -0.5308  2.9693
  153TCq2    H4 2342   0.541   2.102  12.724  0.1507  1.0638 -2.5872
  154MPD2     C 2343   2.289   2.377   0.023  0.0051 -0.7199  0.0363
  154MPD2    C1 2344   2.217   2.344   0.137 -0.2028  0.0639 -0.6626
  154MPD2    C2 2345   2.117   2.437   0.161 -0.4561 -0.5457  0.0105
  154MPD2    C3 2346   2.089   2.548   0.087 -0.6027  0.4466 -0.4792
  154MPD2    C4 2347   2.170   2.578  17.672 -0.2321  0.0076  0.4850
  154MPD2    C5 2348   2.262   2.482  17.640  0.3556  0.0381  0.5985
  154MPD2     H 2349   2.057   2.424   0.250  0.8939 -0.5557  0.9178
  154MPD2    H1 2350   2.153   2.668  17.615 -0.4301  0.6296  1.5178
  154MPD2    H2 2351   2.366   2.306  17.690 -1.6541 -3.3225  1.8984
  154MPD2    H3 2352   2.336   2.498  17.562  0.5128  2.5727  1.2582
  154MPD2     N 2353   1.975   2.635   0.118 -0.3404  0.0877 -0.0521
  154MPD2    H5 2354   1.915   2.603   0.194 -1.7604  1.8815 -0.4275
  154MPD2    N1 2355   2.227   2.217   0.195  0.2210 -0.6339 -0.2728
  154MPD2    H7 2356   2.306   2.161   0.165  1.3527  0.5946  0.4297
  155TCq2    C1 2357   2.157   2.178   0.312  0.5305  0.2396 -0.3455
  155TCq2    O2 2358   2.087   2.242   0.387  0.0398  0.0220  0.6754
  155TCq2    C2 2359   2.187   2.032   0.351 -0.3862  0.2598  0.0468
  155TCq2    C3 2360   2.149   1.996   0.474 -0.0915  0.4635 -0.8380
  155TCq2    C4 2361   2.166   1.869   0.517 -0.0058 -0.5955  0.5048
  155TCq2    C5 2362   2.215   1.783   0.427  0.4208  0.2802 -0.4667
  155TCq2    C6 2363   2.238   1.817   0.300 -0.3260 -0.2457 -0.1710
  155TCq2    C7 2364   2.230   1.945   0.256 -0.2102 -0.3948 -0.0297
  155TCq2    C8 2365   2.290   1.718   0.206  0.0853 -0.4924  0.1389
  155TCq2    O4 2366   2.380   1.759   0.130  0.1631  0.1058 -0.4889
  155TCq2    C9 2367   2.142   1.839   0.652  0.4754 -0.3137 -0.1981
  155TCq2    O5 2368   2.115   1.936   0.728 -0.6000  0.4016 -0.5101
  155TCq2    O6 2369   2.154   1.720   0.692  0.0368 -0.4039  0.2750
  155TCq2    H2 2370   2.112   2.068   0.547  0.5684  0.0843 -0.1230
  155TCq2    H3 2371   2.243   1.682   0.458  0.8480  1.3982  2.8026
  155TCq2    H4 2372   2.239   1.964   0.150 -0.3139 -0.8053 -0.1126
  156MPD2     C 2373   1.228   3.893  12.493  0.1546 -0.6530  0.3617
  156MPD2    C1 2374   1.154   3.856  12.387  0.3424 -0.2614 -1.0150
  156MPD2    C2 2375   1.017   3.856  12.394  0.3756  0.3791 -0.1531
  156MPD2    C3 2376   0.953   3.909  12.498  0.6246 -0.1122  0.6458
  156MPD2    C4 2377   1.016   3.944  12.609  0.7442  0.4328  0.6105
  156MPD2    C5 2378   1.158   3.936  12.600 -0.5321 -0.0651 -0.1970
  156MPD2     H 2379   0.953   3.827  12.311  0.1653  0.0757  0.1135
  156MPD2    H1 2380   0.959   3.989  12.689 -0.9081  1.5769 -1.2048
  156MPD2    H2 2381   1.336   3.887  12.501  0.4164  1.0917 -1.9353
  156MPD2    H3 2382   1.210   3.978  12.685 -2.1215  1.0057  0.2582
  156MPD2     N 2383   0.811   3.920  12.487  0.3105 -0.0198 -0.1732
  156MPD2    H5 2384   0.769   3.877  12.406 -1.1376 -0.4590  0.8063
  156MPD2    N1 2385   1.224   3.827  12.267  0.2937  0.4857  0.7917
  156MPD2    H7 2386   1.322   3.853  12.271  0.7631 -0.9754 -1.1142
  157TCq2    C1 2387   1.168   3.792  12.145  0.3346 -0.4453  0.0518
  157TCq2    O2 2388   1.051   3.763  12.128 -0.7807 -0.1947  0.3333
  157TCq2    C2 2389   1.250   3.837  12.037 -0.6401  0.7722 -0.1119
  157TCq2    C3 2390   1.382   3.875  12.051  0.4571 -0.5445 -0.5195
  157TCq2    C4 2391   1.439   3.963  11.968 -0.4796 -0.5272 -0.6272
  157TCq2    C5 2392   1.366   4.015  11.861  0.0494  0.4088  0.0354
  157TCq2    C6 2393   1.237   3.975  11.845 -0.7234  0.2153  0.7496
  157TCq2    C7 2394   1.177   3.892  11.933 -0.1478 -0.1643 -0.1229
  157TCq2    C8 2395   1.150   4.045  11.751 -0.9787  0.4436 -0.0075
  157TCq2    O4 2396   1.172   4.161  11.714 -1.1273  0.2737 -0.0566
  157TCq2    C9 2397   1.572   4.007  11.993 -0.1638  0.2396 -0.5434
  157TCq2    O5 2398   1.604   4.110  11.931 -0.1850 -0.2982 -0.1847
  157TCq2    O6 2399   1.643   3.946  12.077 -0.3109  0.1118  0.1968
  157TCq2    H2 2400   1.441   3.841  12.135  0.4955 -0.1966 -0.4064
  157TCq2    H3 2401   1.415   4.089  11.800 -0.7078 -0.8763 -2.1542
  157TCq2    H4 2402   1.069   3.880  11.937 -0.0821 -0.6537  0.1672
  158TMC2    C1 2403   0.767   3.067  13.145 -0.1463 -0.2783  0.4852
  158TMC2    C2 2404   0.791   3.119  13.022 -0.2279 -0.2401  0.6504
  158TMC2    C3 2405   0.715   3.085  12.917  0.4487  0.6236 -0.3861
  158TMC2    C4 2406   0.640   3.024  13.172  0.7275  0.4994 -0.0039
  158TMC2    C5 2407   0.557   2.999  13.065  0.8420 -0.1607 -0.4058
  158TMC2    C6 2408   0.591   3.032  12.938 -1.2292  0.2317  0.0547
  158TMC2     C 2409   0.842   3.130  13.247  0.1749  0.1342 -0.0934
  158TMC2     O 2410   0.882   3.243  13.231 -0.1896  0.0512 -0.1331
  158TMC2     H 2411   0.890   3.163  13.007  1.0224 -3.3510 -0.2087
  158TMC2    H1 2412   0.616   3.007  13.277  0.5140 -0.8314 -0.2670
  158TMC2    H2 2413   0.526   3.005  12.855 -0.2633 -0.4396 -0.4775
  158TMC2    C7 2414   0.427   2.955  13.081 -0.5392 -0.6528 -0.3922
  158TMC2    C8 2415   0.739   3.113  12.776 -0.1441 -0.3923  0.5121
  158TMC2    O1 2416   0.354   2.962  12.985 -0.5793  0.6297  0.2455
  158TMC2    O2 2417   0.668   3.060  12.691  0.0093  0.6282 -0.1100
  158TMC2    O5 2418   0.823   3.217  12.757 -0.0963  0.5325  0.1084
  158TMC2    H5 2419   0.842   3.275  12.833  0.8626 -0.4056  0.5827
  159MPD2     C 2420   1.010   3.127  13.715 -0.1609 -0.3568 -0.7040
  159MPD2    C1 2421   0.945   3.010  13.694  0.7852 -0.1793 -0.5679
  159MPD2    C2 2422   0.886   2.987  13.571  0.3814 -0.5535 -0.4148
  159MPD2    C3 2423   0.904   3.081  13.476 -0.0021  0.3048  0.1645
  159MPD2    C4 2424   0.973   3.196  13.501 -0.7563 -0.6894 -0.1604
  159MPD2    C5 2425   1.038   3.216  13.619  0.0509 -0.3468  0.3832
  159MPD2     H 2426   0.831   2.895  13.556 -2.7428  0.9583  1.8130
  159MPD2    H1 2427   0.981   3.273  13.424  0.1626  0.2629  0.8736
  159MPD2    H2 2428   1.048   3.151  13.814 -1.7802 -1.5762  0.2018
  159MPD2    H3 2429   1.088   3.309  13.646  0.7261 -0.8078  0.7416
  159MPD2     N 2430   0.852   3.048  13.353  0.2422  0.1983  0.0373
  159MPD2    H5 2431   0.818   2.953  13.345 -3.2004  1.2627  2.0287
  159MPD2    N1 2432   0.927   2.935  13.811  0.4892 -0.0297 -0.0121
  159MPD2    H7 2433   0.966   2.975  13.896 -1.3930 -0.1201  0.8827
  160TMC2    C1 2434   0.569   0.854   1.479  0.5465 -0.9432 -0.4452
  160TMC2    C2 2435   0.678   0.821   1.557  0.7553 -0.3984 -0.0561
  160TMC2    C3 2436   0.804   0.824   1.494 -0.2985 -1.1873  0.4554
  160TMC2    C4 2437   0.576   0.917   1.355 -0.3232  0.0635 -0.6222
  160TMC2    C5 2438   0.700   0.920   1.300 -0.4277 -0.6552 -0.6158
  160TMC2    C6 2439   0.814   0.865   1.362 -0.1983  0.3574 -0.3216
  160TMC2     C 2440   0.445   0.845   1.553 -0.4806 -0.4864 -0.5237
  160TMC2     O 2441   0.442   0.812   1.670 -0.7278  0.4744  0.2994
  160TMC2     H 2442   0.674   0.779   1.657 -1.4892  0.6629  0.3058
  160TMC2    H1 2443   0.493   0.970   1.310 -1.2529 -0.2251  0.7646
  160TMC2    H2 2444   0.910   0.848   1.314  0.7797  0.8955  1.4743
  160TMC2    C7 2445   0.716   0.962   1.163 -0.5528  0.8226  0.6719
  160TMC2    C8 2446   0.917   0.776   1.574 -0.5272 -1.1973  0.4424
  160TMC2    O1 2447   0.620   0.954   1.090  0.5289 -0.0395 -0.6386
  160TMC2    O2 2448   0.906   0.735   1.689 -0.2196  0.3819 -0.1062
  160TMC2    O5 2449   1.024   0.840   1.524 -0.1582 -0.1073 -0.1129
  160TMC2    H5 2450   0.998   0.913   1.463 -1.5009 -1.1226 -0.7509
  161MPD2     C 2451   0.169   0.810   1.646 -0.7053  0.0748  0.5840
  161MPD2    C1 2452   0.202   0.862   1.526 -0.4134  0.7259 -1.0220
  161MPD2    C2 2453   0.098   0.915   1.447  0.1336 -0.2937  0.0271
  161MPD2    C3 2454   4.693   0.915   1.493 -0.1373 -0.1656 -0.3632
  161MPD2    C4 2455   4.664   0.864   1.615 -0.0550  0.1511  0.6611
  161MPD2    C5 2456   0.038   0.812   1.692 -0.6134 -0.7612  0.4861
  161MPD2     H 2457   0.129   0.954   1.351  0.9604 -0.0664  0.3852
  161MPD2    H1 2458   4.564   0.869   1.658 -1.3285 -3.1569 -1.9565
  161MPD2    H2 2459   0.238   0.764   1.717 -0.3296 -1.4492 -0.7679
  161MPD2    H3 2460   0.017   0.781   1.794 -2.0669 -0.7616  0.1828
  161MPD2     N 2461   4.586   0.968   1.423  0.2489 -0.0205 -0.6152
  161MPD2    H5 2462   4.494   0.966   1.467 -1.0105 -2.1491 -3.3599
  161MPD2    N1 2463   0.332   0.868   1.477 -0.0057 -0.1623 -0.5107
  161MPD2    H7 2464   0.341   0.898   1.380 -0.7435 -0.7971 -0.7839
  162TMC2    C1 2465   2.803   3.273   0.830  0.3479 -0.5746 -0.0515
  162TMC2    C2 2466   2.712   3.177   0.806 -0.2452 -0.2164  0.2554
  162TMC2    C3 2467   2.601   3.171   0.882 -0.2203  0.2406 -0.0554
  162TMC2    C4 2468   2.781   3.353   0.937  0.0762  0.3516 -0.5672
  162TMC2    C5 2469   2.668   3.336   1.015 -0.4315 -0.4000  0.3373
  162TMC2    C6 2470   2.562   3.254   0.989 -0.0795 -0.1751 -0.4774
  162TMC2     C 2471   2.925   3.293   0.747 -0.4251  0.0297  0.6920
  162TMC2     O 2472   2.960   3.195   0.684  0.4871  0.2326 -0.1851
  162TMC2     H 2473   2.722   3.107   0.725 -2.2793 -0.5228  0.2685
  162TMC2    H1 2474   2.847   3.437   0.956  0.1516 -0.1286  1.2868
  162TMC2    H2 2475   2.475   3.238   1.051 -0.0452 -0.2288 -0.4430
  162TMC2    C7 2476   2.661   3.404   1.146  0.7908  0.0259 -0.4272
  162TMC2    C8 2477   2.496   3.085   0.831 -0.1842 -0.4414 -0.5598
  162TMC2    O1 2478   2.547   3.404   1.193 -0.4949 -0.0006  0.4005
  162TMC2    O2 2479   2.498   3.049   0.719  0.1063  0.5121 -0.0281
  162TMC2    O5 2480   2.460   3.007   0.935  0.0439  0.9097  0.4947
  162TMC2    H5 2481   2.516   3.022   1.014  1.3549  0.4219 -0.3508
  163MPD2     C 2482   3.312   3.551   0.532  0.1146  0.9468 -0.6931
  163MPD2    C1 2483   3.293   3.415   0.556 -0.2274  0.1386  0.2778
  163MPD2    C2 2484   3.185   3.371   0.630 -0.9753 -0.3090 -0.3912
  163MPD2    C3 2485   3.088   3.463   0.684 -0.3689  0.0175 -0.1096
  163MPD2    C4 2486   3.123   3.594   0.674  0.4031 -0.4630 -0.3681
  163MPD2    C5 2487   3.226   3.637   0.593 -0.4749 -0.2510 -0.0431
  163MPD2     H 2488   3.175   3.263   0.637 -1.9847 -0.1567  0.5004
  163MPD2    H1 2489   3.073   3.672   0.731 -0.7241  0.0576 -2.0912
  163MPD2    H2 2490   3.399   3.595   0.484  0.6437 -2.1929 -2.6505
  163MPD2    H3 2491   3.242   3.744   0.583 -0.8812 -0.0487  1.4729
  163MPD2     N 2492   2.972   3.423   0.749 -0.2937  0.3084  0.1526
  163MPD2    H5 2493   2.925   3.489   0.811 -1.7514  0.4008 -1.0617
  163MPD2    N1 2494   3.399   3.333   0.505 -0.3148  0.0285  0.5834
  163MPD2    H7 2495   3.472   3.377   0.450 -1.1907 -2.2410 -2.3515
  164TCq2    C1 2496   4.310   2.395  11.176  0.5246  1.3491 -0.6418
  164TCq2    O2 2497   4.240   2.351  11.262  0.2935  0.2534  0.3107
  164TCq2    C2 2498   4.305   2.541  11.150 -0.2116 -0.0415 -0.6298
  164TCq2    C3 2499   4.385   2.603  11.056 -0.1099 -0.2376 -0.4372
  164TCq2    C4 2500   4.357   2.730  11.020 -0.0701  0.4535  0.4874
  164TCq2    C5 2501   4.261   2.796  11.089  0.6154 -0.8331 -0.1171
  164TCq2    C6 2502   4.203   2.746  11.196  0.2648 -0.7784 -0.6862
  164TCq2    C7 2503   4.221   2.611  11.239  0.2830  0.1500 -0.6931
  164TCq2    C8 2504   4.088   2.816  11.241 -0.6952 -0.6399 -0.8595
  164TCq2    O4 2505   4.038   2.901  11.166 -0.2674 -0.5141 -0.0084
  164TCq2    C9 2506   4.418   2.780  10.897 -0.1403 -1.3142  0.7968
  164TCq2    O5 2507   4.515   2.716  10.853 -0.4147  0.0281  0.2468
  164TCq2    O6 2508   4.387   2.894  10.853  0.7343  0.0043 -0.8116
  164TCq2    H2 2509   4.446   2.550  10.985  2.9244  1.0328  1.2152
  164TCq2    H3 2510   4.237   2.895  11.052 -0.5329 -1.0690  0.0129
  164TCq2    H4 2511   4.158   2.561  11.311  1.3470  0.6131  0.5542
  165MPD2     C 2512   0.368   4.084   1.449  0.5652  0.2086  0.3614
  165MPD2    C1 2513   0.304   4.176   1.527 -0.1300  0.1745  0.2756
  165MPD2    C2 2514   0.378   4.245   1.620 -0.4737 -0.1911  0.4439
  165MPD2    C3 2515   0.513   4.225   1.621 -0.2521  0.1202 -0.6857
  165MPD2    C4 2516   0.570   4.123   1.554 -0.0449 -0.3182 -0.4140
  165MPD2    C5 2517   0.500   4.057   1.458  0.1598 -0.0239  0.0721
  165MPD2     H 2518   0.340   4.318   1.691  0.2568 -0.5090  1.1637
  165MPD2    H1 2519   0.676   4.107   1.564 -0.7804 -4.7303  0.2088
  165MPD2    H2 2520   0.314   4.018   1.382 -1.2786  1.1831  0.9002
  165MPD2    H3 2521   0.536   3.971   1.402  0.1153 -0.6591  1.0087
  165MPD2     N 2522   0.605   4.297   1.704 -0.3584  1.0841  0.3835
  165MPD2    H5 2523   0.698   4.261   1.719 -1.1980 -1.6828 -1.0318
  165MPD2    N1 2524   0.165   4.182   1.517 -0.2576 -1.0108 -0.0056
  165MPD2    H7 2525   0.123   4.152   1.429 -0.5013 -2.4748  0.6118
  166TCq2    C1 2526   0.585   4.427   1.741  0.7022  0.3492 -0.4726
  166TCq2    O2 2527   0.501   4.502   1.694 -0.3666 -0.2751 -0.4166
  166TCq2    C2 2528   0.694   4.480   1.828 -0.6908 -0.0482  0.6598
  166TCq2    C3 2529   0.783   4.399   1.889  0.1036  0.3305  0.3643
  166TCq2    C4 2530   0.899   4.459   1.934  0.8864 -0.0592  0.1261
  166TCq2    C5 2531   0.908   4.594   1.938 -0.3609 -0.0833  0.6977
  166TCq2    C6 2532   0.818   4.674   1.873  0.2194 -0.1251 -0.0699
  166TCq2    C7 2533   0.712   4.611   1.812  0.1689  0.8873 -0.3514
  166TCq2    C8 2534   0.857   0.080   1.823 -0.0553 -0.3308 -0.0545
  166TCq2    O4 2535   0.978   0.100   1.823  0.1243  0.7527  0.1307
  166TCq2    C9 2536   0.999   4.371   2.002  0.1146  0.0971  0.1272
  166TCq2    O5 2537   0.969   4.253   2.016 -0.2234  0.2949 -0.0080
  166TCq2    O6 2538   1.113   4.420   2.029 -0.3202  0.5053  0.4685
  166TCq2    H2 2539   0.769   4.294   1.908  0.4885 -0.2456 -2.6038
  166TCq2    H3 2540   0.997   4.645   1.974 -0.3026 -0.6986  1.4477
  166TCq2    H4 2541   0.646   4.666   1.746 -0.5160  0.3501 -0.1044
  167TMC2    C1 2542   3.198   2.620  12.324  0.3219  0.2176 -0.5976
  167TMC2    C2 2543   3.158   2.701  12.430  1.2381  0.2118 -0.0793
  167TMC2    C3 2544   3.192   2.666  12.556  0.3577 -0.3010 -0.5826
  167TMC2    C4 2545   3.249   2.494  12.354 -0.1735  0.3389 -0.3184
  167TMC2    C5 2546   3.298   2.473  12.473 -0.2590  0.1025  0.3905
  167TMC2    C6 2547   3.275   2.558  12.575  0.7227  0.1660 -0.4848
  167TMC2     C 2548   3.123   2.635  12.202 -0.5006 -0.1527  0.9535
  167TMC2     O 2549   3.115   2.752  12.168 -0.5333 -0.2398 -0.1356
  167TMC2     H 2550   3.106   2.795  12.412 -3.0095 -2.1349  0.0552
  167TMC2    H1 2551   3.272   2.424  12.275  0.8261  0.9141 -0.5361
  167TMC2    H2 2552   3.310   2.518  12.669  2.5586  2.4472 -0.2075
  167TMC2    C7 2553   3.321   2.337  12.519 -0.2320  0.1511  0.5666
  167TMC2    C8 2554   3.210   2.779  12.645  0.4360 -0.4674 -0.0695
  167TMC2    O1 2555   3.254   2.297  12.614  0.6218  1.0607 -0.9494
  167TMC2    O2 2556   3.237   2.892  12.617  0.5129  0.7176 -0.6577
  167TMC2    O5 2557   3.245   2.711  12.756 -0.1921  0.1869 -0.2276
  167TMC2    H5 2558   3.175   2.647  12.781  0.3620 -0.8507 -1.3463
  168MPD2     C 2559   3.020   2.593  11.938  0.4634 -0.1464  0.1771
  168MPD2    C1 2560   3.000   2.502  12.040  0.0498  0.4200  0.0919
  168MPD2    C2 2561   2.926   2.390  12.019  0.1986  0.0203  0.4103
  168MPD2    C3 2562   2.867   2.370  11.901 -0.1561  0.2699  0.4409
  168MPD2    C4 2563   2.890   2.460  11.792  0.6913 -0.2982  0.8398
  168MPD2    C5 2564   2.968   2.567  11.815  0.1420  0.3515 -0.5646
  168MPD2     H 2565   2.912   2.321  12.102  0.2779  0.7593  1.0380
  168MPD2    H1 2566   2.842   2.442  11.696  0.7859 -0.4245  0.8160
  168MPD2    H2 2567   3.089   2.676  11.943  0.9873 -0.6981  2.2040
  168MPD2    H3 2568   2.995   2.612  11.720 -2.7603  1.2673 -0.9521
  168MPD2     N 2569   2.799   2.255  11.867  0.1540 -0.0539  0.3111
  168MPD2    H5 2570   2.760   2.253  11.773  1.0497 -0.1572 -0.0612
  168MPD2    N1 2571   3.066   2.517  12.165 -0.2270  0.4487 -0.3761
  168MPD2    H7 2572   3.072   2.440  12.231  0.8047  0.7540 -0.1264
  169MPD1     C 2573   2.524   1.034   9.027 -0.2978 -0.4199 -0.9222
  169MPD1    C1 2574   2.532   1.061   9.164  0.1197  0.5590 -0.2447
  169MPD1    C2 2575   2.428   1.121   9.224  0.2106  0.1426  0.5273
  169MPD1    C3 2576   2.314   1.158   9.149  0.5004 -0.6528  0.1543
  169MPD1    C4 2577   2.311   1.137   9.013  0.4417  0.1358  0.3080
  169MPD1    C5 2578   2.418   1.080   8.954  0.9574 -0.5526 -0.5858
  169MPD1     H 2579   2.423   1.131   9.331  0.2552  0.7295  0.4753
  169MPD1    H1 2580   2.222   1.151   8.952  2.7268  4.8939 -1.9462
  169MPD1    H2 2581   2.606   0.982   8.981  0.2873 -0.2102 -0.1197
  169MPD1    H3 2582   2.419   1.074   8.846  1.1804 -1.6578 -0.5215
  169MPD1     N 2583   2.205   1.215   9.222  0.1629 -0.3714 -0.6670
  169MPD1    H5 2584   2.214   1.217   9.323 -1.8896  2.4626 -0.5269
  169MPD1    N1 2585   2.647   1.034   9.245  0.8031  0.3945 -0.1219
  169MPD1    H6 2586   2.622   1.020   9.343 -0.2616  1.8041 -0.1921
  169MPD1    H7 2587   2.716   0.968   9.211 -0.3714 -0.1952 -1.3604
  170MPD1     C 2588   4.253   4.319  12.979 -0.7145  0.1454 -0.3064
  170MPD1    C1 2589   4.313   4.264  13.084 -0.3008 -0.4635 -0.2298
  170MPD1    C2 2590   4.298   4.336  13.202  0.2458 -0.1090 -0.3510
  170MPD1    C3 2591   4.232   4.458  13.212 -0.4932  0.0790 -0.2868
  170MPD1    C4 2592   4.162   4.497  13.103 -0.1145 -0.3111 -0.1650
  170MPD1    C5 2593   4.183   4.434  12.988 -0.4128  0.3178 -0.0544
  170MPD1     H 2594   4.330   4.286  13.293 -1.5160  1.0311  0.8843
  170MPD1    H1 2595   4.113   4.593  13.110 -2.0022 -1.4512  2.1794
  170MPD1    H2 2596   4.250   4.276  12.879  0.0742  1.1445 -0.7530
  170MPD1    H3 2597   4.139   4.483  12.902 -1.0537 -1.7224 -0.9117
  170MPD1     N 2598   4.234   4.528  13.332  0.0346  0.2563  0.5765
  170MPD1    H5 2599   4.286   4.482  13.406  0.6343  1.8236  1.1122
  170MPD1    N1 2600   4.348   4.127  13.075  0.1903 -0.1667 -0.4954
  170MPD1    H6 2601   4.378   4.105  12.981 -0.3004 -1.0501 -0.4499
  170MPD1    H7 2602   4.432   4.110  13.129 -1.0348 -0.9762  1.1484
  171MPD1     C 2603   2.926   1.137  15.717  0.3151  0.0288 -0.6045
  171MPD1    C1 2604   2.869   1.009  15.720 -0.6980  0.7028 -0.1798
  171MPD1    C2 2605   2.958   0.905  15.756  0.7496 -0.9363 -0.1107
  171MPD1    C3 2606   3.097   0.920  15.766  0.2248  0.4341  0.0628
  171MPD1    C4 2607   3.148   1.053  15.756 -0.1076 -0.1230 -0.1146
  171MPD1    C5 2608   3.058   1.150  15.734 -0.5734 -0.2863  0.4004
  171MPD1     H 2609   2.922   0.804  15.773  0.6204 -1.2712 -2.3598
  171MPD1    H1 2610   3.255   1.068  15.764  0.0940 -1.2296 -0.7033
  171MPD1    H2 2611   2.858   1.221  15.707  0.8927  0.5343 -0.3050
  171MPD1    H3 2612   3.101   1.249  15.731  1.9405 -1.4097 -0.2017
  171MPD1     N 2613   3.189   0.821  15.801  0.1302  0.3388 -0.1864
  171MPD1    H5 2614   3.286   0.843  15.819  0.2321  1.5292 -2.1847
  171MPD1    N1 2615   2.728   0.992  15.717 -0.4242  0.3580 -0.7005
  171MPD1    H6 2616   2.711   0.900  15.678 -0.5306 -0.8347  2.1600
  171MPD1    H7 2617   2.678   1.063  15.664  0.1757  0.8736 -0.5706
  172MPD1     C 2618   2.274   4.683   0.228  0.6411  0.2139 -0.3477
  172MPD1    C1 2619   2.317   0.024   0.341 -0.1336 -0.5388 -0.7492
  172MPD1    C2 2620   2.321   0.161   0.340  0.1244 -0.5262  0.9209
  172MPD1    C3 2621   2.304   0.233   0.225 -0.7506 -0.5163  0.3411
  172MPD1    C4 2622   2.276   0.172   0.107  0.0999  0.2077 -0.3569
  172MPD1    C5 2623   2.250   0.039   0.115  0.3320  0.2232 -0.1751
  172MPD1     H 2624   2.343   0.209   0.435 -0.5436  3.5671 -0.9918
  172MPD1    H1 2625   2.252   0.224   0.015 -0.1010 -0.4929 -0.6975
  172MPD1    H2 2626   2.251   4.578   0.221 -0.4310  0.5914 -2.5197
  172MPD1    H3 2627   2.209   4.714   0.027  0.5071  1.1376 -0.7545
  172MPD1     N 2628   2.303   0.372   0.221 -1.0724  0.1965  0.3307
  172MPD1    H5 2629   2.274   0.420   0.136  2.1024  0.3577 -0.6852
  172MPD1    N1 2630   2.334   4.681   0.460 -0.1990 -0.0937  0.4677
  172MPD1    H6 2631   2.369   4.586   0.449  0.0497 -0.1096  1.3976
  172MPD1    H7 2632   2.407   0.003   0.514 -1.8857  2.4760  0.5690
  173MPD1     C 2633   3.809   0.520  14.744  0.8369  0.3805 -0.4205
  173MPD1    C1 2634   3.825   0.417  14.657 -0.5417 -0.7680  0.0517
  173MPD1    C2 2635   3.770   0.292  14.693  0.2163  0.0625  1.0530
  173MPD1    C3 2636   3.714   0.271  14.816  0.1478  0.0644 -0.3467
  173MPD1    C4 2637   3.713   0.377  14.907 -0.4662 -0.0588  0.0037
  173MPD1    C5 2638   3.754   0.496  14.868 -0.6778 -0.2603  0.6214
  173MPD1     H 2639   3.774   0.206  14.626 -0.7266  0.8281  0.0143
  173MPD1    H1 2640   3.662   0.375  15.003  0.0842 -0.7907  0.2811
  173MPD1    H2 2641   3.856   0.615  14.722  1.3165  0.2352 -0.0473
  173MPD1    H3 2642   3.739   0.580  14.934 -2.0787  0.6344 -0.8113
  173MPD1     N 2643   3.652   0.148  14.843 -0.2821 -0.5119  0.0697
  173MPD1    H5 2644   3.655   0.073  14.775  0.5958 -0.4549  0.0494
  173MPD1    N1 2645   3.896   0.434  14.534  1.0686  0.3455 -0.1161
  173MPD1    H6 2646   3.948   0.522  14.531 -0.5348  1.2869 -0.0363
  173MPD1    H7 2647   3.967   0.361  14.542 -1.3569 -2.0496 -0.4191
  174MPD1     C 2648   3.337   4.616  14.123  0.0840  1.0136 -1.0404
  174MPD1    C1 2649   3.333   4.503  14.200  0.3386  0.3222  0.4652
  174MPD1    C2 2650   3.363   4.518  14.331  0.8139  1.0589  0.0788
  174MPD1    C3 2651   3.358   4.647  14.395 -0.8231 -0.4131  0.4946
  174MPD1    C4 2652   3.351   0.034  14.317 -0.2026  0.0506 -0.5317
  174MPD1    C5 2653   3.341   0.020  14.179 -0.1694 -0.4311 -0.1769
  174MPD1     H 2654   3.376   4.427  14.387  1.2517  1.0378 -0.0592
  174MPD1    H1 2655   3.355   0.136  14.353 -2.4534 -0.6742  1.7625
  174MPD1    H2 2656   3.329   4.602  14.016  1.7427  2.8576 -1.4130
  174MPD1    H3 2657   3.357   0.106  14.115  1.5507 -1.1888 -0.7779
  174MPD1     N 2658   3.352   4.669  14.534  0.1391 -0.5499  0.2520
  174MPD1    H5 2659   3.362   0.042  14.563  0.1495 -0.5067  0.1082
  174MPD1    N1 2660   3.346   4.378  14.131 -0.3993 -0.2122 -0.1968
  174MPD1    H6 2661   3.292   4.360  14.046  0.4854 -0.0543 -0.7842
  174MPD1    H7 2662   3.318   4.298  14.187 -0.8217  0.2381  0.2275
  175MPD1     C 2663   2.057   1.180  15.918  0.6025  0.2395  0.5631
  175MPD1    C1 2664   2.010   1.053  15.913  0.7201 -0.3974  0.0927
  175MPD1    C2 2665   1.994   0.985  16.031  0.2442 -0.1842 -0.2397
  175MPD1    C3 2666   2.038   1.045  16.153 -0.0561  0.1337 -0.0485
  175MPD1    C4 2667   2.109   1.165  16.143 -0.1823  0.2200 -0.5721
  175MPD1    C5 2668   2.121   1.232  16.030  0.1392  0.3815  0.5229
  175MPD1     H 2669   1.949   0.886  16.028 -1.9035  0.8786 -2.4718
  175MPD1    H1 2670   2.142   1.215  16.233 -0.1347  1.6760 -1.3865
  175MPD1    H2 2671   2.073   1.236  15.827  1.3369 -0.6502  0.1413
  175MPD1    H3 2672   2.163   1.332  16.028  0.8947  0.0570 -0.2261
  175MPD1     N 2673   2.027   0.984  16.279  0.3609  0.0130 -0.5539
  175MPD1    H5 2674   2.063   1.035  16.359  0.8813 -2.0573  0.5500
  175MPD1    N1 2675   1.967   1.015  15.784  1.2627  0.1778 -0.2773
  175MPD1    H6 2676   1.997   0.918  15.776  1.5236  0.1349  1.1614
  175MPD1    H7 2677   2.002   1.070  15.706 -1.6333  0.3951 -1.4281
  176MPD1     C 2678   4.541   2.502  16.072 -0.0487 -0.2426  0.0405
  176MPD1    C1 2679   4.575   2.629  16.110 -0.0632 -0.3375  0.0277
  176MPD1    C2 2680   4.492   2.692  16.197  0.5185 -0.1003 -0.2488
  176MPD1    C3 2681   4.386   2.622  16.264  0.1457 -0.0833  0.5519
  176MPD1    C4 2682   4.354   2.497  16.215 -0.4867  0.1983 -0.5847
  176MPD1    C5 2683   4.430   2.438  16.115 -0.0506 -0.4143 -0.5959
  176MPD1     H 2684   4.529   2.788  16.231 -0.2713  0.0423  0.1906
  176MPD1    H1 2685   4.275   2.443  16.266  0.0341 -0.6051 -0.6232
  176MPD1    H2 2686   4.589   2.459  15.985  1.6118  0.8926  0.4047
  176MPD1    H3 2687   4.423   2.336  16.079  2.7132 -1.4610  1.8059
  176MPD1     N 2688   4.314   2.684  16.375 -0.2232  0.0142 -0.6187
  176MPD1    H5 2689   4.345   2.776  16.403 -0.7578  0.1115 -0.3566
  176MPD1    N1 2690   4.672   2.700  16.042  0.0696  0.1784  0.0970
  176MPD1    H6 2691   0.019   2.637  16.005  0.0250  1.3392 -1.9636
  176MPD1    H7 2692   4.721   2.762  16.106 -2.8676  0.0559  2.4637
  177MPD1     C 2693   2.485   3.102  10.592 -0.1186 -0.3236  0.0009
  177MPD1    C1 2694   2.498   3.224  10.542  0.7738  0.4202 -0.5322
  177MPD1    C2 2695   2.482   3.243  10.406 -0.0463 -0.0460  0.5241
  177MPD1    C3 2696   2.422   3.146  10.327  0.0299 -0.1390 -0.3018
  177MPD1    C4 2697   2.408   3.019  10.375  0.7558 -0.3297  0.4587
  177MPD1    C5 2698   2.441   3.000  10.508 -0.5394  0.2886 -0.0929
  177MPD1     H 2699   2.504   3.342  10.367  0.4720  0.1633  1.3490
  177MPD1    H1 2700   2.382   2.929  10.320  1.0378  0.5134 -1.0296
  177MPD1    H2 2701   2.510   3.081  10.696  0.0234 -1.9909 -0.3759
  177MPD1    H3 2702   2.440   2.895  10.535  1.2122  0.7511  1.7541
  177MPD1     N 2703   2.368   3.178  10.198 -0.0617  0.1512  0.2161
  177MPD1    H5 2704   2.389   3.271  10.163 -0.1233  0.6712  1.5991
  177MPD1    N1 2705   2.548   3.326  10.624 -0.2268 -0.0808 -0.3770
  177MPD1    H6 2706   2.527   3.421  10.591 -0.9633  0.0487  0.4608
  177MPD1    H7 2707   2.517   3.318  10.720  0.6728 -2.4108 -0.3011
  178MPD1     C 2708   4.361   4.359   0.432  0.2916 -0.4854 -1.2358
  178MPD1    C1 2709   4.501   4.373   0.439  0.4266  0.0157 -1.0439
  178MPD1    C2 2710   4.579   4.311   0.342 -0.5261 -0.2699 -0.2278
  178MPD1    C3 2711   4.522   4.276   0.223 -0.0323 -0.1935  0.1118
  178MPD1    C4 2712   4.386   4.279   0.201 -0.1777  0.0510 -0.1099
  178MPD1    C5 2713   4.309   4.317   0.305 -0.0100  0.1823  0.3744
  178MPD1     H 2714   4.686   4.322   0.356 -0.5103  0.1872 -0.7148
  178MPD1    H1 2715   4.341   4.238   0.110 -1.3470  0.2372  0.3836
  178MPD1    H2 2716   4.298   4.405   0.507  0.0916 -1.3824 -0.8431
  178MPD1    H3 2717   4.203   4.316   0.280 -0.2018 -1.9800  1.2501
  178MPD1     N 2718   4.600   4.225   0.123  0.5399  0.3571 -0.3777
  178MPD1    H5 2719   4.539   4.207   0.044 -0.8488 -1.8426  1.1955
  178MPD1    N1 2720   4.555   4.424   0.560 -0.3963  0.0836  0.0069
  178MPD1    H6 2721   4.641   4.476   0.544 -1.1632  1.2875 -0.2048
  178MPD1    H7 2722   4.482   4.487   0.593 -1.0485  0.5907 -2.3754
  179MPD1     C 2723   4.114   2.187  16.194  0.2207 -0.2910  0.0712
  179MPD1    C1 2724   4.006   2.134  16.127  0.1655 -1.1659  0.9691
  179MPD1    C2 2725   4.020   2.012  16.066 -0.7440 -0.0763  0.4975
  179MPD1    C3 2726   4.142   1.955  16.058  0.2844  0.4207  0.3091
  179MPD1    C4 2727   4.253   2.005  16.122 -0.2510  0.6514 -0.4076
  179MPD1    C5 2728   4.237   2.124  16.192 -0.5821 -0.2877 -0.9789
  179MPD1     H 2729   3.928   1.968  16.027  0.1843  1.0256 -3.0009
  179MPD1    H1 2730   4.352   1.961  16.114 -0.0816  0.5947  1.9426
  179MPD1    H2 2731   4.107   2.281  16.247  4.1053  0.1612 -0.2150
  179MPD1    H3 2732   4.321   2.160  16.250 -0.4646 -0.3205 -1.1272
  179MPD1     N 2733   4.162   1.839  15.984  0.4455 -0.7082  0.8367
  179MPD1    H5 2734   4.255   1.801  15.980 -0.0329 -1.9581  1.7312
  179MPD1    N1 2735   3.876   2.198  16.135  0.5026 -0.0886 -0.4296
  179MPD1    H6 2736   3.895   2.298  16.137  1.6123 -0.3216  0.3907
  179MPD1    H7 2737   3.813   2.165  16.062 -1.5816  0.3287  1.1993
  180MPD1     C 2738   2.760   3.432  14.845  0.3402  0.2295 -0.4153
  180MPD1    C1 2739   2.780   3.438  14.705  0.0131 -0.2044 -0.2235
  180MPD1    C2 2740   2.911   3.467  14.665  0.1554 -0.4836  0.2928
  180MPD1    C3 2741   3.017   3.475  14.759 -0.2780  0.2205  0.3974
  180MPD1    C4 2742   2.992   3.463  14.895 -1.0316 -0.0300 -0.6912
  180MPD1    C5 2743   2.861   3.449  14.939 -0.5390 -0.0441 -0.0742
  180MPD1     H 2744   2.931   3.492  14.562  2.3678  0.1832  0.8923
  180MPD1    H1 2745   3.063   3.470  14.978 -0.5658 -3.0921 -0.8269
  180MPD1    H2 2746   2.662   3.426  14.889 -0.2517  0.8437 -1.6470
  180MPD1    H3 2747   2.845   3.470  15.044 -0.0274 -1.4802  0.2882
  180MPD1     N 2748   3.144   3.497  14.712 -0.0913  0.4501 -0.4379
  180MPD1    H5 2749   3.140   3.517  14.612  1.3021  1.2645 -0.3368
  180MPD1    N1 2750   2.666   3.453  14.617 -0.6542 -0.3585  0.2827
  180MPD1    H6 2751   2.582   3.402  14.640 -0.5179  0.9414  3.8179
  180MPD1    H7 2752   2.700   3.431  14.524 -1.8509 -3.4602  0.5968
  181MPD1     C 2753   0.165   0.523   9.625 -0.1085  0.1861  0.2535
  181MPD1    C1 2754   0.172   0.451   9.743 -0.7821  0.7558  0.1640
  181MPD1    C2 2755   0.293   0.450   9.813 -0.3921 -0.5274  0.0044
  181MPD1    C3 2756   0.406   0.520   9.764 -0.4965  0.5959  0.8150
  181MPD1    C4 2757   0.397   0.583   9.646  0.2953  0.0268 -0.1797
  181MPD1    C5 2758   0.277   0.575   9.575  0.4097 -0.2141  0.3939
  181MPD1     H 2759   0.298   0.403   9.910  0.1840 -2.2773 -0.8607
  181MPD1    H1 2760   0.478   0.643   9.607  1.5103 -0.7838  1.1053
  181MPD1    H2 2761   0.075   0.525   9.566  0.3826 -0.6079 -0.5248
  181MPD1    H3 2762   0.268   0.623   9.479  2.0403  1.4479  1.0675
  181MPD1     N 2763   0.536   0.526   9.831 -0.0133  0.5427  0.5954
  181MPD1    H5 2764   0.612   0.574   9.784  0.0748 -0.1865  0.0059
  181MPD1    N1 2765   0.064   0.361   9.772 -0.4724 -0.0203  1.1416
  181MPD1    H6 2766   4.693   0.398   9.777 -0.3610  0.4483 -0.2200
  181MPD1    H7 2767   0.086   0.311   9.858  0.5251 -1.2919  0.1707
  182MPD1     C 2768   2.254   0.096   1.755  1.0090 -0.3428  0.0441
  182MPD1    C1 2769   2.136   0.160   1.757 -0.5447  0.6146  1.2319
  182MPD1    C2 2770   2.051   0.148   1.652  0.3357  0.1760  0.3536
  182MPD1    C3 2771   2.076   0.078   1.535  0.5899  0.1797  0.3681
  182MPD1    C4 2772   2.198   0.022   1.532 -0.9489 -0.2060 -0.5818
  182MPD1    C5 2773   2.277   0.022   1.644 -0.1506  0.5593  0.5525
  182MPD1     H 2774   1.964   0.212   1.655  2.1785  2.7904 -1.2616
  182MPD1    H1 2775   2.224   4.684   1.446 -0.0219 -3.4845  2.0614
  182MPD1    H2 2776   2.321   0.091   1.839  0.0964 -0.6105  0.7622
  182MPD1    H3 2777   2.370   4.692   1.634 -2.3334 -2.8287 -1.7573
  182MPD1     N 2778   1.994   0.075   1.423 -0.2264 -0.2292 -0.7752
  182MPD1    H5 2779   2.037   0.024   1.347 -0.0647  0.2523 -1.0021
  182MPD1    N1 2780   2.122   0.263   1.854 -0.3334  0.1707  0.4650
  182MPD1    H6 2781   2.149   0.228   1.945 -0.3832 -0.7315  0.1350
  182MPD1    H7 2782   2.027   0.300   1.851  0.5378  2.4956  1.2896
  183MPD1     C 2783   2.740   1.065   9.589  0.4140  0.5852 -0.2875
  183MPD1    C1 2784   2.814   0.953   9.613  0.9755 -0.6321  0.2460
  183MPD1    C2 2785   2.765   0.865   9.704  0.5606  0.2941 -0.3405
  183MPD1    C3 2786   2.653   0.893   9.786  0.0949  0.3694  0.2303
  183MPD1    C4 2787   2.589   1.012   9.760  0.2372 -0.6905 -0.6298
  183MPD1    C5 2788   2.627   1.093   9.658 -0.7002  0.8996  0.2034
  183MPD1     H 2789   2.808   0.766   9.719 -3.0241 -1.0125  1.2774
  183MPD1    H1 2790   2.497   1.035   9.812  1.5325 -1.3037  1.9065
  183MPD1    H2 2791   2.766   1.130   9.506  0.3801  2.2384  1.0074
  183MPD1    H3 2792   2.572   1.183   9.634 -0.3111  1.0568 -0.1050
  183MPD1     N 2793   2.589   0.800   9.883 -0.2436  0.1314  0.7630
  183MPD1    H5 2794   2.504   0.835   9.925 -0.4324 -0.0484  0.5309
  183MPD1    N1 2795   2.902   0.914   9.513  0.1345  0.1828 -0.1111
  183MPD1    H6 2796   2.975   0.859   9.560  1.6781  3.0123  0.8004
  183MPD1    H7 2797   2.951   0.993   9.473 -0.1670 -0.1478 -1.1149
  184MPD1     C 2798   1.377   2.321   9.962 -0.4050  0.4143 -0.8044
  184MPD1    C1 2799   1.377   2.302   9.824 -0.0978 -0.2025 -0.2226
  184MPD1    C2 2800   1.467   2.385   9.753  0.2506 -0.6221  0.7112
  184MPD1    C3 2801   1.541   2.494   9.810 -0.3007  0.3023  0.0949
  184MPD1    C4 2802   1.522   2.515   9.940 -0.4926 -0.3698  0.6381
  184MPD1    C5 2803   1.436   2.435  10.015 -0.7578  0.3810 -0.2962
  184MPD1     H 2804   1.492   2.358   9.651  3.1139  3.1619  0.3923
  184MPD1    H1 2805   1.569   2.605   9.978  1.6379 -0.6006 -1.4571
  184MPD1    H2 2806   1.318   2.255  10.024 -1.1282  1.2288 -0.6211
  184MPD1    H3 2807   1.421   2.453  10.120 -2.1170  0.6393 -0.5407
  184MPD1     N 2808   1.607   2.601   9.738 -0.1290  0.4513 -0.0547
  184MPD1    H5 2809   1.656   2.675   9.787 -0.1437  0.5156 -0.1358
  184MPD1    N1 2810   1.315   2.189   9.765 -1.0693 -0.5738 -0.5172
  184MPD1    H6 2811   1.290   2.219   9.671  0.3614  1.9237 -0.0981
  184MPD1    H7 2812   1.230   2.161   9.813 -0.0151 -0.4728  1.4114
  185MPD1     C 2813   1.795   3.172   8.803 -0.2217 -0.0897 -0.2901
  185MPD1    C1 2814   1.712   3.058   8.809 -0.7576  0.0893 -0.7987
  185MPD1    C2 2815   1.693   3.007   8.939  0.4180 -0.5911 -0.2498
  185MPD1    C3 2816   1.737   3.071   9.053 -0.3993  0.8825 -0.6464
  185MPD1    C4 2817   1.814   3.190   9.040 -0.3832  0.3133 -0.0439
  185MPD1    C5 2818   1.842   3.235   8.911 -0.0996 -0.2929  0.3694
  185MPD1     H 2819   1.633   2.918   8.954 -1.3848  0.4514 -1.2943
  185MPD1    H1 2820   1.857   3.246   9.122  0.9809 -2.7879  1.3791
  185MPD1    H2 2821   1.813   3.207   8.702 -2.9806  0.0381 -0.7162
  185MPD1    H3 2822   1.916   3.314   8.905  0.5871 -1.0997 -1.9373
  185MPD1     N 2823   1.716   3.026   9.188  0.0226 -0.3378  0.4074
  185MPD1    H5 2824   1.759   3.088   9.256 -1.8006  1.3582  0.0276
  185MPD1    N1 2825   1.653   2.997   8.694 -0.1275 -0.0849 -0.9210
  185MPD1    H6 2826   1.665   3.053   8.609 -0.9394  0.0429 -0.9491
  185MPD1    H7 2827   1.558   2.965   8.712 -0.9843  3.0385  0.0576
  186MPD1     C 2828   4.591   1.756  16.239 -0.3893  0.1888 -0.5312
  186MPD1    C1 2829   4.695   1.830  16.190  0.0790 -0.0314  0.1469
  186MPD1    C2 2830   4.713   1.965  16.215 -0.0376 -0.8724 -0.2283
  186MPD1    C3 2831   4.625   2.024  16.309 -0.2697 -0.0407 -0.0250
  186MPD1    C4 2832   4.520   1.951  16.354  0.5633 -1.0323  0.1726
  186MPD1    C5 2833   4.499   1.823  16.318 -0.5623  0.3937 -0.4303
  186MPD1     H 2834   0.069   2.015  16.162 -1.5528  0.6386 -1.0561
  186MPD1    H1 2835   4.444   1.997  16.416  2.9648  4.3500 -0.8709
  186MPD1    H2 2836   4.569   1.655  16.207 -0.5353  0.0195  0.0896
  186MPD1    H3 2837   4.412   1.765  16.346 -1.2200  0.8103 -1.6080
  186MPD1     N 2838   4.624   2.157  16.355  0.1173  1.2223 -0.1903
  186MPD1    H5 2839   4.550   2.184  16.419 -0.0314  0.9000 -0.2258
  186MPD1    N1 2840   0.035   1.780  16.083  0.2949 -0.3657  0.2335
  186MPD1    H6 2841   0.129   1.817  16.071 -0.1773 -0.0664 -2.6193
  186MPD1    H7 2842   0.043   1.678  16.083 -0.2409 -0.4046 -0.2041
  187MPD1     C 2843   3.459   4.281   0.540  0.2042 -0.9804  0.3868
  187MPD1    C1 2844   3.485   4.164   0.472  0.1780  0.1526  0.3533
  187MPD1    C2 2845   3.531   4.175   0.341 -0.6496 -0.8722 -0.0876
  187MPD1    C3 2846   3.559   4.301   0.289 -0.4473 -0.1114  0.1175
  187MPD1    C4 2847   3.536   4.419   0.365 -0.7489  0.5439  0.1461
  187MPD1    C5 2848   3.493   4.405   0.492  0.5759 -0.5937  0.1190
  187MPD1     H 2849   3.542   4.080   0.290  2.0631 -1.4266  1.5444
  187MPD1    H1 2850   3.563   4.518   0.330  1.6377  0.3900  1.5282
  187MPD1    H2 2851   3.431   4.276   0.644  0.5608 -0.7916  0.4904
  187MPD1    H3 2852   3.489   4.499   0.545  2.4444 -1.3936  1.6699
  187MPD1     N 2853   3.593   4.329   0.154 -0.3574  1.0038  0.3691
  187MPD1    H5 2854   3.621   4.424   0.133 -2.7760  1.7391  0.5147
  187MPD1    N1 2855   3.442   4.043   0.524  0.4747  0.2371 -0.2788
  187MPD1    H6 2856   3.472   4.046   0.621 -0.6330  0.1560  0.0576
  187MPD1    H7 2857   3.493   3.966   0.481  0.1074 -1.0735  1.6507
  188MPD1     C 2858   3.069   4.175  10.556 -0.0587  0.6873 -0.6544
  188MPD1    C1 2859   3.177   4.108  10.605 -0.2512 -0.3281 -0.2788
  188MPD1    C2 2860   3.212   3.986  10.546 -0.4688 -1.3880  0.8775
  188MPD1    C3 2861   3.156   3.949  10.433  0.5093  0.4599 -0.0622
  188MPD1    C4 2862   3.045   4.016  10.381  0.6401  0.6432 -0.3773
  188MPD1    C5 2863   2.999   4.133  10.447  0.3229 -0.5949 -0.6703
  188MPD1     H 2864   3.293   3.931  10.592 -0.9274 -3.4250 -0.7228
  188MPD1    H1 2865   3.007   3.995  10.282  0.8419 -1.3695 -0.0343
  188MPD1    H2 2866   3.032   4.250  10.625  1.1480 -0.6635  1.4520
  188MPD1    H3 2867   2.910   4.189  10.424  0.0839 -0.7046 -0.0086
  188MPD1     N 2868   3.207   3.837  10.355 -0.3784  0.2833 -0.4413
  188MPD1    H5 2869   3.166   3.815  10.264  1.0498 -0.5556 -0.8816
  188MPD1    N1 2870   3.226   4.144  10.728  0.8549 -0.0502  0.5108
  188MPD1    H6 2871   3.324   4.115  10.735  0.8851  0.2469  1.3642
  188MPD1    H7 2872   3.224   4.245  10.739 -1.4006 -0.2107  1.6124
  189MPD1     C 2873   4.526   0.050   0.347  0.3464  0.2697 -0.1583
  189MPD1    C1 2874   4.448   0.012   0.245 -0.6356 -0.1618 -0.6985
  189MPD1    C2 2875   4.401   0.114   0.157  0.1429  1.0148  0.5709
  189MPD1    C3 2876   4.413   0.251   0.182 -0.0021  0.5531 -0.2677
  189MPD1    C4 2877   4.482   0.289   0.292 -0.0368  0.0837 -0.3636
  189MPD1    C5 2878   4.544   0.188   0.365  0.4967  0.1529 -0.5354
  189MPD1     H 2879   4.339   0.090   0.071 -0.1104 -1.3684  1.4274
  189MPD1    H1 2880   4.501   0.393   0.315  1.3940  0.1607 -1.8404
  189MPD1    H2 2881   4.576   4.704   0.413 -3.1755 -1.4599  0.6455
  189MPD1    H3 2882   4.611   0.208   0.448 -4.9126 -1.6509  4.3111
  189MPD1     N 2883   4.340   0.337   0.088  0.1532  0.1185  0.3071
  189MPD1    H5 2884   4.270   0.295   0.027  0.0627  1.3711 -0.4460
  189MPD1    N1 2885   4.446   4.600   0.204  0.6424  0.2553  0.5394
  189MPD1    H6 2886   4.450   4.532   0.280  0.3631 -0.3024  0.0519
  189MPD1    H7 2887   4.361   4.578   0.154  0.7549 -1.1615  0.9676
  190MPD1     C 2888   4.028   3.397  15.309 -0.0250 -0.5330  0.0548
  190MPD1    C1 2889   4.033   3.419  15.443 -0.1879  0.0533 -0.1988
  190MPD1    C2 2890   4.139   3.350  15.499  0.3094  0.3856  0.9835
  190MPD1    C3 2891   4.244   3.301  15.429 -0.5556 -0.0444  0.2792
  190MPD1    C4 2892   4.230   3.284  15.292  0.4072 -0.0499  0.0597
  190MPD1    C5 2893   4.116   3.333  15.235  1.0442 -0.4427 -0.0121
  190MPD1     H 2894   4.159   3.349  15.606 -0.1739  0.0368  1.0700
  190MPD1    H1 2895   4.306   3.237  15.230 -3.5036 -0.4213 -4.5228
  190MPD1    H2 2896   3.935   3.425  15.263 -0.2644 -0.7502  0.4074
  190MPD1    H3 2897   4.100   3.319  15.129 -0.3158 -2.9489  0.5339
  190MPD1     N 2898   4.358   3.252  15.502  0.6601  0.6309 -0.4668
  190MPD1    H5 2899   4.351   3.267  15.602 -0.3745  1.7739 -0.7090
  190MPD1    N1 2900   3.923   3.471  15.517 -0.1058 -0.3147  0.0903
  190MPD1    H6 2901   3.958   3.515  15.601  1.4934 -1.8331  0.2189
  190MPD1    H7 2902   3.867   3.539  15.465  1.5249  0.1656 -1.0237
  191MPD1     C 2903   3.080   0.630  13.215 -0.8182 -0.1785 -0.1464
  191MPD1    C1 2904   2.985   0.705  13.149 -0.1969  0.6273 -0.1059
  191MPD1    C2 2905   3.021   0.782  13.043  0.2722  0.1109 -0.2034
  191MPD1    C3 2906   3.155   0.804  13.015 -0.5395  0.0989 -0.2083
  191MPD1    C4 2907   3.252   0.740  13.094 -0.3069 -0.1033 -0.9765
  191MPD1    C5 2908   3.218   0.651  13.191 -0.2676 -0.8860  0.2455
  191MPD1     H 2909   2.947   0.837  12.986 -0.3474 -0.0847  0.4211
  191MPD1    H1 2910   3.358   0.760  13.078  0.2015 -0.8041  1.5249
  191MPD1    H2 2911   3.056   0.550  13.285 -1.9406 -0.7665 -1.2049
  191MPD1    H3 2912   3.293   0.597  13.246 -0.9163 -0.8374  1.1678
  191MPD1     N 2913   3.187   0.886  12.902  0.1195  0.5435  0.4889
  191MPD1    H5 2914   3.106   0.932  12.861  0.1904 -1.7095 -2.1864
  191MPD1    N1 2915   2.848   0.676  13.159  0.2372  0.3625 -0.1710
  191MPD1    H6 2916   2.829   0.626  13.245 -0.2700  1.4928  0.3687
  191MPD1    H7 2917   2.798   0.764  13.169 -0.6889 -0.1614 -0.1410
  192MPD1     C 2918   2.879   1.663  12.761 -0.2106 -0.1650 -0.2967
  192MPD1    C1 2919   2.969   1.616  12.854  0.5454 -0.2828 -0.5533
  192MPD1    C2 2920   3.045   1.504  12.829 -0.3079 -0.1707  0.4672
  192MPD1    C3 2921   3.055   1.454  12.698 -0.6827 -0.6634  0.0267
  192MPD1    C4 2922   2.978   1.516  12.600  0.1614  0.2013 -0.6661
  192MPD1    C5 2923   2.897   1.620  12.632 -0.2261 -0.4639 -0.0790
  192MPD1     H 2924   3.110   1.455  12.901  0.1444 -0.7833 -0.3474
  192MPD1    H1 2925   2.986   1.486  12.496  0.4638  0.2621 -0.6598
  192MPD1    H2 2926   2.796   1.732  12.771 -0.7219 -0.2708 -4.1536
  192MPD1    H3 2927   2.828   1.659  12.558 -0.1406  2.2593  1.2590
  192MPD1     N 2928   3.138   1.340  12.681  0.0650 -0.2080  0.4415
  192MPD1    H5 2929   3.187   1.308  12.763 -1.1622 -0.6635  0.9965
  192MPD1    N1 2930   2.969   1.669  12.986  0.7558 -0.2734 -0.0315
  192MPD1    H6 2931   2.951   1.769  12.983 -0.6731 -0.5719 -1.3969
  192MPD1    H7 2932   3.059   1.647  13.028  0.7594  0.8534  0.5641
  193MPD1     C 2933   3.048   0.527  16.121 -0.2646 -0.5731  0.1690
  193MPD1    C1 2934   3.068   0.642  16.184 -1.0720 -0.3295 -0.5356
  193MPD1    C2 2935   3.142   0.649  16.300  0.1090 -0.8203 -0.1061
  193MPD1    C3 2936   3.229   0.546  16.340 -0.5069  0.1180 -0.2295
  193MPD1    C4 2937   3.225   0.428  16.265  0.1637 -0.1396 -0.2092
  193MPD1    C5 2938   3.117   0.423  16.165  0.3910  0.2963 -0.0152
  193MPD1     H 2939   3.150   0.743  16.355 -0.8398 -1.1712  0.6281
  193MPD1    H1 2940   3.275   0.336  16.291 -2.6466 -1.1453  1.5398
  193MPD1    H2 2941   2.971   0.512  16.047 -0.2012  2.6533 -0.5673
  193MPD1    H3 2942   3.091   0.326  16.124 -1.0041  0.1722  1.1534
  193MPD1     N 2943   3.325   0.560  16.444  0.0808 -0.8630  0.0714
  193MPD1    H5 2944   3.390   0.484  16.456  1.3610  0.1334 -0.5066
  193MPD1    N1 2945   2.993   0.750  16.145  0.2688  0.5574  0.0836
  193MPD1    H6 2946   2.982   0.763  16.044  1.2107 -0.7778 -0.1923
  193MPD1    H7 2947   3.020   0.836  16.190  2.2147 -0.1670  0.2765
  194MPD1     C 2948   1.768   2.905  16.359  0.1191  0.9072 -0.0922
  194MPD1    C1 2949   1.635   2.905  16.330  0.1442 -0.1290  0.2068
  194MPD1    C2 2950   1.555   2.888  16.440  0.2556  0.3199 -0.4713
  194MPD1    C3 2951   1.603   2.844  16.563  0.1323 -0.4859 -0.0489
  194MPD1    C4 2952   1.739   2.844  16.588 -0.8652  0.1112  0.1994
  194MPD1    C5 2953   1.815   2.877  16.482 -0.0619 -0.2121  0.3328
  194MPD1     H 2954   1.448   2.896  16.427 -0.1580 -1.9485  1.6026
  194MPD1    H1 2955   1.780   2.831  16.687 -2.7380  1.4374  1.1566
  194MPD1    H2 2956   1.836   2.928  16.277 -0.0456  0.2474 -0.4123
  194MPD1    H3 2957   1.919   2.891  16.508 -0.6242  2.4956  1.0465
  194MPD1     N 2958   1.517   2.816  16.672  0.2824 -0.4053  0.1642
  194MPD1    H5 2959   1.554   2.809  16.766  2.9418  0.7270 -0.7917
  194MPD1    N1 2960   1.590   2.954  16.208  0.5778 -0.2670 -0.5059
  194MPD1    H6 2961   1.504   2.904  16.184 -0.4053  1.2998 -0.2024
  194MPD1    H7 2962   1.656   2.933  16.133  0.0477 -0.7863 -0.8236
  195MPD1     C 2963   4.123   3.712  17.061 -0.7376 -0.0112 -0.5309
  195MPD1    C1 2964   4.053   3.785  17.159  0.0142  0.3273 -0.3870
  195MPD1    C2 2965   3.957   3.719  17.234  0.4869 -0.1055 -0.1347
  195MPD1    C3 2966   3.923   3.589  17.199 -0.1367  1.0753  0.4942
  195MPD1    C4 2967   3.984   3.524  17.095  0.8022 -0.1881  0.2586
  195MPD1    C5 2968   4.096   3.581  17.039  0.1385  0.5882 -0.3978
  195MPD1     H 2969   3.914   3.772  17.318  1.0621  0.3376 -0.1181
  195MPD1    H1 2970   3.969   3.419  17.073  1.1235 -0.5563  1.7464
  195MPD1    H2 2971   4.209   3.766  17.026  0.3064  0.2900  2.4606
  195MPD1    H3 2972   4.148   3.525  16.962  0.3560  0.7576 -0.3722
  195MPD1     N 2973   3.825   3.521  17.277  0.0308  0.9350 -0.9585
  195MPD1    H5 2974   3.827   3.420  17.273 -0.6483  0.8805 -0.0195
  195MPD1    N1 2975   4.102   3.910  17.186  0.3163 -0.3431  0.3463
  195MPD1    H6 2976   4.038   3.969  17.239  1.0048  0.0544  0.7553
  195MPD1    H7 2977   4.134   3.957  17.102 -1.0040  1.1347  0.6667
  196MPD1     C 2978   2.763   4.539   0.202 -0.5740 -0.4751  0.2701
  196MPD1    C1 2979   2.672   4.643   0.227  0.2038  0.6644  0.2390
  196MPD1    C2 2980   2.663   4.676   0.363 -0.4128  0.4146 -0.3146
  196MPD1    C3 2981   2.721   4.607   0.467  0.6395 -0.1541 -0.5592
  196MPD1    C4 2982   2.809   4.500   0.431  0.0991  0.3025 -0.3663
  196MPD1    C5 2983   2.827   4.468   0.299  0.4234 -0.2331 -0.0668
  196MPD1     H 2984   2.600   0.037   0.391 -1.6663 -0.6105 -0.0281
  196MPD1    H1 2985   2.863   4.445   0.507  2.0609  0.6212 -1.5459
  196MPD1    H2 2986   2.777   4.509   0.099 -0.4124  1.2033 -0.1981
  196MPD1    H3 2987   2.907   4.397   0.281  0.2458 -0.3929 -0.2195
  196MPD1     N 2988   2.699   4.627   0.606 -0.3152 -0.0094 -0.0531
  196MPD1    H5 2989   2.742   4.561   0.671  2.0665  1.1502 -0.4796
  196MPD1    N1 2990   2.627   0.005   0.121 -0.6311 -0.1305  0.4895
  196MPD1    H6 2991   2.537   0.051   0.134 -1.4604 -1.0165 -2.2690
  196MPD1    H7 2992   2.622   4.679   0.033  0.2734 -1.2016  1.0459
  197MPD1     C 2993   1.536   1.212   0.288 -0.2427 -0.2587  0.2942
  197MPD1    C1 2994   1.499   1.301   0.188 -0.3732  0.2571 -0.2220
  197MPD1    C2 2995   1.586   1.329   0.088  0.2277 -0.2549  0.4992
  197MPD1    C3 2996   1.718   1.276   0.088 -0.5073 -1.2131 -0.7600
  197MPD1    C4 2997   1.745   1.175   0.176  0.4788 -0.1435 -0.0666
  197MPD1    C5 2998   1.653   1.144   0.275 -0.5493 -0.0378 -0.0335
  197MPD1     H 2999   1.545   1.408   0.026 -0.2154 -0.9539 -0.1040
  197MPD1    H1 3000   1.845   1.135   0.190  0.0855 -0.2238  2.5667
  197MPD1    H2 3001   1.476   1.183   0.373 -0.4815  1.7710  0.8291
  197MPD1    H3 3002   1.679   1.066   0.346  0.4037  2.6044  2.5718
  197MPD1     N 3003   1.814   1.324   0.001  0.2585  0.2014 -0.8692
  197MPD1    H5 3004   1.907   1.285   0.008 -0.9382 -2.2862  1.2046
  197MPD1    N1 3005   1.383   1.378   0.211 -0.3306 -0.3682 -0.5961
  197MPD1    H6 3006   1.344   1.425   0.130 -0.9356 -0.8446 -0.5803
  197MPD1    H7 3007   1.316   1.334   0.274  0.8628 -0.9954  0.2460
  198MPD1     C 3008   3.736   4.101  15.266 -0.0173  0.7247 -0.4447
  198MPD1    C1 3009   3.841   4.139  15.184  0.4329  0.4939  0.1297
  198MPD1    C2 3010   3.961   4.166  15.254  0.7817  0.2885  0.0551
  198MPD1    C3 3011   3.970   4.164  15.392 -0.7658 -0.3694  0.7753
  198MPD1    C4 3012   3.865   4.120  15.475  0.3127 -0.2766 -0.5379
  198MPD1    C5 3013   3.754   4.093  15.403  0.2448  0.2720  0.0211
  198MPD1     H 3014   4.047   4.189  15.192  0.4170  1.5335 -0.0016
  198MPD1    H1 3015   3.872   4.112  15.583 -1.5146 -1.4918 -0.5173
  198MPD1    H2 3016   3.644   4.075  15.215 -0.3951 -2.0964  1.6889
  198MPD1    H3 3017   3.663   4.073  15.459  0.6650 -1.2341  0.1559
  198MPD1     N 3018   4.090   4.199  15.445 -0.0087  0.2802 -0.1085
  198MPD1    H5 3019   4.149   4.240  15.374 -0.3428  0.9743  0.0116
  198MPD1    N1 3020   3.832   4.130  15.046 -0.2318  0.3997  0.1438
  198MPD1    H6 3021   3.909   4.167  14.990 -0.8640 -1.3260 -1.8807
  198MPD1    H7 3022   3.745   4.155  14.997 -0.1211  1.5307  0.5130
  199MPD1     C 3023   1.386   0.587  10.038  0.0949 -0.1885 -0.2680
  199MPD1    C1 3024   1.271   0.553   9.973 -0.9081  0.2704 -0.2897
  199MPD1    C2 3025   1.211   0.645   9.884 -0.1890  0.7068 -0.4421
  199MPD1    C3 3026   1.261   0.777   9.881 -0.6249  0.5464 -0.0881
  199MPD1    C4 3027   1.379   0.808   9.952  0.5357 -0.0849  0.3811
  199MPD1    C5 3028   1.434   0.715  10.036  0.6363 -0.8619 -0.2105
  199MPD1     H 3029   1.117   0.619   9.836 -0.5267  2.2570 -0.6148
  199MPD1    H1 3030   1.413   0.910   9.941 -1.8139  0.5506 -0.8739
  199MPD1    H2 3031   1.438   0.520  10.105 -0.4445  0.0430  0.3708
  199MPD1    H3 3032   1.511   0.755  10.102 -0.5820  2.4828 -0.8398
  199MPD1     N 3033   1.201   0.880   9.805 -0.8511  0.1874 -0.3423
  199MPD1    H5 3034   1.245   0.971   9.810  0.3433 -0.3899 -0.2991
  199MPD1    N1 3035   1.228   0.424   9.988  0.3107  0.5653  0.1137
  199MPD1    H6 3036   1.182   0.382   9.908 -0.0233  1.9079 -0.3934
  199MPD1    H7 3037   1.308   0.362   9.996 -1.1211 -1.2797  0.2252
  200MPD1     C 3038   4.688   1.192  14.674 -0.4689  0.2893 -0.1806
  200MPD1    C1 3039   4.697   1.137  14.544 -0.0058 -0.6136 -0.3008
  200MPD1    C2 3040   0.079   1.054  14.522  0.1292 -0.4362 -0.0104
  200MPD1    C3 3041   0.183   1.048  14.614  0.2432 -0.5493  0.3529
  200MPD1    C4 3042   0.171   1.089  14.743 -0.1848  0.1230 -0.4230
  200MPD1    C5 3043   0.061   1.165  14.769 -0.2277 -0.1275 -0.1636
  200MPD1     H 3044   0.086   1.005  14.426  0.9766 -0.1194 -0.1173
  200MPD1    H1 3045   0.244   1.070  14.821 -0.8900  0.0803  0.2252
  200MPD1    H2 3046   4.607   1.262  14.694 -1.3784 -0.5068 -1.1041
  200MPD1    H3 3047   0.056   1.208  14.869 -0.7429 -1.9913  0.6175
  200MPD1     N 3048   0.287   0.960  14.571  0.8686 -0.4334  0.1513
  200MPD1    H5 3049   0.261   0.903  14.491  1.0982  0.2345 -0.4009
  200MPD1    N1 3050   4.596   1.162  14.443  1.0845 -0.0823 -0.4825
  200MPD1    H6 3051   4.633   1.147  14.349 -2.6081 -0.3592 -1.9155
  200MPD1    H7 3052   4.550   1.253  14.438  0.4493 -0.4236 -1.0411
  201MPD1     C 3053   2.394   4.478  12.603  0.1961 -0.4997  0.3916
  201MPD1    C1 3054   2.464   4.371  12.553 -0.2677 -0.1050 -0.3457
  201MPD1    C2 3055   2.535   4.298  12.643 -0.1789  0.6891  0.3819
  201MPD1    C3 3056   2.560   4.348  12.776  0.9330 -0.2475 -0.3153
  201MPD1    C4 3057   2.507   4.475  12.808  0.2457  0.4009 -0.0943
  201MPD1    C5 3058   2.414   4.533  12.725 -0.1450 -0.9452 -0.0595
  201MPD1     H 3059   2.578   4.207  12.604 -0.4298  1.7370 -2.3488
  201MPD1    H1 3060   2.517   4.524  12.905  1.1862 -2.0750  1.0349
  201MPD1    H2 3061   2.325   4.537  12.542  0.7379  0.4408  0.6831
  201MPD1    H3 3062   2.361   4.622  12.758  0.2331  0.2783 -2.7313
  201MPD1     N 3063   2.627   4.269  12.870  0.5581  0.3591 -0.4604
  201MPD1    H5 3064   2.660   4.178  12.839 -0.4846 -0.4359  0.7481
  201MPD1    N1 3065   2.445   4.330  12.418 -0.0726  0.2905 -0.2994
  201MPD1    H6 3066   2.434   4.413  12.360  1.8766 -0.0963 -1.2232
  201MPD1    H7 3067   2.522   4.274  12.383  0.6501  0.2789  1.3390
  202MPD1     C 3068   2.299   4.564   9.485  0.4865 -0.5626  0.2737
  202MPD1    C1 3069   2.235   4.449   9.522  0.6119  0.3367 -0.3430
  202MPD1    C2 3070   2.308   4.374   9.619  0.4061 -0.2142 -0.0388
  202MPD1    C3 3071   2.400   4.433   9.707  0.5487 -0.5379  1.0565
  202MPD1    C4 3072   2.443   4.562   9.677 -0.2365 -0.6254 -0.2308
  202MPD1    C5 3073   2.401   4.622   9.565 -0.2598 -0.4419  0.0335
  202MPD1     H 3074   2.262   4.280   9.650 -1.4379  0.7054  0.0143
  202MPD1    H1 3075   2.509   4.621   9.739 -0.1805 -3.4248  2.3754
  202MPD1    H2 3076   2.278   4.610   9.389  0.8958 -1.7705 -0.4018
  202MPD1    H3 3077   2.438   4.720   9.538  0.1114 -0.9739 -1.4049
  202MPD1     N 3078   2.443   4.378   9.826 -0.2118  0.0562  0.1824
  202MPD1    H5 3079   2.489   4.441   9.892  1.5622  0.7288 -1.7133
  202MPD1    N1 3080   2.148   4.383   9.436  0.4083  0.3145  0.3288
  202MPD1    H6 3081   2.090   4.321   9.492  1.5367 -2.3535 -1.4304
  202MPD1    H7 3082   2.090   4.448   9.383 -1.0327 -0.6437  0.7337
  203MPD1     C 3083   0.453   0.228  12.637 -0.0847  0.4988 -0.5377
  203MPD1    C1 3084   0.457   0.100  12.596  0.4666  0.1292 -0.1950
  203MPD1    C2 3085   0.555   0.020  12.641  0.3596  0.5735  0.0445
  203MPD1    C3 3086   0.654   0.067  12.719  0.2685  0.5848 -1.0365
  203MPD1    C4 3087   0.648   0.200  12.759  0.0939 -0.7805 -0.0387
  203MPD1    C5 3088   0.547   0.280  12.717 -0.3099  0.4851  0.0735
  203MPD1     H 3089   0.553   4.642  12.604  0.7649  0.8573 -0.7678
  203MPD1    H1 3090   0.719   0.250  12.823 -0.0417  0.4831 -0.8701
  203MPD1    H2 3091   0.383   0.302  12.599 -1.7945 -0.0455  1.5078
  203MPD1    H3 3092   0.545   0.383  12.750 -1.1497  0.5023 -0.0327
  203MPD1     N 3093   0.762   4.704  12.753  0.5711 -0.8790  0.3085
  203MPD1    H5 3094   0.767   4.613  12.709  1.4379 -0.5682 -0.2530
  203MPD1    N1 3095   0.348   0.041  12.531  1.0094 -0.6475 -0.0972
  203MPD1    H6 3096   0.396   4.696  12.473  0.4211  0.5963 -2.0613
  203MPD1    H7 3097   0.291   0.094  12.465  1.6275  0.6278  0.3796
  204MPD1     C 3098   0.729   2.092  17.674  0.7104 -0.1496  0.7757
  204MPD1    C1 3099   0.824   2.042  17.584  0.1946  0.7244  0.2857
  204MPD1    C2 3100   0.797   1.911  17.536 -0.0384  0.7863 -0.1377
  204MPD1    C3 3101   0.705   1.831  17.604  0.5760 -0.5482  0.5364
  204MPD1    C4 3102   0.617   1.885  17.695  0.2548  1.1652  0.0275
  204MPD1    C5 3103   0.631   2.018   0.031  0.2731  0.4531 -0.0446
  204MPD1     H 3104   0.861   1.872  17.458  0.7169  0.0030  0.8729
  204MPD1    H1 3105   0.541   1.832   0.055  0.7255  0.4053 -0.0537
  204MPD1    H2 3106   0.739   2.191   0.022  0.3006  0.0984  0.3183
  204MPD1    H3 3107   0.560   2.062   0.100 -0.2005  1.5017 -1.2060
  204MPD1     N 3108   0.695   1.698  17.563 -0.1794 -0.2247  0.1972
  204MPD1    H5 3109   0.760   1.666  17.491  1.2306  3.1194 -0.0140
  204MPD1    N1 3110   0.908   2.126  17.510 -0.0266 -0.0113  0.3149
  204MPD1    H6 3111   0.989   2.077  17.472  0.5195  1.1881 -0.0764
  204MPD1    H7 3112   0.941   2.200  17.572  1.2181  1.1783 -1.7680
  205MPD1     C 3113   1.641   0.534   0.037 -0.0030  0.1744  0.1939
  205MPD1    C1 3114   1.630   0.472   0.156 -0.3259  0.2485 -0.8906
  205MPD1    C2 3115   1.502   0.464   0.198  0.8171 -0.2113 -0.0922
  205MPD1    C3 3116   1.388   0.513   0.143 -0.7656  0.2495 -0.0876
  205MPD1    C4 3117   1.404   0.578   0.028  0.4621  0.0810  0.7992
  205MPD1    C5 3118   1.530   0.582  17.667  0.3069 -0.4071  0.2656
  205MPD1     H 3119   1.494   0.433   0.302  0.4142  0.5311  0.1063
  205MPD1    H1 3120   1.318   0.623  17.676  0.6694  2.5471  2.7390
  205MPD1    H2 3121   1.742   0.543  17.695  0.4769 -0.6726  1.2904
  205MPD1    H3 3122   1.541   0.633  17.572  1.6502 -0.0532  0.6059
  205MPD1     N 3123   1.259   0.507   0.202 -0.2912  0.1566 -0.2432
  205MPD1    H5 3124   1.179   0.557   0.163  0.0563  0.1343 -0.9904
  205MPD1    N1 3125   1.733   0.467   0.249  0.2314  0.2151 -0.0711
  205MPD1    H6 3126   1.824   0.482   0.206  0.2788  0.0523 -0.0267
  205MPD1    H7 3127   1.736   0.383   0.306 -0.6278 -0.8017 -1.5270
  206MPD1     C 3128   1.259   3.712  16.717 -0.7912 -0.4275  0.2095
  206MPD1    C1 3129   1.129   3.662  16.727  0.0703 -0.2174 -0.2023
  206MPD1    C2 3130   1.080   3.595  16.617 -0.1217 -0.7730  1.0819
  206MPD1    C3 3131   1.158   3.563  16.506  1.0939 -0.4881 -0.2200
  206MPD1    C4 3132   1.286   3.609  16.506  0.0039 -1.1607  0.3916
  206MPD1    C5 3133   1.337   3.683  16.607 -0.0773 -0.1400 -0.3156
  206MPD1     H 3134   0.976   3.564  16.608  0.6391 -2.9511 -0.1133
  206MPD1    H1 3135   1.351   3.584  16.423  1.1377  0.7911  0.6745
  206MPD1    H2 3136   1.297   3.769  16.800 -2.7502  2.3692 -0.8282
  206MPD1    H3 3137   1.438   3.721  16.600  0.0176  0.2136  3.0854
  206MPD1     N 3138   1.116   3.490  16.396  0.5228 -0.2878  0.6935
  206MPD1    H5 3139   1.190   3.462  16.333 -0.2117 -0.5339 -0.0612
  206MPD1    N1 3140   1.050   3.689  16.836 -0.5157  0.2977 -0.5169
  206MPD1    H6 3141   1.026   3.788  16.847 -2.4314 -0.0404 -1.7397
  206MPD1    H7 3142   0.966   3.632  16.845 -0.2458  0.3499  2.4948
  207MPD1     C 3143   2.989   1.425   9.041  0.1529 -0.4899 -0.0180
  207MPD1    C1 3144   2.931   1.313   9.105 -0.1551 -0.1083  0.0072
  207MPD1    C2 3145   3.012   1.248   9.201 -0.0727 -0.0563 -0.7937
  207MPD1    C3 3146   3.136   1.303   9.245  0.2551  0.3473  0.1991
  207MPD1    C4 3147   3.182   1.417   9.183  0.2168  0.3568  0.1811
  207MPD1    C5 3148   3.112   1.469   9.073 -0.4512 -0.0733 -0.3813
  207MPD1     H 3149   2.972   1.152   9.234 -0.4394  1.8833  4.4018
  207MPD1    H1 3150   3.272   1.464   9.219  1.5565 -0.1576 -2.5014
  207MPD1    H2 3151   2.934   1.482   8.966  1.2139  1.3521  0.6174
  207MPD1    H3 3152   3.147   1.559   9.023  2.0489 -0.6293  0.3302
  207MPD1     N 3153   3.222   1.244   9.345 -0.0750  0.4530 -0.1440
  207MPD1    H5 3154   3.317   1.278   9.356  0.1967  0.3865 -2.1659
  207MPD1    N1 3155   2.811   1.257   9.049  0.2205  0.0556  0.3609
  207MPD1    H6 3156   2.748   1.316   8.995  0.1446  0.8065  1.2561
  207MPD1    H7 3157   2.763   1.194   9.114  1.2091  0.6139  1.6236
  208MPD1     C 3158   1.120   3.388   0.930 -0.1062  0.7265 -0.7118
  208MPD1    C1 3159   1.070   3.440   0.815 -0.4093 -0.0157 -0.6731
  208MPD1    C2 3160   1.087   3.580   0.789 -0.5675  0.3296 -0.3895
  208MPD1    C3 3161   1.157   3.662   0.880 -0.6205 -0.0523 -0.3512
  208MPD1    C4 3162   1.216   3.598   0.988 -0.3277  0.5887 -0.3054
  208MPD1    C5 3163   1.190   3.466   1.018 -0.0646 -0.0520  0.0262
  208MPD1     H 3164   1.054   3.633   0.700  0.3399  1.3459 -0.1167
  208MPD1    H1 3165   1.267   3.655   1.065  0.5553 -0.2796 -0.2635
  208MPD1    H2 3166   1.107   3.288   0.970 -0.1428  0.1250 -2.2228
  208MPD1    H3 3167   1.238   3.417   1.103  1.0359 -0.3323 -0.7620
  208MPD1     N 3168   1.177   3.804   0.857  0.4906 -0.6128  0.4700
  208MPD1    H5 3169   1.135   3.844   0.775  0.7478  1.8196  1.5189
  208MPD1    N1 3170   0.992   3.359   0.728 -0.0008 -0.0164 -0.2578
  208MPD1    H6 3171   1.029   3.268   0.702 -0.5567  0.2154 -1.8541
  208MPD1    H7 3172   0.988   3.397   0.634 -2.7488  1.3145  0.4094
  209MPD1     C 3173   3.276   0.274  11.168  0.1482 -0.8168 -0.1486
  209MPD1    C1 3174   3.405   0.316  11.162 -0.7798  0.1338  0.2689
  209MPD1    C2 3175   3.462   0.355  11.045 -0.6460 -0.0651 -0.3712
  209MPD1    C3 3176   3.382   0.350  10.936  0.0478 -0.1011 -0.2993
  209MPD1    C4 3177   3.256   0.297  10.930  0.3843  0.1773 -0.1974
  209MPD1    C5 3178   3.206   0.264  11.053 -0.7061  0.2834  0.0093
  209MPD1     H 3179   3.562   0.392  11.025 -1.3057 -0.4759 -4.3475
  209MPD1    H1 3180   3.193   0.296  10.842  0.6550  1.5688 -0.3965
  209MPD1    H2 3181   3.233   0.233  11.259 -0.5363  1.0564  0.3569
  209MPD1    H3 3182   3.106   0.225  11.046 -0.5036 -0.2657  0.1951
  209MPD1     N 3183   3.448   0.411  10.824  0.9344 -0.3848 -0.3027
  209MPD1    H5 3184   3.546   0.431  10.843  0.7573 -0.6399  0.8817
  209MPD1    N1 3185   3.491   0.298  11.276 -0.4514  0.6386  0.8994
  209MPD1    H6 3186   3.541   0.386  11.293 -0.9091  0.9639  0.5665
  209MPD1    H7 3187   3.437   0.279  11.360 -1.3441 -1.7922 -0.2560
  210MPD1     C 3188   4.196   0.991  10.544  0.4609 -0.5014 -0.0459
  210MPD1    C1 3189   4.129   0.971  10.667 -0.4343 -0.0461  0.3501
  210MPD1    C2 3190   4.010   0.895  10.652  1.1170  0.7302  0.2697
  210MPD1    C3 3191   3.963   0.852  10.526  0.3062  0.0091 -0.4359
  210MPD1    C4 3192   4.028   0.890  10.414  0.2054  0.2820 -0.8699
  210MPD1    C5 3193   4.143   0.960  10.425  0.9912  0.1492  0.4276
  210MPD1     H 3194   3.970   0.857  10.746 -2.4913  2.3317 -0.5990
  210MPD1    H1 3195   3.990   0.876  10.313  0.5751  2.2621 -1.2873
  210MPD1    H2 3196   4.290   1.044  10.530 -0.7769  1.8994  0.7935
  210MPD1    H3 3197   4.198   0.981  10.334  2.2742 -1.4682  0.8328
  210MPD1     N 3198   3.845   0.778  10.506  0.3045 -0.1996 -0.1500
  210MPD1    H5 3199   3.811   0.750  10.414 -1.3142 -1.7977  0.9325
  210MPD1    N1 3200   4.192   0.988  10.791 -0.2815  0.5645  0.1136
  210MPD1    H6 3201   4.125   1.011  10.864 -0.1366  0.8975  0.1445
  210MPD1    H7 3202   4.261   1.064  10.787  0.6667 -0.3940 -2.0377
  211MPD1     C 3203   2.083   0.180  16.231  0.2528 -0.6546  0.6209
  211MPD1    C1 3204   1.960   0.194  16.168  0.3445  0.0345  0.1608
  211MPD1    C2 3205   1.848   0.147  16.239 -0.1898  0.1815  0.3003
  211MPD1    C3 3206   1.860   0.133  16.382 -0.0691  0.2708 -0.1130
  211MPD1    C4 3207   1.980   0.139  16.445 -0.0144  0.0550  0.6291
  211MPD1    C5 3208   2.091   0.163  16.369  0.6285 -0.0610 -0.1197
  211MPD1     H 3209   1.747   0.140  16.199  0.7516  1.3421 -2.2682
  211MPD1    H1 3210   2.002   0.112  16.548  2.3415  1.9197  0.6292
  211MPD1    H2 3211   2.174   0.194  16.174 -0.4814  1.2391 -0.0924
  211MPD1    H3 3212   2.190   0.153  16.412  0.5859 -0.0756 -0.0253
  211MPD1     N 3213   1.740   0.094  16.446  0.1701  0.2158 -0.1697
  211MPD1    H5 3214   1.659   0.087  16.386 -0.3268  2.2628  0.2929
  211MPD1    N1 3215   1.956   0.214  16.032 -0.1190  0.4231  0.0792
  211MPD1    H6 3216   2.043   0.255  15.996  0.5146 -0.3034  0.8006
  211MPD1    H7 3217   1.872   0.262  16.001 -0.7829  1.5494  3.6684
  212MPD1     C 3218   0.973   3.228  16.719 -0.2676  0.4207 -0.0524
  212MPD1    C1 3219   0.836   3.224  16.692 -0.6422  0.2327  0.8483
  212MPD1    C2 3220   0.755   3.154  16.773  0.8339  0.1932  0.2566
  212MPD1    C3 3221   0.798   3.102  16.892 -0.8197  0.4550  0.3484
  212MPD1    C4 3222   0.935   3.108  16.924  0.5028 -0.0947  0.6552
  212MPD1    C5 3223   1.018   3.170  16.836  0.7801  0.1335  0.1680
  212MPD1     H 3224   0.654   3.129  16.742  0.1867  0.3617  2.2471
  212MPD1    H1 3225   0.978   3.075  17.018  1.1331 -1.9610 -0.2925
  212MPD1    H2 3226   1.047   3.280  16.660 -1.3261  0.0046 -1.7351
  212MPD1    H3 3227   1.125   3.168  16.857  0.9210  0.9874 -0.4361
  212MPD1     N 3228   0.717   3.019  16.975  0.0975  0.1395 -0.0946
  212MPD1    H5 3229   0.765   2.990  17.060  0.3520 -0.1687 -0.3419
  212MPD1    N1 3230   0.799   3.254  16.561  0.0307 -0.0094  0.4449
  212MPD1    H6 3231   0.837   3.342  16.529 -0.1714 -0.1666 -0.2348
  212MPD1    H7 3232   0.698   3.268  16.553 -0.5468 -3.8563  0.7323
  213MPD1     C 3233   3.222   3.535  15.911 -0.0098  0.2613 -0.4823
  213MPD1    C1 3234   3.128   3.470  15.836  0.3004  0.1835  0.6211
  213MPD1    C2 3235   3.098   3.521  15.708  0.1608 -0.0060 -0.5434
  213MPD1    C3 3236   3.129   3.653  15.676  0.4613  0.2820 -0.3507
  213MPD1    C4 3237   3.205   3.724  15.764 -0.2764  0.0581  0.5637
  213MPD1    C5 3238   3.260   3.659  15.871  0.6344 -0.5381  0.3208
  213MPD1     H 3239   3.044   3.457  15.639  0.5838  0.6063 -1.4391
  213MPD1    H1 3240   3.240   3.825  15.746  3.2684 -1.4573 -1.0196
  213MPD1    H2 3241   3.280   3.491  15.991  2.1443  3.0383 -0.5053
  213MPD1    H3 3242   3.326   3.724  15.927  0.7986 -0.4721  0.0537
  213MPD1     N 3243   3.083   3.713  15.557  0.1321  0.5767 -0.0575
  213MPD1    H5 3244   3.037   3.648  15.494  2.0864 -1.6290  0.8188
  213MPD1    N1 3245   3.115   3.332  15.862 -0.5435  0.7598  0.1370
  213MPD1    H6 3246   3.032   3.290  15.822 -1.0377  0.8486  1.0769
  213MPD1    H7 3247   3.106   3.311  15.961  0.1756 -3.4507 -0.6751
  214MPD1     C 3248   2.362   3.558  14.931 -0.4308 -0.0063 -0.9026
  214MPD1    C1 3249   2.394   3.541  15.066  0.4639  0.0182 -0.0751
  214MPD1    C2 3250   2.507   3.603  15.123  0.0942 -0.1506  0.1880
  214MPD1    C3 3251   2.587   3.691  15.044  0.1349 -0.6008  0.5277
  214MPD1    C4 3252   2.552   3.709  14.912 -0.2726 -0.6770 -0.0910
  214MPD1    C5 3253   2.442   3.649  14.862  0.0240 -0.3207 -0.1617
  214MPD1     H 3254   2.532   3.575  15.224 -1.9029 -0.7811  0.5090
  214MPD1    H1 3255   2.596   3.789  14.855 -0.5823 -1.8134 -1.9058
  214MPD1    H2 3256   2.287   3.501  14.878 -1.6035 -0.3575  1.1528
  214MPD1    H3 3257   2.410   3.672  14.761  1.3613  1.7019 -0.1147
  214MPD1     N 3258   2.691   3.763  15.093  0.1435  0.1186 -0.0772
  214MPD1    H5 3259   2.745   3.805  15.018  1.4941  0.2744  0.9918
  214MPD1    N1 3260   2.335   3.441  15.140 -0.5462 -0.3922  0.6027
  214MPD1    H6 3261   2.357   3.450  15.238 -0.1731 -1.0576  0.5827
  214MPD1    H7 3262   2.236   3.417  15.135 -0.9360  1.5490 -1.0343
  215MPD1     C 3263   2.376   0.578  11.089  0.4386  0.1584  0.3673
  215MPD1    C1 3264   2.477   0.546  10.997 -0.7896 -0.0228  0.1601
  215MPD1    C2 3265   2.608   0.544  11.048  0.0173 -0.0344 -0.1574
  215MPD1    C3 3266   2.634   0.591  11.178  0.0550 -0.0656  0.0450
  215MPD1    C4 3267   2.530   0.631  11.258 -0.0386  0.5325 -0.2955
  215MPD1    C5 3268   2.404   0.626  11.211  0.1211  0.7511 -0.2495
  215MPD1     H 3269   2.691   0.539  10.980 -0.3467  1.6644 -0.7246
  215MPD1    H1 3270   2.541   0.656  11.363 -2.0459 -0.2913  0.0971
  215MPD1    H2 3271   2.273   0.568  11.055  0.5921 -1.9800  0.5438
  215MPD1    H3 3272   2.319   0.639  11.278  1.1096 -0.0650  1.1735
  215MPD1     N 3273   2.773   0.600  11.212  0.5756  0.0209  0.5268
  215MPD1    H5 3274   2.843   0.579  11.142  0.0061 -0.6903  0.1706
  215MPD1    N1 3275   2.438   0.483  10.876  0.0264  0.4945 -0.1141
  215MPD1    H6 3276   2.518   0.495  10.813  1.1220  0.7360  1.3129
  215MPD1    H7 3277   2.350   0.520  10.841 -1.0477 -1.2694  0.7368
  216MPD1     C 3278   0.932   2.777  16.576  0.2446  1.3311 -0.2240
  216MPD1    C1 3279   0.857   2.662  16.574 -0.1240 -0.1633  0.7481
  216MPD1    C2 3280   0.835   2.585  16.686  0.2908  0.2122 -0.5568
  216MPD1    C3 3281   0.865   2.637  16.812 -0.4790  0.4478  0.2083
  216MPD1    C4 3282   0.925   2.765  16.813  0.3634 -0.1098 -0.0385
  216MPD1    C5 3283   0.961   2.830  16.699  0.4345 -1.0539 -0.1009
  216MPD1     H 3284   0.781   2.491  16.682  0.4055  0.2016 -1.6121
  216MPD1    H1 3285   0.951   2.813  16.906  0.5167 -1.1478  0.4507
  216MPD1    H2 3286   0.954   2.836  16.488  3.8217  2.3169  1.3035
  216MPD1    H3 3287   1.010   2.927  16.705 -0.0466 -1.0298  3.3310
  216MPD1     N 3288   0.836   2.567  16.930 -0.3673 -0.6748  0.3659
  216MPD1    H5 3289   0.801   2.473  16.917 -0.0671 -0.8048  0.5106
  216MPD1    N1 3290   0.829   2.610  16.447 -0.5628 -0.1727  0.2535
  216MPD1    H6 3291   0.796   2.685  16.387 -0.7490  1.4927  2.4385
  216MPD1    H7 3292   0.752   2.544  16.459  0.5573 -1.5415 -0.1015
  217MPD1     C 3293   1.794   0.579   9.467 -0.7024 -0.2523  0.1160
  217MPD1    C1 3294   1.691   0.584   9.373  0.2369  0.0371 -0.1785
  217MPD1    C2 3295   1.635   0.467   9.328 -0.7350  0.2642  1.0296
  217MPD1    C3 3296   1.688   0.347   9.373  0.3380  0.1575 -0.7060
  217MPD1    C4 3297   1.803   0.342   9.451 -0.2545  0.8443  0.7855
  217MPD1    C5 3298   1.851   0.462   9.503  0.5271  0.0851  0.3134
  217MPD1     H 3299   1.544   0.474   9.269  0.8237 -0.3496 -1.4397
  217MPD1    H1 3300   1.859   0.251   9.469 -1.0150 -0.0749 -1.4443
  217MPD1    H2 3301   1.831   0.668   9.516  1.5362 -0.9620 -0.2804
  217MPD1    H3 3302   1.937   0.474   9.569  0.9869  2.5337 -0.7412
  217MPD1     N 3303   1.627   0.222   9.339 -0.0979  0.3649 -0.0396
  217MPD1    H5 3304   1.682   0.140   9.363  0.6109  0.5653 -0.9887
  217MPD1    N1 3305   1.622   0.709   9.354 -0.8193 -0.9363  0.2886
  217MPD1    H6 3306   1.683   0.790   9.356 -1.1211 -0.6506 -2.1996
  217MPD1    H7 3307   1.575   0.716   9.264 -1.2285 -0.1168  0.5645
  218MPD1     C 3308   2.388   0.372  13.090  0.5289 -0.6499 -0.4031
  218MPD1    C1 3309   2.495   0.344  13.166 -0.1024  0.0056  0.0280
  218MPD1    C2 3310   2.617   0.364  13.110 -1.2586 -1.0036 -0.0703
  218MPD1    C3 3311   2.631   0.422  12.985 -0.1410 -0.3852 -0.1090
  218MPD1    C4 3312   2.518   0.455  12.914 -0.2426 -1.0516 -0.6626
  218MPD1    C5 3313   2.396   0.420  12.962  0.7846 -0.2339 -0.5012
  218MPD1     H 3314   2.710   0.342  13.160 -2.4031 -1.2368  1.9183
  218MPD1    H1 3315   2.512   0.504  12.817 -2.8267  1.5772  0.8097
  218MPD1    H2 3316   2.291   0.333  13.119 -0.1214  1.3373  0.1539
  218MPD1    H3 3317   2.312   0.433  12.895  1.7746 -0.9727 -1.8828
  218MPD1     N 3318   2.759   0.456  12.943 -0.1927  0.2624  0.1945
  218MPD1    H5 3319   2.834   0.435  13.007 -1.7635  1.3223  2.3721
  218MPD1    N1 3320   2.475   0.272  13.280  0.0768  0.1366 -0.0816
  218MPD1    H6 3321   2.391   0.308  13.323 -0.0066 -1.0088  0.7169
  218MPD1    H7 3322   2.554   0.279  13.344 -0.7244  0.4676  0.8593
  219MPD1     C 3323   3.387   0.689  12.118  0.1159 -0.4337  0.3003
  219MPD1    C1 3324   3.297   0.781  12.179 -0.4380  0.2731 -0.3304
  219MPD1    C2 3325   3.266   0.762  12.313 -0.6410  0.1761 -0.3471
  219MPD1    C3 3326   3.314   0.649  12.380  0.6846 -0.6975 -0.0722
  219MPD1    C4 3327   3.403   0.564  12.324 -0.8452 -0.3443 -0.3356
  219MPD1    C5 3328   3.429   0.580  12.190 -0.8026 -0.0793  0.2014
  219MPD1     H 3329   3.191   0.827  12.356 -0.5083 -0.3455  0.6578
  219MPD1    H1 3330   3.421   0.471  12.377  0.3726 -0.3458 -0.7498
  219MPD1    H2 3331   3.424   0.689  12.017 -0.4998  0.8554  0.0713
  219MPD1    H3 3332   3.488   0.499  12.148  0.6033  0.5426  0.9652
  219MPD1     N 3333   3.277   0.618  12.514 -0.5530 -0.2210  0.6451
  219MPD1    H5 3334   3.316   0.535  12.558  0.0049  0.7803  2.0358
  219MPD1    N1 3335   3.257   0.893  12.105 -0.2102  0.0121  0.4027
  219MPD1    H6 3336   3.163   0.922  12.130 -0.9736  0.2483 -2.6693
  219MPD1    H7 3337   3.245   0.879  12.005 -1.1701 -0.9167  0.6425
  220MPD1     C 3338   3.160   1.372   9.754 -0.1222 -0.4296  0.4083
  220MPD1    C1 3339   3.258   1.358   9.849  0.1611 -0.6343 -0.2409
  220MPD1    C2 3340   3.233   1.269   9.950  0.8638 -0.3786 -0.2326
  220MPD1    C3 3341   3.119   1.191   9.958 -0.1888  0.2105  0.3404
  220MPD1    C4 3342   3.039   1.190   9.848 -0.0968  0.1233 -0.3198
  220MPD1    C5 3343   3.059   1.282   9.750 -0.3948 -0.5301  0.7331
  220MPD1     H 3344   3.297   1.262  10.037  1.6570  1.4944 -0.6529
  220MPD1    H1 3345   2.956   1.122   9.839 -1.8852  1.9747  2.0434
  220MPD1    H2 3346   3.166   1.445   9.674  0.1670 -1.1030 -0.1826
  220MPD1    H3 3347   2.986   1.289   9.671  0.4779 -2.3128 -0.2194
  220MPD1     N 3348   3.102   1.101  10.065  0.9449  0.3311 -0.1438
  220MPD1    H5 3349   3.182   1.096  10.128  0.5346 -0.0798  0.3530
  220MPD1    N1 3350   3.355   1.458   9.861  1.2232 -0.0587 -0.5562
  220MPD1    H6 3351   3.434   1.440   9.923 -0.2276 -2.5267  0.5440
  220MPD1    H7 3352   3.390   1.506   9.779  1.7950  1.8446  0.7925
  221MPD1     C 3353   0.695   4.066  17.058 -0.4603 -0.2339 -0.4503
  221MPD1    C1 3354   0.819   4.022  17.084 -0.1907 -0.6544  0.1071
  221MPD1    C2 3355   0.906   4.012  16.974  0.3140  0.3516 -0.7732
  221MPD1    C3 3356   0.866   4.052  16.850 -0.1591  0.4468 -0.0947
  221MPD1    C4 3357   0.737   4.091  16.827 -0.4727 -1.0063  0.1074
  221MPD1    C5 3358   0.654   4.102  16.932  1.0777 -0.3411  0.1832
  221MPD1     H 3359   1.002   3.965  16.991 -0.2353 -0.4221  0.2037
  221MPD1    H1 3360   0.697   4.125  16.732  0.5549 -1.2421 -0.4081
  221MPD1    H2 3361   0.624   4.087  17.137 -1.8669 -0.3357 -1.6763
  221MPD1    H3 3362   0.554   4.140  16.913  1.1801  0.4397  1.2075
  221MPD1     N 3363   0.945   4.044  16.732 -0.2198  0.3542 -0.7685
  221MPD1    H5 3364   0.904   4.078  16.646  1.7766  0.2428 -1.7842
  221MPD1    N1 3365   0.856   3.983  17.213 -0.1431  0.0405  0.1660
  221MPD1    H6 3366   0.813   4.053  17.273  0.5623 -0.1949  0.9369
  221MPD1    H7 3367   0.953   4.004  17.233  0.4440 -0.7080 -1.9360
  222MPD1     C 3368   1.442   3.057   0.014 -0.1714 -0.3915  0.1594
  222MPD1    C1 3369   1.346   3.037   0.113 -0.1856  0.2351 -0.2187
  222MPD1    C2 3370   1.356   3.123   0.220  0.0884  0.2327 -0.0625
  222MPD1    C3 3371   1.432   3.243   0.212  0.6950  0.0620 -0.1558
  222MPD1    C4 3372   1.507   3.264   0.096 -0.2175  0.5170 -0.7098
  222MPD1    C5 3373   1.518   3.171  17.693 -0.2812  0.3175 -0.0793
  222MPD1     H 3374   1.299   3.107   0.310  0.3992  0.9163  0.2582
  222MPD1    H1 3375   1.563   3.356   0.080  0.5986 -0.1567 -1.6799
  222MPD1    H2 3376   1.466   2.979  17.639 -1.7297 -0.4666 -0.2805
  222MPD1    H3 3377   1.573   3.176  17.600 -0.6804  0.8165 -0.2898
  222MPD1     N 3378   1.433   3.341   0.310 -0.2944  0.6918  0.0819
  222MPD1    H5 3379   1.482   3.427   0.286 -1.5184  1.4890  0.3830
  222MPD1    N1 3380   1.284   2.910   0.119  0.3924  0.6646 -0.0597
  222MPD1    H6 3381   1.272   2.877   0.024  2.3545 -0.7745  0.1746
  222MPD1    H7 3382   1.187   2.921   0.148 -0.3273 -0.0825 -2.2184
  223MPD1     C 3383   1.527   3.385   1.315  0.2452 -0.3178  0.6210
  223MPD1    C1 3384   1.540   3.276   1.235  0.1249 -0.3288 -1.1434
  223MPD1    C2 3385   1.536   3.300   1.098 -0.1600  0.1810 -0.2283
  223MPD1    C3 3386   1.542   3.430   1.042 -0.4571 -0.3523 -0.3290
  223MPD1    C4 3387   1.541   3.536   1.126  0.5935 -0.0347 -0.5493
  223MPD1    C5 3388   1.532   3.508   1.260  0.8340 -0.1305  1.1538
  223MPD1     H 3389   1.519   3.216   1.031 -0.0782  0.2041 -0.2775
  223MPD1    H1 3390   1.538   3.641   1.098 -0.4607 -0.2726 -1.3094
  223MPD1    H2 3391   1.508   3.375   1.422  1.1490  0.7981  0.8897
  223MPD1    H3 3392   1.520   3.591   1.328 -1.3367  1.2353 -0.9320
  223MPD1     N 3393   1.531   3.445   0.899  0.0038 -0.2870  0.0368
  223MPD1    H5 3394   1.497   3.357   0.860 -0.4760  0.0594 -0.3179
  223MPD1    N1 3395   1.536   3.147   1.282 -0.0099  0.4012 -0.4535
  223MPD1    H6 3396   1.584   3.082   1.220  0.7735  0.0245  0.5335
  223MPD1    H7 3397   1.583   3.145   1.373  0.2254 -1.3627 -0.5990
  224MPD1     C 3398   2.337   0.548   9.745  0.1207  0.2523 -0.5512
  224MPD1    C1 3399   2.209   0.593   9.761  0.0206 -0.3968 -0.0528
  224MPD1    C2 3400   2.123   0.505   9.827  0.4352 -0.0024 -0.0387
  224MPD1    C3 3401   2.163   0.386   9.881 -0.5929  0.4546 -0.3565
  224MPD1    C4 3402   2.290   0.343   9.861  0.6294 -0.2501 -0.1557
  224MPD1    C5 3403   2.375   0.428   9.797  0.2980  0.6781  0.3294
  224MPD1     H 3404   2.025   0.552   9.829  0.0556 -0.7298 -1.1526
  224MPD1    H1 3405   2.324   0.247   9.897 -3.3433 -1.0964  1.2888
  224MPD1    H2 3406   2.405   0.612   9.689 -0.7942  0.2823 -1.6239
  224MPD1    H3 3407   2.481   0.409   9.785  0.0848 -0.3613  0.0953
  224MPD1     N 3408   2.088   0.317   9.977  0.3822  0.3169 -0.6599
  224MPD1    H5 3409   2.142   0.255  10.037 -0.4160  0.2180 -0.0429
  224MPD1    N1 3410   2.176   0.712   9.691 -0.6245 -0.1694  0.0596
  224MPD1    H6 3411   2.248   0.781   9.672 -2.3117  1.2166 -1.2969
  224MPD1    H7 3412   2.093   0.757   9.730  0.1688 -1.2905  3.0644
  225MPD1     C 3413   2.616   0.898  13.295  0.0624  0.5228 -0.0277
  225MPD1    C1 3414   2.711   0.980  13.231  0.1855  0.8935 -0.3362
  225MPD1    C2 3415   2.730   0.970  13.095 -0.2873 -0.3484  0.9152
  225MPD1    C3 3416   2.651   0.894  13.016 -0.1040 -0.0414  0.4267
  225MPD1    C4 3417   2.556   0.819  13.080  0.5824 -0.3820 -0.0863
  225MPD1    C5 3418   2.540   0.822  13.216 -0.0343 -0.5073  0.0536
  225MPD1     H 3419   2.814   1.025  13.053  0.5541 -1.2147  1.4444
  225MPD1    H1 3420   2.496   0.750  13.021 -0.4343  1.7666 -1.5950
  225MPD1    H2 3421   2.600   0.898  13.402 -0.0816 -0.7880 -0.0495
  225MPD1    H3 3422   2.460   0.763  13.260  0.4579 -2.9004 -2.2620
  225MPD1     N 3423   2.665   0.878  12.879  0.6371  0.9911 -0.4188
  225MPD1    H5 3424   2.597   0.824  12.828  1.1462 -1.1393  1.1689
  225MPD1    N1 3425   2.793   1.057  13.313 -0.3977  0.4978  0.1026
  225MPD1    H6 3426   2.829   1.133  13.257 -1.6766  0.3666 -0.8919
  225MPD1    H7 3427   2.732   1.096  13.385 -0.4041  2.8659 -1.1988
  226MPD1     C 3428   1.941   4.595   9.773  0.4164 -0.0028  0.4681
  226MPD1    C1 3429   2.006   4.716   9.743  0.8836  0.0877  0.0190
  226MPD1    C2 3430   1.927   0.104   9.750  0.0328  0.2160 -0.4826
  226MPD1    C3 3431   1.786   0.103   9.766 -0.0696  0.2958  0.6284
  226MPD1    C4 3432   1.727   4.706   9.790  0.7411 -0.1119  0.1555
  226MPD1    C5 3433   1.803   4.590   9.785 -0.0479  0.1984 -0.0204
  226MPD1     H 3434   1.975   0.198   9.725  0.2576  0.4305  0.7329
  226MPD1    H1 3435   1.621   4.695   9.812  0.5895  0.3783 -0.3240
  226MPD1    H2 3436   2.004   4.509   9.789  1.5459  0.4533 -1.4025
  226MPD1    H3 3437   1.754   4.496   9.811  1.9279 -1.1919 -1.3828
  226MPD1     N 3438   1.717   0.220   9.781  0.4494  0.2919 -0.2517
  226MPD1    H5 3439   1.767   0.307   9.796  2.1039 -0.8613  0.8310
  226MPD1    N1 3440   2.145   0.003   9.741  0.4797 -0.4829 -0.0437
  226MPD1    H6 3441   2.187   4.650   9.689 -0.0890  0.0542 -1.2893
  226MPD1    H7 3442   2.176   0.085   9.690 -2.2422 -1.0488 -2.5620
  227MPD1     C 3443   1.007   0.828   9.255 -0.1904 -0.0842 -0.3326
  227MPD1    C1 3444   1.125   0.890   9.258 -0.4191  0.5597  0.2907
  227MPD1    C2 3445   1.228   0.828   9.326 -0.0301 -0.6332  0.9416
  227MPD1    C3 3446   1.206   0.716   9.403  0.5731  0.2782 -0.4458
  227MPD1    C4 3447   1.078   0.664   9.409 -0.6150  0.1364  0.5441
  227MPD1    C5 3448   0.979   0.719   9.332 -0.0817 -0.3130  0.4698
  227MPD1     H 3449   1.328   0.871   9.321 -0.4218  0.4880  2.6740
  227MPD1    H1 3450   1.047   0.581   9.471  0.2498  0.3579  1.2722
  227MPD1    H2 3451   0.921   0.869   9.203 -0.6409 -0.6827 -0.0476
  227MPD1    H3 3452   0.881   0.674   9.329  0.7613 -1.9636 -2.2172
  227MPD1     N 3453   1.321   0.663   9.467  0.3321  0.2184 -0.4176
  227MPD1    H5 3454   1.407   0.717   9.459 -0.2897  1.3954  0.7708
  227MPD1    N1 3455   1.149   1.001   9.176  0.7740  0.0353 -0.2943
  227MPD1    H6 3456   1.229   1.060   9.197  1.8424 -2.2114  1.9074
  227MPD1    H7 3457   1.070   1.064   9.163 -2.3966 -3.7065  0.7940
  228MPD1     C 3458   0.308   3.203  12.499  0.2257 -0.3404  0.3464
  228MPD1    C1 3459   0.223   3.210  12.388  0.6748  0.1669 -0.3419
  228MPD1    C2 3460   0.091   3.191  12.409 -0.0369 -0.3268 -0.1531
  228MPD1    C3 3461   0.035   3.149  12.527  0.3305  0.2135 -0.1641
  228MPD1    C4 3462   0.123   3.121  12.635 -0.2524 -0.1534  0.1652
  228MPD1    C5 3463   0.257   3.151  12.614 -0.0922 -0.0958 -0.1656
  228MPD1     H 3464   0.017   3.212  12.333 -0.0881  0.9436  0.2370
  228MPD1    H1 3465   0.095   3.094  12.736  1.9675  0.4479  0.9354
  228MPD1    H2 3466   0.414   3.219  12.490  0.3288 -1.4812 -0.5227
  228MPD1    H3 3467   0.332   3.131  12.689 -0.0853  1.9937  0.3839
  228MPD1     N 3468   4.615   3.158  12.545 -0.2432 -0.2757 -0.2751
  228MPD1    H5 3469   4.558   3.174  12.462  0.0349 -0.8981 -0.5845
  228MPD1    N1 3470   0.275   3.256  12.268 -0.1507  0.3035  0.1738
  228MPD1    H6 3471   0.225   3.223  12.186 -0.7715 -1.6169  1.3517
  228MPD1    H7 3472   0.377   3.260  12.261  0.1356 -0.8819  3.7273
  229MPD1     C 3473   4.436   2.665  14.367  0.1806 -0.2028  0.8087
  229MPD1    C1 3474   4.539   2.589  14.327  0.6843 -0.5385 -0.2272
  229MPD1    C2 3475   4.542   2.458  14.372  0.7641  0.8298  0.2158
  229MPD1    C3 3476   4.435   2.400  14.449 -0.0094 -0.6796  0.2515
  229MPD1    C4 3477   4.333   2.480  14.490 -0.1986 -0.3633  0.9341
  229MPD1    C5 3478   4.336   2.612  14.450 -0.9022 -0.7027 -0.0705
  229MPD1     H 3479   4.632   2.401  14.352 -0.2215 -0.2942 -1.0053
  229MPD1    H1 3480   4.255   2.445  14.557  0.0262  0.3932  1.5848
  229MPD1    H2 3481   4.444   2.773  14.365  2.6357 -0.3416  3.2506
  229MPD1    H3 3482   4.264   2.679  14.495 -0.8451 -1.5660  1.3048
  229MPD1     N 3483   4.429   2.261  14.489 -0.0277 -0.6575 -0.1678
  229MPD1    H5 3484   4.346   2.234  14.540  1.5772 -0.2817  2.6297
  229MPD1    N1 3485   4.644   2.655  14.269  0.0493  0.0950 -0.7557
  229MPD1    H6 3486   4.699   2.605  14.199  0.7684 -1.4088  0.8860
  229MPD1    H7 3487   4.599   2.743  14.244  2.2895  1.6375  0.5846
  230MPD1     C 3488   3.960   2.025  15.140 -0.6514 -0.1298  0.0932
  230MPD1    C1 3489   3.964   2.109  15.032 -0.3965  0.0966 -0.6848
  230MPD1    C2 3490   4.062   2.094  14.942  0.2721  0.0016  0.1007
  230MPD1    C3 3491   4.167   1.998  14.955  0.1863 -0.0863  0.4569
  230MPD1    C4 3492   4.172   1.926  15.073  0.4279 -0.1143 -0.4706
  230MPD1    C5 3493   4.063   1.934  15.160 -0.4417 -0.5214  0.4558
  230MPD1     H 3494   4.044   2.146  14.848 -1.2277  0.9015  0.8875
  230MPD1    H1 3495   4.258   1.862  15.088 -0.4358 -1.0214  0.6289
  230MPD1    H2 3496   3.880   2.027  15.214 -2.1468 -0.2884 -1.5389
  230MPD1    H3 3497   4.064   1.864  15.243  1.0746  0.8128  1.5647
  230MPD1     N 3498   4.262   1.988  14.849 -0.3242 -0.9643 -0.1360
  230MPD1    H5 3499   4.248   2.047  14.767 -1.1920 -1.4180 -0.3143
  230MPD1    N1 3500   3.852   2.189  15.007  0.5874  0.4400  0.1483
  230MPD1    H6 3501   3.797   2.155  14.928  3.7605 -0.6038 -1.6222
  230MPD1    H7 3502   3.785   2.185  15.083  1.0107  0.2397  0.5130
  231MPD1     C 3503   1.998   3.466  15.348 -0.4684  0.1939  0.4869
  231MPD1    C1 3504   2.024   3.488  15.210  0.5328  0.3557  0.3315
  231MPD1    C2 3505   2.098   3.594  15.178  0.7271  1.2698 -0.4495
  231MPD1    C3 3506   2.129   3.691  15.267 -0.8533 -0.1984 -0.4221
  231MPD1    C4 3507   2.095   3.673  15.398 -0.1776  0.4627 -0.6209
  231MPD1    C5 3508   2.034   3.557  15.442  0.2971  0.1153  0.6753
  231MPD1     H 3509   2.131   3.601  15.075 -0.6790  0.4126 -0.9647
  231MPD1    H1 3510   2.124   3.745  15.473  0.0584 -1.6432  1.3092
  231MPD1    H2 3511   1.945   3.377  15.382 -0.8291  0.0903 -0.3614
  231MPD1    H3 3512   2.020   3.540  15.548  1.0217 -1.4476  0.5222
  231MPD1     N 3513   2.212   3.796  15.218 -0.0330 -0.3663  0.3628
  231MPD1    H5 3514   2.247   3.775  15.125 -0.3332 -0.7745  0.3435
  231MPD1    N1 3515   2.017   3.375  15.125 -0.1501  0.0875  0.2428
  231MPD1    H6 3516   1.939   3.311  15.140 -0.1972 -0.1102 -0.8433
  231MPD1    H7 3517   2.015   3.406  15.028 -1.2234  0.7744  0.4944
  232MPD1     C 3518   4.714   2.709   0.152 -0.6435 -0.0803  0.3074
  232MPD1    C1 3519   4.608   2.758   0.082  0.1607  0.5157  0.1138
  232MPD1    C2 3520   4.482   2.700   0.098 -0.4885  0.4197  0.3078
  232MPD1    C3 3521   4.459   2.593   0.184 -0.0669  0.2154  0.6112
  232MPD1    C4 3522   4.568   2.556   0.252  1.5374  0.3480  0.2550
  232MPD1    C5 3523   4.695   2.607   0.243  0.3892  0.4226 -0.1992
  232MPD1     H 3524   4.400   2.736   0.036 -0.0951 -0.8194 -0.9433
  232MPD1    H1 3525   4.559   2.473   0.321  1.4869  1.2781  1.3829
  232MPD1    H2 3526   0.091   2.750   0.146 -0.0238 -2.0393 -2.2963
  232MPD1    H3 3527   0.050   2.573   0.309 -0.0758  0.8121  0.5626
  232MPD1     N 3528   4.327   2.542   0.183 -0.0951  0.3404  0.2099
  232MPD1    H5 3529   4.256   2.596   0.135 -0.5023 -1.6435 -1.4403
  232MPD1    N1 3530   4.629   2.866  17.693 -0.9181 -0.3837  0.0295
  232MPD1    H6 3531   4.596   2.830  17.603 -0.2249  2.6808 -1.4412
  232MPD1    H7 3532   0.005   2.877  17.677 -1.3006  1.0084 -1.4186
  233MPD1     C 3533   0.086   4.708   1.391 -0.5993 -0.6670 -0.1541
  233MPD1    C1 3534   0.161   0.093   1.358 -0.7648  0.2235  0.7098
  233MPD1    C2 3535   0.298   0.074   1.351  0.3157  0.7253  0.1427
  233MPD1    C3 3536   0.357   4.693   1.418 -0.0591 -0.2561  0.6384
  233MPD1    C4 3537   0.274   4.590   1.468  0.3198  0.0989  0.1280
  233MPD1    C5 3538   0.139   4.595   1.444 -0.0946  0.1266  0.7052
  233MPD1     H 3539   0.366   0.142   1.302  1.7717 -0.6261  0.2967
  233MPD1    H1 3540   0.319   4.504   1.518 -1.6103  0.6632  2.8710
  233MPD1    H2 3541   4.702   4.713   1.382 -0.6084 -4.0878 -1.8350
  233MPD1    H3 3542   0.069   4.513   1.460  0.1522 -0.7104 -2.3813
  233MPD1     N 3543   0.496   4.670   1.441 -0.5936 -0.3103 -0.2479
  233MPD1    H5 3544   0.524   4.608   1.516  2.4163 -0.1562 -1.2389
  233MPD1    N1 3545   0.097   0.204   1.301 -0.2887  0.5245  0.6871
  233MPD1    H6 3546   0.139   0.290   1.335 -0.8747  0.7667  0.8012
  233MPD1    H7 3547   4.722   0.205   1.326 -0.0937 -1.7106  1.5221
  234MPD1     C 3548   2.411   3.235   9.644 -0.4846  0.3439 -0.3403
  234MPD1    C1 3549   2.473   3.314   9.741  0.5024 -0.1354 -0.0912
  234MPD1    C2 3550   2.439   3.448   9.751  1.0214  0.1715 -0.2601
  234MPD1    C3 3551   2.333   3.499   9.678 -0.5210 -0.0815 -0.4614
  234MPD1    C4 3552   2.267   3.414   9.590 -0.0808 -0.0418 -0.5627
  234MPD1    C5 3553   2.308   3.285   9.569  0.1182 -0.4595 -0.2688
  234MPD1     H 3554   2.471   3.511   9.833  1.7201 -1.6535  0.8814
  234MPD1    H1 3555   2.181   3.443   9.530 -0.3629 -0.0007 -0.1363
  234MPD1    H2 3556   2.434   3.131   9.624 -3.3393 -0.1185 -1.0982
  234MPD1    H3 3557   2.252   3.223   9.500 -1.9530  0.3436  0.6750
  234MPD1     N 3558   2.293   3.631   9.696 -0.4026 -0.0360  0.2180
  234MPD1    H5 3559   2.341   3.683   9.768  0.1389  2.0710 -1.6615
  234MPD1    N1 3560   2.578   3.265   9.816 -0.2289  0.5864 -0.0364
  234MPD1    H6 3561   2.571   3.164   9.817 -0.9918  0.6455  0.8467
  234MPD1    H7 3562   2.575   3.297   9.912  1.0582 -0.1801  0.2555
  235MPD1     C 3563   2.801   1.079  10.586  0.9864 -0.0277 -0.1245
  235MPD1    C1 3564   2.799   1.158  10.473 -0.0195 -0.1607 -0.9505
  235MPD1    C2 3565   2.902   1.234  10.447 -0.2990 -0.5039 -0.0757
  235MPD1    C3 3566   3.018   1.230  10.534  0.0293 -0.7315  0.0651
  235MPD1    C4 3567   3.022   1.137  10.642 -0.4180  0.0397 -0.1707
  235MPD1    C5 3568   2.912   1.064  10.664 -0.2400  0.5477 -0.2558
  235MPD1     H 3569   2.888   1.300  10.362  1.3387  1.2306  0.9963
  235MPD1    H1 3570   3.099   1.117  10.716 -0.2481  2.2062  0.2552
  235MPD1    H2 3571   2.717   1.013  10.606  1.4726 -1.7110 -3.6403
  235MPD1    H3 3572   2.915   0.981  10.733 -1.5642  1.1970  0.5878
  235MPD1     N 3573   3.127   1.312  10.509 -0.3860  0.6281 -0.5233
  235MPD1    H5 3574   3.119   1.371  10.427  0.1749 -0.9238 -1.6813
  235MPD1    N1 3575   2.675   1.185  10.410 -0.5641 -0.6182 -0.5191
  235MPD1    H6 3576   2.603   1.116  10.430 -0.0571 -1.2562 -0.8832
  235MPD1    H7 3577   2.676   1.193  10.309 -0.7001 -2.1390 -0.6412
  236MPD1     C 3578   3.503   2.489  10.463  0.2725 -0.5802 -0.2957
  236MPD1    C1 3579   3.434   2.419  10.372  0.2221 -0.2356 -0.1198
  236MPD1    C2 3580   3.339   2.329  10.422 -0.5663 -0.3259 -0.0198
  236MPD1    C3 3581   3.328   2.296  10.556  0.1380 -0.3225  0.2066
  236MPD1    C4 3582   3.415   2.365  10.642 -0.1317  0.1649 -0.2568
  236MPD1    C5 3583   3.508   2.447  10.592  0.0823 -0.2201 -0.1743
  236MPD1     H 3584   3.268   2.276  10.359 -0.9326  1.9389 -1.4935
  236MPD1    H1 3585   3.420   2.335  10.746 -0.7410  2.0936  0.3239
  236MPD1    H2 3586   3.570   2.563  10.421 -1.8254  1.7550  0.4104
  236MPD1    H3 3587   3.574   2.495  10.663 -1.2094 -0.3932  1.1545
  236MPD1     N 3588   3.229   2.211  10.618  0.5924 -0.0693  0.5605
  236MPD1    H5 3589   3.240   2.199  10.718 -1.4046  0.7029  0.8807
  236MPD1    N1 3590   3.440   2.459  10.241 -0.2991 -1.0275 -0.1898
  236MPD1    H6 3591   3.537   2.473  10.214 -0.3045  0.9847  0.8203
  236MPD1    H7 3592   3.407   2.381  10.184  0.3986 -1.0954 -0.5022
  237MPD1     C 3593   3.458   1.076  15.266  0.4290  0.1693 -0.4182
  237MPD1    C1 3594   3.366   1.167  15.311  0.1621 -0.2974  0.3196
  237MPD1    C2 3595   3.235   1.121  15.324 -0.6395  0.1374 -0.2134
  237MPD1    C3 3596   3.198   0.992  15.308  0.0626  0.4765  0.6555
  237MPD1    C4 3597   3.301   0.909  15.268 -0.1218  0.8073 -0.4882
  237MPD1    C5 3598   3.426   0.949  15.237 -0.0120 -0.4642 -0.4983
  237MPD1     H 3599   3.163   1.191  15.365 -0.9117 -0.5152  0.4339
  237MPD1    H1 3600   3.284   0.804  15.245 -2.9062  1.3313 -0.8396
  237MPD1    H2 3601   3.561   1.101  15.242 -0.5305  2.0050 -2.6508
  237MPD1    H3 3602   3.502   0.873  15.225  2.4336  1.8636  0.3023
  237MPD1     N 3603   3.069   0.941  15.328  0.0702  0.0536 -0.5589
  237MPD1    H5 3604   3.056   0.840  15.322 -2.5958  0.5440 -2.7354
  237MPD1    N1 3605   3.394   1.307  15.317 -0.0898  0.6716 -0.3233
  237MPD1    H6 3606   3.486   1.322  15.358  0.5647 -1.8475 -0.8481
  237MPD1    H7 3607   3.324   1.350  15.377 -0.6309  0.2165 -0.6222
  238MPD1     C 3608   4.711   4.034  15.627  0.6082  0.1323  0.2343
  238MPD1    C1 3609   4.586   3.987  15.675 -0.7354  0.0700  0.0757
  238MPD1    C2 3610   4.488   3.932  15.593  0.0572  0.1997  0.2167
  238MPD1    C3 3611   4.517   3.939  15.455  0.1291  0.0649  0.6752
  238MPD1    C4 3612   4.635   3.999  15.410 -0.5560  0.4882  0.5245
  238MPD1    C5 3613   0.006   4.044  15.494 -0.1084 -0.4032 -0.0543
  238MPD1     H 3614   4.403   3.883  15.638 -0.4992  0.0870 -0.9443
  238MPD1    H1 3615   4.653   4.015  15.304  1.1096  0.3626  0.7765
  238MPD1    H2 3616   0.063   4.080  15.690 -1.0955 -0.1149  2.4691
  238MPD1    H3 3617   0.096   4.090  15.453  0.6884 -1.0369  0.9943
  238MPD1     N 3618   4.422   3.898  15.362  0.3151 -0.4774  0.6703
  238MPD1    H5 3619   4.440   3.918  15.264  0.9593  0.5458  1.0006
  238MPD1    N1 3620   4.559   3.982  15.813  0.1166 -0.1566 -0.3934
  238MPD1    H6 3621   4.465   3.997  15.850 -0.5799  0.5854 -2.4349
  238MPD1    H7 3622   4.624   4.035  15.871  1.9281 -2.3968 -0.3699
  239MPD1     C 3623   0.215   4.118  14.631 -1.0621  0.0763 -0.1380
  239MPD1    C1 3624   0.248   4.235  14.696  0.2368  0.6966 -0.0279
  239MPD1    C2 3625   0.180   4.351  14.663 -0.4805  0.1403  0.3227
  239MPD1    C3 3626   0.103   4.351  14.549 -0.4106  0.3235  0.3972
  239MPD1    C4 3627   0.087   4.237  14.475 -0.8672  0.1914 -0.7071
  239MPD1    C5 3628   0.130   4.116  14.521 -1.4739 -0.6672  0.3319
  239MPD1     H 3629   0.208   4.434  14.727 -0.3270 -1.0939  1.8422
  239MPD1    H1 3630   0.034   4.240  14.381  0.5938 -0.7504 -1.5438
  239MPD1    H2 3631   0.266   4.026  14.658 -1.6217 -0.0625  0.4463
  239MPD1    H3 3632   0.117   4.026  14.461 -2.1172 -0.5777  0.3473
  239MPD1     N 3633   0.054   4.470  14.491 -0.7116 -0.4338 -0.0536
  239MPD1    H5 3634   0.017   4.466  14.397  1.0908 -1.2048 -0.7221
  239MPD1    N1 3635   0.315   4.231  14.816  0.9679  0.6046  0.2055
  239MPD1    H6 3636   0.372   4.312  14.841  0.9946  0.1855  1.5076
  239MPD1    H7 3637   0.387   4.160  14.805  0.0912 -0.5087  1.6980
  240MPD1     C 3638   3.935   0.289  14.212 -0.0644  0.4663  0.0547
  240MPD1    C1 3639   3.845   0.188  14.192  0.5908 -0.1254 -0.0117
  240MPD1    C2 3640   3.862   0.071  14.264 -0.5431 -0.2345  0.1661
  240MPD1    C3 3641   3.973   0.052  14.346 -0.6366  0.4854 -0.0360
  240MPD1    C4 3642   4.070   0.150  14.349  0.2283 -0.4834 -0.0543
  240MPD1    C5 3643   4.052   0.268  14.281  0.7234  0.3398  0.3958
  240MPD1     H 3644   3.782   4.722  14.257 -1.2272  0.6921 -1.5687
  240MPD1    H1 3645   4.158   0.153  14.413 -0.3031  2.8315  0.5346
  240MPD1    H2 3646   3.920   0.388  14.170  0.6960  0.8237  0.6022
  240MPD1    H3 3647   4.103   0.363  14.296 -0.2281  0.4515  2.9878
  240MPD1     N 3648   3.974   4.659  14.428  0.0892  0.1387  0.7220
  240MPD1    H5 3649   3.891   4.601  14.418  2.1058 -2.2990 -1.7493
  240MPD1    N1 3650   3.722   0.207  14.127 -0.2396 -0.8663  0.1901
  240MPD1    H6 3651   3.696   0.129  14.068 -1.8611  0.1921 -0.5133
  240MPD1    H7 3652   3.722   0.281  14.057 -1.0102 -1.5346 -0.5060
  241MPD1     C 3653   4.582   4.293  15.193 -0.1277  0.2467 -0.0176
  241MPD1    C1 3654   4.618   4.362  15.082  0.3423 -0.4332  0.0019
  241MPD1    C2 3655   4.519   4.384  14.980  0.2757 -0.0406  0.4954
  241MPD1    C3 3656   4.392   4.335  14.990  0.6076 -0.1231  0.2511
  241MPD1    C4 3657   4.364   4.262  15.104 -0.0852  0.2537 -0.9462
  241MPD1    C5 3658   4.457   4.247  15.207  0.7200  0.3337 -0.6236
  241MPD1     H 3659   4.547   4.434  14.888  2.5514 -0.6564  0.8661
  241MPD1    H1 3660   4.265   4.223  15.125  0.2409  0.7688  1.6596
  241MPD1    H2 3661   4.653   4.274  15.274 -1.3461 -1.0023  0.7439
  241MPD1    H3 3662   4.414   4.196  15.292 -0.2472 -1.7779 -2.3950
  241MPD1     N 3663   4.301   4.359  14.879  0.0543  0.1070  0.2100
  241MPD1    H5 3664   4.340   4.410  14.800  1.2178  0.7301  1.1893
  241MPD1    N1 3665   0.028   4.394  15.058  0.8070 -0.6285 -0.5298
  241MPD1    H6 3666   0.058   4.465  14.991  3.3897  0.8898  2.2594
  241MPD1    H7 3667   0.070   4.417  15.148  0.8185 -1.6805 -0.2599
  242MPD1     C 3668   3.251   2.688  16.075 -0.6720  0.2260 -0.2838
  242MPD1    C1 3669   3.194   2.732  15.967 -0.2325 -0.4266 -0.0808
  242MPD1    C2 3670   3.250   2.692  15.845  0.5945 -0.2696  0.7647
  242MPD1    C3 3671   3.356   2.601  15.833 -0.1900  0.1034  0.9753
  242MPD1    C4 3672   3.397   2.546  15.949  0.7353  0.3191 -0.0811
  242MPD1    C5 3673   3.346   2.587  16.072  0.3882  0.0957  1.5334
  242MPD1     H 3674   3.204   2.737  15.758  1.7934 -3.3432 -1.4468
  242MPD1    H1 3675   3.473   2.470  15.958 -1.0423 -1.4193  0.3298
  242MPD1    H2 3676   3.199   2.715  16.166 -0.7833 -0.3898 -0.1645
  242MPD1    H3 3677   3.380   2.539  16.163  3.0068  0.3557  0.6994
  242MPD1     N 3678   3.417   2.555  15.708 -0.3790  0.2683 -0.0879
  242MPD1    H5 3679   3.487   2.482  15.713  0.0939  0.7122 -0.3390
  242MPD1    N1 3680   3.098   2.837  15.978  0.1553  0.3228  0.2243
  242MPD1    H6 3681   3.033   2.842  15.900  0.2148  0.0222  0.1553
  242MPD1    H7 3682   3.040   2.844  16.061 -1.2367  2.4993 -0.9447
  243MPD1     C 3683   4.716   0.503   0.083 -0.1700 -0.0157 -0.3651
  243MPD1    C1 3684   0.078   0.401   0.055  0.0226  0.4762  0.3129
  243MPD1    C2 3685   0.213   0.422   0.028  0.5409  0.2036  0.4735
  243MPD1    C3 3686   0.261   0.549   0.016  0.1316 -0.3819  0.2431
  243MPD1    C4 3687   0.172   0.653   0.039  0.0132 -0.2902 -0.2592
  243MPD1    C5 3688   0.042   0.630   0.074 -0.3373 -0.0934 -0.4676
  243MPD1     H 3689   0.270   0.337  17.689  0.5799  0.5749 -0.3576
  243MPD1    H1 3690   0.184   0.756   0.009 -0.0878 -0.9284 -2.5276
  243MPD1    H2 3691   4.622   0.493   0.135 -1.0802  0.1263 -2.0028
  243MPD1    H3 3692   4.700   0.714   0.096  0.3170  0.0506  0.9702
  243MPD1     N 3693   0.387   0.573  17.660  1.1001 -0.6823  0.2339
  243MPD1    H5 3694   0.454   0.497  17.650  0.1744 -1.3861 -0.5609
  243MPD1    N1 3695   0.033   0.262   0.060 -0.5258  0.3625  0.2233
  243MPD1    H6 3696   0.103   0.194   0.091  0.9428  0.6221 -2.5299
  243MPD1    H7 3697   4.681   0.250   0.127  0.0557 -1.4737  0.5715
  244MPD1     C 3698   1.300   0.196  17.647  0.5606  0.4335  0.1803
  244MPD1    C1 3699   1.314   0.295  17.552 -0.0659 -0.3729  0.8951
  244MPD1    C2 3700   1.209   0.378  17.519  0.2526 -0.4984 -0.5791
  244MPD1    C3 3701   1.095   0.369  17.590  0.2598  0.0123 -0.4357
  244MPD1    C4 3702   1.083   0.277  17.689 -0.9896  0.3200  0.0910
  244MPD1    C5 3703   1.183   0.191   0.022  0.8054 -0.0401  0.4504
  244MPD1     H 3704   1.215   0.449  17.437 -2.8198  0.2398 -0.1246
  244MPD1    H1 3705   0.990   0.270   0.049 -0.7483  2.5745  0.7482
  244MPD1    H2 3706   1.379   0.130  17.680  2.2755  0.9033 -3.0565
  244MPD1    H3 3707   1.169   0.116   0.098  0.3568 -0.2252  0.1820
  244MPD1     N 3708   0.994   0.460  17.553 -0.3282 -0.5061 -1.3761
  244MPD1    H5 3709   1.020   0.527  17.481 -0.7685 -1.1956 -2.1771
  244MPD1    N1 3710   1.429   0.294  17.470  0.0285  0.7511  0.3397
  244MPD1    H6 3711   1.441   0.376  17.411 -1.0974  0.1926 -0.6748
  244MPD1    H7 3712   1.515   0.295  17.524  1.3626 -2.0331 -1.7435
  245MPD1     C 3713   1.682   2.119  13.915  0.0402 -0.8534  0.0794
  245MPD1    C1 3714   1.789   2.171  13.987 -0.5719  0.2783  0.7082
  245MPD1    C2 3715   1.904   2.198  13.920 -0.5702 -0.0807 -0.8279
  245MPD1    C3 3716   1.911   2.176  13.786  0.1524  0.2253  0.1780
  245MPD1    C4 3717   1.807   2.122  13.717 -0.1913  0.1706  0.0074
  245MPD1    C5 3718   1.698   2.087  13.783 -0.0280  0.1453 -0.0946
  245MPD1     H 3719   1.988   2.246  13.968 -1.8494 -0.3548  1.6950
  245MPD1    H1 3720   1.807   2.114  13.608  0.0103 -0.1284  0.0278
  245MPD1    H2 3721   1.587   2.081  13.953  0.5456 -2.2148 -0.0253
  245MPD1    H3 3722   1.611   2.048  13.733 -0.9625 -0.3428  1.9039
  245MPD1     N 3723   2.032   2.225  13.727 -0.3613 -0.6983 -0.4708
  245MPD1    H5 3724   2.106   2.250  13.792 -0.0096  0.0169 -1.1527
  245MPD1    N1 3725   1.768   2.224  14.117 -0.5044  0.0976  0.8783
  245MPD1    H6 3726   1.845   2.232  14.183 -0.5433 -1.6063  1.1204
  245MPD1    H7 3727   1.686   2.184  14.163 -0.6406  0.0708  0.6139
  246MPD1     C 3728   3.785   4.303  10.026 -0.7845 -0.1045 -0.3914
  246MPD1    C1 3729   3.870   4.199  10.047  0.1330  0.0665 -0.0022
  246MPD1    C2 3730   3.851   4.084   9.978  0.2661 -0.1581 -0.0109
  246MPD1    C3 3731   3.743   4.070   9.894 -0.1700 -0.4052  0.0696
  246MPD1    C4 3732   3.654   4.183   9.872  0.0582 -0.1012 -0.0624
  246MPD1    C5 3733   3.690   4.302   9.923 -0.3717  0.0891  0.7037
  246MPD1     H 3734   3.922   4.002   9.987 -0.3257 -0.7386 -0.6186
  246MPD1    H1 3735   3.566   4.177   9.809  1.4207  1.2359 -2.1153
  246MPD1    H2 3736   3.804   4.397  10.077 -1.0314  0.1205 -0.7144
  246MPD1    H3 3737   3.617   4.381   9.910  0.4785  1.3936  3.8291
  246MPD1     N 3738   3.733   3.944   9.835 -0.1941 -0.0317 -0.7291
  246MPD1    H5 3739   3.795   3.869   9.865 -1.4424 -0.3866  0.9965
  246MPD1    N1 3740   3.990   4.218  10.120  0.2272  0.1054  0.1064
  246MPD1    H6 3741   4.012   4.125  10.155 -1.5392 -1.1856 -2.2090
  246MPD1    H7 3742   3.977   4.263  10.210  2.0028  2.5406 -0.8621
  247MPD1     C 3743   1.627   1.598  16.866  0.1130 -0.1588 -0.2618
  247MPD1    C1 3744   1.697   1.477  16.879 -0.2799  0.4172 -0.2035
  247MPD1    C2 3745   1.732   1.402  16.761 -0.1288  0.0706 -0.6714
  247MPD1    C3 3746   1.690   1.453  16.637  0.5786  0.1196 -0.4531
  247MPD1    C4 3747   1.621   1.575  16.624 -1.0548  0.5074  0.9463
  247MPD1    C5 3748   1.588   1.637  16.742 -0.5620 -0.4049 -0.0498
  247MPD1     H 3749   1.792   1.311  16.761 -0.2556 -0.0173 -1.8507
  247MPD1    H1 3750   1.596   1.612  16.525  0.0710 -2.0495 -0.2918
  247MPD1    H2 3751   1.611   1.654  16.957 -1.0385 -1.2987  0.2359
  247MPD1    H3 3752   1.533   1.730  16.745 -0.9438 -0.5537 -2.8237
  247MPD1     N 3753   1.703   1.384  16.517  0.3732  0.9476  0.1337
  247MPD1    H5 3754   1.678   1.427  16.429  0.8011 -1.4281 -1.1399
  247MPD1    N1 3755   1.723   1.420  17.004 -0.0083  0.7318 -0.2141
  247MPD1    H6 3756   1.807   1.362  16.994 -0.2198  0.9569 -3.4409
  247MPD1    H7 3757   1.745   1.486  17.078  0.7050 -0.5903  0.7609
  248MPD1     C 3758   2.246   1.284  17.638 -0.1957  0.8593 -0.1663
  248MPD1    C1 3759   2.164   1.271   0.049 -0.1642  0.1467 -0.0345
  248MPD1    C2 3760   2.164   1.372   0.143  0.0035  0.7170  0.3319
  248MPD1    C3 3761   2.243   1.486   0.127 -0.0248  0.3128 -0.1525
  248MPD1    C4 3762   2.326   1.495   0.012  0.5247  0.7044  0.4882
  248MPD1    C5 3763   2.318   1.400  17.614  0.3423 -0.5527 -1.1142
  248MPD1     H 3764   2.092   1.363   0.223 -0.1402 -0.4054  0.0795
  248MPD1    H1 3765   2.392   1.578  17.683  0.9609  0.2088  0.0012
  248MPD1    H2 3766   2.260   1.206  17.564 -1.6922  0.5723 -0.1437
  248MPD1    H3 3767   2.386   1.401  17.530  3.5295 -3.2294  1.4405
  248MPD1     N 3768   2.231   1.594   0.221 -0.8839 -0.2649  0.4447
  248MPD1    H5 3769   2.158   1.571   0.288 -1.2215  0.6790  0.4043
  248MPD1    N1 3770   2.082   1.159   0.071 -0.7980  0.3602  0.2397
  248MPD1    H6 3771   2.081   1.130   0.169 -0.7429 -0.3573  0.0306
  248MPD1    H7 3772   2.088   1.085   0.001 -1.7066 -0.4813  1.0406
  249MPD1     C 3773   3.288   4.629  10.527 -0.3111 -1.2899 -0.4354
  249MPD1    C1 3774   3.256   4.564  10.405  0.4567  0.5513 -0.5311
  249MPD1    C2 3775   3.261   4.643  10.292  0.5335  0.2090 -0.3044
  249MPD1    C3 3776   3.294   0.058  10.293  0.1411 -0.4901  0.4112
  249MPD1    C4 3777   3.332   0.113  10.412 -0.8884  0.1959 -0.2637
  249MPD1    C5 3778   3.330   0.034  10.527 -0.7183 -0.2243 -0.3024
  249MPD1     H 3779   3.224   4.602  10.198  0.6275 -1.6420  0.4630
  249MPD1    H1 3780   3.379   0.210  10.420  1.1221 -0.8295  0.6557
  249MPD1    H2 3781   3.287   4.583  10.625  1.0401 -1.4394 -0.4839
  249MPD1    H3 3782   3.360   0.077  10.622  1.5178  0.6990 -1.4186
  249MPD1     N 3783   3.295   0.127  10.168  0.2365  0.4076  0.5555
  249MPD1    H5 3784   3.249   0.084  10.088  0.5794 -1.4575  1.3773
  249MPD1    N1 3785   3.186   4.441  10.407  0.0685  0.5848  0.4656
  249MPD1    H6 3786   3.214   4.381  10.485  1.1980 -0.3634 -0.6822
  249MPD1    H7 3787   3.208   4.391  10.322  1.9912  0.3945  1.0730
  250MPD2     C 3788   0.615   0.644  13.123  0.2322  0.1846 -0.2718
  250MPD2    C1 3789   0.577   0.715  13.009  0.0164 -0.0775 -0.1268
  250MPD2    C2 3790   0.474   0.659  12.939  0.7309  0.2636  0.2274
  250MPD2    C3 3791   0.418   0.540  12.976  0.1116  0.4684 -0.3798
  250MPD2    C4 3792   0.446   0.478  13.093  0.3474 -0.2577 -0.6106
  250MPD2    C5 3793   0.545   0.538  13.175  0.4855 -0.3218 -0.0257
  250MPD2     H 3794   0.431   0.719  12.859  0.1717 -0.5710 -0.0984
  250MPD2    H1 3795   0.394   0.400  13.148 -0.4356  0.1439 -0.7855
  250MPD2    H2 3796   0.690   0.691  13.184  0.8203 -1.2692  0.1168
  250MPD2    H3 3797   0.563   0.508  13.278  1.1427 -0.3466 -0.1465
  250MPD2     N 3798   0.308   0.486  12.903 -0.5595 -0.1865  0.5685
  250MPD2    H5 3799   0.266   0.398  12.932  2.2417 -1.8494 -0.3284
  250MPD2    N1 3800   0.642   0.833  12.965  0.0031  0.4684  0.1835
  250MPD2    H7 3801   0.598   0.885  12.890 -1.3441 -0.5329  0.2822
  251TMC3    C1 3802   0.817   0.998  12.955 -0.3024  1.3749  0.5251
  251TMC3    C2 3803   0.726   1.100  12.954  0.9993  0.6793 -0.1540
  251TMC3    C3 3804   0.776   1.233  12.941 -0.2488 -0.4632 -0.0148
  251TMC3    C4 3805   0.946   1.020  12.958  0.1528  0.0027 -0.7353
  251TMC3    C5 3806   0.995   1.153  12.963 -0.3074 -1.0961 -0.2797
  251TMC3    C6 3807   0.909   1.266  12.954  0.1570 -1.0377 -0.0721
  251TMC3     C 3808   0.772   0.863  12.991 -0.0454  0.0838 -0.2802
  251TMC3     O 3809   0.850   0.774  13.036 -0.0761  0.0951  0.4246
  251TMC3     H 3810   0.622   1.077  12.976  0.7502 -1.6038 -3.7249
  251TMC3    H1 3811   1.015   0.940  12.982  1.4638  1.5338  0.6838
  251TMC3    H2 3812   0.951   1.364  12.936  1.5028 -1.2720  1.8904
  251TMC3    C7 3813   1.142   1.164  12.972 -0.0519  0.1549  0.4023
  251TMC3    C8 3814   0.677   1.332  12.975 -0.2400 -0.1418  0.0417
  251TMC3    O1 3815   1.211   1.064  12.960 -0.3543 -0.6026 -0.3055
  251TMC3    O2 3816   0.563   1.292  12.998  0.3284 -0.3890  0.1353
  252TMC3    C1 3817   2.006   1.343   9.246 -1.1268  0.3029  1.0702
  252TMC3    C2 3818   2.012   1.323   9.377  0.0154 -0.2737 -0.9658
  252TMC3    C3 3819   1.919   1.389   9.449  0.4376  0.7676 -0.2307
  252TMC3    C4 3820   1.905   1.412   9.179  0.1608 -0.1341 -0.6999
  252TMC3    C5 3821   1.818   1.470   9.261 -0.2277  0.3800 -0.5889
  252TMC3    C6 3822   1.827   1.470   9.395 -0.0786 -0.8710 -0.5548
  252TMC3     C 3823   2.106   1.284   9.158  0.2603 -0.3320  0.5146
  252TMC3     O 3824   2.077   1.293   9.040 -0.2513 -0.5124 -0.1048
  252TMC3     H 3825   2.076   1.253   9.428 -1.9929  0.2606  2.3271
  252TMC3    H1 3826   1.903   1.435   9.073  1.2850 -4.0035 -1.5542
  252TMC3    H2 3827   1.752   1.523   9.453  0.1816  1.0497 -1.9749
  252TMC3    C7 3828   1.694   1.514   9.197 -0.6856  0.6274 -0.6290
  252TMC3    C8 3829   1.893   1.323   9.576  0.0831  0.2134 -0.2601
  252TMC3    O1 3830   1.689   1.517   9.078 -0.2704  0.0550 -0.0772
  252TMC3    O2 3831   1.901   1.201   9.578 -0.1424 -0.0183  0.3757
  253MPD2     C 3832   2.279   0.855  15.670  0.1818 -0.4400  0.5493
  253MPD2    C1 3833   2.172   0.770  15.649 -0.0675 -0.8797 -0.3223
  253MPD2    C2 3834   2.126   0.700  15.758 -0.2495 -0.4877  0.6001
  253MPD2    C3 3835   2.177   0.714  15.880 -0.4213 -0.5773 -0.2566
  253MPD2    C4 3836   2.281   0.806  15.903 -0.0381 -0.3352 -0.4612
  253MPD2    C5 3837   2.335   0.862  15.791  0.0395 -0.4114 -0.3427
  253MPD2     H 3838   2.062   0.616  15.737 -1.6669  0.8898 -0.6062
  253MPD2    H1 3839   2.313   0.830  16.003  0.7509 -4.3890  0.2709
  253MPD2    H2 3840   2.326   0.913  15.591  0.6332 -1.6817 -0.0958
  253MPD2    H3 3841   2.418   0.930  15.807  0.1050 -0.2871 -1.2355
  253MPD2     N 3842   2.128   0.645  15.996 -0.3287  0.7260  0.2844
  253MPD2    H5 3843   2.190   0.659  16.076 -2.2039  1.7626  1.5672
  253MPD2    N1 3844   2.103   0.770  15.526  0.0168 -0.4951  0.6414
  253MPD2    H7 3845   2.017   0.717  15.515 -0.0190 -0.2239 -0.3892
  254TMC3    C1 3846   1.979   0.546  16.138 -0.3225 -0.3676  0.2579
  254TMC3    C2 3847   1.847   0.522  16.154 -0.2449 -0.3123 -0.5521
  254TMC3    C3 3848   1.806   0.493  16.281 -0.2074  0.0033  0.1426
  254TMC3    C4 3849   2.074   0.549  16.240 -0.8983 -0.5172  0.1706
  254TMC3    C5 3850   2.028   0.516  16.371 -0.3253 -0.4014  0.7942
  254TMC3    C6 3851   1.898   0.481  16.389 -0.2238  0.0875  0.0218
  254TMC3     C 3852   2.025   0.563  16.003  0.3413 -0.2129 -0.0512
  254TMC3     O 3853   1.951   0.529  15.909  0.7521  0.9775 -0.1731
  254TMC3     H 3854   1.780   0.527  16.068  3.5585 -1.2554 -3.5731
  254TMC3    H1 3855   2.180   0.551  16.216 -0.8038 -0.1070  0.6294
  254TMC3    H2 3856   1.863   0.455  16.488 -0.4315 -2.0536 -0.6072
  254TMC3    C7 3857   2.111   0.514  16.483  0.1044 -0.5548  0.4012
  254TMC3    C8 3858   1.666   0.519  16.321 -0.0064  0.6797 -0.3576
  254TMC3    O1 3859   2.060   0.477  16.587 -0.2913  0.2457 -0.3929
  254TMC3    O2 3860   1.655   0.545  16.440  0.1467 -0.9388  0.0026
  255MPD2     C 3861   1.245   2.847  10.004  1.0662  0.2436  0.2366
  255MPD2    C1 3862   1.200   2.976   9.997  0.0751  0.4154  0.3749
  255MPD2    C2 3863   1.219   3.040   9.876  0.5937 -0.3432  0.2809
  255MPD2    C3 3864   1.276   2.973   9.770  0.0607  0.3917  0.8164
  255MPD2    C4 3865   1.322   2.848   9.782 -0.6936 -1.4390 -0.1451
  255MPD2    C5 3866   1.297   2.783   9.894 -0.6846  0.3886  0.2148
  255MPD2     H 3867   1.188   3.144   9.877 -0.2440 -0.6213  2.5271
  255MPD2    H1 3868   1.380   2.804   9.701  2.6461 -0.2559  1.6247
  255MPD2    H2 3869   1.235   2.800  10.101 -1.4144  0.2910  0.0126
  255MPD2    H3 3870   1.313   2.676   9.898  0.7353  0.5608 -1.1838
  255MPD2     N 3871   1.289   3.052   9.647 -0.1763  0.5490  0.5095
  255MPD2    H5 3872   1.265   3.150   9.648  2.4354  1.1874  2.1567
  255MPD2    N1 3873   1.123   3.040  10.095  0.1866 -0.5276 -0.7546
  255MPD2    H7 3874   1.098   3.137  10.075  0.4442  0.3604  3.1639
  256TMC3    C1 3875   0.985   3.074  10.286 -0.4221  0.1878 -1.0159
  256TMC3    C2 3876   1.015   3.201  10.250  0.8618  0.5146  0.0413
  256TMC3    C3 3877   0.920   3.290  10.208 -0.3756 -0.0443  0.7303
  256TMC3    C4 3878   0.859   3.023  10.274 -0.4107  0.6482  0.0342
  256TMC3    C5 3879   0.761   3.111  10.232 -0.1505 -0.1570 -0.2528
  256TMC3    C6 3880   0.793   3.239  10.194  0.3191 -0.1149  0.3047
  256TMC3     C 3881   1.070   2.982  10.206  0.4142 -0.4697  0.5891
  256TMC3     O 3882   1.070   2.863  10.238 -0.0567  0.1721 -0.0799
  256TMC3     H 3883   1.117   3.235  10.262  0.8453 -0.0034  1.5768
  256TMC3    H1 3884   0.856   2.915  10.266  1.3034  0.4745  1.8245
  256TMC3    H2 3885   0.713   3.298  10.151 -1.9504 -1.9588  2.0284
  256TMC3    C7 3886   0.632   3.053  10.186  0.5255 -0.2668 -0.1341
  256TMC3    C8 3887   0.966   3.385  10.103 -0.0001 -0.5057  0.2663
  256TMC3    O1 3888   0.558   3.111  10.107 -0.0031  0.4288  0.0420
  256TMC3    O2 3889   1.071   3.358  10.050  0.1273 -0.7416  0.1360
  257MPD2     C 3890   4.519   0.725  13.399 -0.1968  0.3797 -0.2268
  257MPD2    C1 3891   4.459   0.646  13.306 -0.4245  0.4069 -0.6614
  257MPD2    C2 3892   4.407   0.526  13.340  0.9571 -0.3124 -0.1579
  257MPD2    C3 3893   4.408   0.479  13.473  0.0917 -0.3096 -1.1576
  257MPD2    C4 3894   4.475   0.558  13.565  0.0501  0.5662  0.0443
  257MPD2    C5 3895   4.527   0.680  13.527  0.6744  0.3844  0.3034
  257MPD2     H 3896   4.343   0.467  13.275  0.1921 -1.7214  1.8927
  257MPD2    H1 3897   4.478   0.529  13.669 -1.0819 -0.4588 -0.2107
  257MPD2    H2 3898   4.553   0.826  13.384  1.3021 -0.6374 -3.4939
  257MPD2    H3 3899   4.585   0.731  13.604  2.1070  0.0754 -0.5681
  257MPD2     N 3900   4.351   0.353  13.497  0.8056  0.2593  0.4345
  257MPD2    H5 3901   4.334   0.290  13.420 -0.8907 -0.0444  1.0635
  257MPD2    N1 3902   4.437   0.700  13.175  0.3598 -0.4871 -0.5804
  257MPD2    H7 3903   4.473   0.794  13.161  2.2175 -1.1224 -0.0855
  258TMC3    C1 3904   4.288   0.161  13.622  0.1680 -0.2032  0.3853
  258TMC3    C2 3905   4.226   0.110  13.508 -1.0646 -0.1373  0.1387
  258TMC3    C3 3906   4.212   4.697  13.493  0.1788  0.2241  0.4249
  258TMC3    C4 3907   4.335   0.074  13.716 -0.6880 -0.4908 -0.3008
  258TMC3    C5 3908   4.325   4.663  13.695 -0.0939  0.1021 -0.1254
  258TMC3    C6 3909   4.261   4.610  13.588  0.7579 -0.2343  0.2600
  258TMC3     C 3910   4.342   0.297  13.625  0.1025  0.3385  0.7773
  258TMC3     O 3911   4.366   0.346  13.730 -0.3684  0.0718 -0.5271
  258TMC3     H 3912   4.188   0.173  13.429 -1.6833  0.5113  0.9608
  258TMC3    H1 3913   4.404   0.111  13.790 -0.3273  0.5207 -1.1379
  258TMC3    H2 3914   4.244   4.504  13.579  3.4473 -0.7764  1.5926
  258TMC3    C7 3915   4.389   4.575  13.797 -0.4957  0.2698  0.1355
  258TMC3    C8 3916   4.175   4.646  13.364 -0.0525 -0.3348  0.1557
  258TMC3    O1 3917   4.430   4.620  13.902 -0.3276 -1.3942  0.4231
  258TMC3    O2 3918   4.101   4.715  13.304  0.0571 -0.0455  0.1087
  259MPD2     C 3919   2.384   2.511   0.687 -0.3182  0.1129  0.6415
  259MPD2    C1 3920   2.475   2.535   0.787  0.5937  0.7695 -0.1297
  259MPD2    C2 3921   2.607   2.492   0.761  0.6235 -0.0585 -1.3609
  259MPD2    C3 3922   2.637   2.409   0.655  0.8484 -0.1947  0.3603
  259MPD2    C4 3923   2.546   2.391   0.553  0.0204 -0.4068 -0.0513
  259MPD2    C5 3924   2.421   2.443   0.567 -0.1038  0.2471 -0.0477
  259MPD2     H 3925   2.691   2.510   0.828  0.2464  0.6555 -1.0737
  259MPD2    H1 3926   2.569   2.340   0.461 -0.6006 -1.3619  0.3197
  259MPD2    H2 3927   2.287   2.553   0.710 -1.8106 -2.7529 -0.4044
  259MPD2    H3 3928   2.345   2.441   0.490  0.8637  0.4172 -1.0061
  259MPD2     N 3929   2.758   2.349   0.647 -0.0449 -0.8620 -0.1988
  259MPD2    H5 3930   2.827   2.373   0.718  0.1139 -0.4908 -0.4752
  259MPD2    N1 3931   2.439   2.599   0.906  0.1928  0.4338 -0.5012
  259MPD2    H7 3932   2.338   2.601   0.908  0.1886 -0.1607  0.0177
  260TMC3    C1 3933   2.938   2.224   0.551  0.3185  0.4020 -0.1341
  260TMC3    C2 3934   3.030   2.331   0.563  0.6682 -0.4236  0.5040
  260TMC3    C3 3935   3.156   2.314   0.506  0.7612 -0.3068  0.0438
  260TMC3    C4 3936   2.972   2.107   0.490 -0.3356  0.7820  0.0234
  260TMC3    C5 3937   3.094   2.100   0.430  0.0351  0.2813 -0.0152
  260TMC3    C6 3938   3.189   2.195   0.450  0.3348 -0.4414  0.7090
  260TMC3     C 3939   2.792   2.244   0.559  0.7084 -0.0046  0.5604
  260TMC3     O 3940   2.716   2.160   0.511  0.2226 -0.3441 -0.4437
  260TMC3     H 3941   2.993   2.432   0.575  2.9006  0.6325 -1.3459
  260TMC3    H1 3942   2.903   2.023   0.485  0.4345  0.2149 -1.0169
  260TMC3    H2 3943   3.285   2.179   0.404  1.3201  1.5966  2.0520
  260TMC3    C7 3944   3.123   1.991   0.340 -0.1637  0.6929 -0.1452
  260TMC3    C8 3945   3.235   2.428   0.463 -0.0882  0.4719  0.2549
  260TMC3    O1 3946   3.238   1.966   0.308  0.0777 -0.4837 -0.2964
  260TMC3    O2 3947   3.181   2.532   0.485  0.1408  0.2073  0.0554
  261MPD2     C 3948   0.205   0.275  12.093  0.0362 -0.3101 -0.2621
  261MPD2    C1 3949   0.137   0.379  12.155  0.4749  0.7612 -0.1046
  261MPD2    C2 3950   0.097   0.490  12.080 -0.4446  0.0208 -0.3116
  261MPD2    C3 3951   0.112   0.490  11.942  0.1400  0.3014 -0.2622
  261MPD2    C4 3952   0.177   0.383  11.886  0.4988  0.6994  0.7792
  261MPD2    C5 3953   0.218   0.270  11.958 -0.3396 -0.2546  0.2862
  261MPD2     H 3954   0.054   0.575  12.131  0.0029  0.3671 -0.5157
  261MPD2    H1 3955   0.210   0.375  11.783  0.1711 -2.0755  0.8960
  261MPD2    H2 3956   0.240   0.190  12.150 -1.6654 -0.3661  0.7035
  261MPD2    H3 3957   0.287   0.200  11.913 -2.0130  0.1246 -2.8744
  261MPD2     N 3958   0.079   0.609  11.866  0.4495 -0.6265  0.5130
  261MPD2    H5 3959   0.092   0.601  11.766  0.0204 -2.1505  0.5725
  261MPD2    N1 3960   0.115   0.384  12.297  0.3709  0.1834  0.3153
  261MPD2    H7 3961   0.070   0.464  12.342  0.9976 -0.3964  1.9696
  262TMC3    C1 3962   0.010   0.816  11.799 -0.4544 -0.2420 -0.0906
  262TMC3    C2 3963   0.043   0.941  11.832  0.6507  0.0482  0.1261
  262TMC3    C3 3964   0.071   1.024  11.723 -0.4935 -0.8940 -0.3058
  262TMC3    C4 3965   0.011   0.770  11.676  0.1580  0.0635 -0.0045
  262TMC3    C5 3966   0.064   0.847  11.581  0.0237 -0.0718 -0.4958
  262TMC3    C6 3967   0.083   0.982  11.596 -0.3286  0.5689 -0.0186
  262TMC3     C 3968   0.020   0.725  11.909  0.4648 -0.1249  0.5896
  262TMC3     O 3969   4.714   0.767  12.018 -0.0941 -0.1391 -0.2471
  262TMC3     H 3970   0.060   0.970  11.935 -0.6914 -0.8356  0.5902
  262TMC3    H1 3971   4.704   0.669  11.649 -1.0923  0.7064 -0.9890
  262TMC3    H2 3972   0.109   1.039  11.507 -1.5553  0.5623 -0.3749
  262TMC3    C7 3973   0.189   0.783  11.546  0.5055  0.2025  0.0994
  262TMC3    C8 3974   0.153   1.143  11.751 -0.2711  0.9083 -0.0310
  262TMC3    O1 3975   0.211   0.670  11.581  0.2524  0.3285 -0.1231
  262TMC3    O2 3976   0.238   1.169  11.665 -0.0595  0.5646 -0.3677
  263MPD2     C 3977   1.040   4.307  11.407 -0.0370 -0.2143 -0.1095
  263MPD2    C1 3978   1.066   4.423  11.468  0.0038 -0.4008 -0.2562
  263MPD2    C2 3979   1.037   4.541  11.395 -0.2674  0.2263  0.5824
  263MPD2    C3 3980   1.002   4.533  11.257  0.7019 -0.6394 -0.8394
  263MPD2    C4 3981   0.980   4.411  11.202  0.3092  0.0334 -0.1520
  263MPD2    C5 3982   1.003   4.304  11.279  0.0362  0.3096  0.8874
  263MPD2     H 3983   1.059   4.636  11.443 -1.9079 -0.7691  3.3269
  263MPD2    H1 3984   0.953   4.390  11.099  2.3085 -1.1153 -0.4464
  263MPD2    H2 3985   1.058   4.212  11.455 -0.5884  0.6156  1.7440
  263MPD2    H3 3986   0.972   4.209  11.236  1.0863  0.1138  0.5629
  263MPD2     N 3987   0.993   4.652  11.179 -0.6625  0.0045 -0.5932
  263MPD2    H5 3988   0.995   0.016  11.230 -0.7917 -0.4654  0.2147
  263MPD2    N1 3989   1.123   4.423  11.603 -0.4437  0.2165 -0.2471
  263MPD2    H7 3990   1.146   4.335  11.650 -1.9839 -0.5535 -0.9355
  264TMC3    C1 3991   1.023   0.058  10.976  0.0945  0.1380  0.2466
  264TMC3    C2 3992   0.978   0.169  11.043 -0.2432 -0.1613  0.8987
  264TMC3    C3 3993   0.989   0.295  10.986 -0.5709  0.8257 -0.3658
  264TMC3    C4 3994   1.088   0.069  10.855  0.1492  0.3454  0.2709
  264TMC3    C5 3995   1.105   0.193  10.800  0.5591  0.3067  0.3439
  264TMC3    C6 3996   1.048   0.307  10.858  0.2340 -0.4092 -0.9099
  264TMC3     C 3997   1.016   4.648  11.040 -0.1205  0.3636  0.0283
  264TMC3     O 3998   1.052   4.561  10.960  0.0444 -0.3574 -0.0251
  264TMC3     H 3999   0.948   0.167  11.147 -2.8102  1.4425  0.2050
  264TMC3    H1 4000   1.151   4.712  10.818  0.1666  1.5485 -2.3333
  264TMC3    H2 4001   1.068   0.407  10.820  2.6424 -0.2369  0.7751
  264TMC3    C7 4002   1.225   0.227  10.715 -0.3354 -0.4855 -0.7622
  264TMC3    C8 4003   1.018   0.406  11.066  0.2182 -0.5360 -0.0352
  264TMC3    O1 4004   1.329   0.164  10.739 -0.1871  0.0776  0.4171
  264TMC3    O2 4005   1.107   0.482  11.023  0.2625 -0.1196  0.2192
  265MPD2     C 4006   3.599   4.713  15.835  0.1463 -0.4257 -0.1951
  265MPD2    C1 4007   3.579   0.097  15.748  0.4812  0.0538  0.3042
  265MPD2    C2 4008   3.627   0.089  15.616  0.3781 -0.0969  0.0229
  265MPD2    C3 4009   3.686   4.692  15.569  0.2140  0.5531  0.2451
  265MPD2    C4 4010   3.705   4.589  15.662  0.3953  0.3429 -0.3422
  265MPD2    C5 4011   3.647   4.593  15.786 -0.3701  0.3069 -0.3208
  265MPD2     H 4012   3.597   0.172  15.554 -0.4132  1.0389  1.9362
  265MPD2    H1 4013   3.756   4.500  15.630 -1.0350 -0.7987  0.5617
  265MPD2    H2 4014   3.562   4.718  15.937  0.5721  0.1070 -0.0640
  265MPD2    H3 4015   3.661   4.507  15.852 -0.9284  1.5441  1.4165
  265MPD2     N 4016   3.733   4.668  15.438 -0.8417  0.2376  0.5908
  265MPD2    H5 4017   3.760   4.573  15.413  2.3257  0.5645  2.6547
  265MPD2    N1 4018   3.505   0.207  15.802 -0.0337  0.1418  0.4522
  265MPD2    H7 4019   3.504   0.217  15.903 -0.2416  0.5366  0.4126
  266TMC3    C1 4020   3.399   0.414  15.824 -0.2820 -0.2343 -0.0451
  266TMC3    C2 4021   3.445   0.427  15.951  0.1324 -0.1378 -0.6473
  266TMC3    C3 4022   3.416   0.548  16.013  0.9964 -0.4288  0.4124
  266TMC3    C4 4023   3.307   0.506  15.770  0.9784  0.1264 -0.3516
  266TMC3    C5 4024   3.283   0.615  15.845 -0.2728  0.3111  0.2780
  266TMC3    C6 4025   3.345   0.645  15.958  1.0416  0.6680  0.6799
  266TMC3     C 4026   3.445   0.311  15.729  0.3355  0.6462 -0.2227
  266TMC3     O 4027   3.399   0.323  15.615 -0.6799  0.2175 -0.0559
  266TMC3     H 4028   3.524   0.366  15.994  0.6942 -0.0948 -1.6131
  266TMC3    H1 4029   3.274   0.502  15.666 -0.4161 -1.6830  0.1465
  266TMC3    H2 4030   3.310   0.727  16.019  3.1274 -0.5674  3.5544
  266TMC3    C7 4031   3.165   0.686  15.805 -0.2222 -0.3246  0.2211
  266TMC3    C8 4032   3.524   0.584  16.107  0.3034  0.1548  0.3568
  266TMC3    O1 4033   3.082   0.620  15.748 -0.3380  0.0482 -0.1375
  266TMC3    O2 4034   3.596   0.492  16.140  0.3763  0.0006 -0.2438
  267MPD2     C 4035   0.670   2.403   0.311 -0.1876  0.2255 -0.3836
  267MPD2    C1 4036   0.781   2.450   0.238 -0.1799  0.1756 -0.2201
  267MPD2    C2 4037   0.767   2.465   0.101  0.0451  0.4517 -0.7037
  267MPD2    C3 4038   0.652   2.432   0.038 -0.3730 -0.2975  0.0918
  267MPD2    C4 4039   0.546   2.394   0.107  0.1497  0.4165 -0.3801
  267MPD2    C5 4040   0.559   2.376   0.243  0.3151 -0.4861  0.0550
  267MPD2     H 4041   0.852   2.486   0.037  1.3192  0.8757  1.1176
  267MPD2    H1 4042   0.450   2.381   0.059  0.1599 -2.1318  0.2784
  267MPD2    H2 4043   0.667   2.390   0.418  0.4774  0.9261 -0.2785
  267MPD2    H3 4044   0.481   2.335   0.306 -0.4048  3.2226  1.5607
  267MPD2     N 4045   0.635   2.431  17.592 -0.0645 -0.0647  0.3525
  267MPD2    H5 4046   0.563   2.380  17.542  0.1723  0.6651 -0.7478
  267MPD2    N1 4047   0.907   2.459   0.300 -0.2097 -0.2153 -0.1234
  267MPD2    H7 4048   0.912   2.427   0.397  1.1517 -3.0124 -1.1309
  268TMC3    C1 4049   1.144   2.481   0.307  0.5978 -0.0121  0.5005
  268TMC3    C2 4050   1.255   2.524   0.232 -0.0846 -0.7884  0.8633
  268TMC3    C3 4051   1.373   2.449   0.234 -0.4432  0.4947 -0.4796
  268TMC3    C4 4052   1.144   2.368   0.387 -0.0155 -0.1416 -0.5915
  268TMC3    C5 4053   1.260   2.295   0.376  0.3293 -0.1637  0.3389
  268TMC3    C6 4054   1.367   2.329   0.295 -0.0268 -0.6908  0.3257
  268TMC3     C 4055   1.016   2.523   0.248 -0.1518  0.0932 -0.2734
  268TMC3     O 4056   1.023   2.599   0.151  0.5513 -0.0448  0.5235
  268TMC3     H 4057   1.255   2.627   0.197 -1.3251 -1.1771 -0.2626
  268TMC3    H1 4058   1.053   2.330   0.433 -1.4117 -0.0454 -3.2726
  268TMC3    H2 4059   1.443   2.255   0.274  0.3027 -0.2106 -0.1850
  268TMC3    C7 4060   1.285   2.197   0.478  0.0264  0.1695 -1.0712
  268TMC3    C8 4061   1.478   2.479   0.139 -0.5696 -0.3864  1.2144
  268TMC3    O1 4062   1.374   2.115   0.454  0.0942  0.2908  0.0738
  268TMC3    O2 4063   1.593   2.437   0.156  0.3128 -0.1145  0.5161
  269MPD2     C 4064   1.236   1.066  15.371  0.0397 -0.5362 -0.5979
  269MPD2    C1 4065   1.115   1.064  15.435  0.6819  0.5321 -0.1865
  269MPD2    C2 4066   1.025   1.161  15.412 -0.0860  0.1598 -0.3015
  269MPD2    C3 4067   1.058   1.276  15.338  0.6832 -0.8340 -0.5429
  269MPD2    C4 4068   1.191   1.288  15.293  0.0560  0.2789 -0.5572
  269MPD2    C5 4069   1.281   1.182  15.308 -0.0240  0.4854 -0.2293
  269MPD2     H 4070   0.922   1.141  15.440 -0.7023  0.4551 -2.3627
  269MPD2    H1 4071   1.222   1.359  15.218 -0.0888  0.3837 -0.5174
  269MPD2    H2 4072   1.311   0.991  15.393  0.0515 -0.3798 -0.1040
  269MPD2    H3 4073   1.377   1.197  15.261  0.2590  1.7041  0.7694
  269MPD2     N 4074   0.960   1.371  15.319 -0.0890  0.0555 -0.7868
  269MPD2    H5 4075   0.875   1.373  15.374 -0.5078  0.6078 -1.4615
  269MPD2    N1 4076   1.084   0.942  15.501  0.2204  0.4819 -0.3831
  269MPD2    H7 4077   1.164   0.891  15.535 -1.6082 -1.9519  0.2388
  270TMC3    C1 4078   0.947   0.766  15.601  0.3042  0.2241  0.3010
  270TMC3    C2 4079   0.843   0.687  15.560 -0.4332 -0.5777 -0.2646
  270TMC3    C3 4080   0.846   0.555  15.604 -0.1864  0.0558 -0.1382
  270TMC3    C4 4081   1.058   0.715  15.664  0.3836  0.1357 -0.1709
  270TMC3    C5 4082   1.068   0.579  15.696  0.6759 -0.2793  0.0688
  270TMC3    C6 4083   0.966   0.499  15.662  0.8698  0.8328 -0.2706
  270TMC3     C 4084   0.955   0.894  15.535  0.7152 -0.0257  0.0433
  270TMC3     O 4085   0.847   0.940  15.506  0.2349 -0.6972  0.4614
  270TMC3     H 4086   0.767   0.742  15.505  0.5574 -1.0741 -2.1049
  270TMC3    H1 4087   1.133   0.790  15.684  1.1119 -0.2556 -1.4078
  270TMC3    H2 4088   0.962   0.394  15.690 -0.8917  0.7945 -0.6857
  270TMC3    C7 4089   1.203   0.518  15.719  0.1426  0.7962  0.0622
  270TMC3    C8 4090   0.763   0.458  15.542  0.5912 -0.7879  0.1184
  270TMC3    O1 4091   1.230   0.401  15.692 -0.2177  0.0643  0.4355
  270TMC3    O2 4092   0.798   0.342  15.527  0.3548 -0.0339 -0.2319
  271MPD2     C 4093   0.280   0.649  13.787  0.1688  0.1199  0.3802
  271MPD2    C1 4094   0.216   0.587  13.897 -0.1747  0.3878 -0.0039
  271MPD2    C2 4095   0.086   0.614  13.917 -0.0542  0.5220  0.2556
  271MPD2    C3 4096   0.029   0.721  13.849  0.1614 -0.1521 -0.3560
  271MPD2    C4 4097   0.089   0.787  13.748 -0.4940  0.2429 -0.5536
  271MPD2    C5 4098   0.220   0.751  13.724  0.6149  0.6574  0.4131
  271MPD2     H 4099   0.024   0.559  13.987  0.8382 -1.3015 -0.3731
  271MPD2    H1 4100   0.057   0.869  13.685 -2.0551  0.4984  0.5757
  271MPD2    H2 4101   0.380   0.628  13.753 -1.5080 -1.6363 -3.4882
  271MPD2    H3 4102   0.275   0.807  13.649 -1.2025  2.4426  0.4031
  271MPD2     N 4103   4.613   0.746  13.872  0.2313  0.2275  0.0543
  271MPD2    H5 4104   4.563   0.682  13.933  0.9445  1.3338  1.7852
  271MPD2    N1 4105   0.270   0.490  13.983  0.0846  0.1212 -0.0141
  271MPD2    H7 4106   0.205   0.461  14.056  1.1814 -0.7015  0.6321
  272TMC3    C1 4107   0.424   0.334  14.081 -0.2992  0.1399  0.0545
  272TMC3    C2 4108   0.549   0.281  14.082 -0.0543  0.1489 -1.5747
  272TMC3    C3 4109   0.606   0.251  14.210  0.1013 -0.4037 -0.1321
  272TMC3    C4 4110   0.348   0.341  14.195  0.8888  0.3095  0.5626
  272TMC3    C5 4111   0.395   0.295  14.314 -0.3227 -0.6064 -1.2421
  272TMC3    C6 4112   0.526   0.248  14.324 -0.0081 -0.0941 -0.3055
  272TMC3     C 4113   0.397   0.430  13.969  0.5472 -0.2428 -0.0418
  272TMC3     O 4114   0.484   0.449  13.885 -0.0176 -0.0572  0.0376
  272TMC3     H 4115   0.600   0.266  13.988 -1.3265 -0.2336 -2.2011
  272TMC3    H1 4116   0.246   0.379  14.200  1.1522  0.3446  5.1490
  272TMC3    H2 4117   0.576   0.216  14.415 -2.1643  0.5022  1.0848
  272TMC3    C7 4118   0.312   0.327  14.435  0.1458 -0.6758  0.5349
  272TMC3    C8 4119   0.740   0.200  14.205  0.1575 -0.4944  0.0156
  272TMC3    O1 4120   0.191   0.312  14.429  0.0798 -0.5121 -0.3902
  272TMC3    O2 4121   0.775   0.182  14.087 -0.1875  0.1560 -0.3971
  273MPD2     C 4122   1.764   3.241  11.631  0.4422 -0.0091 -0.4050
  273MPD2    C1 4123   1.847   3.355  11.653 -0.4716 -0.3625 -0.7301
  273MPD2    C2 4124   1.851   3.445  11.557 -0.7460 -0.4448 -0.0686
  273MPD2    C3 4125   1.771   3.434  11.440  0.5041  0.0301 -0.5857
  273MPD2    C4 4126   1.692   3.324  11.419 -0.1600 -0.3956 -0.1739
  273MPD2    C5 4127   1.695   3.223  11.512  0.2208 -0.1400  0.0320
  273MPD2     H 4128   1.918   3.530  11.566  0.4393 -1.2983 -0.7511
  273MPD2    H1 4129   1.633   3.312  11.328  1.1271 -1.0238 -0.9289
  273MPD2    H2 4130   1.767   3.167  11.710  0.4309  1.0546  0.5958
  273MPD2    H3 4131   1.639   3.131  11.504  0.5539 -0.0999 -3.0255
  273MPD2     N 4132   1.765   3.531  11.336 -0.5544  0.4008 -0.6226
  273MPD2    H5 4133   1.698   3.519  11.260 -2.3685  0.3383  0.9761
  273MPD2    N1 4134   1.918   3.361  11.776 -0.2624 -0.5166 -0.2476
  273MPD2    H7 4135   1.912   3.278  11.834 -3.3168 -1.4893 -2.0041
  274TMC3    C1 4136   1.788   3.749  11.236  0.0471 -0.2663  0.1949
  274TMC3    C2 4137   1.676   3.728  11.161 -0.0199 -1.1299  0.3682
  274TMC3    C3 4138   1.642   3.833  11.074  0.1310 -0.7758 -0.7830
  274TMC3    C4 4139   1.860   3.871  11.238 -0.0157 -0.3647 -0.3656
  274TMC3    C5 4140   1.809   3.974  11.158 -0.1363  0.7348  0.2168
  274TMC3    C6 4141   1.710   3.950  11.065 -0.0020  0.5414  0.0928
  274TMC3     C 4142   1.820   3.659  11.346  0.2628  0.2834  0.2347
  274TMC3     O 4143   1.893   3.708  11.433  0.1824 -0.1573  0.2432
  274TMC3     H 4144   1.624   3.633  11.154 -1.3285 -0.1923 -2.7158
  274TMC3    H1 4145   1.947   3.881  11.301 -0.0156  0.0635 -0.4355
  274TMC3    H2 4146   1.664   4.037  11.019  1.2731  1.9793  1.5650
  274TMC3    C7 4147   1.780   4.088  11.246  0.5145  0.1453  0.5082
  274TMC3    C8 4148   1.524   3.805  10.998  0.4116 -0.6163 -0.4905
  274TMC3    O1 4149   1.661   4.116  11.246  0.1353 -0.6615  0.6778
  274TMC3    O2 4150   1.450   3.714  11.031 -0.2006  0.4373 -0.3066
  275MPD2     C 4151   1.902   1.312  14.542  0.1368 -0.3442  0.1855
  275MPD2    C1 4152   1.807   1.392  14.581  0.9716  0.1961  0.0629
  275MPD2    C2 4153   1.671   1.366  14.553  0.0350 -0.8276  0.0248
  275MPD2    C3 4154   1.643   1.259  14.471 -0.8417 -0.2167  0.3946
  275MPD2    C4 4155   1.745   1.192  14.415 -0.4233 -0.7334 -0.0118
  275MPD2    C5 4156   1.871   1.209  14.459 -0.7585  0.4040  0.2906
  275MPD2     H 4157   1.588   1.420  14.596  0.5692 -0.0781  0.1337
  275MPD2    H1 4158   1.734   1.115  14.339  0.4874  0.6957 -1.5697
  275MPD2    H2 4159   2.007   1.324  14.566  0.0330 -0.7833  0.8350
  275MPD2    H3 4160   1.948   1.146  14.416 -1.3534  0.6764 -1.2066
  275MPD2     N 4161   1.510   1.232  14.426 -0.3291 -0.3568 -0.4552
  275MPD2    H5 4162   1.507   1.171  14.345  0.5587  1.6115 -1.9573
  275MPD2    N1 4163   1.823   1.490  14.682 -0.0215  0.0153  0.4883
  275MPD2    H7 4164   1.749   1.550  14.717 -0.7539 -0.9381  0.5448
  276TMC3    C1 4165   1.929   1.650  14.818  0.8221 -0.0873  0.1993
  276TMC3    C2 4166   1.803   1.706  14.851  0.6691  0.3679 -0.3537
  276TMC3    C3 4167   1.803   1.803  14.949 -0.5569 -0.0102 -0.1712
  276TMC3    C4 4168   2.041   1.691  14.877  0.0127 -0.7625  0.3307
  276TMC3    C5 4169   2.035   1.803  14.964 -0.3959  0.7265 -0.3968
  276TMC3    C6 4170   1.916   1.853  15.003 -0.2515  0.0374  0.2221
  276TMC3     C 4171   1.941   1.531  14.738  0.1809  0.2966  0.0441
  276TMC3     O 4172   2.054   1.484  14.733 -0.2826  0.5602 -0.2085
  276TMC3     H 4173   1.712   1.669  14.804  0.1650  1.3386 -0.1369
  276TMC3    H1 4174   2.138   1.655  14.844 -0.2042 -1.5319  0.5392
  276TMC3    H2 4175   1.920   1.925  15.084 -1.3171  1.8223 -1.3350
  276TMC3    C7 4176   2.127   1.801  15.073  0.0494 -0.1412  0.1167
  276TMC3    C8 4177   1.707   1.761  15.058 -0.2819  0.5700 -0.0119
  276TMC3    O1 4178   2.079   1.803  15.185 -0.1566 -0.8478  0.2582
  276TMC3    O2 4179   1.685   1.838  15.152  0.0041 -0.0915  0.0118
  277MPD2     C 4180   3.456   0.731  13.481  0.2752  0.1850  0.2034
  277MPD2    C1 4181   3.329   0.778  13.490  0.1443  0.6709 -0.6817
  277MPD2    C2 4182   3.228   0.694  13.530  0.0929  0.3047  0.0796
  277MPD2    C3 4183   3.252   0.561  13.570  0.3205  0.0441  0.1380
  277MPD2    C4 4184   3.381   0.512  13.554  1.1389  0.5762  0.8664
  277MPD2    C5 4185   3.480   0.602  13.517  0.5743 -0.0291  0.0707
  277MPD2     H 4186   3.126   0.731  13.535 -0.3873 -0.9683 -0.2038
  277MPD2    H1 4187   3.403   0.413  13.593 -0.6435 -0.3228 -0.4304
  277MPD2    H2 4188   3.534   0.796  13.444 -0.7890  0.6882 -1.1566
  277MPD2    H3 4189   3.583   0.566  13.516 -0.4446 -2.9377  0.7092
  277MPD2     N 4190   3.139   0.485  13.617 -0.2896 -0.6062 -0.5705
  277MPD2    H5 4191   3.056   0.543  13.620  0.8267  1.0345 -1.3425
  277MPD2    N1 4192   3.323   0.912  13.442 -0.9548 -0.1211 -0.9772
  277MPD2    H7 4193   3.412   0.957  13.421 -0.3282  0.3535  2.7798
  278TMC3    C1 4194   3.024   0.291  13.705 -0.5415  0.0372 -0.2638
  278TMC3    C2 4195   3.000   0.159  13.719 -0.4984 -0.2400  0.3029
  278TMC3    C3 4196   2.894   0.110  13.793 -0.2513 -0.9330 -0.4588
  278TMC3    C4 4197   2.951   0.379  13.779 -0.7395 -0.1545  0.3805
  278TMC3    C5 4198   2.856   0.324  13.867  0.5931 -0.0820  0.5988
  278TMC3    C6 4199   2.821   0.191  13.871  0.4518  0.1494 -0.2166
  278TMC3     C 4200   3.148   0.344  13.634 -0.5708  0.2280  0.2257
  278TMC3     O 4201   3.230   0.262  13.596  0.5441  1.0090 -0.4058
  278TMC3     H 4202   3.057   0.088  13.659 -1.1226 -2.0402  1.8313
  278TMC3    H1 4203   2.967   0.485  13.789  0.1606 -0.0048 -2.7822
  278TMC3    H2 4204   2.740   0.165  13.938 -0.9886  1.9571 -1.2616
  278TMC3    C7 4205   2.784   0.422  13.941  0.2182 -0.2262 -0.2259
  278TMC3    C8 4206   2.882   4.692  13.807 -0.1563  0.1078  0.7516
  278TMC3    O1 4207   2.848   0.525  13.974  0.0592  0.4026  0.0663
  278TMC3    O2 4208   2.802   4.664  13.894 -0.7425 -0.4376 -0.6910
  279MPD2     C 4209   2.854   1.077   0.149  0.9412 -0.2052 -0.3343
  279MPD2    C1 4210   2.826   0.950   0.193  0.4454  0.7785 -0.2894
  279MPD2    C2 4211   2.917   0.849   0.161  0.1009  0.2228  0.2352
  279MPD2    C3 4212   3.035   0.868   0.092 -0.1160  0.4351 -0.0806
  279MPD2    C4 4213   3.054   0.996   0.048 -0.0149 -0.3607  0.1788
  279MPD2    C5 4214   2.967   1.100   0.071 -0.4778 -0.3181 -0.0391
  279MPD2     H 4215   2.886   0.746   0.176 -2.7283  0.7399 -1.9607
  279MPD2    H1 4216   3.139   1.016  17.679 -0.8523  1.7901 -0.2394
  279MPD2    H2 4217   2.784   1.160   0.150  2.7716  1.3394  0.6779
  279MPD2    H3 4218   2.991   1.193   0.020 -1.7296  0.5027  0.8778
  279MPD2     N 4219   3.116   0.769   0.046  0.3648  0.8298 -0.1762
  279MPD2    H5 4220   3.184   0.801  17.674  1.3700 -1.6800 -0.3569
  279MPD2    N1 4221   2.701   0.931   0.254 -0.1641  0.3200 -0.3205
  279MPD2    H7 4222   2.641   1.012   0.259  0.2122  0.6210 -0.6401
  280TMC3    C1 4223   2.513   0.785   0.292 -0.1825  0.3627  0.6295
  280TMC3    C2 4224   2.477   0.662   0.337 -0.6471  0.2147  0.0007
  280TMC3    C3 4225   2.373   0.597   0.278  0.2008  0.1414  0.2062
  280TMC3    C4 4226   2.439   0.849   0.192 -0.7743  0.4194 -0.7027
  280TMC3    C5 4227   2.337   0.777   0.141 -0.7801  0.8022 -0.1542
  280TMC3    C6 4228   2.301   0.652   0.172  0.5185 -0.3516 -0.2227
  280TMC3     C 4229   2.656   0.806   0.297  0.5981  0.1308  0.2594
  280TMC3     O 4230   2.722   0.712   0.338 -0.3300 -0.0833  0.4130
  280TMC3     H 4231   2.525   0.611   0.420 -0.4195 -1.1439 -0.9832
  280TMC3    H1 4232   2.480   0.940   0.149  3.5974 -1.5501 -0.7034
  280TMC3    H2 4233   2.234   0.594   0.109  0.2432 -0.4782  0.1827
  280TMC3    C7 4234   2.258   0.841   0.031 -0.0812 -0.1627 -0.0959
  280TMC3    C8 4235   2.348   0.455   0.324  0.7431  0.1913  0.0833
  280TMC3    O1 4236   2.303   0.950  17.675 -0.0823  0.3292  0.3585
  280TMC3    O2 4237   2.417   0.423   0.421 -0.2338  0.5945 -0.5963
  281TMC3    C1 4238   1.432   0.921  13.225  0.3513 -0.0457 -0.3869
  281TMC3    C2 4239   1.511   1.015  13.163  0.2336 -0.0392 -0.4302
  281TMC3    C3 4240   1.582   0.978  13.049  0.9682  0.0296 -0.0463
  281TMC3    C4 4241   1.415   0.786  13.190 -0.6234 -0.0569 -0.5781
  281TMC3    C5 4242   1.500   0.754  13.088  0.1193  0.3033 -0.0152
  281TMC3    C6 4243   1.573   0.846  13.021 -0.2234 -0.4061  0.3148
  281TMC3     C 4244   1.357   0.967  13.336  0.2917 -0.5432 -0.5460
  281TMC3     O 4245   1.358   0.886  13.426  0.3873 -0.3513  0.1836
  281TMC3     H 4246   1.545   1.104  13.216 -1.9039 -0.6600  1.9681
  281TMC3    H1 4247   1.356   0.718  13.251 -0.3208  1.0600  0.9507
  281TMC3    H2 4248   1.600   0.817  12.920 -0.1449 -2.2305  0.8585
  281TMC3    C7 4249   1.527   0.616  13.064  0.0829  1.0514 -0.0808
  281TMC3    C8 4250   1.667   1.065  12.968 -0.2683  0.0288  0.0114
  281TMC3    O1 4251   1.633   0.582  13.012 -0.0456  0.2965 -0.0339
  281TMC3    O2 4252   1.749   1.002  12.907 -0.5517 -0.1527  0.4000
  282MPD2     C 4253   3.317   2.181  15.500 -0.8544 -0.2547  0.4660
  282MPD2    C1 4254   3.206   2.263  15.502  0.2124  0.1255  0.4402
  282MPD2    C2 4255   3.139   2.292  15.382  0.0317 -0.7537 -0.9069
  282MPD2    C3 4256   3.181   2.239  15.266  0.4096  0.1056 -0.3487
  282MPD2    C4 4257   3.284   2.147  15.266  0.0163  0.3136 -0.1314
  282MPD2    C5 4258   3.354   2.127  15.382 -0.6323  0.0018 -0.1202
  282MPD2     H 4259   3.053   2.358  15.381  0.2542 -0.4479  3.2819
  282MPD2    H1 4260   3.325   2.109  15.174  0.3270 -0.3353  0.2765
  282MPD2    H2 4261   3.374   2.168  15.592 -0.0431 -1.0920 -0.1633
  282MPD2    H3 4262   3.443   2.065  15.382 -0.1524  0.6841  0.4262
  282MPD2     N 4263   3.113   2.287  15.153 -0.1737 -0.0643 -0.1306
  282MPD2    H5 4264   3.035   2.350  15.166 -0.9395 -0.9457 -0.4897
  282MPD2    N1 4265   3.153   2.319  15.625  0.4709  0.5500  0.0946
  282MPD2    H7 4266   3.090   2.395  15.604 -2.0980 -2.1158 -1.8920
  283TMC3    C1 4267   3.103   2.346  15.846 -0.2494  0.3734  0.1595
  283TMC3    C2 4268   3.023   2.457  15.812  0.9332  0.0433 -0.0872
  283TMC3    C3 4269   2.907   2.486  15.873 -0.8167  0.0484 -0.3958
  283TMC3    C4 4270   3.055   2.260  15.942 -0.3767  0.5972  0.0593
  283TMC3    C5 4271   2.940   2.292  16.007 -0.6463  0.3248 -0.4261
  283TMC3    C6 4272   2.866   2.403  15.981  0.1350 -0.0241 -0.7696
  283TMC3     C 4273   3.192   2.288  15.754 -0.1653  0.2055 -0.5444
  283TMC3     O 4274   3.272   2.203  15.795  0.4084 -0.2867 -0.0491
  283TMC3     H 4275   3.065   2.533  15.747 -0.7731 -0.8282 -2.1950
  283TMC3    H1 4276   3.119   2.180  15.978  0.5757  1.0179 -0.7248
  283TMC3    H2 4277   2.770   2.410  16.031 -0.8580  0.2411 -2.7228
  283TMC3    C7 4278   2.877   2.195  16.088  0.1598 -0.0896 -0.5719
  283TMC3    C8 4279   2.854   2.623  15.875 -0.1613 -0.1820 -0.0009
  283TMC3    O1 4280   2.805   2.238  16.178  0.3895 -0.1281 -0.2614
  283TMC3    O2 4281   2.807   2.656  15.981 -0.0209 -0.0427  0.3992
  284MPD2     C 4282   1.026   1.377  12.423  0.0624  0.1130 -0.4089
  284MPD2    C1 4283   1.047   1.349  12.292 -0.7484 -0.2187  0.1024
  284MPD2    C2 4284   0.998   1.234  12.242 -0.5500 -0.5390  0.2547
  284MPD2    C3 4285   0.943   1.137  12.325 -0.5030  0.3557 -0.3622
  284MPD2    C4 4286   0.931   1.161  12.456 -0.1869 -0.5170  0.5718
  284MPD2    C5 4287   0.968   1.284  12.505 -1.2938 -0.8838  0.4688
  284MPD2     H 4288   0.999   1.218  12.135 -1.0436 -1.2263  0.3561
  284MPD2    H1 4289   0.888   1.089  12.525  0.7655 -1.8749 -0.2593
  284MPD2    H2 4290   1.053   1.470  12.471 -1.6541  0.0416  0.6879
  284MPD2    H3 4291   0.962   1.302  12.612 -0.7968 -1.8648  0.6692
  284MPD2     N 4292   0.897   1.006  12.281 -0.1520 -0.3577  0.1862
  284MPD2    H5 4293   0.834   0.953  12.341 -1.1609 -0.3830 -0.8870
  284MPD2    N1 4294   1.093   1.446  12.199  0.0057 -0.5206 -0.5014
  284MPD2    H7 4295   1.094   1.423  12.100  1.0742  1.2110 -0.8863
  285TMC3    C1 4296   1.157   1.653  12.119 -0.0728  0.2901  0.1046
  285TMC3    C2 4297   1.126   1.615  11.992 -0.2533  0.2017  0.0566
  285TMC3    C3 4298   1.170   1.697  11.893 -0.2041 -0.3054  0.1734
  285TMC3    C4 4299   1.230   1.762  12.138  0.5425 -0.0151  0.2280
  285TMC3    C5 4300   1.261   1.848  12.042 -0.0007  0.0085  0.1899
  285TMC3    C6 4301   1.236   1.810  11.913  0.1588 -0.5385  0.1831
  285TMC3     C 4302   1.135   1.568  12.235  0.4261  0.0302 -0.7700
  285TMC3     O 4303   1.157   1.617  12.344  0.3763  0.4505  0.1304
  285TMC3     H 4304   1.092   1.514  11.971 -0.8426  0.7272 -1.4682
  285TMC3    H1 4305   1.256   1.791  12.239 -1.9322 -0.1874  0.9172
  285TMC3    H2 4306   1.236   1.880  11.830  0.0874 -0.6016  0.1293
  285TMC3    C7 4307   1.396   1.892  12.057  0.0721  1.0639 -0.1086
  285TMC3    C8 4308   1.233   1.621  11.786 -0.3650  0.2658 -0.2454
  285TMC3    O1 4309   1.417   2.008  12.054  0.2418  0.2006 -0.2452
  285TMC3    O2 4310   1.175   1.514  11.758 -0.0956  0.1011  0.5309
  286MPD2     C 4311   1.727   0.637   1.711 -0.4490 -0.0120  0.0588
  286MPD2    C1 4312   1.724   0.606   1.576 -0.4471  0.2871 -0.3663
  286MPD2    C2 4313   1.836   0.557   1.510 -0.0894 -0.4181 -0.5029
  286MPD2    C3 4314   1.954   0.542   1.579  0.2068  0.0029  0.8439
  286MPD2    C4 4315   1.954   0.576   1.716 -0.0924 -0.2432 -0.6306
  286MPD2    C5 4316   1.841   0.619   1.778  0.8061 -0.2633 -0.0686
  286MPD2     H 4317   1.828   0.523   1.407  0.3812 -0.6024 -0.4785
  286MPD2    H1 4318   2.038   0.549   1.780 -0.1331  0.9118 -0.0937
  286MPD2    H2 4319   1.639   0.671   1.765 -2.1076 -1.0788 -1.9560
  286MPD2    H3 4320   1.857   0.638   1.883 -2.8055 -1.6727  0.7419
  286MPD2     N 4321   2.075   0.488   1.523 -0.1860 -0.3450  0.2373
  286MPD2    H5 4322   2.150   0.482   1.592  0.1774 -3.8575 -0.4622
  286MPD2    N1 4323   1.602   0.621   1.500  0.9400  0.1068  0.4681
  286MPD2    H7 4324   1.600   0.604   1.400  5.3582  1.6620  0.1314
  287TMC3    C1 4325   2.215   0.391   1.376 -0.0439  0.6430  0.5815
  287TMC3    C2 4326   2.237   0.285   1.293  0.3018  0.2629 -0.3195
  287TMC3    C3 4327   2.365   0.230   1.274 -0.4072  0.7644  0.8286
  287TMC3    C4 4328   2.318   0.434   1.447  0.0532  0.9762 -0.5345
  287TMC3    C5 4329   2.445   0.376   1.427 -0.2042 -0.2103  0.2285
  287TMC3    C6 4330   2.473   0.277   1.341  0.6298 -0.1883 -0.5980
  287TMC3     C 4331   2.083   0.449   1.393 -0.6514  0.7824 -0.6574
  287TMC3     O 4332   2.008   0.443   1.301  0.1040 -0.2673  0.2113
  287TMC3     H 4333   2.157   0.251   1.227 -0.8668  1.2222  0.5930
  287TMC3    H1 4334   2.309   0.530   1.495 -0.9267 -0.0020  1.2339
  287TMC3    H2 4335   2.568   0.226   1.324  0.9728  0.0270  0.6589
  287TMC3    C7 4336   2.568   0.423   1.500  0.3498 -0.6339 -0.4171
  287TMC3    C8 4337   2.381   0.119   1.181 -0.5680  0.3854  0.0708
  287TMC3    O1 4338   2.673   0.359   1.481 -0.5620  0.0785  0.5824
  287TMC3    O2 4339   2.490   0.059   1.193 -0.1622  0.1233  0.6229
  288TMC3    C1 4340   3.339   4.623  14.763  0.1389 -0.1692 -0.7865
  288TMC3    C2 4341   3.256   4.581  14.863  1.5067  0.4676  0.0931
  288TMC3    C3 4342   3.300   4.611  14.994  0.1077  0.3576  0.4217
  288TMC3    C4 4343   3.449   4.709  14.789 -0.8246  0.2120  0.2432
  288TMC3    C5 4344   3.466   0.030  14.919 -0.0697 -0.1692 -0.4083
  288TMC3    C6 4345   3.398   4.703  15.023  0.1593  0.6051  0.0061
  288TMC3     C 4346   3.309   4.576  14.628 -0.2498 -0.4753 -0.0172
  288TMC3     O 4347   3.233   4.479  14.613  0.0123  0.2008 -0.0306
  288TMC3     H 4348   3.175   4.512  14.842  0.0840  2.1260  0.0115
  288TMC3    H1 4349   3.509   0.015  14.704  0.8744  2.7244  2.3021
  288TMC3    H2 4350   3.409   0.021  15.123  0.2972  3.5790 -1.2489
  288TMC3    C7 4351   3.557   0.137  14.944  0.5981 -0.0010 -0.6254
  288TMC3    C8 4352   3.243   4.551  15.111 -0.2919 -0.6017  0.4242
  288TMC3    O1 4353   3.560   0.189  15.055 -0.1387  0.1845 -0.0403
  288TMC3    O2 4354   3.301   4.581  15.219  0.1512 -0.7081 -0.3393
  289MPD2     C 4355   3.670   3.928  14.725 -0.0792  0.7253 -0.4212
  289MPD2    C1 4356   3.661   4.042  14.648  0.8282  0.2856  0.6352
  289MPD2    C2 4357   3.541   4.064  14.574  0.1866 -0.0382  0.6539
  289MPD2    C3 4358   3.431   3.980  14.584  0.9005 -0.0689  0.5885
  289MPD2    C4 4359   3.448   3.873  14.677 -0.5753 -0.9741 -1.0804
  289MPD2    C5 4360   3.558   3.858  14.746  0.2905 -0.7079  0.1205
  289MPD2     H 4361   3.528   4.155  14.517 -2.4849  0.2173  1.6962
  289MPD2    H1 4362   3.363   3.810  14.697 -1.1566  0.7509  1.8587
  289MPD2    H2 4363   3.755   3.891  14.781 -1.6471 -0.4878  1.1506
  289MPD2    H3 4364   3.563   3.775  14.816 -0.6762  1.4774  2.7879
  289MPD2     N 4365   3.310   4.004  14.518  0.2913 -0.2683  0.0898
  289MPD2    H5 4366   3.232   3.956  14.560 -0.8431  1.0179 -0.5366
  289MPD2    N1 4367   3.777   4.127  14.648 -0.0719  0.6638  0.2935
  289MPD2    H7 4368   3.857   4.091  14.701  0.3054 -1.5105 -1.7191
  290TMC3    C1 4369   3.155   4.116  14.385 -0.5794 -0.2232  0.3359
  290TMC3    C2 4370   3.120   4.251  14.372 -0.8048 -0.2814 -0.2388
  290TMC3    C3 4371   3.006   4.277  14.302  0.3305 -0.1191  0.0582
  290TMC3    C4 4372   3.081   4.003  14.347 -0.1460 -0.7340 -0.6545
  290TMC3    C5 4373   2.968   4.038  14.273  0.4681  0.3401  0.4282
  290TMC3    C6 4374   2.931   4.172  14.250  0.1066 -0.2213  0.2998
  290TMC3     C 4375   3.285   4.100  14.426 -0.0621  0.0546  0.4525
  290TMC3     O 4376   3.365   4.156  14.355  0.5141  0.4034 -0.2984
  290TMC3     H 4377   3.186   4.326  14.413 -2.9222  1.8870 -0.8092
  290TMC3    H1 4378   3.112   3.899  14.351 -1.0140 -0.9808 -0.2244
  290TMC3    H2 4379   2.854   4.190  14.176 -0.6377  1.7553  1.5827
  290TMC3    C7 4380   2.854   3.953  14.264  0.2754  0.2397  0.5001
  290TMC3    C8 4381   2.957   4.411  14.284 -0.7811  1.0016 -0.2531
  290TMC3    O1 4382   2.754   4.020  14.296  0.0215 -0.4416 -0.2651
  290TMC3    O2 4383   2.882   4.420  14.187  0.0086 -0.4641  0.2370
  291MPD2     C 4384   3.150   3.758   0.295 -0.0231  0.8093  0.1644
  291MPD2    C1 4385   3.131   3.622   0.270  0.0047  0.3980  0.6560
  291MPD2    C2 4386   3.227   3.554   0.199  0.1201  0.2276 -0.1904
  291MPD2    C3 4387   3.345   3.611   0.152  0.5928 -0.0158 -0.4046
  291MPD2    C4 4388   3.359   3.741   0.195  0.3095  0.1068  0.6191
  291MPD2    C5 4389   3.273   3.807   0.273 -0.2500 -0.1076 -0.2684
  291MPD2     H 4390   3.223   3.449   0.173 -2.8868 -0.1418  1.6384
  291MPD2    H1 4391   3.448   3.798   0.170  0.2215  0.4886  1.1871
  291MPD2    H2 4392   3.097   3.817   0.369 -0.0791 -0.1212  0.8513
  291MPD2    H3 4393   3.317   3.898   0.312  0.8865 -0.9371  0.4077
  291MPD2     N 4394   3.433   3.553   0.062  0.1414 -0.5546 -0.1881
  291MPD2    H5 4395   3.507   3.616   0.034  0.4219 -0.3881  0.9273
  291MPD2    N1 4396   3.018   3.551   0.323  0.0735 -0.2679  0.2215
  291MPD2    H7 4397   3.014   3.451   0.302 -1.5293 -0.6569  2.3651
  292TMC3    C1 4398   2.819   3.520   0.442 -0.0321 -0.1695 -0.2262
  292TMC3    C2 4399   2.744   3.543   0.553 -0.3597 -0.3792  0.4733
  292TMC3    C3 4400   2.643   3.452   0.579  0.1534  0.2198  0.2803
  292TMC3    C4 4401   2.782   3.425   0.348 -0.0029 -0.1933  0.1112
  292TMC3    C5 4402   2.681   3.339   0.371  0.1797 -0.0210  0.3901
  292TMC3    C6 4403   2.609   3.349   0.493  0.1095  0.2993 -0.2441
  292TMC3     C 4404   2.929   3.605   0.411 -0.1359  0.1585 -0.1982
  292TMC3     O 4405   2.930   3.712   0.471 -0.1606 -0.8010 -0.0720
  292TMC3     H 4406   2.779   3.616   0.625 -1.4249  1.2308 -0.6357
  292TMC3    H1 4407   2.824   3.415   0.249 -1.8080 -4.1884 -0.2656
  292TMC3    H2 4408   2.545   3.266   0.520  0.3743  0.2777  0.3177
  292TMC3    C7 4409   2.681   3.215   0.297  0.0024 -0.2965  1.2250
  292TMC3    C8 4410   2.548   3.487   0.685 -0.5086 -0.4798  0.5875
  292TMC3    O1 4411   2.782   3.180   0.243  0.3379 -0.2401  0.5510
  292TMC3    O2 4412   2.457   3.403   0.703 -0.0601 -0.6540  0.3811
  293MPD2     C 4413   4.491   0.540  12.606 -0.9914  0.4272 -0.2375
  293MPD2    C1 4414   4.432   0.458  12.697 -0.2334  0.0893 -0.1931
  293MPD2    C2 4415   4.493   0.439  12.821 -0.0105 -0.3265  0.4333
  293MPD2    C3 4416   4.601   0.517  12.854 -0.8145  0.0504  0.4785
  293MPD2    C4 4417   4.661   0.602  12.761 -0.8272  0.0987 -0.2554
  293MPD2    C5 4418   4.611   0.608  12.634 -0.4834  0.0745 -0.9525
  293MPD2     H 4419   4.440   0.383  12.898 -1.4254  0.9839  0.4180
  293MPD2    H1 4420   0.025   0.660  12.788 -1.6399  1.2682 -0.1327
  293MPD2    H2 4421   4.448   0.554  12.507 -0.5436  2.2079 -0.1880
  293MPD2    H3 4422   4.651   0.677  12.561  0.7373  0.2060 -0.1573
  293MPD2     N 4423   4.651   0.500  12.985 -0.4945  0.0270 -1.0428
  293MPD2    H5 4424   4.611   0.422  13.036  0.7299 -0.1236 -0.3062
  293MPD2    N1 4425   4.300   0.415  12.668  0.0500 -0.4738  0.5804
  293MPD2    H7 4426   4.267   0.444  12.577  2.9579 -0.6984 -0.5758
  294TMC3    C1 4427   4.075   0.344  12.710  0.6336 -0.1705 -0.2149
  294TMC3    C2 4428   3.996   0.244  12.768 -0.9430 -0.0702 -0.5417
  294TMC3    C3 4429   3.867   0.227  12.720  0.2279 -0.7466  0.2903
  294TMC3    C4 4430   4.032   0.426  12.613  0.0647 -0.0013 -0.3106
  294TMC3    C5 4431   3.894   0.414  12.583 -0.0963  0.3214 -0.4368
  294TMC3    C6 4432   3.814   0.316  12.634 -0.1635  0.0793  0.0694
  294TMC3     C 4433   4.210   0.347  12.752  0.1386  0.0768 -0.0865
  294TMC3     O 4434   4.238   0.305  12.863  0.1162 -0.4084  0.5322
  294TMC3     H 4435   4.049   0.180  12.838  0.9426  1.5171 -0.5040
  294TMC3    H1 4436   4.086   0.509  12.569  0.5093 -0.2376 -0.2066
  294TMC3    H2 4437   3.715   0.307  12.591 -1.0205  0.5909  1.9392
  294TMC3    C7 4438   3.843   0.469  12.460 -0.1651  0.3493  0.1138
  294TMC3    C8 4439   3.794   0.106  12.738  0.0613 -0.3314 -0.1447
  294TMC3    O1 4440   3.725   0.455  12.440  0.3643 -0.0115 -0.7818
  294TMC3    O2 4441   3.803   0.048  12.847  0.3838 -0.4551 -0.3417
  295MPD2     C 4442   0.289   3.819   0.052 -0.1848 -0.8193  1.0860
  295MPD2    C1 4443   0.288   3.907   0.160  0.7866  0.0927 -0.3546
  295MPD2    C2 4444   0.170   3.917   0.233  0.5395  0.1305  0.4956
  295MPD2    C3 4445   0.059   3.845   0.197  1.3004 -0.6815  0.3952
  295MPD2    C4 4446   0.050   3.773   0.079 -0.2304 -0.9853 -0.4551
  295MPD2    C5 4447   0.167   3.768   0.008 -0.3348 -0.1206 -0.0698
  295MPD2     H 4448   0.162   3.977   0.324  0.5841 -1.0302  1.2590
  295MPD2    H1 4449   4.693   3.707   0.049 -0.3695 -1.1135  0.1960
  295MPD2    H2 4450   0.373   3.827  17.680 -2.1259 -1.5215 -1.4135
  295MPD2    H3 4451   0.165   3.712  17.612  1.3534 -0.5880  0.1826
  295MPD2     N 4452   4.655   3.861   0.269 -0.0293  0.4576  0.8314
  295MPD2    H5 4453   4.583   3.811   0.219 -0.3740 -0.2725  2.0627
  295MPD2    N1 4454   0.386   3.997   0.206  0.0020  0.4284  0.1675
  295MPD2    H7 4455   0.371   4.061   0.284  1.4113 -1.5353  2.0255
  296TMC3    C1 4456   4.486   3.911   0.428 -0.2406  0.0927  0.3156
  296TMC3    C2 4457   4.446   4.003   0.524 -0.0368 -0.2174 -0.4581
  296TMC3    C3 4458   4.308   4.014   0.538 -0.4679  0.3019  0.3012
  296TMC3    C4 4459   4.403   3.824   0.356  0.8888  0.2116  0.1148
  296TMC3    C5 4460   4.269   3.843   0.379 -0.3157  0.1940  0.5036
  296TMC3    C6 4461   4.222   3.935   0.469  0.2491 -0.2674 -0.3461
  296TMC3     C 4462   4.624   3.924   0.387  0.6418  0.4372 -0.2752
  296TMC3     O 4463   4.697   4.008   0.443 -0.5347 -0.1370  0.0691
  296TMC3     H 4464   4.515   4.052   0.592 -0.8130  0.7090 -0.3313
  296TMC3    H1 4465   4.428   3.765   0.269  1.1882 -1.4523  1.3545
  296TMC3    H2 4466   4.118   3.950   0.495 -0.0602  0.2170 -1.8988
  296TMC3    C7 4467   4.190   3.725   0.345  0.4431 -0.3372  0.5793
  296TMC3    C8 4468   4.254   4.115   0.627  0.7080  0.4127  0.1897
  296TMC3    O1 4469   4.212   3.668   0.239 -0.3519  0.3348 -0.6189
  296TMC3    O2 4470   4.143   4.156   0.606 -0.2251 -0.0880 -0.3595
  297MPD2     C 4471   2.415   0.945  16.868  0.0465  0.2776 -0.0651
  297MPD2    C1 4472   2.350   1.016  16.770 -0.4665 -0.4065  0.1822
  297MPD2    C2 4473   2.415   1.126  16.714 -0.0210 -0.1154 -0.6052
  297MPD2    C3 4474   2.545   1.161  16.756  0.2451 -0.4715 -0.1959
  297MPD2    C4 4475   2.616   1.080  16.848  0.5372 -0.6245 -0.8514
  297MPD2    C5 4476   2.545   0.972  16.903  0.0748 -0.3504 -0.3307
  297MPD2     H 4477   2.358   1.192  16.650  1.6204  2.7161  0.8715
  297MPD2    H1 4478   2.710   1.103  16.896  0.3164 -1.0389 -0.2148
  297MPD2    H2 4479   2.367   0.855  16.904  3.2450 -1.1262  0.7436
  297MPD2    H3 4480   2.593   0.911  16.979 -1.4240 -1.1951 -0.0634
  297MPD2     N 4481   2.604   1.269  16.696 -0.1321  0.3983  0.0933
  297MPD2    H5 4482   2.547   1.316  16.625 -0.9938  1.4879  1.5082
  297MPD2    N1 4483   2.226   0.978  16.715 -0.1848  0.4076 -0.5700
  297MPD2    H7 4484   2.187   1.019  16.631 -2.1333 -1.2596 -0.4842
  298TMC3    C1 4485   2.040   0.841  16.669  0.0277 -0.3878  0.4938
  298TMC3    C2 4486   2.042   0.866  16.534 -0.1274  0.0130  0.2187
  298TMC3    C3 4487   1.933   0.853  16.455 -0.5200 -0.3834  0.7054
  298TMC3    C4 4488   1.916   0.813  16.728  0.0695  0.5891  0.1119
  298TMC3    C5 4489   1.803   0.815  16.644 -0.5113  0.1020  0.5975
  298TMC3    C6 4490   1.809   0.833  16.510  0.7531  0.2123 -0.3537
  298TMC3     C 4491   2.154   0.867  16.749  0.0708 -0.3599 -0.6403
  298TMC3     O 4492   2.150   0.825  16.863  0.1645  0.4767  0.0808
  298TMC3     H 4493   2.136   0.877  16.480 -0.0164 -1.1716  0.1838
  298TMC3    H1 4494   1.913   0.819  16.836 -2.0156  0.1005  0.0817
  298TMC3    H2 4495   1.728   0.836  16.438  0.5735  0.8102 -0.1212
  298TMC3    C7 4496   1.682   0.880  16.703  0.9253 -0.0165 -0.2802
  298TMC3    C8 4497   1.938   0.879  16.309  0.3830 -0.0213  0.3273
  298TMC3    O1 4498   1.694   0.959  16.795  0.3630  0.0974  0.6422
  298TMC3    O2 4499   1.844   0.825  16.246  0.4522 -0.0926 -0.1684
  299MPD2     C 4500   2.447   1.556  10.275  0.2857  0.3905  0.3242
  299MPD2    C1 4501   2.387   1.461  10.356  0.2639  0.3556  0.4493
  299MPD2    C2 4502   2.261   1.424  10.316  0.4467  0.0523  0.5082
  299MPD2    C3 4503   2.193   1.483  10.208  0.5429  0.7328 -0.1672
  299MPD2    C4 4504   2.256   1.576  10.128  0.5277 -0.2052 -0.1583
  299MPD2    C5 4505   2.386   1.601  10.163  0.2595 -0.2714  0.0706
  299MPD2     H 4506   2.204   1.354  10.376 -0.8727  0.4178 -0.3029
  299MPD2    H1 4507   2.216   1.620  10.037  1.6582  1.3642  0.1163
  299MPD2    H2 4508   2.551   1.582  10.290  0.9575 -1.8367 -0.4165
  299MPD2    H3 4509   2.444   1.661  10.093 -1.5256 -0.8792 -1.9494
  299MPD2     N 4510   2.052   1.455  10.189  0.7741 -0.2685  0.6435
  299MPD2    H5 4511   2.004   1.520  10.127  2.6235  0.4348 -0.0525
  299MPD2    N1 4512   2.457   1.398  10.464  0.3953 -0.9606  0.4315
  299MPD2    H7 4513   2.556   1.419  10.467  0.0680  0.7693 -0.6802
  300TMC3    C1 4514   1.840   1.368  10.228 -0.7258  0.0736 -0.3588
  300TMC3    C2 4515   1.794   1.472  10.302 -0.0851 -0.1918 -0.0237
  300TMC3    C3 4516   1.684   1.454  10.381  0.3773  0.2408  0.2247
  300TMC3    C4 4517   1.778   1.246  10.244  0.0317 -0.2899  0.0219
  300TMC3    C5 4518   1.674   1.233  10.336 -0.6862 -0.2599  0.0320
  300TMC3    C6 4519   1.613   1.342  10.399 -0.3075  0.2180 -0.3927
  300TMC3     C 4520   1.984   1.356  10.235 -0.9013 -0.9504 -0.6137
  300TMC3     O 4521   2.031   1.246  10.258  0.0769  0.3252 -0.4081
  300TMC3     H 4522   1.849   1.566  10.300  0.4351 -0.4987 -0.1766
  300TMC3    H1 4523   1.811   1.164  10.182  0.2679 -0.3127  0.1780
  300TMC3    H2 4524   1.525   1.338  10.462  0.8519  2.0851  1.3603
  300TMC3    C7 4525   1.664   1.105  10.399  0.0060  0.1408  0.1684
  300TMC3    C8 4526   1.697   1.543  10.501 -0.4334  0.0217  0.0531
  300TMC3    O1 4527   1.701   1.012  10.323  0.1416  0.2362 -0.2693
  300TMC3    O2 4528   1.797   1.608  10.513 -0.2757 -0.4631 -0.3989
  301MPD2     C 4529   4.271   1.676   1.793 -0.0477  0.0343 -0.0228
  301MPD2    C1 4530   4.190   1.679   1.677 -0.3655  0.5524  0.3392
  301MPD2    C2 4531   4.199   1.572   1.581 -0.0804 -0.5728  0.1110
  301MPD2    C3 4532   4.283   1.467   1.610 -0.0698 -0.8566  0.1815
  301MPD2    C4 4533   4.346   1.458   1.733 -0.0794  0.5488  0.4161
  301MPD2    C5 4534   4.348   1.562   1.817  0.5717  0.1550 -0.1834
  301MPD2     H 4535   4.146   1.577   1.487 -0.6362 -1.8841  0.3527
  301MPD2    H1 4536   4.406   1.374   1.765  0.8719  1.7079  1.7147
  301MPD2    H2 4537   4.266   1.745   1.876  2.4733  1.1050 -0.7747
  301MPD2    H3 4538   4.412   1.561   1.905  0.7040 -2.7856 -0.3276
  301MPD2     N 4539   4.299   1.354   1.525 -0.0945 -0.5751 -0.4860
  301MPD2    H5 4540   4.369   1.288   1.555 -1.7770 -1.3832  1.6815
  301MPD2    N1 4541   4.078   1.771   1.665  0.4429 -0.3310  0.6612
  301MPD2    H7 4542   4.004   1.738   1.604 -0.9094  1.5528  1.2829
  302TMC3    C1 4543   4.296   1.239   1.314  0.6235  0.5723  0.5658
  302TMC3    C2 4544   4.403   1.156   1.355 -0.8985  0.2710  0.5546
  302TMC3    C3 4545   4.467   1.082   1.259  0.5508 -0.3353 -0.3508
  302TMC3    C4 4546   4.258   1.251   1.181 -0.2603  0.8266 -0.1308
  302TMC3    C5 4547   4.333   1.183   1.090 -0.4520 -0.0384  0.9310
  302TMC3    C6 4548   4.436   1.093   1.127 -0.9721  0.4155 -0.2872
  302TMC3     C 4549   4.253   1.347   1.393  0.4284 -0.6742 -0.3299
  302TMC3     O 4550   4.181   1.422   1.336  0.2115 -0.0999  0.2042
  302TMC3     H 4551   4.447   1.174   1.452 -1.9442  0.3251  1.0217
  302TMC3    H1 4552   4.167   1.303   1.156 -0.4968 -0.5096 -2.0373
  302TMC3    H2 4553   4.505   1.047   1.058  0.1098  1.0622  0.3743
  302TMC3    C7 4554   4.319   1.207   0.952 -0.3248  0.5063  0.7508
  302TMC3    C8 4555   4.590   1.017   1.298 -0.9857  0.8544  0.0714
  302TMC3    O1 4556   4.394   1.142   0.878 -0.6088 -0.3098 -0.2720
  302TMC3    O2 4557   4.675   1.002   1.206  0.0444 -0.3383  0.1424
  303MPD2     C 4558   0.589   0.688  10.371  1.1712 -0.3257 -0.0461
  303MPD2    C1 4559   0.473   0.610  10.385  0.2284  0.0186  0.0506
  303MPD2    C2 4560   0.366   0.618  10.295  0.0996 -0.1257 -0.1350
  303MPD2    C3 4561   0.374   0.707  10.181 -0.0454  0.4322 -0.3071
  303MPD2    C4 4562   0.493   0.779  10.173  0.2347 -0.8139  0.4628
  303MPD2    C5 4563   0.594   0.774  10.264  0.3559 -0.2362  0.0264
  303MPD2     H 4564   0.273   0.563  10.300  0.2958 -0.2671  1.6143
  303MPD2    H1 4565   0.500   0.853  10.094  1.9042 -0.7797  0.6319
  303MPD2    H2 4566   0.666   0.684  10.446 -0.8710  0.1075  2.0760
  303MPD2    H3 4567   0.675   0.844  10.254  0.4622 -0.7067 -2.3500
  303MPD2     N 4568   0.265   0.731  10.086 -0.1828  0.1527  0.5261
  303MPD2    H5 4569   0.284   0.810  10.024  2.2606 -0.9198 -0.0850
  303MPD2    N1 4570   0.465   0.544  10.503 -0.0378  0.7049  0.3416
  303MPD2    H7 4571   0.500   0.586  10.588  2.0495 -2.4941  1.0828
  304TMC3    C1 4572   0.367   0.411  10.664 -0.1297 -0.0289  0.3851
  304TMC3    C2 4573   0.355   0.514  10.750  0.0741  0.1959  0.4970
  304TMC3    C3 4574   0.282   0.487  10.866  0.0896  0.3429 -0.0781
  304TMC3    C4 4575   0.333   0.279  10.693  0.2711  0.6515  0.3106
  304TMC3    C5 4576   0.280   0.253  10.818 -0.1468 -0.5602 -0.6816
  304TMC3    C6 4577   0.265   0.364  10.902 -0.2906  0.4146 -0.1411
  304TMC3     C 4578   0.376   0.441  10.525 -0.0082 -0.0049  0.4878
  304TMC3     O 4579   0.320   0.376  10.443  0.0692  0.2228  0.1535
  304TMC3     H 4580   0.379   0.618  10.732 -0.0995 -0.2776 -2.4931
  304TMC3    H1 4581   0.353   0.202  10.621  1.7022  1.1368  0.1809
  304TMC3    H2 4582   0.229   0.355  11.004 -1.1763  1.0256 -0.4010
  304TMC3    C7 4583   0.164   0.167  10.807  0.0568  0.7030 -0.8586
  304TMC3    C8 4584   0.159   0.563  10.884 -0.1494 -0.5846  0.0451
  304TMC3    O1 4585   0.174   0.067  10.736  0.0433  0.1438  0.3266
  304TMC3    O2 4586   0.069   0.491  10.928  0.1754 -0.2640 -0.1600
  305MPD2     C 4587   3.122   2.369  13.841  0.4023  0.0743  0.1599
  305MPD2    C1 4588   3.085   2.258  13.915 -0.0255 -0.0843 -0.2996
  305MPD2    C2 4589   3.016   2.150  13.847 -0.5823 -0.1146 -0.0408
  305MPD2    C3 4590   3.011   2.162  13.709 -0.2703 -0.2398  0.2166
  305MPD2    C4 4591   3.065   2.265  13.637  0.0954 -0.1637 -0.1474
  305MPD2    C5 4592   3.104   2.377  13.705  0.6402  0.3957 -0.4383
  305MPD2     H 4593   2.989   2.057  13.895 -0.0080  0.8030  2.0821
  305MPD2    H1 4594   3.078   2.259  13.529 -1.1589 -0.5625 -0.2833
  305MPD2    H2 4595   3.160   2.464  13.877  1.1917  0.0629 -0.6576
  305MPD2    H3 4596   3.143   2.464  13.653 -0.7060  1.4664  0.3353
  305MPD2     N 4597   2.975   2.054  13.624  0.1637 -0.2858  0.4136
  305MPD2    H5 4598   2.994   2.063  13.524 -2.2976  4.7748  0.3896
  305MPD2    N1 4599   3.133   2.251  14.047 -0.1228 -0.0244  0.0007
  305MPD2    H7 4600   3.184   2.334  14.072 -0.5675  0.5717 -1.0460
  306TMC3    C1 4601   3.187   2.180  14.258  0.3084  1.0668 -0.0306
  306TMC3    C2 4602   3.275   2.092  14.311  0.0843  0.0660  0.5638
  306TMC3    C3 4603   3.363   2.141  14.402 -0.9214  0.1690 -0.0121
  306TMC3    C4 4604   3.155   2.298  14.320 -0.1725  0.0093 -0.4403
  306TMC3    C5 4605   3.240   2.343  14.424  0.0750  0.1890 -0.2858
  306TMC3    C6 4606   3.346   2.264  14.462 -0.4700 -0.0164  0.6241
  306TMC3     C 4607   3.117   2.149  14.136 -0.3083 -0.9091 -0.0135
  306TMC3     O 4608   3.067   2.035  14.125 -0.1876 -0.3193  0.5059
  306TMC3     H 4609   3.282   1.994  14.264  0.0894  1.2462 -1.8814
  306TMC3    H1 4610   3.078   2.366  14.284  1.5932  1.3576 -1.6725
  306TMC3    H2 4611   3.405   2.295  14.547  1.5058 -3.1274  0.3811
  306TMC3    C7 4612   3.191   2.457  14.501  0.0593  0.4113 -0.0881
  306TMC3    C8 4613   3.454   2.037  14.459 -0.1960  0.8496  0.5728
  306TMC3    O1 4614   3.096   2.518  14.458  0.3275 -0.6064  0.2663
  306TMC3    O2 4615   3.570   2.072  14.483  0.5945  0.7844  0.3228
  307MPD2     C 4616   0.416   4.336   1.127  0.3170 -0.0945 -0.3904
  307MPD2    C1 4617   0.409   4.473   1.109  0.1832 -0.5803  0.3223
  307MPD2    C2 4618   0.284   4.534   1.100 -0.3167 -0.3657 -0.7403
  307MPD2    C3 4619   0.170   4.456   1.099  0.7977  0.2586 -0.5645
  307MPD2    C4 4620   0.180   4.320   1.115  0.5004  0.2008  0.9156
  307MPD2    C5 4621   0.299   4.265   1.136  0.9312 -0.1203  0.4608
  307MPD2     H 4622   0.283   4.639   1.075  0.0413 -0.1965 -0.0470
  307MPD2    H1 4623   0.091   4.258   1.105  0.8207  0.0082 -0.6484
  307MPD2    H2 4624   0.510   4.281   1.125 -0.6174 -1.6526 -1.7350
  307MPD2    H3 4625   0.306   4.157   1.146 -1.0114 -0.2332  0.5382
  307MPD2     N 4626   0.049   4.526   1.078 -0.9731  0.0434  0.2315
  307MPD2    H5 4627   0.044   4.627   1.080 -1.0764  0.0121  1.4770
  307MPD2    N1 4628   0.521   4.557   1.094  0.4069 -0.6525  0.5725
  307MPD2    H7 4629   0.495   4.649   1.062 -1.9862 -1.9230 -1.1629
  308TMC3    C1 4630   4.417   4.685   0.859  0.0298  0.1516 -0.1314
  308TMC3    C2 4631   4.439   0.082   0.928  1.2305 -0.5339 -0.5702
  308TMC3    C3 4632   4.504   0.078   1.047  0.2806  0.3650  0.3552
  308TMC3    C4 4633   4.468   4.569   0.905  0.4112  0.0936 -0.4552
  308TMC3    C5 4634   4.553   4.570   1.018 -0.6127  0.3345  0.0952
  308TMC3    C6 4635   4.570   4.691   1.084  0.3932 -0.1324  0.4561
  308TMC3     C 4636   4.349   4.680   0.729 -0.7808  0.3412 -0.4191
  308TMC3     O 4637   4.349   4.577   0.665 -0.2425  0.0525 -0.3877
  308TMC3     H 4638   4.390   0.175   0.902  2.2285  0.9329  2.8144
  308TMC3    H1 4639   4.462   4.478   0.848  0.8050 -0.7819  0.9020
  308TMC3    H2 4640   4.613   4.684   1.183 -0.8764  0.4117  1.0331
  308TMC3    C7 4641   4.659   4.471   1.032  0.1388  0.5407 -0.0993
  308TMC3    C8 4642   4.534   0.199   1.113 -0.1864  0.0397  0.0506
  308TMC3    O1 4643   4.652   4.362   0.969  0.4619 -0.2822  0.5648
  308TMC3    O2 4644   4.548   0.182   1.232  0.2050 -0.2911  0.6361
  309MPD2     C 4645   0.176   0.657  17.312  0.0397 -0.3030 -0.3462
  309MPD2    C1 4646   0.196   0.727  17.199  0.2735 -0.3359  0.4261
  309MPD2    C2 4647   0.107   0.831  17.170  0.3979 -0.1274  0.0303
  309MPD2    C3 4648   4.719   0.862  17.250 -0.3892 -0.5497  0.4307
  309MPD2    C4 4649   4.709   0.788  17.366 -0.0390  0.5314  1.0036
  309MPD2    C5 4650   0.076   0.689  17.402  0.0423  0.5934  0.0928
  309MPD2     H 4651   0.123   0.890  17.080 -1.5315 -0.1719 -0.3380
  309MPD2    H1 4652   4.645   0.826  17.444 -2.5481 -1.6967  0.0340
  309MPD2    H2 4653   0.243   0.580  17.348 -1.4164 -0.2473  2.4553
  309MPD2    H3 4654   0.063   0.632  17.493 -1.0953 -1.5879 -1.4142
  309MPD2     N 4655   4.629   0.967  17.236  0.1047  0.0496  0.6017
  309MPD2    H5 4656   4.558   0.969  17.308 -0.9455 -1.8873 -0.3690
  309MPD2    N1 4657   0.301   0.715  17.113  1.2239  0.9031 -0.2317
  309MPD2    H7 4658   0.300   0.783  17.037  1.5965 -0.2508 -1.2575
  310TMC3    C1 4659   0.496   0.633  17.008 -0.9121  0.4588  0.2709
  310TMC3    C2 4660   0.449   0.686  16.886 -0.2500  0.3673 -0.7197
  310TMC3    C3 4661   0.532   0.678  16.785  0.1835  0.0769 -0.0491
  310TMC3    C4 4662   0.621   0.578  17.024  0.1404  0.4899  0.0280
  310TMC3    C5 4663   0.696   0.571  16.914  0.1597  0.1019  0.1654
  310TMC3    C6 4664   0.654   0.618  16.795  0.4151 -0.5616 -0.4360
  310TMC3     C 4665   0.400   0.623  17.114  0.1787  0.1181 -0.0513
  310TMC3     O 4666   0.413   0.534  17.200 -0.4768  0.2928  0.0843
  310TMC3     H 4667   0.346   0.718  16.873 -0.3865 -0.2270 -1.0885
  310TMC3    H1 4668   0.654   0.544  17.122 -0.7278  0.2636  0.2409
  310TMC3    H2 4669   0.702   0.598  16.700 -0.2904 -1.0694 -0.6906
  310TMC3    C7 4670   0.822   0.503  16.906 -0.3387 -0.2171 -0.5709
  310TMC3    C8 4671   0.511   0.767  16.673  0.2739  0.2296 -0.3023
  310TMC3    O1 4672   0.864   0.463  16.798  0.2035  1.5068  0.4211
  310TMC3    O2 4673   0.554   0.727  16.567  0.0468  0.5451 -0.2199
  311MPD2     C 4674   2.131   1.808  13.439  0.0787  0.0137  0.4689
  311MPD2    C1 4675   2.111   1.901  13.340 -0.2120  0.0277 -0.1749
  311MPD2    C2 4676   1.989   1.960  13.324  0.8853  0.4824  0.2008
  311MPD2    C3 4677   1.880   1.927  13.401 -0.3646  0.5812 -0.3393
  311MPD2    C4 4678   1.901   1.836  13.504  0.5897 -0.5808 -0.3253
  311MPD2    C5 4679   2.024   1.778  13.514 -0.4654 -0.4413 -0.4044
  311MPD2     H 4680   1.983   2.028  13.240  0.2631  0.5229  0.2807
  311MPD2    H1 4681   1.828   1.808  13.580 -0.1210  1.2580 -0.3230
  311MPD2    H2 4682   2.224   1.753  13.447 -1.0970 -1.7372  2.1335
  311MPD2    H3 4683   2.039   1.697  13.585 -1.1871 -0.1194  0.1142
  311MPD2     N 4684   1.772   2.015  13.386  0.3979  0.2891 -0.3115
  311MPD2    H5 4685   1.781   2.104  13.339 -3.8649  0.3841 -0.9217
  311MPD2    N1 4686   2.217   1.915  13.248  0.0906 -0.2466 -0.1659
  311MPD2    H7 4687   2.312   1.907  13.283  0.4216  2.8294 -0.3876
  312TMC3    C1 4688   1.564   2.116  13.384  0.0389  0.2599 -0.2013
  312TMC3    C2 4689   1.454   2.104  13.301 -0.2863  0.3685  0.6931
  312TMC3    C3 4690   1.421   2.207  13.214 -0.2452  0.2256  0.6340
  312TMC3    C4 4691   1.625   2.236  13.396  0.3439  0.2311 -0.3018
  312TMC3    C5 4692   1.577   2.348  13.335  0.4923  0.0792  0.9790
  312TMC3    C6 4693   1.484   2.334  13.231 -0.0458 -0.6558 -0.7007
  312TMC3     C 4694   1.637   1.998  13.421 -0.1776 -0.7656 -0.5395
  312TMC3     O 4695   1.573   1.907  13.477  0.4513 -0.1194 -0.1520
  312TMC3     H 4696   1.417   2.005  13.277 -0.8317  0.4995  0.9999
  312TMC3    H1 4697   1.720   2.248  13.447  0.2929 -1.2605  0.1517
  312TMC3    H2 4698   1.450   2.427  13.186 -1.4690 -1.1840 -0.7012
  312TMC3    C7 4699   1.652   2.468  13.355  0.0624 -0.1315  0.2589
  312TMC3    C8 4700   1.310   2.180  13.123 -0.0416  0.2585 -0.2808
  312TMC3    O1 4701   1.684   2.522  13.249  0.2763 -0.0016 -0.0221
  312TMC3    O2 4702   1.278   2.066  13.098 -0.6860 -0.3895 -0.3257
  313MPD2     C 4703   1.154   1.472  11.371 -0.1925 -0.3442  0.5764
  313MPD2    C1 4704   1.262   1.512  11.304  0.3535  0.4687  0.0785
  313MPD2    C2 4705   1.311   1.422  11.209 -0.1799 -0.4057 -0.6847
  313MPD2    C3 4706   1.247   1.300  11.188 -0.3846 -0.2549  0.1082
  313MPD2    C4 4707   1.147   1.259  11.273 -0.0808 -0.2796 -1.0981
  313MPD2    C5 4708   1.106   1.346  11.365 -0.2798  0.2121  0.1826
  313MPD2     H 4709   1.393   1.443  11.142 -0.4044 -1.9102 -1.4353
  313MPD2    H1 4710   1.083   1.173  11.261 -0.9610  0.1698  0.4870
  313MPD2    H2 4711   1.096   1.542  11.430  0.0034 -0.7721  1.2838
  313MPD2    H3 4712   1.012   1.327  11.414 -1.4801  2.4964 -1.1950
  313MPD2     N 4713   1.288   1.215  11.079  0.1646 -0.0926 -0.1866
  313MPD2    H5 4714   1.338   1.266  11.006  0.4811 -1.1813 -0.7298
  313MPD2    N1 4715   1.309   1.642  11.322 -0.5231 -0.0087  0.6541
  313MPD2    H7 4716   1.396   1.670  11.277 -0.8484  1.0062  0.6522
  314TMC3    C1 4717   1.321   1.858  11.396  0.3098  0.5445 -0.0163
  314TMC3    C2 4718   1.461   1.875  11.392 -0.4921 -0.4669 -0.4267
  314TMC3    C3 4719   1.500   1.981  11.309 -0.0000  0.5131  0.3964
  314TMC3    C4 4720   1.233   1.945  11.325  0.3305  0.0256 -0.2613
  314TMC3    C5 4721   1.283   2.043  11.247 -0.2023  0.1430 -0.4134
  314TMC3    C6 4722   1.416   2.061  11.230  0.4618 -0.0453  0.1702
  314TMC3     C 4723   1.255   1.733  11.412  0.0045 -0.4048 -0.4444
  314TMC3     O 4724   1.144   1.745  11.449  0.0156 -0.5787  0.0521
  314TMC3     H 4725   1.535   1.804  11.425  0.6531  0.7508 -0.4004
  314TMC3    H1 4726   1.127   1.924  11.330  0.1952  1.3715  2.8979
  314TMC3    H2 4727   1.452   2.152  11.183  1.2216 -0.7056 -0.5342
  314TMC3    C7 4728   1.192   2.068  11.139  1.1084  0.0538  0.8598
  314TMC3    C8 4729   1.633   2.033  11.323  0.5156 -0.7097  0.0660
  314TMC3    O1 4730   1.070   2.059  11.164  0.5280  0.2846  0.2502
  314TMC3    O2 4731   1.681   2.106  11.236 -0.1260 -0.3309  0.4349
  315MPD2     C 4732   1.428   0.482   0.659 -0.1338  0.1690 -0.3085
  315MPD2    C1 4733   1.547   0.520   0.598  0.0376 -0.1898 -0.1459
  315MPD2    C2 4734   1.544   0.625   0.512 -0.3593 -0.0234 -0.4447
  315MPD2    C3 4735   1.425   0.697   0.483 -0.2176 -0.6474 -0.1330
  315MPD2    C4 4736   1.311   0.653   0.542 -0.3219  0.5580  0.3989
  315MPD2    C5 4737   1.309   0.536   0.618 -0.4520 -0.2669  0.0883
  315MPD2     H 4738   1.639   0.655   0.471 -0.5208  0.6522 -0.3322
  315MPD2    H1 4739   1.218   0.708   0.539  0.2554  1.4942 -0.3361
  315MPD2    H2 4740   1.430   0.406   0.737 -1.7215  1.5995  1.1424
  315MPD2    H3 4741   1.225   0.488   0.667 -0.7877  0.6847  0.4480
  315MPD2     N 4742   1.422   0.799   0.377 -0.3551  0.1421  0.7332
  315MPD2    H5 4743   1.506   0.807   0.320  0.6331 -1.8198  1.9357
  315MPD2    N1 4744   1.665   0.452   0.622  0.5859  0.0658  0.2170
  315MPD2    H7 4745   1.749   0.495   0.583 -0.8502  1.0993 -1.7316
  316TMC3    C1 4746   1.326   0.922   0.201  0.1621  0.0279  0.0175
  316TMC3    C2 4747   1.437   0.899   0.118 -0.1869 -0.6869  1.1928
  316TMC3    C3 4748   1.431   0.938  17.683 -0.1450 -0.0663 -0.5725
  316TMC3    C4 4749   1.216   1.002   0.162 -0.8240  0.2327  0.2584
  316TMC3    C5 4750   1.232   1.054   0.031 -0.4710  0.4862 -0.2092
  316TMC3    C6 4751   1.326   1.010  17.640 -0.6113 -0.0154 -0.0916
  316TMC3     C 4752   1.308   0.867   0.336 -0.1956 -0.2257  0.2742
  316TMC3     O 4753   1.197   0.857   0.376  0.4076 -0.6609 -0.1530
  316TMC3     H 4754   1.519   0.833   0.142 -2.2221 -2.5610  3.0065
  316TMC3    H1 4755   1.130   1.016   0.226 -0.5615 -2.1148  1.1392
  316TMC3    H2 4756   1.325   1.048  17.538 -1.2414 -1.1961 -0.5258
  316TMC3    C7 4757   1.160   1.181   0.017  0.7246  0.4879  0.0939
  316TMC3    C8 4758   1.550   0.935  17.594  0.0252 -1.1605  0.0081
  316TMC3    O1 4759   1.085   1.222   0.106 -0.2536 -0.3048  0.0330
  316TMC3    O2 4760   1.530   0.969  17.478 -0.6051  0.7105 -0.5564
  317MPD2     C 4761   3.554   4.076  12.606 -0.4017 -0.4727 -0.9530
  317MPD2    C1 4762   3.599   3.956  12.563  0.1830 -0.0661 -0.8224
  317MPD2    C2 4763   3.623   3.857  12.655  0.7529  0.0054  0.0311
  317MPD2    C3 4764   3.595   3.875  12.793  0.2190  0.3181 -0.0039
  317MPD2    C4 4765   3.550   3.996  12.832  0.6544  0.0715  0.2956
  317MPD2    C5 4766   3.521   4.094  12.741  0.5080 -0.4047 -0.2795
  317MPD2     H 4767   3.642   3.756  12.622  2.5808  0.5387 -0.5379
  317MPD2    H1 4768   3.534   4.016  12.938 -4.1491 -0.7241 -0.2453
  317MPD2    H2 4769   3.521   4.155  12.539  1.0440  0.7176 -0.2588
  317MPD2    H3 4770   3.487   4.190  12.779 -1.9725 -1.7842  1.0104
  317MPD2     N 4771   3.624   3.777  12.881  0.0827 -0.2566 -0.2474
  317MPD2    H5 4772   3.679   3.696  12.856 -0.1994 -1.8018  4.0954
  317MPD2    N1 4773   3.614   3.930  12.427 -0.6921 -0.1486  0.1202
  317MPD2    H7 4774   3.645   3.836  12.408 -0.3357 -0.1384  0.6508
  318TMC3    C1 4775   3.694   3.694  13.091  0.3840  0.3748 -0.4628
  318TMC3    C2 4776   3.649   3.670  13.217 -0.4906  0.1340 -0.1332
  318TMC3    C3 4777   3.733   3.612  13.305  0.5387  0.6576 -0.4913
  318TMC3    C4 4778   3.824   3.670  13.054  0.0782  0.3613 -0.6686
  318TMC3    C5 4779   3.899   3.597  13.143  0.8726  0.0485  0.0368
  318TMC3    C6 4780   3.857   3.569  13.272  0.9119 -0.4222 -0.3679
  318TMC3     C 4781   3.606   3.784  13.014  0.0397 -0.1027 -0.7463
  318TMC3     O 4782   3.520   3.846  13.074  0.5277  0.2229 -0.7720
  318TMC3     H 4783   3.551   3.697  13.254 -0.0437  2.4011 -0.6301
  318TMC3    H1 4784   3.859   3.679  12.952 -0.6641 -0.2297 -0.9736
  318TMC3    H2 4785   3.919   3.530  13.352  0.8254 -0.2063 -0.1940
  318TMC3    C7 4786   4.023   3.549  13.108  0.0592 -0.4136  0.3881
  318TMC3    C8 4787   3.676   3.544  13.425 -0.2917  0.1257  0.3735
  318TMC3    O1 4788   4.088   3.627  13.042  1.0224  0.4681  0.4972
  318TMC3    O2 4789   3.752   3.518  13.518  0.1681 -0.1140 -0.3186
  319MPD2     C 4790   0.082   0.045  15.978  0.6581 -0.2820 -0.1518
  319MPD2    C1 4791   4.691   0.091  16.032  0.8452 -0.5777 -0.1111
  319MPD2    C2 4792   4.571   0.103  15.965  0.3949  0.7151  0.3241
  319MPD2    C3 4793   4.570   0.081  15.823  0.8306  0.2895 -0.5855
  319MPD2    C4 4794   4.688   0.039  15.765  0.2667 -0.0544  0.1776
  319MPD2    C5 4795   0.072   0.021  15.845  0.2740 -0.0287  0.1531
  319MPD2     H 4796   4.480   0.129  16.019  0.0655 -1.0699  0.6231
  319MPD2    H1 4797   4.694   0.007  15.662  2.1207 -2.1598  0.9270
  319MPD2    H2 4798   0.172   0.024  16.035  0.2806  0.4612  0.7224
  319MPD2    H3 4799   0.163   4.710  15.797 -0.1701  0.8825 -1.3614
  319MPD2     N 4800   4.461   0.096  15.736 -0.1371  0.2702 -0.0836
  319MPD2    H5 4801   4.457   0.038  15.653 -0.9315 -1.6591  1.2932
  319MPD2    N1 4802   4.681   0.116  16.173  0.3955  0.2613  0.0231
  319MPD2    H7 4803   4.590   0.114  16.216  1.7560  2.6750  3.0501
  320TMC3    C1 4804   4.263   0.197  15.662 -0.1115  0.0089  0.1038
  320TMC3    C2 4805   4.187   0.306  15.670  0.6978 -0.0823  0.4887
  320TMC3    C3 4806   4.058   0.297  15.644  0.7994 -0.4756 -0.0133
  320TMC3    C4 4807   4.209   0.072  15.636 -0.5506 -0.6139  0.0187
  320TMC3    C5 4808   4.077   0.060  15.611  0.0679  0.5124 -0.5495
  320TMC3    C6 4809   3.998   0.174  15.626 -0.1572  0.1219 -0.1408
  320TMC3     C 4810   4.363   0.192  15.765 -0.6116  0.1069  0.7530
  320TMC3     O 4811   4.364   0.284  15.845  0.2348  0.0148 -0.0279
  320TMC3     H 4812   4.232   0.402  15.691  1.8905  0.6941 -5.5929
  320TMC3    H1 4813   4.264   4.702  15.641  1.9217  0.7067 -2.1292
  320TMC3    H2 4814   3.890   0.166  15.633 -0.2846 -0.6640 -2.8256
  320TMC3    C7 4815   4.022   4.662  15.670 -0.8021 -0.3251 -0.3820
  320TMC3    C8 4816   3.973   0.394  15.701 -0.1026  0.9783 -0.0648
  320TMC3    O1 4817   4.033   4.560  15.607  0.3441 -0.2198 -0.7885
  320TMC3    O2 4818   4.006   0.442  15.813  0.0415 -0.3412  0.1210
  321TMC3    C1 4819   0.019   0.214  16.370  0.1721  0.0596  0.0953
  321TMC3    C2 4820   4.629   0.154  16.421 -0.3020  0.1227 -0.0548
  321TMC3    C3 4821   4.585   0.204  16.535  0.2564  0.6093  0.1740
  321TMC3    C4 4822   0.080   0.321  16.426 -0.2170  0.6712  0.0567
  321TMC3    C5 4823   0.029   0.375  16.539 -0.1254  0.8935 -0.2181
  321TMC3    C6 4824   4.636   0.321  16.589  0.4395 -0.0741 -0.3021
  321TMC3     C 4825   0.065   0.162  16.243  0.5764  0.6582 -0.0481
  321TMC3     O 4826   0.182   0.185  16.217  0.3193 -0.8527  0.1426
  321TMC3     H 4827   4.595   0.053  16.403 -4.4041  1.5047  0.0224
  321TMC3    H1 4828   0.160   0.367  16.370 -0.7566 -0.7200 -1.8689
  321TMC3    H2 4829   4.591   0.360  16.679  1.1332 -0.5283  0.2487
  321TMC3    C7 4830   0.125   0.388  16.645 -0.5255 -0.2134 -0.4634
  321TMC3    C8 4831   4.551   0.097  16.632 -0.4531 -0.1549 -0.2515
  321TMC3    O1 4832   0.078   0.347  16.752  0.3904  0.3540 -0.3589
  321TMC3    O2 4833   4.477   0.003  16.598  0.0051 -0.1497  0.1900
  322MPD2     C 4834   3.108   1.206  13.852 -0.2027  0.3794  0.4932
  322MPD2    C1 4835   3.110   1.184  13.994  1.0637  0.7412  0.3117
  322MPD2    C2 4836   3.114   1.056  14.048  1.2404 -0.3531 -0.2544
  322MPD2    C3 4837   3.113   0.951  13.966  0.3968  0.4396  0.2627
  322MPD2    C4 4838   3.110   0.967  13.827 -0.3244 -0.8866 -0.7919
  322MPD2    C5 4839   3.099   1.095  13.768  0.8909  0.0132 -0.1168
  322MPD2     H 4840   3.124   1.041  14.155 -0.2595 -0.8444 -0.1843
  322MPD2    H1 4841   3.107   0.886  13.755 -0.7524 -0.6567 -1.0380
  322MPD2    H2 4842   3.099   1.308  13.816  2.0676  1.0399  1.7863
  322MPD2    H3 4843   3.088   1.103  13.661  0.3022  0.2032 -0.0395
  322MPD2     N 4844   3.121   0.825  14.027 -0.1707 -0.2033 -0.0363
  322MPD2    H5 4845   3.142   0.832  14.126 -0.7210 -0.8009  0.1267
  322MPD2    N1 4846   3.111   1.298  14.072  0.0125 -0.3034 -0.0002
  322MPD2    H7 4847   3.122   1.384  14.019 -0.3433 -1.2643 -1.6258
  323TMC3    C1 4848   3.149   1.421  14.280 -0.1112 -0.9059  0.0938
  323TMC3    C2 4849   3.161   1.542  14.212 -0.2877 -0.0324 -0.4800
  323TMC3    C3 4850   3.201   1.649  14.286  0.0107  0.5347  0.0439
  323TMC3    C4 4851   3.186   1.414  14.411 -0.3283  1.1213 -0.2529
  323TMC3    C5 4852   3.222   1.517  14.493 -0.4553  0.2838 -0.0899
  323TMC3    C6 4853   3.219   1.641  14.427  1.4337 -0.4319 -0.1205
  323TMC3     C 4854   3.102   1.296  14.213  1.0367  0.3799  0.3464
  323TMC3     O 4855   3.057   1.206  14.279  0.2056 -0.3719 -0.0189
  323TMC3     H 4856   3.137   1.547  14.106 -1.8694  1.0232 -0.0810
  323TMC3    H1 4857   3.185   1.311  14.446  2.4417  1.8454  1.9385
  323TMC3    H2 4858   3.242   1.735  14.475 -1.4680  0.0485  0.3071
  323TMC3    C7 4859   3.354   1.479  14.548  0.2367  0.0518 -0.0639
  323TMC3    C8 4860   3.302   1.726  14.226 -0.0186 -0.2551 -0.4534
  323TMC3    O1 4861   3.370   1.366  14.595  0.3955  0.1110  0.3097
  323TMC3    O2 4862   3.392   1.760  14.301  0.0710  0.0088 -0.1530
  324MPD2     C 4863   4.489   2.437  15.298  0.5104  0.0272 -0.3125
  324MPD2    C1 4864   4.475   2.496  15.175 -0.0124  1.3412 -0.2249
  324MPD2    C2 4865   4.351   2.508  15.114 -0.4975  1.3425 -0.6488
  324MPD2    C3 4866   4.236   2.474  15.186  0.1531  0.3682 -0.0464
  324MPD2    C4 4867   4.248   2.416  15.311  0.5941  0.2645  0.0029
  324MPD2    C5 4868   4.373   2.397  15.369 -0.7080  0.5851  0.5252
  324MPD2     H 4869   4.344   2.545  15.012 -1.6136 -1.9814 -1.7982
  324MPD2    H1 4870   4.159   2.396  15.369 -0.8532  0.9316 -1.9904
  324MPD2    H2 4871   4.585   2.423  15.346  0.5283  2.5966  0.3911
  324MPD2    H3 4872   4.372   2.376  15.475  3.7823  2.0904  0.8849
  324MPD2     N 4873   4.104   2.485  15.136 -0.2860 -0.2343  0.1716
  324MPD2    H5 4874   4.029   2.464  15.201 -0.7110 -1.9512 -0.8647
  324MPD2    N1 4875   4.583   2.555  15.105 -0.8651 -0.1055 -0.1759
  324MPD2    H7 4876   4.556   2.624  15.036 -0.4734 -0.3416 -0.5606
  325TMC3    C1 4877   3.924   2.542  14.990 -0.1387  0.9468  0.1381
  325TMC3    C2 4878   3.875   2.516  14.861 -0.0580  0.0007 -0.5433
  325TMC3    C3 4879   3.759   2.583  14.825  0.3066  0.6307  0.0198
  325TMC3    C4 4880   3.856   2.625  15.074  0.2437 -0.7291  0.7924
  325TMC3    C5 4881   3.742   2.688  15.029 -0.0274  0.7079 -0.3292
  325TMC3    C6 4882   3.691   2.670  14.905 -0.4359 -0.6765  0.2435
  325TMC3     C 4883   4.066   2.520  15.011 -0.3242  0.4827 -0.0101
  325TMC3     O 4884   4.137   2.524  14.910  0.3595 -0.1363  0.2470
  325TMC3     H 4885   3.931   2.451  14.795 -0.9160 -1.2609 -0.0178
  325TMC3    H1 4886   3.892   2.650  15.173  1.6359 -1.4829  0.4663
  325TMC3    H2 4887   3.604   2.727  14.878  0.8385  0.4869 -1.4061
  325TMC3    C7 4888   3.711   2.799  15.109 -0.4125  0.1922 -0.4932
  325TMC3    C8 4889   3.695   2.536  14.706 -0.5203  0.2120 -0.3907
  325TMC3    O1 4890   3.709   2.796  15.231  0.6254 -0.4456 -0.3720
  325TMC3    O2 4891   3.720   2.434  14.652  0.0445 -0.2703 -0.9060
  326MPD2     C 4892   1.005   3.709  11.244 -0.0903 -0.0987 -0.3385
  326MPD2    C1 4893   0.985   3.792  11.140  0.0096  0.1270  0.0280
  326MPD2    C2 4894   1.062   3.903  11.125  0.4833  0.1500 -0.1542
  326MPD2    C3 4895   1.160   3.935  11.218  0.9393 -0.2692  0.2249
  326MPD2    C4 4896   1.173   3.858  11.335  0.7906  0.3994 -0.2337
  326MPD2    C5 4897   1.095   3.746  11.337 -0.2175  0.2804  0.4101
  326MPD2     H 4898   1.051   3.964  11.036  1.4040  0.0838 -0.3140
  326MPD2    H1 4899   1.240   3.892  11.413  0.2628 -0.4764  0.5905
  326MPD2    H2 4900   0.954   3.616  11.266 -0.6687 -0.2347 -2.1876
  326MPD2    H3 4901   1.095   3.686  11.427  1.1793  1.0220  0.9118
  326MPD2     N 4902   1.245   4.049  11.205  0.2458  1.3076  0.4629
  326MPD2    H5 4903   1.313   4.062  11.279  0.5966  1.6805  0.0803
  326MPD2    N1 4904   0.900   3.757  11.032  0.5226 -0.1174 -0.5689
  326MPD2    H7 4905   0.897   3.823  10.955  2.0380  0.1065 -0.4397
  327TMC3    C1 4906   0.779   3.634  10.879  0.1342  0.4170  0.3145
  327TMC3    C2 4907   0.664   3.704  10.845 -0.5268  0.3361 -0.0195
  327TMC3    C3 4908   0.664   3.758  10.719  0.5073  0.8904  0.1366
  327TMC3    C4 4909   0.893   3.631  10.801  0.2431 -0.2346 -0.8013
  327TMC3    C5 4910   0.888   3.693  10.676  0.1604 -0.4118  0.4994
  327TMC3    C6 4911   0.775   3.756  10.632  0.7831  0.7268  0.8827
  327TMC3     C 4912   0.822   3.648  11.021  0.1751 -0.5037 -0.6344
  327TMC3     O 4913   0.801   3.560  11.102 -0.4885 -0.1784  0.0637
  327TMC3     H 4914   0.580   3.703  10.914  1.8496  0.3469  2.8717
  327TMC3    H1 4915   0.987   3.597  10.842 -1.1561 -1.9558  0.9626
  327TMC3    H2 4916   0.774   3.800  10.533 -1.2625 -3.1670 -0.8154
  327TMC3    C7 4917   1.013   3.729  10.610  0.8375  0.5775 -0.4309
  327TMC3    C8 4918   0.586   3.883  10.704  0.2485  0.6673 -0.2630
  327TMC3    O1 4919   1.006   3.758  10.491 -0.2303  0.5135  0.2250
  327TMC3    O2 4920   0.605   3.940  10.596  0.2694 -0.2981  0.2311
  328MPD2     C 4921   4.328   3.365  16.660 -0.2764  0.5520 -1.1089
  328MPD2    C1 4922   4.198   3.323  16.627  0.1963  0.4004  0.6467
  328MPD2    C2 4923   4.095   3.419  16.634  0.7281 -0.7371 -0.2592
  328MPD2    C3 4924   4.125   3.555  16.663  0.2041 -0.3599  0.5506
  328MPD2    C4 4925   4.253   3.594  16.689 -0.2492  0.1959  0.0072
  328MPD2    C5 4926   4.353   3.492  16.692  0.1644 -0.6136  0.3938
  328MPD2     H 4927   3.998   3.383  16.602 -0.0839 -1.2141  2.6857
  328MPD2    H1 4928   4.280   3.694  16.719 -1.4319  1.3436 -2.7661
  328MPD2    H2 4929   4.412   3.297  16.667  0.2615  1.2782 -0.5514
  328MPD2    H3 4930   4.456   3.513  16.716  0.6669 -0.0645 -2.3202
  328MPD2     N 4931   4.034   3.661  16.658 -0.3435  0.1670 -0.2063
  328MPD2    H5 4932   4.071   3.752  16.679  1.7966 -0.9846  1.0141
  328MPD2    N1 4933   4.166   3.189  16.611  0.2188  0.2856  0.3618
  328MPD2    H7 4934   4.068   3.165  16.599  0.4694 -0.4763 -0.1383
  329TMC3    C1 4935   4.172   2.963  16.643 -0.4833  0.4116 -0.0719
  329TMC3    C2 4936   4.133   2.930  16.765  0.4242  0.2376  0.0714
  329TMC3    C3 4937   4.114   2.796  16.793 -0.2612 -0.3728  0.4097
  329TMC3    C4 4938   4.209   2.864  16.551  0.4077  0.2959 -0.5256
  329TMC3    C5 4939   4.204   2.731  16.577  0.3589  1.0905  0.1632
  329TMC3    C6 4940   4.154   2.695  16.700  0.0943  0.0248  0.3796
  329TMC3     C 4941   4.251   3.082  16.621  0.2079 -0.7133 -0.0881
  329TMC3     O 4942   4.371   3.070  16.598 -0.4036 -0.0861 -0.1357
  329TMC3     H 4943   4.110   3.010  16.835  1.1030  0.3971  0.1142
  329TMC3    H1 4944   4.257   2.897  16.459  1.3921 -0.0714 -0.1399
  329TMC3    H2 4945   4.130   2.592  16.725  1.3162  0.0222  1.5225
  329TMC3    C7 4946   4.234   2.631  16.473  0.4364  0.6548 -0.9857
  329TMC3    C8 4947   4.036   2.754  16.908  0.0956  0.2481  0.1843
  329TMC3    O1 4948   4.201   2.515  16.495 -0.3149  0.3808 -0.2754
  329TMC3    O2 4949   4.039   2.633  16.938  0.2846 -0.0867  0.9918
  330TMC3    C1 4950   2.136   3.333   9.911  0.4642  0.4095  0.0704
  330TMC3    C2 4951   2.068   3.254   9.821 -0.4288  0.7133  0.2022
  330TMC3    C3 4952   2.096   3.123   9.820 -0.0422  0.2871 -0.1231
  330TMC3    C4 4953   2.213   3.285  10.003  0.8478  0.2464  0.3408
  330TMC3    C5 4954   2.244   3.153  10.000 -0.6412  0.9489  0.0647
  330TMC3    C6 4955   2.184   3.066   9.903  0.7796  0.5559 -0.6382
  330TMC3     C 4956   2.086   3.464   9.938 -0.1956  0.2436  0.4808
  330TMC3     O 4957   2.121   3.515  10.048 -0.0370 -0.1991 -0.8477
  330TMC3     H 4958   2.003   3.301   9.748 -2.4943 -1.8312  0.4211
  330TMC3    H1 4959   2.257   3.343  10.084  1.3513  0.0269  0.2284
  330TMC3    H2 4960   2.219   2.964   9.890 -1.2233 -0.1588 -0.3576
  330TMC3    C7 4961   2.302   3.090  10.121 -0.7175 -0.0894 -0.7638
  330TMC3    C8 4962   2.043   3.053   9.705  0.0923  0.5626  0.1108
  330TMC3    O1 4963   2.279   2.968  10.124  0.9201 -0.0376 -0.1368
  330TMC3    O2 4964   1.997   3.110   9.609  0.0178  0.7633  0.1753
  331MPD2     C 4965   4.000   1.694  12.588  0.2434  0.1699  0.4158
  331MPD2    C1 4966   4.106   1.692  12.495 -0.3273  1.1104 -0.5381
  331MPD2    C2 4967   4.115   1.586  12.413 -0.3436 -0.2852  0.5250
  331MPD2    C3 4968   4.032   1.480  12.420  0.2536  0.2198 -0.3466
  331MPD2    C4 4969   3.932   1.479  12.517 -0.8580 -0.3617  0.8548
  331MPD2    C5 4970   3.919   1.583  12.604  0.0343  0.0256  0.1638
  331MPD2     H 4971   4.182   1.588  12.328  2.3461 -0.8192  2.6355
  331MPD2    H1 4972   3.874   1.389  12.537 -0.1058 -1.1070 -0.2890
  331MPD2    H2 4973   3.984   1.778  12.655 -1.2206  0.8758 -0.8318
  331MPD2    H3 4974   3.836   1.582  12.674 -0.4253  1.2597 -0.3615
  331MPD2     N 4975   4.044   1.360  12.347  0.8315 -0.0461  0.5947
  331MPD2    H5 4976   3.967   1.294  12.352  0.1291  0.5520 -2.3502
  331MPD2    N1 4977   4.183   1.807  12.476  0.1263  0.1783  0.1279
  331MPD2    H7 4978   4.157   1.889  12.531  1.8699  1.0378 -0.3553
  332TMC3    C1 4979   4.277   1.379  12.255  0.3195 -0.4519  0.3873
  332TMC3    C2 4980   4.344   1.387  12.134  0.5218 -0.5330  0.0592
  332TMC3    C3 4981   4.466   1.433  12.134 -0.0617 -0.9600 -0.3793
  332TMC3    C4 4982   4.343   1.392  12.376 -0.5733 -0.4898  0.9566
  332TMC3    C5 4983   4.470   1.430  12.368  0.0776  0.0039  1.0595
  332TMC3    C6 4984   4.531   1.453  12.247 -0.1943  0.0168  0.4197
  332TMC3     C 4985   4.142   1.318  12.255  0.3861  0.3653  0.5057
  332TMC3     O 4986   4.132   1.217  12.181 -0.1278  0.0781  0.1010
  332TMC3     H 4987   4.293   1.380  12.039 -1.4963  1.4907  0.9820
  332TMC3    H1 4988   4.285   1.373  12.465 -0.6868  0.1049  1.0099
  332TMC3    H2 4989   4.622   1.511  12.234 -0.6793  1.0115  1.3964
  332TMC3    C7 4990   4.532   1.489  12.489 -0.4412 -0.1231 -0.6345
  332TMC3    C8 4991   4.516   1.497  12.013  0.6190  0.2093 -0.3039
  332TMC3    O1 4992   4.502   1.441  12.597  0.2361 -0.3437 -0.3675
  332TMC3    O2 4993   4.554   1.615  12.018 -0.5268 -0.3693  0.0055
  333MPD2     C 4994   0.093   2.167  11.110  0.1869  0.1931  0.1159
  333MPD2    C1 4995   0.133   2.084  11.012 -0.4338  0.3887  0.1464
  333MPD2    C2 4996   0.096   1.951  11.023 -0.4563 -0.0409  0.3160
  333MPD2    C3 4997   0.023   1.908  11.133  0.5747 -0.4101  0.6082
  333MPD2    C4 4998   4.709   1.994  11.236  0.1052 -0.0561 -0.1207
  333MPD2    C5 4999   0.021   2.126  11.221 -0.2492  0.8183 -0.5646
  333MPD2     H 5000   0.123   1.871  10.955 -0.4612 -0.7253  1.1271
  333MPD2    H1 5001   4.659   1.965  11.328 -1.0720 -0.6603 -0.9550
  333MPD2    H2 5002   0.123   2.271  11.106 -0.5269  0.3650 -0.8513
  333MPD2    H3 5003   0.006   2.201  11.298 -0.0728 -0.5205  0.7827
  333MPD2     N 5004   4.704   1.772  11.122  0.7153  0.1625 -0.8976
  333MPD2    H5 5005   0.002   1.720  11.038 -0.8314 -0.4705 -0.9057
  333MPD2    N1 5006   0.223   2.135  10.909 -0.1070  0.6464  1.0101
  333MPD2    H7 5007   0.233   2.236  10.908 -0.1055  0.6526  1.9879
  334TMC3    C1 5008   0.383   2.127  10.732  0.2319 -0.3180 -0.0685
  334TMC3    C2 5009   0.507   2.073  10.701  0.3206 -0.0174  1.4777
  334TMC3    C3 5010   0.601   2.156  10.643 -0.3849  0.7287 -0.2064
  334TMC3    C4 5011   0.357   2.256  10.696  0.0178 -0.8931 -0.3251
  334TMC3    C5 5012   0.450   2.327  10.631  0.1332  0.5453 -0.1643
  334TMC3    C6 5013   0.575   2.288  10.610  0.3529 -0.4937 -0.3372
  334TMC3     C 5014   0.307   2.058  10.838  0.5225 -0.1129 -0.5329
  334TMC3     O 5015   0.335   1.942  10.857 -0.2869 -0.3179  0.2782
  334TMC3     H 5016   0.518   1.967  10.715  0.7703 -0.2468 -0.6245
  334TMC3    H1 5017   0.259   2.299  10.712  0.6697  0.6457 -0.5064
  334TMC3    H2 5018   0.642   2.340  10.542  1.6055  2.7572  3.3938
  334TMC3    C7 5019   0.411   2.452  10.571  0.0138  0.3133 -0.2697
  334TMC3    C8 5020   0.720   2.097  10.581 -0.0178  0.3998  0.6068
  334TMC3    O1 5021   0.494   2.544  10.563  0.9118 -0.6939  0.1276
  334TMC3    O2 5022   0.701   1.992  10.517  0.5523  0.1607  0.0225
  335TMC3    C1 5023   0.066   4.159  17.685  0.2345 -0.8043 -0.1522
  335TMC3    C2 5024   4.708   4.072  17.614  0.4381  0.2387 -0.7893
  335TMC3    C3 5025   0.038   4.008  17.510  0.1918  0.3977 -0.5331
  335TMC3    C4 5026   0.196   4.180  17.650 -0.6701  0.0328  0.6329
  335TMC3    C5 5027   0.243   4.111  17.543  0.2638 -0.3052  0.6068
  335TMC3    C6 5028   0.170   4.018  17.472 -0.3517  0.7409  0.0998
  335TMC3     C 5029   0.015   4.215   0.115  0.0319  0.4554 -0.9917
  335TMC3     O 5030   0.105   4.249   0.195 -0.3758 -0.1597  0.2904
  335TMC3     H 5031   4.602   4.059  17.629  0.3127  1.4052 -0.6660
  335TMC3    H1 5032   0.254   4.235   0.026  0.9811  1.1481 -1.5268
  335TMC3    H2 5033   0.213   3.957  17.394  0.9824 -0.6346  1.9172
  335TMC3    C7 5034   0.386   4.089  17.520 -0.4048  0.9277 -0.8073
  335TMC3    C8 5035   4.688   3.898  17.454 -0.2404 -0.0110 -0.9575
  335TMC3    O1 5036   0.425   3.988  17.462  0.1707  0.2107  0.2679
  335TMC3    O2 5037   4.591   3.850  17.510 -0.5833 -0.2570  0.1476
  336MPD2     C 5038   4.501   1.329  16.290 -0.7823 -0.3924 -0.7105
  336MPD2    C1 5039   4.438   1.249  16.197  0.6466  0.6806 -0.2491
  336MPD2    C2 5040   4.444   1.115  16.202  0.2057  0.1045 -0.2929
  336MPD2    C3 5041   4.538   1.055  16.282  1.2718  1.0299  0.0050
  336MPD2    C4 5042   4.620   1.135  16.353 -0.0446 -0.3313 -0.8567
  336MPD2    C5 5043   4.598   1.270  16.363  0.4024 -0.3927  0.4431
  336MPD2     H 5044   4.385   1.056  16.133  0.4602 -3.1476  2.2302
  336MPD2    H1 5045   4.704   1.089  16.406  0.4493  2.4426  0.7864
  336MPD2    H2 5046   4.480   1.434  16.304  0.7669 -0.1401 -0.3123
  336MPD2    H3 5047   4.658   1.319  16.439  1.7713 -0.9555 -0.2621
  336MPD2     N 5048   4.573   0.921  16.284  0.2747 -0.5800  1.0417
  336MPD2    H5 5049   4.647   0.900  16.351  0.6424 -0.4987  0.6627
  336MPD2    N1 5050   4.348   1.303  16.106  0.3326 -0.4316  0.0457
  336MPD2    H7 5051   4.302   1.241  16.039  0.6825 -1.2779  0.5880
  337TMC3    C1 5052   4.218   1.465  15.988  0.0404 -0.3343  0.5229
  337TMC3    C2 5053   4.111   1.393  15.946 -0.2891  0.0946 -0.3206
  337TMC3    C3 5054   4.023   1.444  15.851 -0.2038 -0.3863  0.0334
  337TMC3    C4 5055   4.221   1.593  15.947  0.8749 -0.5067 -0.4008
  337TMC3    C5 5056   4.127   1.647  15.864  1.0086  0.5716  0.9678
  337TMC3    C6 5057   4.035   1.573  15.801  0.1123  0.2777 -1.0928
  337TMC3     C 5058   4.303   1.429  16.099 -0.3022  0.0873 -0.1916
  337TMC3     O 5059   4.322   1.521  16.179 -0.8827 -0.0824  0.2187
  337TMC3     H 5060   4.105   1.289  15.975  0.7456  0.4848  1.2653
  337TMC3    H1 5061   4.304   1.648  15.989 -0.8475  1.8259 -0.1009
  337TMC3    H2 5062   3.971   1.608  15.721  0.3787 -0.8314 -1.8036
  337TMC3    C7 5063   4.075   1.779  15.906  0.6386 -0.1069  0.1769
  337TMC3    C8 5064   3.920   1.356  15.802  0.8697 -0.2791  0.1548
  337TMC3    O1 5065   3.964   1.809  15.869  0.0993  0.1881  0.2272
  337TMC3    O2 5066   3.942   1.236  15.802  0.2682 -0.1356  0.0003
  338MPD2     C 5067   4.012   1.037   0.849 -0.6262 -0.3489 -0.0865
  338MPD2    C1 5068   3.979   1.073   0.723 -1.0209  0.0639  0.3660
  338MPD2    C2 5069   3.917   1.192   0.693 -0.3150 -0.1777  0.3695
  338MPD2    C3 5070   3.891   1.281   0.792 -0.2469 -0.3686 -0.6136
  338MPD2    C4 5071   3.928   1.253   0.927  0.1438 -0.1403 -0.4161
  338MPD2    C5 5072   3.986   1.127   0.953 -0.5938 -0.0061  0.4936
  338MPD2     H 5073   3.888   1.233   0.597  0.0654 -1.3137 -0.2335
  338MPD2    H1 5074   3.909   1.316   1.013  1.1771 -1.5159  0.8382
  338MPD2    H2 5075   4.064   0.943   0.862 -1.2550 -0.8704 -1.3817
  338MPD2    H3 5076   4.018   1.107   1.055 -1.8720 -1.6126  0.5706
  338MPD2     N 5077   3.812   1.394   0.754  0.0196 -0.5313 -0.0144
  338MPD2    H5 5078   3.799   1.410   0.654 -2.7595 -0.7861  0.3078
  338MPD2    N1 5079   4.006   0.989   0.614 -0.8584 -0.3058 -0.6479
  338MPD2    H7 5080   3.996   1.031   0.522  0.1400  2.2416  0.3957
  339TMC3    C1 5081   3.688   1.605   0.787 -0.0023 -0.7935  0.3172
  339TMC3    C2 5082   3.587   1.662   0.859 -0.2716  0.0113  0.9074
  339TMC3    C3 5083   3.518   1.767   0.802 -0.5380 -0.3272  0.1678
  339TMC3    C4 5084   3.728   1.650   0.661 -0.7167 -1.2866  0.5308
  339TMC3    C5 5085   3.643   1.742   0.605 -0.1673  0.2975  0.9689
  339TMC3    C6 5086   3.533   1.795   0.671  0.1192 -0.3678 -0.1269
  339TMC3     C 5087   3.745   1.483   0.839 -0.5102  0.1118  0.6888
  339TMC3     O 5088   3.737   1.471   0.959  0.3188  0.6565 -0.3635
  339TMC3     H 5089   3.557   1.627   0.957  0.0472  1.7374  1.6205
  339TMC3    H1 5090   3.807   1.598   0.608 -0.0216  1.3713 -0.9960
  339TMC3    H2 5091   3.480   1.877   0.623  0.5412  1.6029  2.8334
  339TMC3    C7 5092   3.689   1.794   0.475 -0.2382 -0.8411  0.3669
  339TMC3    C8 5093   3.397   1.806   0.868 -0.1743  0.2955 -0.0334
  339TMC3    O1 5094   3.672   1.914   0.454  0.1330 -0.2862 -0.2411
  339TMC3    O2 5095   3.307   1.854   0.801  0.4722 -0.8204 -0.3357
  340MPD2     C 5096   0.348   2.629  10.086  0.0516  0.3985 -0.0706
  340MPD2    C1 5097   0.347   2.755  10.032  0.8040  0.1943 -0.0309
  340MPD2    C2 5098   0.434   2.852  10.071 -0.5788  0.1933 -0.2791
  340MPD2    C3 5099   0.528   2.824  10.177 -0.1223 -0.2866  0.3827
  340MPD2    C4 5100   0.529   2.694  10.230  0.2280 -0.3233 -0.8784
  340MPD2    C5 5101   0.450   2.596  10.175  0.1323  0.7599  0.3891
  340MPD2     H 5102   0.419   2.954  10.038  0.0532 -0.0402 -1.2760
  340MPD2    H1 5103   0.598   2.671  10.311 -0.3082  0.3119 -0.2368
  340MPD2    H2 5104   0.278   2.547  10.072  0.2426  0.2547 -0.1839
  340MPD2    H3 5105   0.451   2.500  10.225  0.8529  1.8992  2.5370
  340MPD2     N 5106   0.617   2.921  10.221 -0.0673  0.1526  0.4786
  340MPD2    H5 5107   0.680   2.886  10.292  1.4957 -0.4297 -1.1868
  340MPD2    N1 5108   0.258   2.773   9.923  0.3617 -0.3871  0.0769
  340MPD2    H7 5109   0.202   2.690   9.903 -1.3974  0.5077  1.2157
  341TMC3    C1 5110   0.153   2.873   9.738 -0.8567 -1.0696 -0.6358
  341TMC3    C2 5111   0.036   2.797   9.764 -0.5710  0.6531 -0.2220
  341TMC3    C3 5112   4.667   2.787   9.662  0.2941 -0.0418 -0.3358
  341TMC3    C4 5113   0.168   2.949   9.625  0.5230 -0.0216  0.2566
  341TMC3    C5 5114   0.066   2.944   9.537  0.5817  0.1448 -0.3980
  341TMC3    C6 5115   4.670   2.871   9.552 -0.4751 -0.6775 -0.1085
  341TMC3     C 5116   0.254   2.889   9.838  0.5503  0.0648  0.7015
  341TMC3     O 5117   0.318   2.993   9.833 -0.6562 -0.6002 -0.0224
  341TMC3     H 5118   0.028   2.741   9.856  0.0634 -1.7499 -1.6309
  341TMC3    H1 5119   0.260   3.007   9.621  0.2624  0.4268  0.7715
  341TMC3    H2 5120   4.592   2.873   9.477 -1.2785 -1.1013  0.7154
  341TMC3    C7 5121   0.087   3.023   9.421 -1.2370 -0.1634  0.9411
  341TMC3    C8 5122   4.572   2.681   9.679 -0.7301  0.1376  0.1185
  341TMC3    O1 5123   0.200   3.034   9.379 -0.1311  0.5747 -0.5278
  341TMC3    O2 5124   4.584   2.625   9.784  0.5671 -0.0524  0.2827
  342MPD2     C 5125   2.504   1.809  17.453  0.2311  0.3591 -0.0497
  342MPD2    C1 5126   2.636   1.815  17.413  0.2604 -0.9679  0.5621
  342MPD2    C2 5127   2.697   1.937  17.433 -0.4134  0.1716  0.3480
  342MPD2    C3 5128   2.636   2.046  17.488 -0.5135  0.1041 -0.1305
  342MPD2    C4 5129   2.507   2.039  17.527  0.0065  0.6004  0.1187
  342MPD2    C5 5130   2.448   1.915  17.517 -0.2331  0.5994 -0.4759
  342MPD2     H 5131   2.799   1.949  17.398 -0.8796  0.5058 -0.8859
  342MPD2    H1 5132   2.466   2.121  17.584 -1.1664  1.7358 -2.3470
  342MPD2    H2 5133   2.441   1.721  17.448  1.2928 -0.4500  1.1169
  342MPD2    H3 5134   2.347   1.901  17.551  0.2445  0.5076  0.9113
  342MPD2     N 5135   2.695   2.172  17.518  0.4438 -0.4359  0.1088
  342MPD2    H5 5136   2.636   2.243  17.559  0.0314 -1.4493  1.2910
  342MPD2    N1 5137   2.685   1.705  17.347  0.0051 -0.1496 -0.3689
  342MPD2    H7 5138   2.626   1.624  17.332  1.7228 -1.2802 -0.9952
  343TMC3    C1 5139   2.830   1.557  17.226  0.2805 -0.1321 -0.3123
  343TMC3    C2 5140   2.935   1.549  17.135  0.1920  0.1993 -0.3305
  343TMC3    C3 5141   2.985   1.430  17.095 -0.4544  0.7561 -0.2325
  343TMC3    C4 5142   2.768   1.442  17.274 -0.7867 -0.5599  0.0346
  343TMC3    C5 5143   2.809   1.322  17.220 -0.3627  0.0065  0.6487
  343TMC3    C6 5144   2.923   1.318  17.145  0.0504  0.3109 -0.9821
  343TMC3     C 5145   2.805   1.692  17.287  0.0956 -0.7367 -0.9663
  343TMC3     O 5146   2.898   1.770  17.285  0.4803  0.0181  0.4388
  343TMC3     H 5147   2.982   1.644  17.110 -1.6636  1.3943  0.7256
  343TMC3    H1 5148   2.692   1.433  17.351 -0.3638  0.2523  0.5594
  343TMC3    H2 5149   2.966   1.222  17.118  1.6348  0.7224  0.0633
  343TMC3    C7 5150   2.808   1.219  17.319  0.0257 -1.0097 -0.0066
  343TMC3    C8 5151   3.126   1.419  17.066 -0.1572 -0.1519 -0.4552
  343TMC3    O1 5152   2.907   1.210  17.387 -0.3681 -0.0438  0.6118
  343TMC3    O2 5153   3.184   1.523  17.088 -0.0477 -0.4422  0.0906
  344MPD2     C 5154   3.014   1.580  10.899 -0.2502 -0.4112  0.0356
  344MPD2    C1 5155   2.956   1.564  10.777 -1.0087 -0.2461  0.1941
  344MPD2    C2 5156   3.020   1.625  10.672 -0.0432 -0.4632 -0.1240
  344MPD2    C3 5157   3.133   1.703  10.697 -0.5059 -0.3219 -0.4205
  344MPD2    C4 5158   3.182   1.716  10.819  0.1450 -0.5958 -0.3870
  344MPD2    C5 5159   3.117   1.663  10.925  0.3024 -0.6015  0.2745
  344MPD2     H 5160   2.977   1.620  10.572 -0.4086 -2.8069  0.1655
  344MPD2    H1 5161   3.277   1.763  10.844 -0.8817 -0.7000  3.6641
  344MPD2    H2 5162   2.980   1.529  10.989 -3.1352 -1.0711 -1.4452
  344MPD2    H3 5163   3.161   1.664  11.024 -0.8711 -0.7058  0.7941
  344MPD2     N 5164   3.215   1.763  10.599 -0.3498 -0.1660  0.0018
  344MPD2    H5 5165   3.284   1.829  10.634  0.2681 -0.2735 -1.0109
  344MPD2    N1 5166   2.841   1.484  10.764  0.8542  0.2254  0.2340
  344MPD2    H7 5167   2.801   1.487  10.671  0.7585  2.0151  0.3310
  345TMC3    C1 5168   3.312   1.825  10.394 -0.3493  1.0573 -0.6463
  345TMC3    C2 5169   3.425   1.853  10.475 -0.4235  0.2024  0.0585
  345TMC3    C3 5170   3.501   1.960  10.448  0.1650  0.5832 -0.2958
  345TMC3    C4 5171   3.289   1.898  10.284 -0.2270  0.3137  0.6277
  345TMC3    C5 5172   3.367   2.012  10.267  0.5000 -0.8291  0.6349
  345TMC3    C6 5173   3.475   2.047  10.345  0.9353 -0.4451  0.5813
  345TMC3     C 5174   3.194   1.768  10.466  0.3829  0.9357  0.1905
  345TMC3     O 5175   3.099   1.734  10.401  0.0210 -0.3405  0.1075
  345TMC3     H 5176   3.437   1.795  10.566 -1.4141  0.6059  0.4537
  345TMC3    H1 5177   3.199   1.875  10.227 -0.1841  0.4938  0.4862
  345TMC3    H2 5178   3.534   2.137  10.329 -2.2143  1.6314  0.7426
  345TMC3    C7 5179   3.371   2.086  10.144 -0.5945 -0.1436 -0.0424
  345TMC3    C8 5180   3.552   2.016  10.577  0.8488 -0.6713 -0.1155
  345TMC3    O1 5181   3.440   2.187  10.137 -0.2784 -0.0009 -0.1490
  345TMC3    O2 5182   3.482   1.980  10.677 -0.0373  0.1812 -0.4730
  346MPD2     C 5183   3.540   3.082  13.974 -0.3987 -0.1592 -0.9607
  346MPD2    C1 5184   3.651   3.142  14.020 -0.6178  0.2931  0.2568
  346MPD2    C2 5185   3.645   3.213  14.138 -0.2250  0.1169  0.2540
  346MPD2    C3 5186   3.532   3.218  14.214 -0.1064  1.1112  0.2616
  346MPD2    C4 5187   3.423   3.157  14.156  0.1251  0.5540  0.1208
  346MPD2    C5 5188   3.425   3.093  14.035 -0.1232  0.3493  0.8149
  346MPD2     H 5189   3.731   3.269  14.175 -0.0368 -1.5563  2.3324
  346MPD2    H1 5190   3.327   3.155  14.206  0.4050  1.7115  0.6991
  346MPD2    H2 5191   3.546   3.025  13.882 -0.1931 -0.8372 -0.5285
  346MPD2    H3 5192   3.337   3.048  13.990 -0.7214  0.3308  1.9893
  346MPD2     N 5193   3.531   3.298  14.328 -0.0139  0.6475  0.0657
  346MPD2    H5 5194   3.616   3.335  14.369  1.2765 -0.1095 -1.9337
  346MPD2    N1 5195   3.762   3.125  13.935 -0.4161 -0.1237 -0.3444
  346MPD2    H7 5196   3.746   3.068  13.853  2.1045  0.0845 -0.9931
  347TMC3    C1 5197   3.464   3.428  14.505 -0.0730 -0.1467 -0.6877
  347TMC3    C2 5198   3.587   3.411  14.566  0.5357  0.4899 -0.1493
  347TMC3    C3 5199   3.603   3.459  14.691  1.0117  0.9629 -0.2341
  347TMC3    C4 5200   3.357   3.488  14.572  0.0389 -0.5711  0.1736
  347TMC3    C5 5201   3.375   3.519  14.707 -0.7717 -0.3201 -0.3646
  347TMC3    C6 5202   3.501   3.514  14.768 -0.3067  0.0786 -0.6289
  347TMC3     C 5203   3.421   3.349  14.387  0.2149  0.3416 -0.8639
  347TMC3     O 5204   3.299   3.342  14.363  0.1670 -0.1471  0.4774
  347TMC3     H 5205   3.661   3.343  14.525  1.1040  1.5210 -0.8589
  347TMC3    H1 5206   3.265   3.500  14.515 -0.0747  2.5717  0.9865
  347TMC3    H2 5207   3.517   3.564  14.863 -2.2266 -1.1905  0.3624
  347TMC3    C7 5208   3.258   3.502  14.789 -0.1800  0.4623  0.2391
  347TMC3    C8 5209   3.684   3.371  14.774  0.5410  0.3690  0.1862
  347TMC3    O1 5210   3.277   3.496  14.911 -0.6452 -0.7992  0.3153
  347TMC3    O2 5211   3.743   3.282  14.714 -0.0716 -0.0620  0.3132
  348MPD2     C 5212   1.944   2.714  12.236  0.2490 -0.2957 -0.7959
  348MPD2    C1 5213   2.081   2.702  12.258 -0.5354 -0.7370 -0.4575
  348MPD2    C2 5214   2.161   2.712  12.144  0.1496  0.0888  0.0015
  348MPD2    C3 5215   2.109   2.717  12.018  0.5145  0.1824 -0.1313
  348MPD2    C4 5216   1.967   2.725  12.002 -0.1153 -0.6127 -0.6626
  348MPD2    C5 5217   1.892   2.744  12.111 -0.2294  0.1338 -0.3738
  348MPD2     H 5218   2.267   2.711  12.166 -0.3445  1.0757  2.4021
  348MPD2    H1 5219   1.918   2.747  11.908  1.0430  2.2627 -0.5901
  348MPD2    H2 5220   1.869   2.714  12.315  1.3027 -0.5929  0.2111
  348MPD2    H3 5221   1.784   2.743  12.101 -0.1909 -0.3077 -0.7618
  348MPD2     N 5222   2.196   2.726  11.910 -0.8637 -0.8970  0.0788
  348MPD2    H5 5223   2.293   2.710  11.937 -0.5602 -1.4283 -1.3149
  348MPD2    N1 5224   2.139   2.697  12.384 -0.4903  0.4428 -0.4242
  348MPD2    H7 5225   2.240   2.704  12.381 -0.6167  1.9414 -1.2890
  349TMC3    C1 5226   2.150   2.642  12.618  0.1412  0.4368 -0.5671
  349TMC3    C2 5227   2.082   2.563  12.711 -0.6147  0.1336 -0.0934
  349TMC3    C3 5228   2.146   2.451  12.766 -0.1657 -0.3337  0.1814
  349TMC3    C4 5229   2.285   2.629  12.606  0.6830  0.1393  0.1739
  349TMC3    C5 5230   2.344   2.524  12.672  0.2241  0.1078  0.5391
  349TMC3    C6 5231   2.278   2.439  12.753 -0.6667 -0.7248 -0.1219
  349TMC3     C 5232   2.068   2.675  12.499  0.2713  0.0454 -0.3553
  349TMC3     O 5233   1.946   2.658  12.514 -0.0226 -0.2720  0.4390
  349TMC3     H 5234   1.976   2.575  12.729 -0.4279  0.7217  0.6533
  349TMC3    H1 5235   2.334   2.691  12.532 -0.1977  2.8439  1.8357
  349TMC3    H2 5236   2.338   2.357  12.789 -4.6143 -3.7767 -0.4938
  349TMC3    C7 5237   2.420   2.451  12.577 -0.2044 -0.1603 -0.1405
  349TMC3    C8 5238   2.079   2.348  12.825  0.2813  0.2893  0.1435
  349TMC3    O1 5239   2.531   2.423  12.614 -0.0261 -0.6405 -0.3768
  349TMC3    O2 5240   2.137   2.244  12.843 -0.0511  0.0612 -0.2588
  350MPD2     C 5241   1.037   1.033  10.120 -0.0353 -1.0488 -0.6653
  350MPD2    C1 5242   1.028   0.921  10.200  0.2120  0.1787 -0.2213
  350MPD2    C2 5243   1.101   0.917  10.319 -0.5880 -0.3042 -1.0619
  350MPD2    C3 5244   1.179   1.023  10.361  0.1669  0.3272  0.2170
  350MPD2    C4 5245   1.184   1.134  10.290 -0.4949  0.2372  0.8049
  350MPD2    C5 5246   1.125   1.136  10.166 -0.3220 -0.0349 -0.2168
  350MPD2     H 5247   1.107   0.819  10.364  1.7790  0.8046  1.0015
  350MPD2    H1 5248   1.249   1.209  10.333 -3.7192  2.0248  2.5427
  350MPD2    H2 5249   0.983   1.050  10.028  0.3569  2.3216 -0.2783
  350MPD2    H3 5250   1.130   1.225  10.104 -1.0975 -0.9003 -1.5242
  350MPD2     N 5251   1.233   1.005  10.492  0.4995  0.1870  0.7006
  350MPD2    H5 5252   1.193   0.929  10.545  1.6442  0.7233  2.3506
  350MPD2    N1 5253   0.960   0.806  10.164 -0.3574 -0.2626 -0.8668
  350MPD2    H7 5254   0.969   0.730  10.230 -1.4804  0.1922 -0.1942
  351TMC3    C1 5255   0.872   0.640  10.022 -0.3546 -0.0949 -0.0413
  351TMC3    C2 5256   0.929   0.557  10.112  0.3103  0.6188  0.4546
  351TMC3    C3 5257   0.853   0.460  10.163  0.1840  0.0280  0.0494
  351TMC3    C4 5258   0.757   0.614   9.954  0.3650 -0.0083 -0.0001
  351TMC3    C5 5259   0.688   0.504  10.007  0.6071  0.6549 -0.1924
  351TMC3    C6 5260   0.729   0.438  10.120 -0.5030 -0.2101  0.3130
  351TMC3     C 5261   0.891   0.785  10.044  0.3791  0.7931  0.0203
  351TMC3     O 5262   0.850   0.861   9.960  0.3201 -0.2529 -1.0210
  351TMC3     H 5263   1.030   0.569  10.150  1.0937 -1.6917 -0.8791
  351TMC3    H1 5264   0.712   0.692   9.893 -2.6565 -0.5292  1.5713
  351TMC3    H2 5265   0.674   0.351  10.155 -3.6148  2.0605  1.0088
  351TMC3    C7 5266   0.553   0.478   9.958 -0.3221  0.3004  0.9487
  351TMC3    C8 5267   0.911   0.357  10.249 -0.0298 -0.0621  0.0037
  351TMC3    O1 5268   0.483   0.437  10.043  0.2600  0.3832  0.5297
  351TMC3    O2 5269   0.836   0.290  10.322  0.5856 -0.7380 -0.2511
  352MPD2     C 5270   4.224   2.699   1.501  0.3260 -0.1052  0.2737
  352MPD2    C1 5271   4.091   2.663   1.460  0.1547  0.6406 -0.9882
  352MPD2    C2 5272   4.016   2.566   1.523  0.4860  0.6662  0.1918
  352MPD2    C3 5273   4.083   2.482   1.613 -0.0750 -0.2096  0.0214
  352MPD2    C4 5274   4.213   2.509   1.643 -0.6659  0.8967  0.0368
  352MPD2    C5 5275   4.285   2.615   1.590  0.1148  0.3215 -0.2183
  352MPD2     H 5276   3.912   2.553   1.496  1.3752  0.7524 -3.3529
  352MPD2    H1 5277   4.274   2.443   1.703  0.3815 -0.2338 -2.2709
  352MPD2    H2 5278   4.279   2.781   1.456 -0.2279  0.9291  1.4841
  352MPD2    H3 5279   4.390   2.623   1.616 -0.0428 -2.4510  1.3550
  352MPD2     N 5280   4.031   2.362   1.668 -0.5133 -0.5109  0.5932
  352MPD2    H5 5281   4.099   2.291   1.695  1.4961  0.8704 -0.7490
  352MPD2    N1 5282   4.042   2.732   1.345 -0.0846  0.0596 -1.2600
  352MPD2    H7 5283   4.108   2.799   1.308 -1.0629  0.1944 -2.7565
  353TMC3    C1 5284   3.862   2.192   1.690 -0.0091 -0.1485 -0.2439
  353TMC3    C2 5285   3.963   2.113   1.727  0.2218  0.3713  0.2584
  353TMC3    C3 5286   3.965   1.980   1.681  0.3450 -0.4260 -0.1093
  353TMC3    C4 5287   3.756   2.157   1.607  0.2437 -0.4842 -0.3218
  353TMC3    C5 5288   3.767   2.027   1.552  0.4049  0.3802  0.3807
  353TMC3    C6 5289   3.871   1.939   1.589 -0.6355 -0.3148  0.2580
  353TMC3     C 5290   3.894   2.339   1.675  0.1232 -0.2129 -0.1951
  353TMC3     O 5291   3.805   2.414   1.642 -0.3717 -0.1606  0.8643
  353TMC3     H 5292   4.038   2.151   1.796  0.1946  1.0806 -0.1051
  353TMC3    H1 5293   3.678   2.229   1.587  1.7716  0.6192 -2.3029
  353TMC3    H2 5294   3.885   1.853   1.524  0.3011  1.6829 -2.1816
  353TMC3    C7 5295   3.725   2.013   1.417  0.0226 -0.6858 -0.4106
  353TMC3    C8 5296   4.065   1.884   1.734 -0.3023  0.3678 -0.3887
  353TMC3    O1 5297   3.781   1.931   1.346 -0.6141  0.3976  0.4900
  353TMC3    O2 5298   4.147   1.935   1.808 -0.0592 -0.1846 -0.0166
  354TMC3    C1 5299   1.442   3.907  13.558 -0.0135  0.5882  0.5159
  354TMC3    C2 5300   1.371   3.999  13.483  0.7075 -0.6492 -0.6742
  354TMC3    C3 5301   1.392   4.003  13.349 -0.0820 -0.5830 -0.3547
  354TMC3    C4 5302   1.525   3.815  13.498 -0.5112 -0.1602  0.0102
  354TMC3    C5 5303   1.540   3.826  13.363  0.6216 -0.2482  0.3460
  354TMC3    C6 5304   1.474   3.912  13.286  0.0936  0.3323  0.1833
  354TMC3     C 5305   1.401   3.875  13.693  0.3572 -0.5665  0.0248
  354TMC3     O 5306   1.419   3.764  13.740  0.6465 -0.5472 -0.6246
  354TMC3     H 5307   1.314   4.083  13.520  1.0606 -2.0785  3.1416
  354TMC3    H1 5308   1.590   3.754  13.561 -1.5803 -1.7333 -0.3990
  354TMC3    H2 5309   1.475   3.907  13.178 -0.0289 -0.0507  0.2006
  354TMC3    C7 5310   1.634   3.732  13.303 -0.2836  0.5149 -0.0352
  354TMC3    C8 5311   1.409   4.131  13.299  0.2546  0.6892  0.2986
  354TMC3    O1 5312   1.691   3.653  13.375  0.0015  0.2272 -0.5140
  354TMC3    O2 5313   1.309   4.202  13.295  0.0528  0.3239 -0.0985
  355MPD2     C 5314   1.315   4.593  12.298  0.3952  0.1908 -0.0939
  355MPD2    C1 5315   1.304   4.658  12.175  0.4102  0.4074 -0.2200
  355MPD2    C2 5316   1.421   4.702  12.114 -0.2511 -0.1411 -0.7809
  355MPD2    C3 5317   1.543   4.692  12.172  0.6993 -0.0036  0.2363
  355MPD2    C4 5318   1.559   4.615  12.286 -0.4436  0.3587 -0.0629
  355MPD2    C5 5319   1.442   4.571  12.345 -0.5163 -0.4068 -0.1678
  355MPD2     H 5320   1.418   0.027  12.017  1.5425  1.5364  0.0086
  355MPD2    H1 5321   1.653   4.600  12.339 -0.9342  1.7973  1.2193
  355MPD2    H2 5322   1.234   4.546  12.353 -0.8200  0.8064 -1.3200
  355MPD2    H3 5323   1.453   4.516  12.438  1.1687 -0.4249 -0.3669
  355MPD2     N 5324   1.660   0.039  12.130  0.4559 -0.0595  0.0707
  355MPD2    H5 5325   1.745   0.015  12.180  0.0044  1.4517  1.5437
  355MPD2    N1 5326   1.176   4.671  12.115  0.2681  0.8307  0.1173
  355MPD2    H7 5327   1.107   4.603  12.148  1.4695  0.6016  2.1823
  356TMC3    C1 5328   1.768   0.224  12.030  0.1561  0.0001  0.1829
  356TMC3    C2 5329   1.759   0.314  11.926  0.7015 -0.5468  0.0238
  356TMC3    C3 5330   1.822   0.437  11.953  0.0434 -0.4532 -0.3207
  356TMC3    C4 5331   1.843   0.245  12.139 -0.4090 -0.8743 -0.9261
  356TMC3    C5 5332   1.899   0.367  12.160  0.3058  0.1824  0.0793
  356TMC3    C6 5333   1.896   0.471  12.065 -0.1088  0.8646 -0.0387
  356TMC3     C 5334   1.661   0.128  12.027  0.2117 -0.2457  0.1780
  356TMC3     O 5335   1.579   0.157  11.939  0.1383  0.2376 -0.1970
  356TMC3     H 5336   1.717   0.291  11.829  0.3494 -0.7535  0.2247
  356TMC3    H1 5337   1.849   0.176  12.222 -0.7579 -0.7719 -0.8159
  356TMC3    H2 5338   1.921   0.568  12.106 -2.3187  1.2391  0.4221
  356TMC3    C7 5339   1.941   0.403  12.297  0.0630  0.2621 -0.1023
  356TMC3    C8 5340   1.815   0.535  11.849 -0.2343 -0.7602 -0.4210
  356TMC3    O1 5341   1.907   0.326  12.384  0.0076 -0.4486  0.5848
  356TMC3    O2 5342   1.726   0.520  11.766  0.3762 -0.2720 -0.5498
  357MPD2     C 5343   1.319   0.400   1.012 -0.5629 -0.5748  0.6547
  357MPD2    C1 5344   1.363   0.317   1.107 -0.2854 -0.1368 -0.1004
  357MPD2    C2 5345   1.279   0.245   1.190  0.0086 -0.3906 -0.4440
  357MPD2    C3 5346   1.140   0.256   1.170 -0.1045  0.5884 -0.6393
  357MPD2    C4 5347   1.097   0.342   1.074  1.0315 -0.1393  0.0635
  357MPD2    C5 5348   1.184   0.417   0.998  0.5150 -0.4784  0.0730
  357MPD2     H 5349   1.321   0.175   1.261  0.7555 -0.8291 -1.3195
  357MPD2    H1 5350   0.991   0.346   1.049  1.3577 -0.2691 -1.3186
  357MPD2    H2 5351   1.380   0.472   0.957 -1.2381  1.3156  2.3741
  357MPD2    H3 5352   1.145   0.496   0.934  0.7621 -1.7031 -1.6120
  357MPD2     N 5353   1.045   0.181   1.249  0.0713 -0.1396  0.6737
  357MPD2    H5 5354   0.948   0.176   1.222  0.6447  1.4813 -1.7129
  357MPD2    N1 5355   1.502   0.318   1.142 -0.2909  0.0467 -0.0110
  357MPD2    H7 5356   1.524   0.269   1.228  0.3929  0.2611 -0.0667
  358TMC3    C1 5357   1.735   0.283   1.109 -0.5489 -0.2072  0.4774
  358TMC3    C2 5358   1.787   0.192   1.021  0.0922 -0.0412  0.6624
  358TMC3    C3 5359   1.856   0.085   1.051 -0.5351  0.5345  0.4216
  358TMC3    C4 5360   1.752   0.265   1.243 -0.0511 -0.0661  0.3438
  358TMC3    C5 5361   1.830   0.155   1.274  0.3992  0.1207  0.5443
  358TMC3    C6 5362   1.887   0.066   1.185  0.1480  0.4764 -0.2482
  358TMC3     C 5363   1.609   0.343   1.060  0.0842  0.7472  0.0900
  358TMC3     O 5364   1.604   0.365   0.938  0.8192 -0.0502  0.3003
  358TMC3     H 5365   1.754   0.197   0.918 -1.9929 -2.3084  1.2340
  358TMC3    H1 5366   1.701   0.324   1.318 -1.1319  0.1707 -0.5876
  358TMC3    H2 5367   1.896   4.687   1.218 -1.9781  0.3755  0.0145
  358TMC3    C7 5368   1.884   0.152   1.409 -0.4632 -0.6731 -0.9554
  358TMC3    C8 5369   1.841   4.696   0.971 -0.4552 -0.5388  0.5487
  358TMC3    O1 5370   1.820   0.220   1.484 -0.1019 -0.1326  0.5057
  358TMC3    O2 5371   1.759   4.692   0.882 -0.6007 -0.2497 -0.9074
  359MPD2     C 5372   1.754   3.390  12.498  0.2033  0.1452  0.6321
  359MPD2    C1 5373   1.731   3.345  12.372 -0.3860  0.4328 -0.6169
  359MPD2    C2 5374   1.608   3.295  12.337 -0.4347  0.5110 -0.2947
  359MPD2    C3 5375   1.509   3.271  12.433 -0.4558  0.1178  0.0909
  359MPD2    C4 5376   1.537   3.302  12.559 -0.1480 -0.2375 -0.1120
  359MPD2    C5 5377   1.658   3.363  12.595  0.3494  0.8947  0.0954
  359MPD2     H 5378   1.589   3.271  12.233 -1.3781  1.2572 -0.2936
  359MPD2    H1 5379   1.460   3.286  12.634 -0.0633  1.4332  0.3297
  359MPD2    H2 5380   1.834   3.458  12.527  2.3092 -2.1203  0.1997
  359MPD2    H3 5381   1.683   3.401  12.693  0.2122  0.3563  0.3403
  359MPD2     N 5382   1.386   3.212  12.400  0.2997  0.1391  0.2649
  359MPD2    H5 5383   1.324   3.195  12.479 -3.5166 -1.7489 -3.0967
  359MPD2    N1 5384   1.815   3.376  12.265  0.0929 -0.0321 -0.4896
  359MPD2    H7 5385   1.788   3.353  12.170  0.1312 -0.6205 -0.3569
  360TMC3    C1 5386   2.028   3.427  12.166  0.6773 -0.1686  0.1953
  360TMC3    C2 5387   2.149   3.490  12.187 -0.4318  0.2436 -0.7158
  360TMC3    C3 5388   2.214   3.556  12.086  0.6651  0.0097  0.1790
  360TMC3    C4 5389   1.980   3.420  12.037 -0.3567 -0.2653  0.0161
  360TMC3    C5 5390   2.055   3.464  11.936  0.5664  0.3050  0.2963
  360TMC3    C6 5391   2.171   3.538  11.953 -0.2353  0.3383  0.1652
  360TMC3     C 5392   1.946   3.418  12.287  0.4543  0.0176 -0.6670
  360TMC3     O 5393   2.011   3.443  12.386 -0.5563 -0.0435  0.4383
  360TMC3     H 5394   2.187   3.503  12.288  0.4778  0.9537 -1.1509
  360TMC3    H1 5395   1.878   3.393  12.014 -0.1717 -1.0758  0.1383
  360TMC3    H2 5396   2.212   3.599  11.873 -1.0413  0.8825  0.1636
  360TMC3    C7 5397   1.998   3.467  11.807 -0.9362  0.5073 -0.0211
  360TMC3    C8 5398   2.335   3.625  12.117 -0.4811  0.5503  0.1083
  360TMC3    O1 5399   2.032   3.572  11.756  0.7501  0.4715 -0.2684
  360TMC3    O2 5400   2.363   3.636  12.236 -0.5785  0.4386 -0.2349
  361MPD2     C 5401   3.282   2.173  16.649 -0.0962 -0.0575  0.5852
  361MPD2    C1 5402   3.323   2.279  16.730 -0.4797 -0.1307  0.3173
  361MPD2    C2 5403   3.459   2.310  16.736  0.4003 -0.2508 -0.0697
  361MPD2    C3 5404   3.549   2.231  16.663  0.6272 -0.5229  0.2980
  361MPD2    C4 5405   3.507   2.131  16.578 -0.0674 -0.3419  0.1568
  361MPD2    C5 5406   3.375   2.101  16.575 -0.0029 -0.7788 -0.9518
  361MPD2     H 5407   3.493   2.399  16.787  0.7043 -0.4688  0.1134
  361MPD2    H1 5408   3.577   2.066  16.527  1.3113  0.4793  1.0102
  361MPD2    H2 5409   3.178   2.142  16.654 -0.4462  1.1641  1.0670
  361MPD2    H3 5410   3.348   2.013  16.517 -1.0591  0.0680 -1.7267
  361MPD2     N 5411   3.686   2.244  16.679  0.1099  0.9116 -0.5594
  361MPD2    H5 5412   3.743   2.170  16.640 -0.1739  0.3225  0.1697
  361MPD2    N1 5413   3.224   2.349  16.803 -0.8350 -0.5248  0.1266
  361MPD2    H7 5414   3.241   2.447  16.825 -1.0782  0.1737 -2.7245
  362TMC3    C1 5415   3.013   2.395  16.884 -0.7893 -0.2078 -0.7162
  362TMC3    C2 5416   2.924   2.369  16.985 -0.3716 -0.3210 -0.0256
  362TMC3    C3 5417   2.825   2.455  17.004 -0.4758  0.2343  0.5469
  362TMC3    C4 5418   2.994   2.505  16.802 -1.0639  0.3016  0.4873
  362TMC3    C5 5419   2.878   2.576  16.818 -0.2678  0.1663  0.1893
  362TMC3    C6 5420   2.804   2.560  16.927  0.7124 -1.1275  0.2384
  362TMC3     C 5421   3.103   2.295  16.842  0.2492 -0.1373  0.7423
  362TMC3     O 5422   3.061   2.182  16.837  0.0341 -0.1654  0.4854
  362TMC3     H 5423   2.931   2.279  17.045  0.7676 -0.4985 -0.4109
  362TMC3    H1 5424   3.066   2.535  16.727 -1.3837  0.0723  0.0904
  362TMC3    H2 5425   2.720   2.626  16.943  0.6577 -1.7513  2.5728
  362TMC3    C7 5426   2.838   2.688  16.735  0.7144  0.3744  0.2986
  362TMC3    C8 5427   2.740   2.435  17.119  0.2357 -0.6964  0.6927
  362TMC3    O1 5428   2.926   2.736  16.663 -0.3554  0.5977  0.2349
  362TMC3    O2 5429   2.718   2.325  17.162  0.0759  0.0433 -0.2896
  363TMC3    C1 5430   2.562   0.634  10.038 -0.6614  0.0375 -0.0667
  363TMC3    C2 5431   2.609   0.515  10.096  0.5448 -0.2747 -0.1688
  363TMC3    C3 5432   2.521   0.442  10.172 -0.4332 -0.2106 -0.4851
  363TMC3    C4 5433   2.434   0.672  10.055 -0.3410 -0.6462 -0.3310
  363TMC3    C5 5434   2.351   0.588  10.110  0.2116  0.1509 -0.9540
  363TMC3    C6 5435   2.389   0.479  10.179  0.5274 -0.3284 -0.4174
  363TMC3     C 5436   2.635   0.673   9.920 -0.2881 -0.5656  0.2719
  363TMC3     O 5437   2.714   0.593   9.870  0.3419 -0.0139  0.1512
  363TMC3     H 5438   2.712   0.492  10.072  0.4274  0.2700 -1.1752
  363TMC3    H1 5439   2.395   0.762  10.008  0.0839 -0.8042 -0.9827
  363TMC3    H2 5440   2.320   0.406  10.220  0.4807 -0.4738 -0.7562
  363TMC3    C7 5441   2.209   0.624  10.126  0.1757  0.1738 -0.4961
  363TMC3    C8 5442   2.543   0.302  10.201 -0.0374 -0.4040  0.2421
  363TMC3    O1 5443   2.143   0.548  10.191 -0.3379  0.0906 -0.4423
  363TMC3    O2 5444   2.618   0.240  10.125 -0.1938  0.9575 -0.3130
  364MPD2     C 5445   0.399   4.296  10.939  0.0736 -0.0146  0.3209
  364MPD2    C1 5446   0.469   4.285  10.823  0.4007 -0.2149 -0.7627
  364MPD2    C2 5447   0.499   4.162  10.771  0.6686  0.7432  0.4181
  364MPD2    C3 5448   0.471   4.044  10.848  0.3322  0.2759 -0.6983
  364MPD2    C4 5449   0.400   4.063  10.965  0.5051 -0.0639 -0.4508
  364MPD2    C5 5450   0.366   4.187  11.016  0.4910 -0.5046 -0.5456
  364MPD2     H 5451   0.536   4.151  10.670  0.1968 -0.7895  0.4004
  364MPD2    H1 5452   0.368   3.979  11.025 -1.4162  0.7076 -0.4005
  364MPD2    H2 5453   0.376   4.393  10.981  3.0462  0.8635 -0.0854
  364MPD2    H3 5454   0.310   4.201  11.108 -0.2731 -1.2432 -0.8946
  364MPD2     N 5455   0.508   3.917  10.812 -0.5622  0.4569  0.7522
  364MPD2    H5 5456   0.488   3.845  10.881 -0.5001 -0.6375 -0.3764
  364MPD2    N1 5457   0.491   4.406  10.745  0.1182  0.3607  0.3253
  364MPD2    H7 5458   0.459   4.491  10.790  2.2850  0.8217  1.0238
  365TMC3    C1 5459   0.584   4.543  10.573  0.4640 -0.5156 -0.0643
  365TMC3    C2 5460   0.601   4.560  10.438 -0.5741  0.3026 -0.4111
  365TMC3    C3 5461   0.619   4.690  10.395 -0.0160  0.0623  0.6504
  365TMC3    C4 5462   0.598   4.649  10.663 -0.4436  0.0016  0.1351
  365TMC3    C5 5463   0.625   0.052  10.616 -0.2424  0.1266 -0.7054
  365TMC3    C6 5464   0.634   0.080  10.481  0.2597  0.3785  0.3133
  365TMC3     C 5465   0.556   4.411  10.625 -0.0947  0.2273 -0.1719
  365TMC3     O 5466   0.573   4.321  10.541 -0.7545 -0.5677  0.7500
  365TMC3     H 5467   0.577   4.485  10.362  1.0245 -0.3956 -0.2169
  365TMC3    H1 5468   0.568   4.627  10.764  1.5130  2.1356  1.1736
  365TMC3    H2 5469   0.678   0.170  10.439  1.4831  0.1953  1.2423
  365TMC3    C7 5470   0.646   0.167  10.709 -0.0590  0.1053  1.0075
  365TMC3    C8 5471   0.674   4.706  10.256 -0.2985  0.0245  0.3194
  365TMC3    O1 5472   0.660   0.274  10.654 -0.5812  0.1183  0.7249
  365TMC3    O2 5473   0.633   0.075  10.194 -0.2243 -0.4609 -0.0251
  366MPD2     C 5474   3.826   0.668  15.248  0.5624  0.4128  0.2431
  366MPD2    C1 5475   3.942   0.730  15.230  0.7997  0.0914 -0.6442
  366MPD2    C2 5476   4.059   0.658  15.213 -0.1545 -0.2497 -0.0023
  366MPD2    C3 5477   4.056   0.523  15.209  0.3520 -0.0977  0.3804
  366MPD2    C4 5478   3.938   0.457  15.228 -0.6186  0.0567  0.1165
  366MPD2    C5 5479   3.823   0.530  15.244  0.0903 -0.0805  0.5907
  366MPD2     H 5480   4.149   0.717  15.200 -0.7464  0.6515 -0.0816
  366MPD2    H1 5481   3.923   0.350  15.221  1.7230 -0.3287  0.7394
  366MPD2    H2 5482   3.732   0.721  15.257  0.0963 -0.3571 -0.0479
  366MPD2    H3 5483   3.735   0.472  15.271 -1.2920  2.4488  1.4274
  366MPD2     N 5484   4.183   0.461  15.195 -0.3355 -0.1322 -0.6057
  366MPD2    H5 5485   4.265   0.521  15.190 -0.7893  0.4498 -0.9895
  366MPD2    N1 5486   3.961   0.863  15.259  0.1166  0.3520  0.5010
  366MPD2    H7 5487   4.056   0.894  15.276  0.5710 -1.4995  1.3558
  367TMC3    C1 5488   3.895   1.061  15.363  0.0051 -0.2735  0.7725
  367TMC3    C2 5489   3.995   1.064  15.458  0.6658 -0.6295  0.0603
  367TMC3    C3 5490   4.040   1.186  15.495  0.0023  0.5386 -0.1493
  367TMC3    C4 5491   3.825   1.181  15.343  0.3120  0.3295 -0.0110
  367TMC3    C5 5492   3.870   1.301  15.386 -0.1837  0.0189  0.9085
  367TMC3    C6 5493   3.981   1.312  15.472 -0.5114 -1.0061  0.4971
  367TMC3     C 5494   3.856   0.947  15.276 -0.3414  0.0309  0.5525
  367TMC3     O 5495   3.747   0.941  15.220 -0.9083 -0.4160  0.1744
  367TMC3     H 5496   4.041   0.973  15.494  2.3509  0.3472  0.3404
  367TMC3    H1 5497   3.744   1.180  15.271  0.3063  1.6798 -0.0285
  367TMC3    H2 5498   4.015   1.400  15.524  1.2708 -1.2385 -0.2876
  367TMC3    C7 5499   3.771   1.406  15.381 -0.5772 -0.6417 -0.9223
  367TMC3    C8 5500   4.167   1.183  15.568  0.2551 -0.3552 -0.2723
  367TMC3    O1 5501   3.656   1.380  15.377 -0.0715 -0.3253  0.2004
  367TMC3    O2 5502   4.197   1.080  15.624  0.4615 -0.3438 -0.2558
  368MPD2     C 5503   4.535   2.319  13.144 -0.2293  0.1039 -0.0338
  368MPD2    C1 5504   4.517   2.400  13.029 -0.1281  0.1576 -0.4005
  368MPD2    C2 5505   4.623   2.466  12.979  0.0596 -0.2739  0.1544
  368MPD2    C3 5506   0.025   2.453  13.036 -0.4740 -0.0741 -0.6737
  368MPD2    C4 5507   0.038   2.379  13.153 -0.3292 -0.1192  1.0490
  368MPD2    C5 5508   4.652   2.315  13.201  0.0381 -0.2239 -0.1542
  368MPD2     H 5509   4.611   2.525  12.889 -0.1756 -0.9701 -0.2706
  368MPD2    H1 5510   0.132   2.370  13.206  1.7488  0.5110 -2.5589
  368MPD2    H2 5511   4.453   2.262  13.185 -0.4813  0.4204 -0.0987
  368MPD2    H3 5512   4.655   2.261  13.295  0.0519 -2.0489 -1.2183
  368MPD2     N 5513   0.143   2.511  12.986  0.4660  0.1402 -0.4130
  368MPD2    H5 5514   0.223   2.457  13.015 -0.0502 -2.0110 -3.0023
  368MPD2    N1 5515   4.388   2.413  12.969 -0.5409 -0.0090 -0.7630
  368MPD2    H7 5516   4.315   2.354  13.009 -0.8676 -0.0570 -1.4359
  369TMC3    C1 5517   4.212   2.517  12.850 -1.0087 -0.4162  0.5969
  369TMC3    C2 5518   4.173   2.592  12.745  0.2282  0.7240 -0.5796
  369TMC3    C3 5519   4.069   2.682  12.770  0.3222 -0.8503  1.2133
  369TMC3    C4 5520   4.139   2.523  12.970  0.5909 -0.3033 -0.6564
  369TMC3    C5 5521   4.030   2.600  12.981  0.0257 -0.2589  0.0224
  369TMC3    C6 5522   3.987   2.681  12.881  0.3230  0.2225 -0.0443
  369TMC3     C 5523   4.354   2.493  12.860 -0.1553  0.1179  0.0664
  369TMC3     O 5524   4.424   2.569  12.796  0.0839 -0.6593  0.5703
  369TMC3     H 5525   4.235   2.590  12.656 -0.3534  1.5408 -0.9995
  369TMC3    H1 5526   4.170   2.454  13.047 -1.2354 -1.0480 -0.6089
  369TMC3    H2 5527   3.889   2.727  12.882  0.1840 -0.0350 -1.1685
  369TMC3    C7 5528   3.948   2.588  13.100  0.1846  0.2528  0.0373
  369TMC3    C8 5529   4.049   2.798  12.681 -0.6241  0.4480  0.5495
  369TMC3    O1 5530   3.980   2.490  13.164  0.1744  0.4041 -0.2827
  369TMC3    O2 5531   3.940   2.856  12.674 -0.0083  0.0988 -0.8822
  370TMC3    C1 5532   0.356   3.326  16.394  0.4388  0.5487 -0.3059
  370TMC3    C2 5533   0.240   3.295  16.457  0.0826  0.2927 -0.0495
  370TMC3    C3 5534   0.154   3.205  16.397  0.8989  0.3588 -0.3797
  370TMC3    C4 5535   0.390   3.277  16.267 -0.3473 -0.1358 -0.1592
  370TMC3    C5 5536   0.304   3.192  16.209 -0.3293  0.6932 -0.2546
  370TMC3    C6 5537   0.190   3.154  16.272 -0.2275 -0.0853  0.2499
  370TMC3     C 5538   0.457   3.387  16.473 -0.0916 -0.1243  0.0603
  370TMC3     O 5539   0.475   3.345  16.586  0.2294  0.2579  0.3382
  370TMC3     H 5540   0.232   3.340  16.556  1.4958  0.6275 -0.0889
  370TMC3    H1 5541   0.480   3.298  16.211 -1.5632  4.3380 -0.4826
  370TMC3    H2 5542   0.137   3.066  16.236 -0.4681  0.1126  0.1183
  370TMC3    C7 5543   0.362   3.107  16.102 -1.1583 -0.3315  0.4448
  370TMC3    C8 5544   0.069   3.131  16.489  0.2593  0.4248 -0.1546
  370TMC3    O1 5545   0.484   3.086  16.105 -0.5098  0.7079 -0.6028
  370TMC3    O2 5546   0.037   3.015  16.463  0.1373  0.1273  0.3367
  371TMC3    C1 5547   0.855   1.575  15.247  0.2682  1.2556  0.1631
  371TMC3    C2 5548   0.761   1.561  15.342  0.0242  0.9421  0.0379
  371TMC3    C3 5549   0.713   1.676  15.406 -0.7526 -0.6147 -0.3799
  371TMC3    C4 5550   0.886   1.699  15.188  0.1173  0.7353 -0.3311
  371TMC3    C5 5551   0.827   1.807  15.244  0.2651 -0.8784  0.2152
  371TMC3    C6 5552   0.747   1.796  15.358  0.4315 -0.4797 -0.7013
  371TMC3     C 5553   0.966   1.482  15.233  0.4964 -0.2207 -0.5193
  371TMC3     O 5554   1.052   1.504  15.150 -0.3449  0.1692 -0.1512
  371TMC3     H 5555   0.732   1.466  15.386  1.4954  0.1560 -0.6814
  371TMC3    H1 5556   0.971   1.715  15.123 -0.5766  0.1613 -1.3711
  371TMC3    H2 5557   0.728   1.886  15.416 -0.6728 -1.9124  1.1733
  371TMC3    C7 5558   0.880   1.935  15.214  0.5914 -0.0113 -1.3140
  371TMC3    C8 5559   0.710   1.648  15.551  0.2088 -0.3693 -0.4907
  371TMC3    O1 5560   0.891   2.004  15.317  0.1400  0.5288 -0.0502
  371TMC3    O2 5561   0.719   1.535  15.588 -0.7086 -0.2204  0.9954
  372MPD2     C 5562   0.183   2.809  13.155  0.4708 -0.1925 -0.4960
  372MPD2    C1 5563   0.300   2.801  13.226 -0.2933  0.3195  0.6517
  372MPD2    C2 5564   0.303   2.717  13.339 -0.2590  0.4691  0.0878
  372MPD2    C3 5565   0.188   2.653  13.379 -0.6887 -0.1541  0.2876
  372MPD2    C4 5566   0.069   2.671  13.309 -0.1987 -0.2953  0.2984
  372MPD2    C5 5567   0.068   2.757  13.204  0.4943  0.0522  0.2552
  372MPD2     H 5568   0.395   2.696  13.393 -2.3235 -0.4596  3.2189
  372MPD2    H1 5569   4.695   2.634  13.338 -0.2632  0.0581  0.5233
  372MPD2    H2 5570   0.180   2.875  13.069  0.1258  1.2458  0.6065
  372MPD2    H3 5571   4.699   2.786  13.156  0.2832 -1.5761 -0.3295
  372MPD2     N 5572   0.202   2.562  13.488 -0.0867  0.5760 -0.3372
  372MPD2    H5 5573   0.289   2.558  13.540  0.3917  0.4758 -1.1438
  372MPD2    N1 5574   0.418   2.880  13.195  0.2499 -0.6586 -0.4333
  372MPD2    H7 5575   0.502   2.863  13.250 -0.4965  1.3382  1.3541
  373TMC3    C1 5576   0.120   2.410  13.654 -0.2454  0.3593  0.0514
  373TMC3    C2 5577   0.026   2.408  13.751  0.1278  0.2573 -0.6446
  373TMC3    C3 5578   0.043   2.322  13.857 -0.0238  0.3105 -1.2911
  373TMC3    C4 5579   0.223   2.324  13.649  0.2148 -0.5877 -0.0880
  373TMC3    C5 5580   0.232   2.228  13.750 -0.5593  0.4130 -0.4596
  373TMC3    C6 5581   0.138   2.225  13.852 -0.0480  0.1479  0.5041
  373TMC3     C 5582   0.087   2.490  13.537 -0.5119 -0.4110  0.0610
  373TMC3     O 5583   4.689   2.498  13.512 -0.0234 -0.4825  0.0576
  373TMC3     H 5584   4.669   2.480  13.758 -0.9352 -1.0418  0.2898
  373TMC3    H1 5585   0.282   2.318  13.559 -0.1124  0.4486 -0.3627
  373TMC3    H2 5586   0.146   2.151  13.930  2.1987 -1.7490 -1.5184
  373TMC3    C7 5587   0.301   2.107  13.714 -0.7884  0.5576 -0.4425
  373TMC3    C8 5588   0.052   2.404  13.979  0.2173 -0.8424 -0.4443
  373TMC3    O1 5589   0.307   2.079  13.598  0.8990 -0.3612  0.0990
  373TMC3    O2 5590   0.038   2.528  13.979  0.6351 -0.3165 -0.4609
  374TMC3    C1 5591   1.639   2.737   9.551  0.3229 -0.5035 -0.2458
  374TMC3    C2 5592   1.648   2.840   9.647  0.5413  0.9717 -0.5774
  374TMC3    C3 5593   1.672   2.962   9.593  0.1716  0.4859  0.1839
  374TMC3    C4 5594   1.649   2.761   9.415  0.1531  0.2107  0.0918
  374TMC3    C5 5595   1.670   2.883   9.369 -0.7813 -0.3438 -0.8153
  374TMC3    C6 5596   1.678   2.985   9.459  0.1560 -0.7232 -0.3367
  374TMC3     C 5597   1.599   2.609   9.599 -0.1758 -0.1955 -0.3676
  374TMC3     O 5598   1.567   2.534   9.509 -0.0901  0.4412  0.1575
  374TMC3     H 5599   1.594   2.827   9.740  3.1887  0.8256  0.9431
  374TMC3    H1 5600   1.644   2.672   9.352 -0.2483  0.8118 -0.7251
  374TMC3    H2 5601   1.718   3.081   9.430 -0.7658 -0.4354 -0.6700
  374TMC3    C7 5602   1.680   2.898   9.222 -0.1414 -0.1072  0.0516
  374TMC3    C8 5603   1.683   3.081   9.672 -0.1957  0.1415  0.2832
  374TMC3    O1 5604   1.682   2.797   9.153 -0.4161 -0.2657  0.2225
  374TMC3    O2 5605   1.653   3.185   9.619  0.5439 -0.0595 -0.4245
  375MPD2     C 5606   1.593   3.802  17.064 -0.0032  0.2381  0.2648
  375MPD2    C1 5607   1.514   3.688  17.070 -0.4527 -0.0039  0.4611
  375MPD2    C2 5608   1.520   3.588  16.972 -0.2600 -0.3801 -0.3768
  375MPD2    C3 5609   1.618   3.597  16.876  0.5483 -0.7262 -0.2193
  375MPD2    C4 5610   1.703   3.704  16.878  0.1756 -0.7289  0.3584
  375MPD2    C5 5611   1.686   3.805  16.966 -0.4565  0.5650  0.5796
  375MPD2     H 5612   1.461   3.498  16.980 -2.2400  0.9007 -0.6859
  375MPD2    H1 5613   1.771   3.719  16.795 -0.2984 -0.1935  0.0659
  375MPD2    H2 5614   1.571   3.893  17.118  1.2522  0.6060  0.1574
  375MPD2    H3 5615   1.737   3.901  16.958 -2.2803  1.4420 -0.3355
  375MPD2     N 5616   1.629   3.504  16.768 -0.1509 -0.3838  0.0457
  375MPD2    H5 5617   1.716   3.509  16.716  1.5214 -0.8898  2.7731
  375MPD2    N1 5618   1.398   3.683  17.156  0.3008 -0.3664  0.5365
  375MPD2    H7 5619   1.329   3.615  17.126  0.1396  0.7281 -1.5474
  376TMC3    C1 5620   1.573   3.341  16.601  0.3410 -0.6809  0.0708
  376TMC3    C2 5621   1.692   3.281  16.602 -0.0226 -0.2270  0.0908
  376TMC3    C3 5622   1.731   3.222  16.486  0.2536  0.3068  0.2838
  376TMC3    C4 5623   1.474   3.326  16.504 -0.3022  0.5017 -0.3219
  376TMC3    C5 5624   1.516   3.279  16.386  0.1673  0.1058  0.0958
  376TMC3    C6 5625   1.646   3.230  16.374 -0.0728 -0.2728 -0.4488
  376TMC3     C 5626   1.533   3.419  16.719  0.2312  0.1310  0.0045
  376TMC3     O 5627   1.416   3.403  16.766  0.0357 -0.4231 -0.5500
  376TMC3     H 5628   1.760   3.300  16.684  0.0089  0.5680 -0.1175
  376TMC3    H1 5629   1.375   3.370  16.510 -0.8975 -0.4800 -3.0097
  376TMC3    H2 5630   1.687   3.181  16.287  2.2226 -0.9663  1.0087
  376TMC3    C7 5631   1.438   3.306  16.265 -0.0732  0.9679  0.0788
  376TMC3    C8 5632   1.872   3.222  16.461  0.4567  0.3931 -0.0388
  376TMC3    O1 5633   1.349   3.394  16.264 -0.3523  0.6081  0.3470
  376TMC3    O2 5634   1.903   3.259  16.346 -0.3685 -0.3225  0.3062
  377MPD2     C 5635   3.683   2.837  12.362  0.3818 -0.1787  0.4672
  377MPD2    C1 5636   3.762   2.732  12.409  0.4655 -0.1418  0.0165
  377MPD2    C2 5637   3.732   2.681  12.536  0.6201  0.5019 -0.3058
  377MPD2    C3 5638   3.627   2.737  12.617 -0.4050  0.0514 -0.5357
  377MPD2    C4 5639   3.549   2.834  12.565 -0.7018 -0.2635  0.7087
  377MPD2    C5 5640   3.578   2.883  12.437 -0.0172 -0.5687 -0.6426
  377MPD2     H 5641   3.782   2.598  12.585 -0.7667 -0.7361 -0.9935
  377MPD2    H1 5642   3.461   2.883  12.608 -1.6620 -3.3030  2.2552
  377MPD2    H2 5643   3.693   2.872  12.260 -0.3835 -0.4957  0.2821
  377MPD2    H3 5644   3.508   2.958  12.403  1.6491  0.7844 -1.0761
  377MPD2     N 5645   3.594   2.696  12.748  0.0764 -0.0287  0.6918
  377MPD2    H5 5646   3.520   2.750  12.793 -0.6649  0.8699 -1.5783
  377MPD2    N1 5647   3.881   2.696  12.341  0.0022  0.2962  0.3825
  377MPD2    H7 5648   3.904   2.742  12.254  2.1780  1.5875  1.6563
  378TMC3    C1 5649   4.243   2.678  12.161  0.2011 -0.4904 -0.1199
  378TMC3    C2 5650   4.118   2.681  12.205 -0.5750 -1.1703  0.6280
  378TMC3    C3 5651   4.093   2.608  12.324  0.0665  0.6322 -0.0956
  378TMC3    C4 5652   4.346   2.619  12.227  0.4910 -0.6182  0.3974
  378TMC3    C5 5653   4.321   2.546  12.338 -0.2061 -0.4253  0.2624
  378TMC3    C6 5654   4.197   2.533  12.379 -0.0008 -0.4002 -0.1430
  378TMC3     C 5655   4.268   2.765  12.048  0.1962 -0.0071  0.8324
  378TMC3     O 5656   4.173   2.839  12.030  0.2588 -0.0037  0.2587
  378TMC3     H 5657   4.043   2.695  12.128  0.1209  1.9167  0.5199
  378TMC3    H1 5658   4.449   2.630  12.195  0.6585 -1.0791  0.7894
  378TMC3    H2 5659   4.180   2.478  12.472 -1.3178 -0.6906 -0.5611
  378TMC3    C7 5660   4.425   2.494  12.429  1.0096  0.9507  0.1496
  378TMC3    C8 5661   3.966   2.598  12.383  0.1839  0.6279 -0.8832
  378TMC3    O1 5662   4.384   2.426  12.526  0.7430 -0.2191  0.3295
  378TMC3    O2 5663   3.952   2.506  12.459  0.3068 -0.2302  0.4321
  379MPD2     C 5664   0.316   1.179  16.453 -0.2790 -0.1856  0.2223
  379MPD2    C1 5665   0.332   1.052  16.402  0.1392 -0.6878  0.1417
  379MPD2    C2 5666   0.385   0.955  16.478  0.0676  0.4475 -0.8198
  379MPD2    C3 5667   0.417   0.983  16.611 -0.2764  0.2369  0.6119
  379MPD2    C4 5668   0.407   1.109  16.658 -0.3847  0.0345  0.0566
  379MPD2    C5 5669   0.361   1.209  16.577  0.3058 -0.0014 -0.5463
  379MPD2     H 5670   0.405   0.858  16.434  1.4872  1.1505 -1.7071
  379MPD2    H1 5671   0.422   1.128  16.763  0.1391  1.5003 -0.2851
  379MPD2    H2 5672   0.261   1.255  16.397  1.5569  0.3131 -0.8932
  379MPD2    H3 5673   0.349   1.308  16.619  2.4510 -0.1657  0.4530
  379MPD2     N 5674   0.462   0.890  16.706 -0.0139  0.1287  0.9697
  379MPD2    H5 5675   0.479   0.924  16.800 -0.3266  1.6090  0.4915
  379MPD2    N1 5676   0.283   1.036  16.275 -0.9802 -0.5163  0.1429
  379MPD2    H7 5677   0.244   1.113  16.222 -1.1157  0.0209  1.0291
  380TMC3    C1 5678   0.184   0.926  16.093  0.3263 -0.0746  0.4065
  380TMC3    C2 5679   0.201   0.830  16.002 -0.0762 -0.3752  0.4520
  380TMC3    C3 5680   0.115   0.828  15.894 -0.0328 -0.6232 -0.1396
  380TMC3    C4 5681   0.090   1.026  16.090 -0.4733 -0.6665 -0.1964
  380TMC3    C5 5682   0.003   1.021  15.985  0.1287  0.1244  0.0212
  380TMC3    C6 5683   0.018   0.921  15.889 -0.3902 -0.7211  1.0954
  380TMC3     C 5684   0.260   0.911  16.215  0.2693 -0.2817 -0.8066
  380TMC3     O 5685   0.308   0.802  16.243 -0.2735 -0.2738  0.1757
  380TMC3     H 5686   0.284   0.762  16.014  0.3044  0.5160  3.0122
  380TMC3    H1 5687   0.088   1.110  16.158 -1.3180 -2.8116  2.4343
  380TMC3    H2 5688   4.683   0.915  15.798  1.3924  0.8011 -0.1304
  380TMC3    C7 5689   4.695   1.158  15.940  0.2089 -0.1828 -0.2525
  380TMC3    C8 5690   0.179   0.821  15.758 -0.2170  0.1836  0.2007
  380TMC3    O1 5691   0.049   1.249  15.969  0.0503  0.1826 -0.2901
  380TMC3    O2 5692   0.300   0.829  15.766  0.4633  0.4856  0.3998
  381TMC3    C1 5693   4.695   2.387  16.354 -0.0833 -0.3720  0.1037
  381TMC3    C2 5694   0.079   2.470  16.338 -0.2809  1.2010 -0.0239
  381TMC3    C3 5695   0.088   2.589  16.399 -0.6742  0.2694  0.0892
  381TMC3    C4 5696   4.594   2.420  16.449  0.0690 -0.1507 -0.5646
  381TMC3    C5 5697   4.613   2.536  16.518 -0.5730  0.1845 -0.0452
  381TMC3    C6 5698   4.715   2.621  16.500  0.3645 -0.3325 -0.9784
  381TMC3     C 5699   4.697   2.256  16.295 -0.2369 -0.4567  0.0329
  381TMC3     O 5700   0.047   2.245  16.199  0.1158 -0.6072 -0.1130
  381TMC3     H 5701   0.156   2.432  16.271  0.2821  1.4299  0.4950
  381TMC3    H1 5702   4.503   2.363  16.462  1.2496 -1.9407 -0.0409
  381TMC3    H2 5703   4.723   2.718  16.546 -1.7062 -0.5019 -0.2753
  381TMC3    C7 5704   4.568   2.529  16.654 -0.1387 -0.0695  0.9902
  381TMC3    C8 5705   0.203   2.669  16.373  0.2418 -0.1313  0.0815
  381TMC3    O1 5706   4.558   2.415  16.701  0.2341 -0.3322  0.3255
  381TMC3    O2 5707   0.275   2.627  16.282 -0.0057  0.1180 -0.1988
  382MPD2     C 5708   3.963   0.249  17.173  0.5765  0.2097 -0.0765
  382MPD2    C1 5709   3.930   0.247  17.310  0.3660  0.2486 -0.6632
  382MPD2    C2 5710   3.902   0.125  17.364 -0.1391 -0.2205 -0.3481
  382MPD2    C3 5711   3.897   0.009  17.291 -0.3782  0.4773 -0.8460
  382MPD2    C4 5712   3.940   0.008  17.160 -0.4712 -0.5027  0.2172
  382MPD2    C5 5713   3.982   0.128  17.105  0.4855 -0.6728 -0.4442
  382MPD2     H 5714   3.884   0.122  17.471 -0.5355 -1.0894 -0.4355
  382MPD2    H1 5715   3.961   4.642  17.103  0.2788 -0.4381  0.3827
  382MPD2    H2 5716   3.989   0.345  17.130 -2.2761 -0.3594 -3.0766
  382MPD2    H3 5717   4.024   0.119  17.005 -0.3065 -0.8301 -0.7633
  382MPD2     N 5718   3.841   4.610  17.339  0.4077  0.0562  0.7335
  382MPD2    H5 5719   3.840   4.529  17.277 -0.5047 -0.1207  0.9743
  382MPD2    N1 5720   3.923   0.362  17.394  0.4848 -0.2037  0.2552
  382MPD2    H7 5721   3.904   0.343  17.492  1.6713 -0.4320  0.4316
  383TMC3    C1 5722   3.715   4.467  17.477  0.1221 -0.5978  0.0494
  383TMC3    C2 5723   3.692   4.391  17.368 -0.2680 -0.1772 -0.0297
  383TMC3    C3 5724   3.649   4.263  17.387  0.2138 -0.0680  0.2250
  383TMC3    C4 5725   3.707   4.414  17.606 -0.5235 -0.5146  0.2034
  383TMC3    C5 5726   3.648   4.290  17.620  0.4076  0.3304  0.3029
  383TMC3    C6 5727   3.628   4.211  17.511 -0.0297  0.3758 -0.7226
  383TMC3     C 5728   3.783   4.597  17.463 -0.0787  0.0560  0.1354
  383TMC3     O 5729   3.767   4.681  17.559  0.2690 -0.5624 -1.3460
  383TMC3     H 5730   3.682   4.434  17.269  0.4252  3.0370  1.3061
  383TMC3    H1 5731   3.720   4.486  17.686 -1.0508 -0.4587  0.2426
  383TMC3    H2 5732   3.577   4.117  17.526  0.7891  0.0329 -0.0977
  383TMC3    C7 5733   3.607   4.234   0.057 -0.4029  0.9937  0.8789
  383TMC3    C8 5734   3.586   4.211  17.273  0.1398  0.0084 -0.1274
  383TMC3    O1 5735   3.588   4.111   0.064 -0.2307  0.2731 -0.3500
  383TMC3    O2 5736   3.515   4.283  17.208  0.1869  0.1348 -0.1588
  384MPD2     C 5737   0.734   1.435  12.126 -0.0276 -0.7713 -0.4284
  384MPD2    C1 5738   0.620   1.405  12.197 -0.3083  0.3759  0.0602
  384MPD2    C2 5739   0.555   1.285  12.168  0.4636  0.6049 -0.2938
  384MPD2    C3 5740   0.589   1.212  12.055  1.2529 -0.3800  0.5089
  384MPD2    C4 5741   0.688   1.252  11.972  0.3193  0.3055  0.4841
  384MPD2    C5 5742   0.764   1.359  12.018  0.1819 -0.5278  0.1357
  384MPD2     H 5743   0.465   1.256  12.220  0.8217  2.1279  1.1627
  384MPD2    H1 5744   0.719   1.207  11.878  2.5641  2.4617  0.2134
  384MPD2    H2 5745   0.793   1.519  12.161  0.4770 -0.0111 -3.1101
  384MPD2    H3 5746   0.837   1.403  11.951 -1.4595  0.1204 -1.2143
  384MPD2     N 5747   0.530   1.091  12.021  0.0903 -1.1745  0.1816
  384MPD2    H5 5748   0.548   1.055  11.928 -0.6676  1.6691 -1.0562
  384MPD2    N1 5749   0.589   1.487  12.307 -0.1905  0.2878  0.0484
  384MPD2    H7 5750   0.654   1.559  12.339  2.3674 -2.4428  1.0398
  385TMC3    C1 5751   0.378   0.905  12.076  0.4669  0.3232  0.3772
  385TMC3    C2 5752   0.448   0.797  12.039  0.2349  0.4890  0.3907
  385TMC3    C3 5753   0.420   0.678  12.100  0.0142  0.5301  0.8327
  385TMC3    C4 5754   0.268   0.895  12.159 -0.0844 -0.0734 -0.2163
  385TMC3    C5 5755   0.247   0.773  12.221 -0.3609  0.6984 -0.8895
  385TMC3    C6 5756   0.323   0.668  12.188  0.0420 -0.3423 -0.3319
  385TMC3     C 5757   0.462   1.015  12.114  0.8080 -0.6735  0.5603
  385TMC3     O 5758   0.449   1.044  12.233 -0.0161 -0.2418 -0.5393
  385TMC3     H 5759   0.548   0.815  12.001  0.1075 -0.5701 -0.4569
  385TMC3    H1 5760   0.217   0.983  12.197  1.1606 -0.0383  1.3926
  385TMC3    H2 5761   0.300   0.571  12.230  1.1043 -0.0117  1.0172
  385TMC3    C7 5762   0.221   0.790  12.355  0.0851 -0.2409  0.5211
  385TMC3    C8 5763   0.495   0.554  12.062 -0.8644 -0.5098  0.3648
  385TMC3    O1 5764   0.133   0.718  12.409 -0.3069  0.4871  0.2930
  385TMC3    O2 5765   0.561   0.565  11.958 -0.2491 -0.0508 -0.1871
  386TMC3    C1 5766   0.115   3.226  11.558  0.4337 -1.2718  0.6927
  386TMC3    C2 5767   0.151   3.245  11.428  0.0727 -0.3033 -0.0176
  386TMC3    C3 5768   0.056   3.286  11.335  0.4271  0.4696 -0.2254
  386TMC3    C4 5769   4.710   3.259  11.597 -0.5650  0.3966 -0.1625
  386TMC3    C5 5770   4.624   3.318  11.509 -0.3700  0.4562  0.2914
  386TMC3    C6 5771   4.659   3.337  11.373  0.6420  0.0388  0.9587
  386TMC3     C 5772   0.218   3.244  11.667  0.4681  0.2445 -0.4307
  386TMC3     O 5773   0.180   3.280  11.775  0.1550  0.1453  0.0153
  386TMC3     H 5774   0.252   3.231  11.392  0.2503 -0.8529  0.7062
  386TMC3    H1 5775   4.670   3.227  11.692 -1.2926  1.6568 -0.0359
  386TMC3    H2 5776   4.592   3.387  11.305 -0.1321 -0.4557  1.3516
  386TMC3    C7 5777   4.490   3.349  11.560 -0.4575  0.1288  0.1997
  386TMC3    C8 5778   0.091   3.336  11.202 -0.5064  0.4194 -0.3916
  386TMC3    O1 5779   4.462   3.302  11.666 -0.4681 -0.6538 -0.8337
  386TMC3    O2 5780   0.000   3.350  11.121 -0.4200  0.0079 -0.5738
  387MPD2     C 5781   3.126   3.368   9.753 -0.0103  0.5390 -0.7280
  387MPD2    C1 5782   3.189   3.297   9.861 -0.1442  0.6480 -0.2447
  387MPD2    C2 5783   3.241   3.172   9.833  0.0164 -0.2043  0.6166
  387MPD2    C3 5784   3.220   3.117   9.706  0.7102  0.3966 -0.8725
  387MPD2    C4 5785   3.160   3.186   9.601 -0.3465  0.1559 -0.2238
  387MPD2    C5 5786   3.104   3.313   9.631 -0.2924 -0.0021  0.2253
  387MPD2     H 5787   3.302   3.115   9.901  2.2386  2.7320  1.0706
  387MPD2    H1 5788   3.150   3.146   9.501 -0.7059 -1.0772  0.3030
  387MPD2    H2 5789   3.093   3.466   9.783 -0.1995 -0.0092  0.8770
  387MPD2    H3 5790   3.057   3.365   9.548  0.6279 -2.1399 -1.6321
  387MPD2     N 5791   3.281   2.998   9.694 -0.4755 -0.1015  0.6611
  387MPD2    H5 5792   3.322   2.956   9.776  0.6635 -1.7514 -0.7392
  387MPD2    N1 5793   3.200   3.335  10.003 -0.7475  0.5249  0.6017
  387MPD2    H7 5794   3.242   3.265  10.063 -1.4366 -2.0186 -1.8485
  388TMC3    C1 5795   3.218   3.472  10.196  0.3721  0.0129 -0.6806
  388TMC3    C2 5796   3.226   3.600  10.238 -0.0141 -0.9411 -0.6302
  388TMC3    C3 5797   3.330   3.642  10.315  0.8568  0.1685  0.4792
  388TMC3    C4 5798   3.312   3.381  10.240  0.8130  0.1373 -0.8442
  388TMC3    C5 5799   3.414   3.425  10.317 -0.2017  0.5086  0.2959
  388TMC3    C6 5800   3.424   3.553  10.356  0.1031  0.6834 -0.5492
  388TMC3     C 5801   3.176   3.456  10.056 -0.3034  0.1412  0.3962
  388TMC3     O 5802   3.137   3.552   9.997  0.4383  0.3586  0.0007
  388TMC3     H 5803   3.148   3.669  10.208  0.5617  0.5593  1.3469
  388TMC3    H1 5804   3.284   3.276  10.235 -3.0837  1.2103 -1.2609
  388TMC3    H2 5805   3.517   3.587  10.401 -0.2348  0.5591  0.2458
  388TMC3    C7 5806   3.538   3.348  10.311  0.1847  0.7225  0.1915
  388TMC3    C8 5807   3.320   3.764  10.391 -0.3173 -0.1949  0.2276
  388TMC3    O1 5808   3.642   3.383  10.364  0.1829  0.1531 -0.2489
  388TMC3    O2 5809   3.403   3.777  10.477 -0.1322  0.1479 -0.1184
  389MPD2     C 5810   2.307   1.637  11.744  0.0244  0.3960 -0.1696
  389MPD2    C1 5811   2.186   1.623  11.678 -0.0588  0.9691  0.0961
  389MPD2    C2 5812   2.094   1.534  11.732  0.4194 -0.0873  0.3863
  389MPD2    C3 5813   2.127   1.451  11.842 -0.2569  0.8826 -0.5452
  389MPD2    C4 5814   2.245   1.469  11.909 -0.0076  0.5032 -0.2394
  389MPD2    C5 5815   2.335   1.570  11.865 -0.4728  0.2407 -0.1051
  389MPD2     H 5816   1.999   1.527  11.682  1.5870 -1.4611 -1.6435
  389MPD2    H1 5817   2.267   1.396  11.986 -2.3087  0.0845  0.0264
  389MPD2    H2 5818   2.385   1.705  11.711  1.5914 -0.0189  2.6254
  389MPD2    H3 5819   2.435   1.570  11.906 -0.3070 -0.4059 -0.5107
  389MPD2     N 5820   2.034   1.359  11.887 -1.0771 -0.2462  0.3940
  389MPD2    H5 5821   2.042   1.327  11.983  0.1270  1.3684  0.8218
  389MPD2    N1 5822   2.170   1.703  11.559 -0.0771 -0.2888 -0.1869
  389MPD2    H7 5823   2.235   1.778  11.541 -0.2385 -0.3319 -0.9547
  390TMC3    C1 5824   1.828   1.254  11.886 -0.2615  0.2572  0.1871
  390TMC3    C2 5825   1.855   1.208  12.009 -0.0483 -0.7904  0.0557
  390TMC3    C3 5826   1.752   1.166  12.093 -0.4235  0.8515  0.2505
  390TMC3    C4 5827   1.698   1.269  11.844  0.7771  0.4523 -0.2480
  390TMC3    C5 5828   1.597   1.238  11.931  0.0034  0.4806  0.1013
  390TMC3    C6 5829   1.623   1.184  12.055 -0.0106  0.5467 -0.3626
  390TMC3     C 5830   1.931   1.312  11.805  0.7979 -0.0022 -0.5262
  390TMC3     O 5831   1.913   1.320  11.684  0.3148 -0.4111 -0.1819
  390TMC3     H 5832   1.952   1.166  12.034  0.5501 -0.4015 -1.6373
  390TMC3    H1 5833   1.680   1.293  11.740 -2.2486  0.2770  0.2356
  390TMC3    H2 5834   1.541   1.154  12.120  0.6508 -0.5365 -0.0386
  390TMC3    C7 5835   1.480   1.184  11.880  0.3713  0.0839 -0.6385
  390TMC3    C8 5836   1.775   1.041  12.164  0.2580  0.3565 -0.2977
  390TMC3    O1 5837   1.378   1.198  11.944  0.0895 -0.2483  0.6293
  390TMC3    O2 5838   1.883   1.012  12.215 -0.1164 -0.4558  0.4635
  391MPD2     C 5839   1.959   2.544  11.172 -0.3721  1.0278  0.1205
  391MPD2    C1 5840   2.062   2.638  11.182  0.1849 -0.4354  0.1502
  391MPD2    C2 5841   2.082   2.720  11.071  0.0284 -0.4269 -0.2371
  391MPD2    C3 5842   2.011   2.712  10.952  0.0425 -0.1955 -0.3702
  391MPD2    C4 5843   1.915   2.614  10.939  0.1955  0.4068 -0.2291
  391MPD2    C5 5844   1.899   2.533  11.053  0.7367  0.1601  0.2956
  391MPD2     H 5845   2.158   2.797  11.083 -1.2958  0.7310  0.7138
  391MPD2    H1 5846   1.845   2.604  10.857  0.4913  0.7587 -0.5263
  391MPD2    H2 5847   1.926   2.488  11.259  2.5495 -1.8744 -0.6702
  391MPD2    H3 5848   1.825   2.455  11.039 -0.0769  0.5647  2.3055
  391MPD2     N 5849   2.033   2.812  10.848 -0.1695 -0.3495  0.3660
  391MPD2    H5 5850   2.109   2.878  10.866  0.3725 -1.3333  1.6835
  391MPD2    N1 5851   2.133   2.661  11.301  0.2529  1.0853 -0.2854
  391MPD2    H7 5852   2.094   2.611  11.380 -1.2218  1.9043 -0.4902
  392TMC3    C1 5853   1.998   2.936  10.644  0.6863 -0.0290 -0.6270
  392TMC3    C2 5854   1.938   2.943  10.527  0.9995 -0.0830 -0.0355
  392TMC3    C3 5855   1.960   3.051  10.446 -0.7346 -0.5818  0.3574
  392TMC3    C4 5856   2.048   3.050  10.695  0.0393 -0.2831  0.2395
  392TMC3    C5 5857   2.066   3.164  10.616  0.8649  0.8351  0.8410
  392TMC3    C6 5858   2.029   3.164  10.482 -0.5886  0.4085  0.3026
  392TMC3     C 5859   1.959   2.828  10.735  0.4561  0.5520 -0.0883
  392TMC3     O 5860   1.867   2.756  10.698  0.5064  0.1414 -0.4414
  392TMC3     H 5861   1.906   2.848  10.487 -1.8522  0.4241  0.9888
  392TMC3    H1 5862   2.061   3.057  10.802 -0.4409 -2.2157  0.4166
  392TMC3    H2 5863   2.068   3.233  10.408 -0.6725 -1.1616 -1.2384
  392TMC3    C7 5864   2.130   3.282  10.676 -0.4916  0.2195  0.1172
  392TMC3    C8 5865   1.914   3.047  10.308 -0.0874 -0.2828  0.3799
  392TMC3    O1 5866   2.161   3.268  10.794 -0.5813  0.4250  0.5052
  392TMC3    O2 5867   1.920   2.940  10.251 -0.9549  0.2303 -0.1911
  393TMC3    C1 5868   0.478   1.076  10.333  0.4480 -0.2321 -0.2647
  393TMC3    C2 5869   0.360   1.051  10.276  0.6356  1.0233 -0.1213
  393TMC3    C3 5870   0.266   0.984  10.343 -0.1280  0.0027  1.3705
  393TMC3    C4 5871   0.513   1.038  10.462 -0.4331  0.3920 -1.0825
  393TMC3    C5 5872   0.419   0.960  10.527 -0.1212 -0.4400  0.2150
  393TMC3    C6 5873   0.293   0.948  10.475  0.0266 -0.0139 -0.5205
  393TMC3     C 5874   0.584   1.126  10.247 -0.1206  0.2854  0.2988
  393TMC3     O 5875   0.564   1.107  10.128 -0.5400 -0.0708  0.3319
  393TMC3     H 5876   0.346   1.086  10.174  0.0162  1.5504  0.1467
  393TMC3    H1 5877   0.611   1.058  10.503 -0.6600  2.1861 -1.3861
  393TMC3    H2 5878   0.222   0.888  10.531 -1.1018  0.1592 -1.7806
  393TMC3    C7 5879   0.458   0.891  10.641 -0.0414  0.3309  0.7823
  393TMC3    C8 5880   0.128   0.974  10.306 -0.5100  0.3436 -0.4586
  393TMC3    O1 5881   0.367   0.838  10.709  0.4168  0.7004 -0.1504
  393TMC3    O2 5882   0.060   0.905  10.381 -1.1602  0.2753  0.4589
  394TMC3    C1 5883   2.054   1.772  11.355  0.0856  0.0457 -0.7067
  394TMC3    C2 5884   1.930   1.759  11.296 -0.0532 -0.1966  0.4787
  394TMC3    C3 5885   1.914   1.777  11.160  0.1576 -0.6469  0.2937
  394TMC3    C4 5886   2.157   1.820  11.282  0.7099 -0.6437  0.3195
  394TMC3    C5 5887   2.137   1.833  11.146  1.5351  0.0754  0.0250
  394TMC3    C6 5888   2.017   1.818  11.080 -0.2576 -0.7726  0.2694
  394TMC3     C 5889   2.072   1.674  11.463 -0.1082  0.0203 -0.6850
  394TMC3     O 5890   2.008   1.568  11.448 -0.2847  0.2836 -0.0797
  394TMC3     H 5891   1.850   1.725  11.360 -2.8686  0.6770 -2.6159
  394TMC3    H1 5892   2.257   1.818  11.321  1.0800 -0.0255 -0.5752
  394TMC3    H2 5893   1.995   1.842  10.976 -0.4663  0.6078  0.6365
  394TMC3    C7 5894   2.254   1.841  11.070  0.1882 -0.1204  0.5109
  394TMC3    C8 5895   1.784   1.747  11.116  0.4222  0.4171  0.6859
  394TMC3    O1 5896   2.361   1.859  11.125 -0.6982  0.0423  0.8271
  394TMC3    O2 5897   1.703   1.742  11.204  0.4847 -0.0370  0.0670
  395TMC3    C1 5898   1.835   3.502  14.367 -0.8060 -1.1030  0.1836
  395TMC3    C2 5899   1.761   3.544  14.266  0.0116 -0.1783  0.0682
  395TMC3    C3 5900   1.727   3.682  14.265 -0.4032 -0.2848  0.1479
  395TMC3    C4 5901   1.920   3.589  14.432  0.3374 -0.6191 -0.6257
  395TMC3    C5 5902   1.908   3.723  14.406  0.6702  0.6576 -0.1637
  395TMC3    C6 5903   1.806   3.771  14.330  0.0779  0.1263  0.0964
  395TMC3     C 5904   1.773   3.409  14.451 -0.0617  0.0505  0.4075
  395TMC3     O 5905   1.708   3.328  14.386 -0.0353 -0.4169  0.7347
  395TMC3     H 5906   1.709   3.470  14.206  0.6276  1.5515 -2.5910
  395TMC3    H1 5907   1.999   3.550  14.496 -1.9910  0.7136  3.0136
  395TMC3    H2 5908   1.781   3.876  14.324  0.2869  0.1255 -0.9202
  395TMC3    C7 5909   2.005   3.818  14.451 -0.4394 -0.3846 -0.1110
  395TMC3    C8 5910   1.580   3.707  14.283 -1.0089  0.8939  0.3962
  395TMC3    O1 5911   1.972   3.936  14.462  0.8593 -0.1711 -0.2199
  395TMC3    O2 5912   1.553   3.805  14.345  0.3811  0.2087 -0.5270
  396MPD2     C 5913   2.083   4.447  17.555  0.5046 -0.3273 -0.3451
  396MPD2    C1 5914   2.199   4.435  17.482 -0.5083  0.1796  0.8870
  396MPD2    C2 5915   2.256   4.547  17.423 -0.1277 -0.1112 -0.0163
  396MPD2    C3 5916   2.191   4.669  17.435 -0.5430 -0.2010  0.2382
  396MPD2    C4 5917   2.075   4.684  17.507 -0.1759  0.1792 -0.8078
  396MPD2    C5 5918   2.021   4.570  17.561 -0.2530  1.2353  0.1301
  396MPD2     H 5919   2.339   4.543  17.355  0.9462  1.3626  1.1990
  396MPD2    H1 5920   2.022   0.054  17.509 -0.0172  0.2763 -1.3140
  396MPD2    H2 5921   2.045   4.358  17.605 -1.3651  0.2517 -0.7626
  396MPD2    H3 5922   1.937   4.590  17.627  0.4598 -0.6485  1.6225
  396MPD2     N 5923   2.260   0.054  17.374  1.0444  0.8822  0.2618
  396MPD2    H5 5924   2.352   0.029  17.339  0.1664 -1.9387 -0.0570
  396MPD2    N1 5925   2.267   4.310  17.489 -0.8360 -0.4037  0.6461
  396MPD2    H7 5926   2.223   4.238  17.545 -1.4564 -0.8098 -0.3546
  397TMC3    C1 5927   2.438   4.151  17.448 -0.5230  0.1449  0.2135
  397TMC3    C2 5928   2.467   4.093  17.328 -0.0104 -0.2165 -0.5744
  397TMC3    C3 5929   2.397   3.980  17.288  0.3706 -0.3679  0.3778
  397TMC3    C4 5930   2.360   4.091  17.540  0.0321  0.1830 -0.2663
  397TMC3    C5 5931   2.309   3.971  17.509  0.3610 -0.0753  0.1816
  397TMC3    C6 5932   2.320   3.919  17.382  0.5099  0.6917 -0.1326
  397TMC3     C 5933   2.383   4.285  17.428  0.2259  0.7823 -0.0950
  397TMC3     O 5934   2.454   4.359  17.364  0.3945 -0.0556  0.5353
  397TMC3     H 5935   2.500   4.160  17.249 -1.8691 -1.8607 -2.7544
  397TMC3    H1 5936   2.363   4.124  17.643  4.8873 -2.0294  0.2867
  397TMC3    H2 5937   2.264   3.828  17.359  0.3134  0.1589  2.4427
  397TMC3    C7 5938   2.265   3.880  17.620  0.1713 -0.7005 -0.2402
  397TMC3    C8 5939   2.374   3.965  17.139 -0.3988  0.6500  0.9892
  397TMC3    O1 5940   2.225   3.775  17.576 -0.2166  0.5371  0.0271
  397TMC3    O2 5941   2.455   4.017  17.061 -0.2235 -0.6352 -0.0352
  398MPD2     C 5942   4.584   1.097   0.006 -0.9584 -0.4705 -0.2631
  398MPD2    C1 5943   4.547   0.987   0.077 -0.1840 -0.1080  0.0997
  398MPD2    C2 5944   4.618   0.957   0.192  0.1844 -0.1863 -0.3847
  398MPD2    C3 5945   4.720   1.034   0.246 -0.2676  0.1980  0.2160
  398MPD2    C4 5946   0.030   1.150   0.177  0.2200  0.3490  0.6240
  398MPD2    C5 5947   4.691   1.174   0.057  0.1262 -0.5804 -0.6052
  398MPD2     H 5948   4.595   0.865   0.245  2.0028  0.5772  1.7388
  398MPD2    H1 5949   0.104   1.217   0.218 -0.8351  3.4429 -2.5600
  398MPD2    H2 5950   4.537   1.147  17.618 -2.5051 -1.3419  0.0823
  398MPD2    H3 5951   4.718   1.267   0.009 -0.2005  0.5961  1.4816
  398MPD2     N 5952   0.051   0.989   0.373 -0.1672 -0.7615  0.1636
  398MPD2    H5 5953   0.013   0.901   0.407 -0.9469 -0.7814 -0.7513
  398MPD2    N1 5954   4.456   0.890   0.027  0.0869 -0.1708  0.0838
  398MPD2    H7 5955   4.433   0.805   0.077 -0.1945  0.3235  0.7873
  399TMC3    C1 5956   4.350   0.750  17.567  0.6012 -0.3099 -0.1065
  399TMC3    C2 5957   4.326   0.674  17.679  0.5939  1.0126  0.2115
  399TMC3    C3 5958   4.314   0.536  17.663  0.1005 -0.3053 -0.1465
  399TMC3    C4 5959   4.371   0.692  17.445  0.4002 -0.2665  0.6962
  399TMC3    C5 5960   4.367   0.550  17.437  1.1194  0.1907 -0.2748
  399TMC3    C6 5961   4.357   0.472  17.550  0.2290  0.4512  0.6213
  399TMC3     C 5962   4.408   0.880  17.599  0.6168  0.0231  0.2511
  399TMC3     O 5963   4.429   0.958  17.505  0.1997  0.3907  0.5623
  399TMC3     H 5964   4.287   0.712   0.077 -1.6047  0.4651 -0.4627
  399TMC3    H1 5965   4.383   0.753  17.357  2.3688 -0.7001  0.6649
  399TMC3    H2 5966   4.398   0.371  17.550  0.5860  0.5906  2.0926
  399TMC3    C7 5967   4.360   0.484  17.305 -0.1693  0.8578 -0.3203
  399TMC3    C8 5968   4.340   0.472   0.095 -0.1623 -0.0388 -0.5435
  399TMC3    O1 5969   4.395   0.554  17.211  0.7191  0.5839  0.1539
  399TMC3    O2 5970   4.376   0.544   0.188  0.3340 -0.3221 -0.1784
  400TMC3    C1 5971   3.825   3.769  16.657  0.4842 -0.4259 -0.3930
  400TMC3    C2 5972   3.684   3.769  16.655 -0.4881  0.3156 -0.7871
  400TMC3    C3 5973   3.614   3.892  16.632  0.0307  0.4450  0.3259
  400TMC3    C4 5974   3.890   3.886  16.617 -0.2042 -0.0878 -0.2324
  400TMC3    C5 5975   3.816   4.000  16.588  0.1578  0.8016 -0.0924
  400TMC3    C6 5976   3.686   4.002  16.597 -0.5934 -0.1566 -0.1261
  400TMC3     C 5977   3.897   3.643  16.665 -0.8033 -0.1605 -0.0368
  400TMC3     O 5978   3.835   3.541  16.674  0.4271  0.1682 -0.4157
  400TMC3     H 5979   3.621   3.682  16.668 -1.6514  0.8735 -2.7497
  400TMC3    H1 5980   3.997   3.889  16.599 -0.5259  2.1315 -1.9201
  400TMC3    H2 5981   3.623   4.089  16.580  0.0752  0.7064  1.7308
  400TMC3    C7 5982   3.885   4.124  16.555 -0.0132 -0.2958  0.0106
  400TMC3    C8 5983   3.467   3.896  16.628  1.2368  0.5784  0.5183
  400TMC3    O1 5984   3.998   4.121  16.501  0.1750  0.1969  0.4767
  400TMC3    O2 5985   3.419   4.007  16.656 -0.7039 -0.0546 -0.5228
  401MPD2     C 5986   1.811   3.503   0.653  0.6510  0.5151  0.2058
  401MPD2    C1 5987   1.809   3.379   0.717 -0.2933 -0.0131  0.7932
  401MPD2    C2 5988   1.798   3.261   0.638  0.9160  0.3673  1.1320
  401MPD2    C3 5989   1.784   3.269   0.497  0.6827  0.2652 -0.1621
  401MPD2    C4 5990   1.788   3.393   0.438  0.3122  0.0105 -1.0615
  401MPD2    C5 5991   1.799   3.506   0.515 -0.1384  0.0006 -0.5954
  401MPD2     H 5992   1.809   3.162   0.681  1.7637  0.7268  1.7276
  401MPD2    H1 5993   1.759   3.396   0.334  0.2296 -1.0515 -1.0665
  401MPD2    H2 5994   1.818   3.600   0.701 -1.4112  0.1458  1.2621
  401MPD2    H3 5995   1.790   3.604   0.470  1.3153 -0.0029 -0.8928
  401MPD2     N 5996   1.750   3.157   0.421  0.1290  0.9955 -0.5090
  401MPD2    H5 5997   1.721   3.077   0.476  0.2410  0.7232 -0.8433
  401MPD2    N1 5998   1.845   3.373   0.854 -0.4295 -0.2529 -0.3168
  401MPD2    H7 5999   1.854   3.468   0.890 -0.7754 -1.6733  3.4713
  402TMC3    C1 6000   1.742   3.014   0.232  0.0854  0.3639 -0.4487
  402TMC3    C2 6001   1.641   2.940   0.274  0.2752  0.0726  0.5712
  402TMC3    C3 6002   1.623   2.805   0.252  0.9244  0.4361 -0.3676
  402TMC3    C4 6003   1.838   2.953   0.152 -0.5370 -0.0468 -0.1439
  402TMC3    C5 6004   1.828   2.821   0.130 -0.1674 -0.6069  0.3485
  402TMC3    C6 6005   1.727   2.745   0.191  0.3880 -0.0995  0.8071
  402TMC3     C 6006   1.782   3.143   0.288  0.3859  0.0977 -0.3340
  402TMC3     O 6007   1.856   3.211   0.220  0.4187  0.5374  0.1362
  402TMC3     H 6008   1.576   2.991   0.343 -0.1641 -0.5068  0.5806
  402TMC3    H1 6009   1.919   3.014   0.115 -1.1966  1.4186  0.7914
  402TMC3    H2 6010   1.724   2.638   0.174  1.0694 -0.3731  2.3840
  402TMC3    C7 6011   1.948   2.758   0.070 -0.6053  0.0804  0.1153
  402TMC3    C8 6012   1.559   2.727   0.354 -0.0648 -0.3505  0.5658
  402TMC3    O1 6013   2.012   2.823  17.685 -0.4444 -0.0309 -0.2789
  402TMC3    O2 6014   1.624   2.642   0.416 -0.4186  0.0040 -0.4250
  403MPD2     C 6015   0.413   1.026  13.281  0.3820  0.0426  1.2459
  403MPD2    C1 6016   0.443   0.902  13.338  0.0977 -0.0077  0.3906
  403MPD2    C2 6017   0.567   0.880  13.395 -0.2083  0.0269  0.2604
  403MPD2    C3 6018   0.655   0.988  13.403 -0.4432  0.5426 -0.3453
  403MPD2    C4 6019   0.637   1.106  13.334 -0.3953 -0.0773 -0.2010
  403MPD2    C5 6020   0.509   1.121  13.277  0.6118 -0.4561  0.0156
  403MPD2     H 6021   0.592   0.791  13.452  1.0029 -0.7406 -1.4487
  403MPD2    H1 6022   0.702   1.193  13.329 -0.0286 -0.3433 -0.0357
  403MPD2    H2 6023   0.319   1.045  13.230  0.5591  0.2634  1.0011
  403MPD2    H3 6024   0.479   1.218  13.239  0.1749  0.2353  2.1373
  403MPD2     N 6025   0.758   0.973  13.496 -0.6091  0.1846  0.5930
  403MPD2    H5 6026   0.779   0.882  13.535 -2.3459 -0.6034 -0.3188
  403MPD2    N1 6027   0.340   0.803  13.330 -0.1670  0.2042 -0.0922
  403MPD2    H7 6028   0.252   0.825  13.285 -0.6005  2.0213  1.6444
  404TMC3    C1 6029   0.214   0.608  13.358 -0.0264  0.8442 -0.1237
  404TMC3    C2 6030   0.146   0.522  13.442 -0.1362 -0.4885  0.3304
  404TMC3    C3 6031   0.042   0.450  13.389 -0.6246 -0.1740  0.6264
  404TMC3    C4 6032   0.181   0.608  13.223 -0.7181  0.2140  0.4450
  404TMC3    C5 6033   0.075   0.540  13.171  0.1367  0.0994  0.6178
  404TMC3    C6 6034   0.001   0.459  13.254 -0.1076  0.4307  0.3268
  404TMC3     C 6035   0.332   0.683  13.402  0.2788 -0.7257 -0.4860
  404TMC3     O 6036   0.402   0.640  13.493  0.1305  0.3235 -0.2005
  404TMC3     H 6037   0.176   0.510  13.546  0.4059  0.3980  0.2770
  404TMC3    H1 6038   0.234   0.668  13.150 -0.4698  1.4098  1.6130
  404TMC3    H2 6039   4.645   0.397  13.215 -0.0387  0.9333 -0.6053
  404TMC3    C7 6040   0.019   0.580  13.047  0.2550  0.1432  0.0032
  404TMC3    C8 6041   0.016   0.324  13.449 -0.0492  0.3435  0.2404
  404TMC3    O1 6042   0.046   0.697  13.027 -0.4632  0.1788 -0.5702
  404TMC3    O2 6043   0.014   0.230  13.372 -0.0821 -0.1983  0.2531
  405MPD2     C 6044   0.633   1.440  14.365  0.0212  0.2714 -0.1959
  405MPD2    C1 6045   0.577   1.336  14.301  0.3862  0.0578 -0.1443
  405MPD2    C2 6046   0.482   1.361  14.208 -0.0484 -0.7970  0.7044
  405MPD2    C3 6047   0.429   1.483  14.182 -0.0320  0.4192  0.3131
  405MPD2    C4 6048   0.479   1.590  14.253  0.5371  0.9772 -0.7385
  405MPD2    C5 6049   0.581   1.564  14.342  0.2291 -0.2424 -0.0651
  405MPD2     H 6050   0.440   1.278  14.152  1.5793 -0.6319 -0.7603
  405MPD2    H1 6051   0.461   1.696  14.240  1.2421  1.3272  1.1543
  405MPD2    H2 6052   0.702   1.437  14.448 -0.2969  1.6628  0.1132
  405MPD2    H3 6053   0.632   1.645  14.392 -0.1299  0.0756 -0.2132
  405MPD2     N 6054   0.324   1.499  14.093  0.3507 -0.1719  0.2114
  405MPD2    H5 6055   0.308   1.413  14.042 -0.8222 -0.1983  0.6413
  405MPD2    N1 6056   0.618   1.201  14.333  0.2255  0.0976 -0.1557
  405MPD2    H7 6057   0.697   1.188  14.395 -0.8849 -0.5241  1.1344
  406TMC3    C1 6058   4.624   1.631  14.149 -0.1823 -0.4978 -0.6509
  406TMC3    C2 6059   4.589   1.494  14.154 -0.0294 -0.0835 -0.1466
  406TMC3    C3 6060   4.685   1.404  14.112 -0.5678  0.3630  0.2849
  406TMC3    C4 6061   0.023   1.674  14.107 -0.1465  0.0822 -0.6351
  406TMC3    C5 6062   0.108   1.578  14.052  0.7284 -0.2160 -0.4721
  406TMC3    C6 6063   0.083   1.446  14.055 -0.2969  0.3166  0.0915
  406TMC3     C 6064   4.523   1.734  14.168  0.0117 -0.3608 -0.4140
  406TMC3     O 6065   4.549   1.845  14.132  0.5520  0.0300  0.5701
  406TMC3     H 6066   4.497   1.458  14.199  0.1930 -1.5071 -0.8292
  406TMC3    H1 6067   0.046   1.779  14.091  2.0005 -0.6799 -2.5128
  406TMC3    H2 6068   0.145   1.377  13.999 -0.1284  0.8045 -0.3244
  406TMC3    C7 6069   0.242   1.613  14.078 -0.6120 -0.0325  0.1401
  406TMC3    C8 6070   4.666   1.258  14.124  0.2151 -0.1567 -0.6298
  406TMC3    O1 6071   0.269   1.733  14.091 -0.5596  0.1549 -0.0903
  406TMC3    O2 6072   4.552   1.225  14.148  0.3871  0.5251 -0.0001
  407MPD2     C 6073   2.919   2.647   9.519 -0.0509  0.5463 -1.1814
  407MPD2    C1 6074   2.948   2.776   9.490 -0.0372  0.4165  0.5150
  407MPD2    C2 6075   2.926   2.867   9.596 -0.6735 -0.3024  0.4995
  407MPD2    C3 6076   2.884   2.827   9.724 -0.5407  0.1569  0.1782
  407MPD2    C4 6077   2.856   2.698   9.750  0.3875 -0.0213 -0.9919
  407MPD2    C5 6078   2.868   2.612   9.641 -0.9940 -0.0778 -0.5845
  407MPD2     H 6079   2.950   2.972   9.584 -0.5955 -0.5302 -1.4413
  407MPD2    H1 6080   2.835   2.667   9.852  0.6885  0.9361 -0.6390
  407MPD2    H2 6081   2.922   2.567   9.446  0.9973  0.6004 -1.1994
  407MPD2    H3 6082   2.838   2.509   9.658  0.0239 -0.4606 -1.1348
  407MPD2     N 6083   2.879   2.916   9.826 -0.7692 -0.2552 -0.6989
  407MPD2    H5 6084   2.887   2.873   9.917 -1.4750 -2.4851 -1.6837
  407MPD2    N1 6085   3.014   2.815   9.372  0.7460 -0.2917 -0.3805
  407MPD2    H7 6086   3.045   2.911   9.362 -0.6073  0.2908  1.0518
  408TMC3    C1 6087   3.149   2.803   9.183  0.1511  0.3309  0.4692
  408TMC3    C2 6088   3.254   2.726   9.158  1.3990  0.6020 -0.1261
  408TMC3    C3 6089   3.375   2.790   9.137  0.1033  0.3318 -0.1121
  408TMC3    C4 6090   3.156   2.939   9.179  0.5743  0.9009 -0.1076
  408TMC3    C5 6091   3.270   2.995   9.134  0.7058 -0.3577  0.3213
  408TMC3    C6 6092   3.386   2.921   9.120 -0.0854 -0.1668  0.1878
  408TMC3     C 6093   3.052   2.737   9.265 -0.4237 -0.7869 -0.7557
  408TMC3     O 6094   3.036   2.617   9.254 -0.6590  0.6226  0.0207
  408TMC3     H 6095   3.254   2.621   9.184 -0.5353  0.4214 -0.8372
  408TMC3    H1 6096   3.065   2.997   9.188 -0.0374  0.0805 -1.0830
  408TMC3    H2 6097   3.484   2.961   9.096  0.2241 -1.2277 -0.3310
  408TMC3    C7 6098   3.299   3.127   9.176  0.1043  0.0351  0.5072
  408TMC3    C8 6099   3.488   2.736   9.216  0.1946 -0.3434 -0.0765
  408TMC3    O1 6100   3.411   3.136   9.228  0.2228 -0.3794  0.5797
  408TMC3    O2 6101   3.520   2.616   9.204  0.2565 -0.2266 -0.0785
  409MPD2     C 6102   2.320   3.476  17.036  0.2930 -0.6955 -0.1862
  409MPD2    C1 6103   2.414   3.501  17.135  0.3000 -0.0532  0.3584
  409MPD2    C2 6104   2.519   3.590  17.106 -0.0335  0.5188 -0.0033
  409MPD2    C3 6105   2.531   3.657  16.982  0.3544 -0.2810  0.2590
  409MPD2    C4 6106   2.430   3.641  16.892 -0.5302 -0.1283 -0.0197
  409MPD2    C5 6107   2.327   3.551  16.921 -0.4218  0.0590  0.0097
  409MPD2     H 6108   2.590   3.616  17.184  0.1701  0.5522 -0.1992
  409MPD2    H1 6109   2.423   3.681  16.791 -0.7661  0.3341  0.1815
  409MPD2    H2 6110   2.227   3.421  17.045  0.1910 -0.3362  1.0131
  409MPD2    H3 6111   2.251   3.531  16.847  1.0795 -1.1157 -1.2192
  409MPD2     N 6112   2.642   3.745  16.942 -0.3847  0.5341 -0.3179
  409MPD2    H5 6113   2.646   3.772  16.844  0.7389  1.7962  0.0752
  409MPD2    N1 6114   2.413   3.439  17.263 -0.4230 -0.3488  0.4609
  409MPD2    H7 6115   2.473   3.476  17.336  0.0836 -1.3556  0.5520
  410TMC3    C1 6116   2.825   3.895  16.944  0.5505 -0.0349  0.4045
  410TMC3    C2 6117   2.954   3.917  16.976  0.1431 -0.4941 -0.0187
  410TMC3    C3 6118   3.018   4.030  16.929  0.3858  0.8030 -0.0747
  410TMC3    C4 6119   2.761   3.987  16.867  0.4939  0.4798  0.2062
  410TMC3    C5 6120   2.824   4.108  16.834  0.6911  0.8767  0.8806
  410TMC3    C6 6121   2.955   4.129  16.860 -0.9657 -0.2922  0.2983
  410TMC3     C 6122   2.745   3.798  17.022 -0.7615  0.0689  0.2278
  410TMC3     O 6123   2.773   3.772  17.137  0.2095  0.1258  0.0063
  410TMC3     H 6124   3.006   3.851  17.043 -1.7267 -0.1718  1.7676
  410TMC3    H1 6125   2.656   3.981  16.838  0.6289  0.7174 -0.3194
  410TMC3    H2 6126   3.012   4.215  16.826  0.9143 -1.7969 -0.3056
  410TMC3    C7 6127   2.760   4.181  16.723 -0.1933  0.4923 -0.0300
  410TMC3    C8 6128   3.155   4.054  16.962 -1.0916  0.3804  0.0215
  410TMC3    O1 6129   2.674   4.128  16.655  0.0358  0.3122 -0.2308
  410TMC3    O2 6130   3.183   4.170  16.985  0.3013 -0.2632  0.5578
  411MPD2     C 6131   2.861   4.354  14.728 -0.8707  0.0159  0.6150
  411MPD2    C1 6132   2.749   4.422  14.693  0.1129 -0.7133 -0.2295
  411MPD2    C2 6133   2.650   4.357  14.616 -0.3915  0.7520 -0.6006
  411MPD2    C3 6134   2.666   4.230  14.567 -0.6552  0.1050 -0.1632
  411MPD2    C4 6135   2.791   4.171  14.591  0.4539 -0.0738  0.3575
  411MPD2    C5 6136   2.875   4.222  14.688  0.5194  0.3922  0.1949
  411MPD2     H 6137   2.571   4.416  14.571 -0.6561  3.2889  3.1944
  411MPD2    H1 6138   2.820   4.077  14.547  3.7738  0.2673  1.7685
  411MPD2    H2 6139   2.943   4.396  14.786 -1.2703  2.5726 -0.6613
  411MPD2    H3 6140   2.969   4.171  14.706 -0.7771 -2.4651 -1.2112
  411MPD2     N 6141   2.574   4.187  14.471  0.1279  0.0449  0.5088
  411MPD2    H5 6142   2.603   4.111  14.409 -2.6551  0.4232 -1.2626
  411MPD2    N1 6143   2.726   4.560  14.716 -0.0508 -0.3355  0.0511
  411MPD2    H7 6144   2.655   4.611  14.664  0.0219  0.0111  0.2949
  412TMC3    C1 6145   2.374   4.158  14.361 -0.8529 -0.9240  0.4761
  412TMC3    C2 6146   2.234   4.151  14.358 -0.7599 -0.2519  0.1965
  412TMC3    C3 6147   2.174   4.098  14.249 -0.3873 -0.6720  0.8693
  412TMC3    C4 6148   2.444   4.109  14.247  1.0359 -0.8191  0.6315
  412TMC3    C5 6149   2.376   4.048  14.145  0.0709 -0.7106 -0.9241
  412TMC3    C6 6150   2.239   4.034  14.146  0.0679  0.2842  0.0985
  412TMC3     C 6151   2.444   4.224  14.459 -0.8833  0.2239 -0.5334
  412TMC3     O 6152   2.378   4.286  14.540  0.5002  0.5343  0.2200
  412TMC3     H 6153   2.181   4.212  14.430 -1.1803 -1.8631  1.2530
  412TMC3    H1 6154   2.547   4.129  14.222  1.2516 -0.4464  1.7904
  412TMC3    H2 6155   2.186   3.997  14.059  0.8616  1.6847 -0.9780
  412TMC3    C7 6156   2.423   4.084  14.015 -0.5304 -0.0517  0.2272
  412TMC3    C8 6157   2.063   4.171  14.188  0.6032  0.4480 -0.1024
  412TMC3    O1 6158   2.534   4.049  13.985 -0.2770  0.7078  0.0670
  412TMC3    O2 6159   2.087   4.237  14.089  0.1281  0.1035 -0.4044
  413MPD2     C 6160   3.923   2.205  15.693  0.3352  0.4919 -0.1774
  413MPD2    C1 6161   3.922   2.249  15.562  0.0555  0.1616  0.3055
  413MPD2    C2 6162   4.023   2.205  15.476  0.1808 -0.0896  0.9535
  413MPD2    C3 6163   4.118   2.117  15.516  0.4473 -0.6994 -0.0128
  413MPD2    C4 6164   4.108   2.064  15.640 -0.6139  0.5210  0.4260
  413MPD2    C5 6165   4.010   2.101  15.726 -0.1004 -0.8693 -0.5297
  413MPD2     H 6166   4.027   2.262  15.384 -0.9937  0.5449  1.2925
  413MPD2    H1 6167   4.184   1.999  15.681 -1.6202 -1.1766 -0.4165
  413MPD2    H2 6168   3.850   2.237  15.767 -0.9362 -0.5160 -1.0091
  413MPD2    H3 6169   4.010   2.063  15.827  1.0212  1.3783  0.2951
  413MPD2     N 6170   4.222   2.077  15.427  0.3101 -0.5398  0.5129
  413MPD2    H5 6171   4.235   2.140  15.349 -0.4530  1.1089  1.7241
  413MPD2    N1 6172   3.821   2.347  15.524 -0.6171 -0.0044  0.5238
  413MPD2    H7 6173   3.746   2.363  15.591 -0.7127 -1.8235  0.8425
  414TMC3    C1 6174   4.404   1.965  15.347  0.0518  0.4320  0.0893
  414TMC3    C2 6175   4.482   1.854  15.347  0.3218 -1.1404  0.0678
  414TMC3    C3 6176   4.574   1.828  15.254 -0.9852  0.5443 -0.5375
  414TMC3    C4 6177   4.418   2.057  15.246 -0.3661  0.4811  0.6015
  414TMC3    C5 6178   4.522   2.032  15.159  0.4135  0.1401  0.1996
  414TMC3    C6 6179   4.598   1.921  15.161 -0.0410 -0.1535  0.1129
  414TMC3     C 6180   4.302   1.969  15.449  0.5055 -0.5665  0.3478
  414TMC3     O 6181   4.299   1.878  15.532 -0.7094 -0.3796 -1.4679
  414TMC3     H 6182   4.467   1.778  15.422  1.3205  1.1706  2.6002
  414TMC3    H1 6183   4.353   2.141  15.229 -1.8855 -0.6513  0.8786
  414TMC3    H2 6184   4.675   1.908  15.085 -0.6671 -0.8423 -0.4082
  414TMC3    C7 6185   4.561   2.141  15.070 -0.0173 -0.4963 -0.2411
  414TMC3    C8 6186   4.688   1.739  15.283 -0.2264  0.8642 -0.7533
  414TMC3    O1 6187   4.473   2.215  15.030 -0.1119  0.1674 -0.1942
  414TMC3    O2 6188   0.034   1.707  15.187 -0.4410  0.5282 -0.2905
  415TMC3    C1 6189   0.058   0.705   9.992  0.2920  0.1017  1.1804
  415TMC3    C2 6190   0.113   0.743   9.873 -0.4439 -0.0641  0.2672
  415TMC3    C3 6191   0.024   0.792   9.775 -0.3410  0.4676 -0.1692
  415TMC3    C4 6192   4.640   0.710  10.012  0.3306 -0.3544 -0.0695
  415TMC3    C5 6193   4.557   0.760   9.911 -1.3319 -0.1846  0.0624
  415TMC3    C6 6194   4.616   0.797   9.791 -1.2246 -0.7329  0.1442
  415TMC3     C 6195   0.141   0.674  10.100 -0.5835 -0.3886 -0.1231
  415TMC3     O 6196   0.091   0.610  10.196  0.3921  0.1776  0.4850
  415TMC3     H 6197   0.220   0.736   9.857 -0.5117 -2.3243  0.8086
  415TMC3    H1 6198   4.603   0.669  10.105  0.1051  2.4553  1.1053
  415TMC3    H2 6199   4.558   0.815   9.701 -0.4928  1.5967  0.1523
  415TMC3    C7 6200   4.414   0.761   9.936  0.4123  0.5195  1.0443
  415TMC3    C8 6201   0.083   0.850   9.650 -0.1613 -0.1274  1.0086
  415TMC3    O1 6202   4.332   0.813   9.858  0.0546  0.7594 -0.1604
  415TMC3    O2 6203   0.011   0.862   9.551 -0.5393  0.2287 -0.0929
  416MPD2     C 6204   1.895   4.407  11.639  0.6254 -0.2839 -0.2606
  416MPD2    C1 6205   1.771   4.372  11.582  0.1121 -0.4579  0.6674
  416MPD2    C2 6206   1.767   4.286  11.475 -0.0094  0.2673 -0.1521
  416MPD2    C3 6207   1.878   4.221  11.428 -0.0403  0.1807  0.8095
  416MPD2    C4 6208   2.001   4.249  11.488  0.1678 -0.2865 -0.0607
  416MPD2    C5 6209   2.006   4.348  11.588  0.3739  0.1206  0.5107
  416MPD2     H 6210   1.674   4.257  11.428  0.2293  0.9556 -1.0474
  416MPD2    H1 6211   2.095   4.218  11.445  0.4094 -0.7305  0.8082
  416MPD2    H2 6212   1.910   4.490  11.707 -2.4414 -0.8900  1.1424
  416MPD2    H3 6213   2.099   4.386  11.629 -0.3870  2.3013  0.2436
  416MPD2     N 6214   1.884   4.112  11.333  0.3350 -0.1384 -0.0897
  416MPD2    H5 6215   1.972   4.062  11.321  0.0604 -0.3404 -1.2873
  416MPD2    N1 6216   1.644   4.417  11.639  0.4235  0.2022  0.3597
  416MPD2    H7 6217   1.553   4.390  11.603  0.1754  2.6646 -0.8048
  417TMC3    C1 6218   1.505   4.487  11.820  0.3402 -0.3811  0.0084
  417TMC3    C2 6219   1.469   4.403  11.928 -0.4961  0.4476 -0.5709
  417TMC3    C3 6220   1.340   4.361  11.949 -0.0379  0.3199  0.5345
  417TMC3    C4 6221   1.407   4.516  11.723 -0.0289 -0.4828  0.1497
  417TMC3    C5 6222   1.274   4.483  11.754 -0.7797  0.0155  0.5312
  417TMC3    C6 6223   1.241   4.408  11.857 -0.5637  0.2198 -0.1538
  417TMC3     C 6224   1.635   4.448  11.771  0.4137  1.2452 -0.2387
  417TMC3     O 6225   1.714   4.421  11.855 -0.1956 -0.2413  0.1369
  417TMC3     H 6226   1.544   4.371  12.000  2.5985  2.6442 -2.8026
  417TMC3    H1 6227   1.430   4.570  11.632 -2.9885  2.4034  1.1019
  417TMC3    H2 6228   1.140   4.372  11.872  0.2147 -0.5645  3.1121
  417TMC3    C7 6229   1.180   4.531  11.654 -0.0965  0.8734  0.3416
  417TMC3    C8 6230   1.294   4.304  12.073 -0.0143 -0.0659  0.4813
  417TMC3    O1 6231   1.188   4.647  11.623 -0.3701  0.3868  0.0096
  417TMC3    O2 6232   1.171   4.295  12.093  0.3298 -0.8491 -0.4459
  418TMC3    C1 6233   0.379   0.853   0.677  0.2304 -0.3424  0.5304
  418TMC3    C2 6234   0.333   0.929   0.569 -0.3647 -0.7687 -0.0265
  418TMC3    C3 6235   0.203   0.947   0.549 -0.5758  0.1424 -0.8202
  418TMC3    C4 6236   0.290   0.777   0.751  0.1873 -0.6366  0.0407
  418TMC3    C5 6237   0.155   0.792   0.719  0.5512  0.3058 -0.1214
  418TMC3    C6 6238   0.114   0.869   0.619 -0.5181 -0.6335  0.5991
  418TMC3     C 6239   0.522   0.829   0.680 -0.1174  0.7639  0.4793
  418TMC3     O 6240   0.590   0.910   0.618 -0.2476 -0.1498 -0.1586
  418TMC3     H 6241   0.401   0.982   0.504  0.1436 -3.0307 -1.3304
  418TMC3    H1 6242   0.318   0.705   0.826  0.4144  0.7954  1.3464
  418TMC3    H2 6243   0.007   0.874   0.606 -0.3362  1.6425 -0.0443
  418TMC3    C7 6244   0.052   0.718   0.793  0.7418 -0.3042 -0.5613
  418TMC3    C8 6245   0.166   1.032   0.438  0.2522 -0.2730  0.1227
  418TMC3    O1 6246   4.678   0.684   0.727  0.1327  0.1939 -0.1560
  418TMC3    O2 6247   0.242   1.121   0.400 -0.5936  0.0006  0.0602
  419MPD2     C 6248   3.963   3.975  12.690  0.2029 -0.7086  0.6323
  419MPD2    C1 6249   3.959   4.103  12.647 -0.1500  0.2018  0.2089
  419MPD2    C2 6250   3.936   4.206  12.736 -0.1088  0.3691 -1.4626
  419MPD2    C3 6251   3.907   4.176  12.867  0.1857 -0.1214  0.0083
  419MPD2    C4 6252   3.911   4.045  12.907 -0.4969  0.9507  0.2562
  419MPD2    C5 6253   3.950   3.949  12.818  0.3621  0.2834  1.0578
  419MPD2     H 6254   3.938   4.308  12.702 -0.9835  1.1751  0.8923
  419MPD2    H1 6255   3.905   4.018  13.012  2.6833  0.3621  0.3126
  419MPD2    H2 6256   3.977   3.889  12.626  1.2515 -0.3878  0.4368
  419MPD2    H3 6257   3.951   3.847  12.855 -0.4453 -0.2221 -0.3618
  419MPD2     N 6258   3.867   4.283  12.952  0.3260  0.0867  0.8849
  419MPD2    H5 6259   3.886   4.379  12.924  1.4635 -0.4122 -0.0244
  419MPD2    N1 6260   3.962   4.138  12.515  0.7727 -0.5045  0.5093
  419MPD2    H7 6261   3.966   4.237  12.492  3.0126 -0.3402  1.7086
  420TMC3    C1 6262   3.831   4.397  13.150 -0.8951  0.3541  0.1131
  420TMC3    C2 6263   3.763   4.494  13.086  0.7486  0.0188  0.5201
  420TMC3    C3 6264   3.722   4.601  13.167  0.1143 -0.6980 -0.1603
  420TMC3    C4 6265   3.867   4.401  13.288  0.2504  0.3618  0.0734
  420TMC3    C5 6266   3.829   4.517  13.351 -0.1894  0.1309  0.1314
  420TMC3    C6 6267   3.760   4.621  13.298 -0.4458 -0.4327  0.5808
  420TMC3     C 6268   3.849   4.266  13.087  0.1429 -0.4625 -0.7233
  420TMC3     O 6269   3.846   4.171  13.165  0.2966  0.4606  0.0156
  420TMC3     H 6270   3.730   4.491  12.982 -0.3723 -2.0980  0.9438
  420TMC3    H1 6271   3.928   4.323  13.331 -1.1127 -0.9421 -0.3664
  420TMC3    H2 6272   3.704   4.694  13.354  0.4846  0.3899  0.4470
  420TMC3    C7 6273   3.877   4.525  13.492  0.4402  0.4440  0.5983
  420TMC3    C8 6274   3.612   4.684  13.122 -0.5160 -0.6777  0.1328
  420TMC3    O1 6275   3.935   4.426  13.535 -0.5323 -0.5045  0.0040
  420TMC3    O2 6276   3.608   0.080  13.156 -0.7483 -0.6176 -0.0284
  421TMC3    C1 6277   0.927   1.019  13.656 -0.2352 -0.2391  0.0340
  421TMC3    C2 6278   0.935   1.102  13.768 -0.2932  0.0669  0.0325
  421TMC3    C3 6279   1.021   1.055  13.864  0.6223 -0.6904  0.4368
  421TMC3    C4 6280   1.006   0.909  13.629 -0.3011  0.3146  0.2885
  421TMC3    C5 6281   1.081   0.867  13.734 -0.2818 -0.6708  0.3236
  421TMC3    C6 6282   1.101   0.946  13.846 -0.0574 -0.1915 -0.0444
  421TMC3     C 6283   0.836   1.077  13.550  0.2869 -0.7881  0.1458
  421TMC3     O 6284   0.819   1.198  13.553  0.1205  0.7010  0.5180
  421TMC3     H 6285   0.877   1.194  13.778  3.3855  2.3138  0.8604
  421TMC3    H1 6286   0.999   0.849  13.539 -1.1760  0.7684  0.0593
  421TMC3    H2 6287   1.173   0.911  13.920 -0.3027 -3.5274 -1.3572
  421TMC3    C7 6288   1.192   0.773  13.704  0.3996 -0.8326  0.7366
  421TMC3    C8 6289   1.075   1.155  13.957 -0.1953 -0.4846 -0.9546
  421TMC3    O1 6290   1.298   0.776  13.764 -0.3338  1.0950  0.2364
  421TMC3    O2 6291   1.186   1.144  14.003 -0.2803  0.2288 -0.1581
  422TMC3    C1 6292   2.415   2.061  12.850 -0.3095 -0.2951 -0.5344
  422TMC3    C2 6293   2.496   2.155  12.911 -0.3171  0.0868 -0.3116
  422TMC3    C3 6294   2.496   2.164  13.046  0.4542 -0.7110 -0.1157
  422TMC3    C4 6295   2.322   1.987  12.923  0.6972 -0.0097 -0.5524
  422TMC3    C5 6296   2.323   1.997  13.056  0.1123 -0.4996 -0.0901
  422TMC3    C6 6297   2.407   2.085  13.124  0.5274 -0.2923  0.1111
  422TMC3     C 6298   2.405   2.068  12.707  0.5973  0.1338  0.3286
  422TMC3     O 6299   2.509   2.101  12.649 -0.0265  0.2731  0.3344
  422TMC3     H 6300   2.562   2.214  12.847  1.0653 -0.8793  0.2098
  422TMC3    H1 6301   2.254   1.911  12.885  0.2397  0.3068 -0.3674
  422TMC3    H2 6302   2.386   2.110  13.227  0.4018  1.4933 -0.3381
  422TMC3    C7 6303   2.204   1.945  13.117  0.3758 -0.2935 -0.5921
  422TMC3    C8 6304   2.560   2.278  13.106 -0.4901 -0.0948 -0.5725
  422TMC3    O1 6305   2.102   1.944  13.053  0.4755  0.0145 -0.4162
  422TMC3    O2 6306   2.582   2.376  13.034 -0.5574  0.8529 -0.2808
  423MPD2     C 6307   4.274   3.126   0.750 -0.0758 -0.3794  0.0800
  423MPD2    C1 6308   4.177   3.048   0.701  0.2681  1.0073  0.4706
  423MPD2    C2 6309   4.161   3.048   0.569 -0.3359 -0.2393  0.3894
  423MPD2    C3 6310   4.254   3.108   0.484  0.0890  1.1746 -0.4327
  423MPD2    C4 6311   4.372   3.157   0.533  0.4058  0.2483  0.6929
  423MPD2    C5 6312   4.374   3.168   0.671  0.2492  0.4981  0.4046
  423MPD2     H 6313   4.066   3.010   0.532  0.5656 -2.6878  0.5790
  423MPD2    H1 6314   4.434   3.217   0.468 -0.5846  0.2644 -0.2392
  423MPD2    H2 6315   4.288   3.140   0.856 -0.4709 -1.8254  0.3129
  423MPD2    H3 6316   4.453   3.231   0.711 -0.0328  0.2508  1.3292
  423MPD2     N 6317   4.230   3.123   0.342 -0.5048  0.1673 -0.0499
  423MPD2    H5 6318   4.308   3.161   0.289  0.0665 -1.4472 -0.3703
  423MPD2    N1 6319   4.084   2.989   0.780 -0.2382 -0.1040  0.0611
  423MPD2    H7 6320   4.004   2.950   0.731 -0.7721  3.0875 -1.6122
  424TMC3    C1 6321   3.988   2.886   0.961  0.5248  0.1326 -1.3485
  424TMC3    C2 6322   4.002   2.843   1.091  0.4343  0.2963  0.3251
  424TMC3    C3 6323   3.897   2.797   1.168 -0.4746  1.0192 -0.3003
  424TMC3    C4 6324   3.855   2.903   0.921 -0.0993  0.5301 -0.4393
  424TMC3    C5 6325   3.756   2.859   1.000 -0.1626  1.1563 -0.1289
  424TMC3    C6 6326   3.770   2.807   1.120  0.2770  0.2387 -0.0693
  424TMC3     C 6327   4.097   2.962   0.913 -0.6125 -0.5266  0.2290
  424TMC3     O 6328   4.192   2.974   0.992  0.3787  0.2963 -0.4418
  424TMC3     H 6329   4.103   2.829   1.130  0.3669  0.6064  0.6187
  424TMC3    H1 6330   3.826   2.927   0.820  0.0235 -0.2111 -0.6459
  424TMC3    H2 6331   3.682   2.777   1.177  2.0779 -1.6310  1.7175
  424TMC3    C7 6332   3.626   2.880   0.945 -0.0643 -0.6970 -0.2051
  424TMC3    C8 6333   3.917   2.727   1.296 -0.5548  0.2504  0.8210
  424TMC3    O1 6334   3.600   2.835   0.836  0.5951 -0.1880  0.1583
  424TMC3    O2 6335   3.817   2.676   1.339  0.1928 -0.2542 -0.1354
  425MPD2     C 6336   3.329   2.595  16.956  0.7098  0.0408  0.3011
  425MPD2    C1 6337   3.381   2.516  17.057 -0.0821 -0.1977  0.0188
  425MPD2    C2 6338   3.313   2.512  17.178  0.6199  0.4169 -0.4914
  425MPD2    C3 6339   3.196   2.590  17.193  0.3638 -0.5210 -0.2720
  425MPD2    C4 6340   3.142   2.658  17.084  0.2034 -0.2066 -0.4237
  425MPD2    C5 6341   3.214   2.660  16.968 -0.3761 -0.6593  0.3365
  425MPD2     H 6342   3.346   2.451  17.261  0.1673 -0.1056 -0.6976
  425MPD2    H1 6343   3.045   2.703  17.099  0.6884  0.4322  0.7760
  425MPD2    H2 6344   3.381   2.607  16.861  0.8426 -1.1945  0.2120
  425MPD2    H3 6345   3.181   2.719  16.883 -0.4821 -1.4206 -0.1479
  425MPD2     N 6346   3.125   2.557  17.311  0.0606  0.4489  0.2824
  425MPD2    H5 6347   3.151   2.471  17.358 -2.1257 -1.1293 -1.3881
  425MPD2    N1 6348   3.510   2.458  17.049 -0.3804  0.1987  0.3339
  425MPD2    H7 6349   3.550   2.448  16.956  0.4332 -0.4496  0.7620
  426TMC3    C1 6350   3.665   2.306  17.117  0.0753 -0.5066 -0.4337
  426TMC3    C2 6351   3.621   2.210  17.033  0.2150  0.4352  0.1890
  426TMC3    C3 6352   3.698   2.098  17.037  0.2953  0.5172  0.1389
  426TMC3    C4 6353   3.780   2.289  17.199 -0.9899  0.6713 -0.9041
  426TMC3    C5 6354   3.838   2.165  17.207 -0.2908  0.6341 -0.3429
  426TMC3    C6 6355   3.805   2.070  17.114 -0.0024 -0.8433  0.5187
  426TMC3     C 6356   3.578   2.410  17.154  0.1869  0.5090  0.0597
  426TMC3     O 6357   3.583   2.436  17.274 -0.4935 -0.2227 -0.2459
  426TMC3     H 6358   3.525   2.213  16.983  0.2362 -0.9654  0.0454
  426TMC3    H1 6359   3.798   2.374  17.265  1.4622  0.1967 -0.9534
  426TMC3    H2 6360   3.851   1.972  17.109  0.7810 -0.4318 -0.2277
  426TMC3    C7 6361   3.844   2.103  17.337 -1.0346  0.1160  0.3150
  426TMC3    C8 6362   3.656   1.989  16.956  0.4838  1.1514 -0.0093
  426TMC3    O1 6363   3.878   1.987  17.348 -0.4677 -0.7569  0.0459
  426TMC3    O2 6364   3.741   1.914  16.909 -0.4341  0.0171 -0.3180
  427MPD2     C 6365   2.017   4.712  14.753  0.1071 -0.6801 -0.2547
  427MPD2    C1 6366   1.974   4.678  14.876  0.8023 -0.3791 -0.2033
  427MPD2    C2 6367   1.841   4.701  14.916  0.3573 -0.3449  0.1736
  427MPD2    C3 6368   1.751   0.029  14.826 -0.2653 -0.8546 -0.3689
  427MPD2    C4 6369   1.793   0.059  14.699  0.2361  0.2850  0.2040
  427MPD2    C5 6370   1.924   0.046  14.667 -0.0303  1.0965  0.8417
  427MPD2     H 6371   1.816   4.681  15.020 -1.3492 -0.2516 -0.2256
  427MPD2    H1 6372   1.725   0.103  14.628  1.3553  0.6974 -0.6185
  427MPD2    H2 6373   2.121   4.708  14.721  0.5616 -0.4029  1.1818
  427MPD2    H3 6374   1.959   0.071  14.568  1.0721 -1.7996  0.4850
  427MPD2     N 6375   1.607   0.044  14.852 -0.5220  0.3609 -0.2562
  427MPD2    H5 6376   1.547   0.058  14.772 -0.5151 -0.6810 -0.4506
  427MPD2    N1 6377   2.063   4.637  14.977  0.0089 -0.1490 -0.0700
  427MPD2    H7 6378   2.024   4.625  15.070  2.0701  0.2452  0.8639
  428TMC3    C1 6379   2.241   4.521  15.075  0.0904  0.2689  0.5661
  428TMC3    C2 6380   2.158   4.423  15.112 -0.1195 -0.2465  0.3292
  428TMC3    C3 6381   2.197   4.349  15.214 -0.0060  0.1176  0.2956
  428TMC3    C4 6382   2.359   4.552  15.137  0.2737 -0.4219  0.5207
  428TMC3    C5 6383   2.389   4.475  15.245  0.5341  0.0989  0.5490
  428TMC3    C6 6384   2.305   4.378  15.287 -0.1303 -0.0041  0.5705
  428TMC3     C 6385   2.198   4.605  14.967 -0.1962 -0.1674  0.0330
  428TMC3     O 6386   2.279   4.623  14.874  0.2230  0.4858  0.3226
  428TMC3     H 6387   2.068   4.398  15.057 -0.0460 -0.9480  0.5301
  428TMC3    H1 6388   2.419   4.635  15.101 -0.4551  0.5524  1.5696
  428TMC3    H2 6389   2.328   4.336  15.384  0.8453  0.0245  0.3588
  428TMC3    C7 6390   2.493   4.516  15.333 -0.0761  0.2492  0.5339
  428TMC3    C8 6391   2.107   4.243  15.259 -0.5629  0.2702  0.0726
  428TMC3    O1 6392   2.477   4.496  15.455  0.5306 -0.2738 -0.1518
  428TMC3    O2 6393   2.037   4.191  15.171  0.7869  0.3313  0.4623
  429MPD2     C 6394   3.335   4.432  17.671 -0.7308  0.1599  0.0076
  429MPD2    C1 6395   3.311   4.379  17.548 -0.0732  0.5031 -0.2124
  429MPD2    C2 6396   3.342   4.454  17.435  0.8153 -0.4493 -0.0876
  429MPD2    C3 6397   3.397   4.583  17.449 -0.4717 -0.5495 -0.4687
  429MPD2    C4 6398   3.427   4.627  17.571 -0.7461  0.8699  0.3174
  429MPD2    C5 6399   3.386   4.560  17.681  0.1148 -0.1932  0.3831
  429MPD2     H 6400   3.325   4.422  17.333 -0.2691  1.7306 -0.5851
  429MPD2    H1 6401   3.464   0.002  17.598  0.2932  0.0650  1.8928
  429MPD2    H2 6402   3.309   4.383   0.068 -0.6149  0.5705  0.2583
  429MPD2    H3 6403   3.407   4.607   0.080 -0.8777 -3.1546  2.0767
  429MPD2     N 6404   3.439   4.648  17.331  0.4175 -0.3594 -0.0791
  429MPD2    H5 6405   3.433   4.601  17.241 -1.2131 -1.4301  0.5930
  429MPD2    N1 6406   3.274   4.247  17.526  0.3177  0.0190  0.7419
  429MPD2    H7 6407   3.273   4.210  17.431 -1.8240  0.9155  0.4155
  430TMC3    C1 6408   3.534   0.085  17.192  0.7470 -1.0381  0.1309
  430TMC3    C2 6409   3.542   0.211  17.153  0.0157  0.1855 -0.0405
  430TMC3    C3 6410   3.599   0.241  17.030  0.7556 -0.7606 -0.0289
  430TMC3    C4 6411   3.585   4.708  17.108 -0.1389  0.5990  0.1867
  430TMC3    C5 6412   3.652   0.021  16.995 -0.9982  0.4292  0.1000
  430TMC3    C6 6413   3.660   0.147  16.950 -0.1119 -0.5840 -0.3956
  430TMC3     C 6414   3.486   0.053  17.325  0.1070 -0.3427  0.9219
  430TMC3     O 6415   3.491   0.139  17.410 -0.2952  0.5997 -0.3616
  430TMC3     H 6416   3.490   0.285  17.213 -1.0667 -0.5646 -0.0563
  430TMC3    H1 6417   3.578   4.600  17.123 -1.6311  0.7954  0.9037
  430TMC3    H2 6418   3.694   0.183  16.854  0.6058  0.4036  0.2214
  430TMC3    C7 6419   3.670   4.642  16.896  0.6168 -0.2028  0.6554
  430TMC3    C8 6420   3.540   0.342  16.954  0.4130 -0.5046  0.4497
  430TMC3    O1 6421   3.608   4.536  16.903  0.3970  0.3087  0.0445
  430TMC3    O2 6422   3.519   0.320  16.836 -0.3275 -0.4614  0.3277
  431MPD2     C 6423   3.606   4.609  12.710 -1.2990  0.9827 -0.0003
  431MPD2    C1 6424   3.671   4.666  12.602  0.3554 -0.0994 -0.8170
  431MPD2    C2 6425   3.668   4.604  12.481  0.4144 -0.0610 -0.6404
  431MPD2    C3 6426   3.609   4.482  12.466  0.4015  0.2513 -0.6879
  431MPD2    C4 6427   3.538   4.423  12.569  0.7523  0.2821 -0.2686
  431MPD2    C5 6428   3.538   4.488  12.693  0.0930 -0.4933 -0.1517
  431MPD2     H 6429   3.729   4.644  12.400  1.0112 -1.6526 -0.9775
  431MPD2    H1 6430   3.480   4.333  12.555  1.8150 -0.8133  2.2329
  431MPD2    H2 6431   3.592   4.668  12.800 -0.3299  0.8848  0.2123
  431MPD2    H3 6432   3.469   4.448  12.766 -1.2743 -0.4245 -1.4133
  431MPD2     N 6433   3.643   4.399  12.356  0.4233 -0.5276  0.2022
  431MPD2    H5 6434   3.613   4.302  12.355 -0.2187 -0.2979 -1.7991
  431MPD2    N1 6435   3.749   0.060  12.616  0.2076 -0.1524 -0.0979
  431MPD2    H7 6436   3.788   0.104  12.533 -1.9292 -1.0716 -1.5649
  432TMC3    C1 6437   3.813   4.318  12.221 -0.5344 -0.7494  0.1306
  432TMC3    C2 6438   3.865   4.310  12.093  0.3323 -0.5835  0.2583
  432TMC3    C3 6439   3.936   4.200  12.068  1.0380 -0.6305 -0.1799
  432TMC3    C4 6440   3.847   4.237  12.325 -1.0467  0.3824  0.3082
  432TMC3    C5 6441   3.926   4.133  12.295 -0.2592  0.6745  0.3533
  432TMC3    C6 6442   3.972   4.104  12.167  0.2738  0.1682  0.3038
  432TMC3     C 6443   3.725   4.431  12.255 -0.2484 -0.2464 -0.4820
  432TMC3     O 6444   3.755   4.543  12.208  0.4363 -0.3620  0.3995
  432TMC3     H 6445   3.843   4.386  12.018 -2.5974 -0.5307  1.1535
  432TMC3    H1 6446   3.791   4.245  12.417  0.9856 -0.6207  1.6241
  432TMC3    H2 6447   4.027   4.012  12.146  0.1614  0.7707 -2.6526
  432TMC3    C7 6448   3.965   4.051  12.406 -0.3568 -0.0098  0.1535
  432TMC3    C8 6449   3.953   4.159  11.926  0.6657  0.3972 -0.7814
  432TMC3    O1 6450   3.978   3.930  12.393  0.5767 -0.1079  0.0547
  432TMC3    O2 6451   3.871   4.188  11.837  0.0590 -0.1451  0.2747
  433MPD2     C 6452   2.725   3.555  10.846 -0.1198  0.3537 -0.3606
  433MPD2    C1 6453   2.744   3.444  10.921  0.4300  0.5335  0.1174
  433MPD2    C2 6454   2.795   3.464  11.053 -0.4989  0.8249  0.5209
  433MPD2    C3 6455   2.830   3.589  11.105  1.0774 -0.0650  0.1824
  433MPD2    C4 6456   2.788   3.701  11.031 -0.6618 -0.4788 -0.1316
  433MPD2    C5 6457   2.750   3.680  10.901 -0.6459  0.2675 -0.7155
  433MPD2     H 6458   2.816   3.384  11.123 -0.2978  0.7874  0.4152
  433MPD2    H1 6459   2.807   3.799  11.074 -0.2488 -1.9819  3.0926
  433MPD2    H2 6460   2.708   3.544  10.739  1.1161 -1.2240 -0.4077
  433MPD2    H3 6461   2.732   3.770  10.843 -1.8172  1.9802  2.3585
  433MPD2     N 6462   2.880   3.591  11.240  0.6676  0.2038  0.2863
  433MPD2    H5 6463   2.908   3.504  11.284  1.4129  1.7527  2.8117
  433MPD2    N1 6464   2.733   3.313  10.867  0.1131  0.0551  0.0197
  433MPD2    H7 6465   2.694   3.303  10.773 -1.4415  0.2133  0.6396
  434TMC3    C1 6466   2.783   3.085  10.839 -0.0370  0.1127 -0.1423
  434TMC3    C2 6467   2.803   2.965  10.902  0.1239 -0.3899  0.6414
  434TMC3    C3 6468   2.832   2.845  10.838  0.4720  0.0497  0.8776
  434TMC3    C4 6469   2.794   3.096  10.709 -0.0384 -0.6425 -0.5729
  434TMC3    C5 6470   2.837   2.980  10.643  0.1003  0.6559  0.3998
  434TMC3    C6 6471   2.857   2.859  10.704 -0.1903  0.6234  0.1388
  434TMC3     C 6472   2.768   3.200  10.928 -0.5537  0.7234  0.3482
  434TMC3     O 6473   2.790   3.184  11.045 -0.1231  0.3607  0.7401
  434TMC3     H 6474   2.788   2.960  11.009  2.4486 -0.5651  0.9562
  434TMC3    H1 6475   2.758   3.177  10.646  1.5287  2.0153  1.9655
  434TMC3    H2 6476   2.890   2.771  10.650 -1.2475 -0.0263  0.5650
  434TMC3    C7 6477   2.803   2.986  10.505  0.4605  0.9094  0.0585
  434TMC3    C8 6478   2.922   2.763  10.922  0.3023 -0.7107  0.2509
  434TMC3    O1 6479   2.846   3.082  10.447  0.2517  0.3583 -0.2386
  434TMC3    O2 6480   2.909   2.768  11.044 -0.0966 -0.3035 -0.8495
  435MPD2     C 6481   0.508   3.090  15.476  0.1114  0.3872 -0.1279
  435MPD2    C1 6482   0.442   3.076  15.598  0.6415 -1.1924  0.4338
  435MPD2    C2 6483   0.521   3.045  15.703  0.2365  0.1478  0.3139
  435MPD2    C3 6484   0.657   3.033  15.692  0.1484  0.5918 -0.1898
  435MPD2    C4 6485   0.721   3.053  15.571  0.2728  1.3857  0.2097
  435MPD2    C5 6486   0.645   3.089  15.466  0.3878 -0.7749 -0.0488
  435MPD2     H 6487   0.473   3.034  15.800  0.4165  0.8168  0.4852
  435MPD2    H1 6488   0.828   3.052  15.558  0.3879 -0.2562  1.2822
  435MPD2    H2 6489   0.456   3.106  15.382 -0.6205  1.7830  0.5141
  435MPD2    H3 6490   0.689   3.100  15.368  0.4901 -0.6226  0.0149
  435MPD2     N 6491   0.722   3.004  15.811 -0.6283 -0.2411 -0.1064
  435MPD2    H5 6492   0.663   2.993  15.894 -1.1688  3.8538  0.0214
  435MPD2    N1 6493   0.305   3.091  15.606  0.3064  0.1841 -0.0509
  435MPD2    H7 6494   0.256   3.068  15.692 -0.1339 -2.2674 -0.9353
  436TMC3    C1 6495   4.661   3.178  15.748  0.2027 -0.1347 -0.4031
  436TMC3    C2 6496   0.071   3.176  15.699 -0.1731 -0.4081  0.1020
  436TMC3    C3 6497   0.087   3.169  15.566 -0.2419 -0.0341  0.8390
  436TMC3    C4 6498   4.556   3.156  15.666 -0.0052 -0.3474  0.2198
  436TMC3    C5 6499   4.580   3.163  15.535  0.3853  0.3198 -0.8693
  436TMC3    C6 6500   4.703   3.168  15.480 -0.9451 -0.6266  0.2002
  436TMC3     C 6501   4.646   3.164  15.891 -0.1723  0.0661 -0.3538
  436TMC3     O 6502   0.023   3.138  15.955  0.0806  0.2677 -0.2254
  436TMC3     H 6503   0.154   3.202  15.764 -0.0718  0.5702 -0.4179
  436TMC3    H1 6504   4.457   3.156  15.712  0.5641 -0.8491  1.4369
  436TMC3    H2 6505   0.003   3.185  15.376 -1.5608  0.2383  0.2006
  436TMC3    C7 6506   4.475   3.207  15.448 -0.2887  0.3252 -0.7629
  436TMC3    C8 6507   0.223   3.154  15.518  0.4009  0.0075 -0.0470
  436TMC3    O1 6508   4.501   3.203  15.330 -0.5231 -0.2664 -0.3491
  436TMC3    O2 6509   0.240   3.177  15.397 -0.4986  0.8393  0.3712
  437TMC3    C1 6510   3.316   0.971  12.724 -0.4002 -0.3299 -0.9036
  437TMC3    C2 6511   3.231   1.080  12.701 -0.1241 -0.0021 -0.4882
  437TMC3    C3 6512   3.245   1.156  12.581 -0.1527 -0.1881  0.3870
  437TMC3    C4 6513   3.414   0.935  12.635  0.2743 -0.1098 -0.4219
  437TMC3    C5 6514   3.419   1.011  12.522  0.2307 -0.8851 -0.1170
  437TMC3    C6 6515   3.342   1.122  12.491 -0.1452  0.4715 -0.3292
  437TMC3     C 6516   3.313   0.890  12.845  0.4689 -0.0878 -0.4297
  437TMC3     O 6517   3.409   0.823  12.867 -0.2631  0.1675 -0.3329
  437TMC3     H 6518   3.141   1.099  12.758 -1.0012 -1.8461 -1.2786
  437TMC3    H1 6519   3.470   0.843  12.653 -3.1486 -1.3633  3.7810
  437TMC3    H2 6520   3.364   1.184  12.404  0.0885  0.7068 -0.1053
  437TMC3    C7 6521   3.532   0.990  12.441  0.4131  0.2479 -0.1349
  437TMC3    C8 6522   3.161   1.272  12.563 -0.2446 -0.2077  0.7133
  437TMC3    O1 6523   3.533   1.051  12.334  0.1337 -0.1477  0.2479
  437TMC3    O2 6524   3.121   1.291  12.447 -0.3773  0.1793  0.1630
  438MPD2     C 6525   0.964   1.325  16.826 -0.2103  0.1049  0.6188
  438MPD2    C1 6526   0.985   1.220  16.918  0.4320  0.5193  0.0264
  438MPD2    C2 6527   0.967   1.247  17.052 -0.3713  0.1629 -0.5733
  438MPD2    C3 6528   0.925   1.365  17.108 -0.3197 -0.6211  0.3485
  438MPD2    C4 6529   0.904   1.461  17.009 -0.2997  0.1659  0.2513
  438MPD2    C5 6530   0.926   1.448  16.874 -0.7527 -1.2075  0.2661
  438MPD2     H 6531   0.980   1.169  17.127  2.5096 -1.7408 -3.0951
  438MPD2    H1 6532   0.875   1.560  17.039  0.2326  1.1641 -2.4770
  438MPD2    H2 6533   0.991   1.317  16.721 -0.2022 -2.6915  0.8267
  438MPD2    H3 6534   0.910   1.528  16.802 -0.3605 -1.1255  0.2741
  438MPD2     N 6535   0.894   1.384  17.244  0.1723  0.4653  0.2305
  438MPD2    H5 6536   0.854   1.471  17.274  2.1559  1.0390  1.2022
  438MPD2    N1 6537   1.046   1.093  16.883  0.5880  1.1718 -0.4052
  438MPD2    H7 6538   1.063   1.034  16.964  0.1077 -1.3197 -2.1173
  439TMC3    C1 6539   1.158   0.934  16.767  0.1279  0.1664  0.4568
  439TMC3    C2 6540   1.141   0.842  16.667  0.2229 -0.2004  0.3228
  439TMC3    C3 6541   1.175   0.715  16.698 -0.0375 -0.3017 -0.1922
  439TMC3    C4 6542   1.241   0.909  16.877 -0.1445 -0.4053 -0.5213
  439TMC3    C5 6543   1.278   0.780  16.894  0.1849 -0.3175 -0.4473
  439TMC3    C6 6544   1.234   0.680  16.820  0.0243 -0.0376 -0.3205
  439TMC3     C 6545   1.077   1.052  16.762  0.0814 -0.2509 -0.1155
  439TMC3     O 6546   1.022   1.080  16.653  0.4969  0.4280  0.1534
  439TMC3     H 6547   1.098   0.865  16.570 -0.0741 -0.1796  0.4584
  439TMC3    H1 6548   1.272   0.989  16.943  0.4701 -0.0621 -1.2162
  439TMC3    H2 6549   1.245   0.575  16.844  2.5516  0.1341 -0.6721
  439TMC3    C7 6550   1.410   0.758  16.943  0.2566 -0.0655  0.3678
  439TMC3    C8 6551   1.235   0.640  16.588 -0.9254 -0.2680 -0.3189
  439TMC3    O1 6552   1.469   0.842  17.010 -0.3588 -0.2512 -0.2909
  439TMC3    O2 6553   1.319   0.565  16.630 -0.0474  0.0156  0.1738
  440MPD2     C 6554   0.183   1.517  14.485 -0.3064 -0.9871  0.1227
  440MPD2    C1 6555   0.159   1.569  14.613 -0.9031  0.3938  0.2920
  440MPD2    C2 6556   0.233   1.514  14.717  0.2109  0.5662  0.3287
  440MPD2    C3 6557   0.320   1.406  14.696 -0.3989  0.1429 -0.6019
  440MPD2    C4 6558   0.343   1.360  14.572 -0.1770 -0.2218 -0.3645
  440MPD2    C5 6559   0.269   1.410  14.466  0.3474  0.0060 -0.6993
  440MPD2     H 6560   0.216   1.543  14.820  0.3598 -0.2960  0.5917
  440MPD2    H1 6561   0.408   1.274  14.561  0.6958  0.0388  2.6491
  440MPD2    H2 6562   0.141   1.547  14.390 -1.1182  0.3497  0.8994
  440MPD2    H3 6563   0.274   1.359  14.370 -0.1555 -0.4954 -0.4646
  440MPD2     N 6564   0.386   1.333  14.800 -0.4154 -0.4962 -0.2020
  440MPD2    H5 6565   0.420   1.240  14.780  0.1189 -0.2652 -0.3655
  440MPD2    N1 6566   0.061   1.674  14.633 -0.5547  0.9617 -0.1594
  440MPD2    H7 6567   0.045   1.703  14.729 -0.4954 -0.2744  0.2277
  441TMC3    C1 6568   0.460   1.299  15.029  0.7942 -0.0680  0.0409
  441TMC3    C2 6569   0.496   1.357  15.146  0.3779  0.6462 -0.1160
  441TMC3    C3 6570   0.531   1.288  15.253  0.0915 -0.1227  0.0548
  441TMC3    C4 6571   0.459   1.162  15.019 -0.0430  0.0948  0.8977
  441TMC3    C5 6572   0.469   1.090  15.138  0.2709  0.1364 -0.7328
  441TMC3    C6 6573   0.517   1.153  15.250 -0.5690  0.2637 -1.0438
  441TMC3     C 6574   0.417   1.392  14.923 -0.2320 -0.0396 -0.1766
  441TMC3     O 6575   0.400   1.509  14.949 -0.1642  0.1653 -0.8912
  441TMC3     H 6576   0.484   1.464  15.156 -1.1022  0.4642 -0.0152
  441TMC3    H1 6577   0.406   1.116  14.936 -0.6123  0.2955  1.1474
  441TMC3    H2 6578   0.533   1.102  15.344  0.7566 -1.2081 -2.0646
  441TMC3    C7 6579   0.403   0.963  15.165  0.4912  0.3280 -0.8635
  441TMC3    C8 6580   0.493   1.353  15.377 -0.8353  0.3042  0.0050
  441TMC3    O1 6581   0.373   0.890  15.070 -0.2865  0.7481 -0.5761
  441TMC3    O2 6582   0.553   1.336  15.481 -0.2567  0.0632  0.2587
  442MPD2     C 6583   2.713   2.263  16.634 -0.1152  0.1752 -0.5622
  442MPD2    C1 6584   2.617   2.174  16.673 -0.2240  0.0256 -0.0977
  442MPD2    C2 6585   2.630   2.046  16.636 -0.0081  0.4345 -0.0169
  442MPD2    C3 6586   2.728   2.005  16.546 -0.7918 -0.1027  0.6319
  442MPD2    C4 6587   2.816   2.099  16.502  0.2300 -0.5025 -0.3974
  442MPD2    C5 6588   2.810   2.222  16.547 -0.1450  0.1139  0.0463
  442MPD2     H 6589   2.551   1.976  16.660  0.2534 -0.0417 -0.5635
  442MPD2    H1 6590   2.889   2.066  16.430  0.8851 -2.0312  0.9552
  442MPD2    H2 6591   2.708   2.368  16.661 -0.4764 -1.0232  3.9791
  442MPD2    H3 6592   2.883   2.296  16.517 -0.0941 -0.1754 -0.5392
  442MPD2     N 6593   2.747   1.871  16.503  0.5929 -0.1950  0.3187
  442MPD2    H5 6594   2.834   1.847  16.456  0.9568 -0.6179  1.1991
  442MPD2    N1 6595   2.517   2.207  16.762 -0.0980  0.2146  0.2689
  442MPD2    H7 6596   2.451   2.134  16.789  3.0093 -2.0188  1.8185
  443TMC3    C1 6597   2.362   2.345  16.872  0.3974  0.7397  0.3016
  443TMC3    C2 6598   2.269   2.443  16.849  0.0915  0.8379 -0.0875
  443TMC3    C3 6599   2.151   2.432  16.914 -0.1293  0.0375  0.1173
  443TMC3    C4 6600   2.355   2.249  16.974 -1.3696  0.4149  0.8694
  443TMC3    C5 6601   2.238   2.247  17.040  0.8582  0.1529 -0.2321
  443TMC3    C6 6602   2.135   2.334  17.013 -0.0451 -0.2542  0.7433
  443TMC3     C 6603   2.479   2.338  16.797 -0.5449 -0.7972 -0.5429
  443TMC3     O 6604   2.528   2.444  16.766 -0.9262  0.1471  0.3985
  443TMC3     H 6605   2.285   2.524  16.779  2.8637  0.5071  0.1398
  443TMC3    H1 6606   2.436   2.182  17.001  0.2888  2.1404  0.2322
  443TMC3    H2 6607   2.034   2.318  17.048  0.1901  0.0180  1.5402
  443TMC3    C7 6608   2.239   2.194  17.178  0.0174 -0.0741 -0.5212
  443TMC3    C8 6609   2.046   2.534  16.892  0.0041  0.4975 -0.6121
  443TMC3    O1 6610   2.326   2.116  17.219 -0.0216  0.1576 -0.4319
  443TMC3    O2 6611   1.959   2.550  16.977 -0.0766 -0.7781  0.3801
  444MPD2     C 6612   3.406   1.363  16.986 -0.0804  0.1679 -0.0858
  444MPD2    C1 6613   3.307   1.264  16.991  0.3103 -0.6836  0.3133
  444MPD2    C2 6614   3.340   1.131  16.962 -0.8429  0.1556 -0.4934
  444MPD2    C3 6615   3.471   1.103  16.913  0.4275 -0.6225  0.0229
  444MPD2    C4 6616   3.570   1.205  16.909 -0.4141  0.1996 -0.3258
  444MPD2    C5 6617   3.530   1.325  16.953  0.7621 -0.3357  0.1442
  444MPD2     H 6618   3.264   1.054  16.972 -0.0616 -0.3931  1.4458
  444MPD2    H1 6619   3.672   1.191  16.875 -0.3795 -2.1307  0.7685
  444MPD2    H2 6620   3.378   1.467  16.999  2.6254  0.8513  0.1486
  444MPD2    H3 6621   3.598   1.409  16.946  0.2229 -0.0572 -1.7643
  444MPD2     N 6622   3.487   0.971  16.868  0.4652 -0.1540  0.3685
  444MPD2    H5 6623   3.401   0.919  16.856  0.3581  0.4182 -1.3145
  444MPD2    N1 6624   3.171   1.298  17.034  0.1917  0.1675  0.4206
  444MPD2    H7 6625   3.105   1.221  17.035 -0.2839  0.5726  0.0518
  445TMC3    C1 6626   3.586   0.779  16.775 -0.9126  0.0600 -0.3490
  445TMC3    C2 6627   3.463   0.743  16.725 -0.8198  0.4942 -0.5854
  445TMC3    C3 6628   3.454   0.649  16.622  0.4589  0.9433 -0.2037
  445TMC3    C4 6629   3.698   0.716  16.739  0.4209  0.3509  0.3082
  445TMC3    C5 6630   3.685   0.616  16.643  0.5152  0.0245 -0.3302
  445TMC3    C6 6631   3.570   0.590  16.574  0.0811  0.0964 -0.0046
  445TMC3     C 6632   3.606   0.909  16.833  0.1404  0.4656 -0.0569
  445TMC3     O 6633   3.719   0.959  16.827  0.6088 -0.6713 -0.2415
  445TMC3     H 6634   3.372   0.788  16.763 -1.4137 -1.7538  0.6609
  445TMC3    H1 6635   3.790   0.725  16.794  0.9363  1.9213 -0.8114
  445TMC3    H2 6636   3.573   0.538  16.479  1.0425 -3.1078  1.7864
  445TMC3    C7 6637   3.809   0.550  16.596 -0.1036  0.7387  0.1801
  445TMC3    C8 6638   3.339   0.665  16.530  0.5000 -0.1362  0.2344
  445TMC3    O1 6639   3.908   0.602  16.644  0.7226 -0.7587 -0.0425
  445TMC3    O2 6640   3.271   0.764  16.542 -0.2743 -0.1473  0.9726
  446MPD2     C 6641   2.693   2.666  11.555  0.3085  0.0679  0.1377
  446MPD2    C1 6642   2.711   2.635  11.423 -0.6235  0.4381 -0.9959
  446MPD2    C2 6643   2.811   2.699  11.351  0.1479  0.2208 -0.1688
  446MPD2    C3 6644   2.889   2.800  11.403  0.4117 -1.2434  0.2726
  446MPD2    C4 6645   2.872   2.831  11.537  0.2507  0.4263 -0.2145
  446MPD2    C5 6646   2.775   2.760  11.612 -1.0743 -0.0151 -1.0806
  446MPD2     H 6647   2.821   2.669  11.247 -1.1590 -0.3204 -0.1405
  446MPD2    H1 6648   2.930   2.904  11.592  1.4183  0.0971 -1.0211
  446MPD2    H2 6649   2.617   2.629  11.623 -1.6520  1.1844 -1.4305
  446MPD2    H3 6650   2.751   2.782  11.715  0.6895 -0.4671 -0.5691
  446MPD2     N 6651   2.980   2.864  11.323  0.5984  0.9615 -0.1843
  446MPD2    H5 6652   2.981   2.841  11.224 -0.6714 -0.4223  0.1153
  446MPD2    N1 6653   2.629   2.556  11.343 -0.7310  0.3208  0.2385
  446MPD2    H7 6654   2.645   2.546  11.243  1.4433  2.2565  0.3752
  447TMC3    C1 6655   3.193   2.951  11.260 -0.5338 -0.1300  0.9288
  447TMC3    C2 6656   3.154   2.975  11.135  0.9304  0.0636  0.4166
  447TMC3    C3 6657   3.251   2.995  11.039 -0.3070 -0.4084  0.3118
  447TMC3    C4 6658   3.323   2.946  11.295 -0.0294 -0.2958 -0.4405
  447TMC3    C5 6659   3.420   2.962  11.198 -0.4470  0.2293 -0.0348
  447TMC3    C6 6660   3.385   2.985  11.065  0.4235  0.7143 -0.3240
  447TMC3     C 6661   3.098   2.918  11.366  0.2284 -0.4489  0.1256
  447TMC3     O 6662   3.143   2.911  11.478  0.1185 -0.2469  0.0657
  447TMC3     H 6663   3.050   2.988  11.106  0.6082 -1.1414  1.0498
  447TMC3    H1 6664   3.339   2.928  11.401 -0.6539  0.3116 -0.2426
  447TMC3    H2 6665   3.462   2.992  10.989  1.7184  0.3434  0.9512
  447TMC3    C7 6666   3.556   2.910  11.220  0.1223  0.1721  0.1524
  447TMC3    C8 6667   3.212   3.013  10.899 -0.1007  0.2417 -0.0092
  447TMC3    O1 6668   3.630   2.912  11.120  0.1699 -0.1271  0.5340
  447TMC3    O2 6669   3.098   3.056  10.873 -0.2916  0.1807  0.5079
  448TMC3    C1 6670   1.344   2.718  16.797 -0.4248 -0.5415  0.4318
  448TMC3    C2 6671   1.257   2.618  16.789 -0.1163 -0.0365  0.8837
  448TMC3    C3 6672   1.245   2.539  16.899  0.0835 -0.5435  0.0617
  448TMC3    C4 6673   1.420   2.742  16.911  0.1924 -0.3360 -0.2479
  448TMC3    C5 6674   1.407   2.660  17.017 -0.5815  0.5824  0.2907
  448TMC3    C6 6675   1.315   2.556  17.011 -0.3897  0.0563 -0.2077
  448TMC3     C 6676   1.388   2.783  16.671  0.0708  0.1665  0.0066
  448TMC3     O 6677   1.315   2.780  16.575 -0.1930  0.0979  0.4084
  448TMC3     H 6678   1.227   2.584  16.690 -0.6998  0.3498  0.9324
  448TMC3    H1 6679   1.491   2.824  16.918  0.2896 -0.4274 -0.1664
  448TMC3    H2 6680   1.289   2.491  17.094 -0.7536  0.0383 -0.3327
  448TMC3    C7 6681   1.485   2.695  17.139 -0.0754 -0.8718 -0.1228
  448TMC3    C8 6682   1.194   2.399  16.877  0.7041 -0.8179 -0.5642
  448TMC3    O1 6683   1.580   2.771  17.136 -0.6842 -0.4463 -0.0877
  448TMC3    O2 6684   1.232   2.321  16.959 -0.2622  0.4523 -0.2240
  449MPD2     C 6685   2.382   1.502  13.690 -0.2888 -0.0452  0.1084
  449MPD2    C1 6686   2.375   1.365  13.673 -1.0433 -0.5595 -0.4934
  449MPD2    C2 6687   2.453   1.274  13.743 -0.3804  0.3764 -0.1700
  449MPD2    C3 6688   2.543   1.327  13.824  0.6688  0.5210  0.5611
  449MPD2    C4 6689   2.559   1.466  13.845 -0.1152  0.5094 -0.3134
  449MPD2    C5 6690   2.471   1.552  13.777 -0.4143  0.2163  0.1756
  449MPD2     H 6691   2.450   1.167  13.728  1.4218  0.2584  0.3826
  449MPD2    H1 6692   2.621   1.496  13.929 -2.9328  1.9779  1.2530
  449MPD2    H2 6693   2.325   1.573  13.631 -1.5942 -1.2501 -0.0791
  449MPD2    H3 6694   2.480   1.656  13.807  0.6831 -0.1648  1.1775
  449MPD2     N 6695   2.629   1.233  13.883  0.2657 -0.2419 -0.7499
  449MPD2    H5 6696   2.606   1.135  13.867 -2.2372  0.0758  0.7495
  449MPD2    N1 6697   2.290   1.309  13.582  0.1170  0.3086 -0.3372
  449MPD2    H7 6698   2.297   1.209  13.569  0.0254  0.0161  1.9874
  450TMC3    C1 6699   2.167   1.263  13.394 -0.6048  0.3775  0.4414
  450TMC3    C2 6700   2.223   1.271  13.268  0.1114  0.1318 -0.2418
  450TMC3    C3 6701   2.238   1.153  13.203 -0.3488 -0.0222  0.2740
  450TMC3    C4 6702   2.142   1.141  13.455  0.2635  0.0766 -0.0633
  450TMC3    C5 6703   2.191   1.025  13.394 -0.4924  0.1155  0.1619
  450TMC3    C6 6704   2.234   1.033  13.266 -0.8516 -0.0713  1.2753
  450TMC3     C 6705   2.217   1.369  13.481 -0.0586  0.0150  0.0846
  450TMC3     O 6706   2.218   1.484  13.432  0.6753 -0.2582 -0.1420
  450TMC3     H 6707   2.267   1.358  13.223 -0.7969  0.4296 -0.5571
  450TMC3    H1 6708   2.120   1.144  13.561  0.8084 -0.7928  0.0660
  450TMC3    H2 6709   2.276   0.945  13.219  0.8592  0.0990  2.4566
  450TMC3    C7 6710   2.284   0.959  13.480  0.7800  0.0224 -0.6401
  450TMC3    C8 6711   2.340   1.156  13.100  0.0483 -0.1790  0.7066
  450TMC3    O1 6712   2.338   1.028  13.561 -0.2292 -0.1973  0.1200
  450TMC3    O2 6713   2.305   1.115  12.991  0.6729 -0.3632  0.8794
  451MPD2     C 6714   3.718   0.638   0.511  0.2366 -0.0510 -0.0973
  451MPD2    C1 6715   3.751   0.603   0.645  0.2884 -0.0149 -0.1077
  451MPD2    C2 6716   3.793   0.473   0.667 -0.2632  0.2810  0.2801
  451MPD2    C3 6717   3.793   0.380   0.568  0.4149 -0.5188 -0.3982
  451MPD2    C4 6718   3.740   0.414   0.444  0.1889  0.7487 -0.0295
  451MPD2    C5 6719   3.703   0.539   0.418  0.5538  0.3147  0.1912
  451MPD2     H 6720   3.837   0.450   0.764  1.0221 -0.7927 -0.5487
  451MPD2    H1 6721   3.751   0.342   0.364 -0.4317  0.6600 -0.0320
  451MPD2    H2 6722   3.681   0.737   0.485  1.2695  0.2729 -0.3484
  451MPD2    H3 6723   3.682   0.570   0.317 -3.3531  1.5876  1.4157
  451MPD2     N 6724   3.836   0.248   0.586 -0.1937  0.3641  0.6482
  451MPD2    H5 6725   3.832   0.189   0.504  2.5893  0.3483  0.5169
  451MPD2    N1 6726   3.741   0.706   0.743  0.4793  0.6936 -0.4883
  451MPD2    H7 6727   3.697   0.790   0.705 -0.2144  0.4788 -0.1672
  452TMC3    C1 6728   3.863   0.044   0.713  0.1184 -0.0730 -0.2120
  452TMC3    C2 6729   3.823   4.710   0.834 -0.0339  0.2527 -0.5088
  452TMC3    C3 6730   3.794   4.580   0.830 -0.1043  0.6219  0.3858
  452TMC3    C4 6731   3.887   4.690   0.605 -0.2313  0.2004  0.2627
  452TMC3    C5 6732   3.858   4.554   0.610 -0.3799  0.0238 -0.2303
  452TMC3    C6 6733   3.813   4.497   0.727  0.3397 -0.3669 -0.5815
  452TMC3     C 6734   3.871   0.196   0.712 -0.4358 -0.7080 -0.4030
  452TMC3     O 6735   3.885   0.256   0.816  0.1319  0.0743 -0.3703
  452TMC3     H 6736   3.791   0.059   0.908 -0.9464  1.3318 -1.9489
  452TMC3    H1 6737   3.931   0.013   0.517  1.2098 -2.6037 -0.5081
  452TMC3    H2 6738   3.783   4.392   0.730  0.7875 -0.4203  1.9816
  452TMC3    C7 6739   3.866   4.475   0.497 -0.1456 -0.4929  0.4811
  452TMC3    C8 6740   3.785   4.529   0.963  0.0647  0.5019 -0.2719
  452TMC3    O1 6741   3.898   4.533   0.398  0.2711 -0.2501  0.4531
  452TMC3    O2 6742   3.766   4.616   1.049 -0.1505  1.0110  0.2694
  453TMC3    C1 6743   0.844   1.810  11.749 -1.3551 -0.0353 -0.4419
  453TMC3    C2 6744   0.774   1.742  11.846 -0.9381 -0.7271 -0.5509
  453TMC3    C3 6745   0.686   1.649  11.804 -0.2706  0.5842 -0.5947
  453TMC3    C4 6746   0.844   1.777  11.615 -0.0300 -0.4174 -0.4206
  453TMC3    C5 6747   0.754   1.684  11.578  0.1564 -0.0769  0.2753
  453TMC3    C6 6748   0.675   1.619  11.667 -0.2134  0.2833  0.1296
  453TMC3     C 6749   0.927   1.922  11.785 -0.6334 -0.0324  0.4618
  453TMC3     O 6750   1.017   1.948  11.710 -0.3337  0.1594 -0.0228
  453TMC3     H 6751   0.803   1.757  11.950 -0.8733  1.0747 -0.8256
  453TMC3    H1 6752   0.904   1.836  11.546 -0.7118  2.1567  1.1947
  453TMC3    H2 6753   0.606   1.550  11.620  0.2729  0.3518 -0.6705
  453TMC3    C7 6754   0.743   1.643  11.436  0.2261  0.2867  0.5420
  453TMC3    C8 6755   0.577   1.628  11.894  0.4780 -0.6023  0.2990
  453TMC3    O1 6756   0.641   1.586  11.397 -0.1783 -0.0602 -0.0168
  453TMC3    O2 6757   0.558   1.697  11.996  0.2429  0.2623  0.0702
  454MPD2     C 6758   4.116   1.036  16.344  0.4957  0.2183 -0.1581
  454MPD2    C1 6759   4.053   1.155  16.326  0.3762 -0.2865 -0.2215
  454MPD2    C2 6760   4.037   1.236  16.441 -0.4593 -0.2393 -0.3399
  454MPD2    C3 6761   4.084   1.192  16.560 -0.3992  0.1801  0.0029
  454MPD2    C4 6762   4.177   1.088  16.570 -0.4483  0.1035 -0.2562
  454MPD2    C5 6763   4.190   1.004  16.461  0.0327 -0.6862 -0.3415
  454MPD2     H 6764   3.997   1.336  16.430  0.8430  0.5269  1.8598
  454MPD2    H1 6765   4.224   1.057  16.663 -1.6192 -1.6965 -0.2643
  454MPD2    H2 6766   4.137   0.968  16.262  0.5252  2.0187 -1.6191
  454MPD2    H3 6767   4.247   0.912  16.465 -1.0281 -1.3668 -0.7435
  454MPD2     N 6768   4.060   1.255  16.683  0.1752  1.1520  0.0497
  454MPD2    H5 6769   4.112   1.219  16.762 -1.3456 -0.4695  0.2918
  454MPD2    N1 6770   3.970   1.181  16.217 -0.0296  0.6303 -0.6382
  454MPD2    H7 6771   3.905   1.259  16.217 -3.1558 -1.9907  0.4003
  455TMC3    C1 6772   3.849   1.341  16.638 -0.4467 -0.2719  0.2450
  455TMC3    C2 6773   3.776   1.460  16.612  0.3807 -0.5394 -0.4636
  455TMC3    C3 6774   3.639   1.450  16.584 -0.0958 -0.0468  0.4503
  455TMC3    C4 6775   3.777   1.220  16.629 -0.1850 -0.0081  0.3696
  455TMC3    C5 6776   3.642   1.220  16.586 -0.1146  0.8055 -0.3875
  455TMC3    C6 6777   3.564   1.336  16.576 -0.0153  0.0835  0.4664
  455TMC3     C 6778   3.971   1.353  16.717  0.2189 -0.2271  0.0398
  455TMC3     O 6779   3.951   1.413  16.822  0.2788 -0.5014 -0.1661
  455TMC3     H 6780   3.821   1.557  16.629  1.6309 -0.9051 -1.7322
  455TMC3    H1 6781   3.831   1.131  16.658  1.0482 -0.1545 -2.3773
  455TMC3    H2 6782   3.461   1.329  16.544  0.2594  0.2279 -0.4367
  455TMC3    C7 6783   3.602   1.107  16.506 -0.6565  0.7324  0.7996
  455TMC3    C8 6784   3.574   1.578  16.620  0.1557 -0.0224 -0.0977
  455TMC3    O1 6785   3.490   1.106  16.455 -0.0021 -0.5891  0.0297
  455TMC3    O2 6786   3.639   1.682  16.598 -0.2393  0.0419 -0.8278
  456MPD2     C 6787   1.396   0.947  16.481 -0.5161 -0.1964 -0.1623
  456MPD2    C1 6788   1.479   0.973  16.590 -0.9539  0.3406 -0.7914
  456MPD2    C2 6789   1.469   1.097  16.652  0.1076 -0.2520  0.1219
  456MPD2    C3 6790   1.376   1.191  16.613  1.0387  0.7906 -0.9237
  456MPD2    C4 6791   1.303   1.170  16.502  1.1624  0.0330 -0.2618
  456MPD2    C5 6792   1.314   1.052  16.437 -0.1306  0.6266  0.3984
  456MPD2     H 6793   1.531   1.116  16.739  1.3472 -0.9865 -0.5974
  456MPD2    H1 6794   1.228   1.239  16.467  1.0001  0.6907  1.4279
  456MPD2    H2 6795   1.396   0.858  16.420 -0.2190 -1.0245  1.0452
  456MPD2    H3 6796   1.244   1.035  16.356  0.2939 -1.5217  0.4596
  456MPD2     N 6797   1.363   1.309  16.691  0.6086 -0.3436 -0.0071
  456MPD2    H5 6798   1.420   1.317  16.775 -0.4061 -0.4183  0.7029
  456MPD2    N1 6799   1.579   0.875  16.612  0.1332 -0.2116  0.4934
  456MPD2    H7 6800   1.567   0.791  16.557  0.1363 -1.3279  2.1986
  457TMC3    C1 6801   1.277   1.510  16.780 -0.0064  0.0233  0.6591
  457TMC3    C2 6802   1.227   1.634  16.758 -0.1372  0.2084  0.0744
  457TMC3    C3 6803   1.224   1.723  16.864  0.3400  0.0096 -0.5161
  457TMC3    C4 6804   1.302   1.458  16.910  0.4621 -0.1427  0.0762
  457TMC3    C5 6805   1.273   1.547  17.014  0.6685 -0.7978  0.1048
  457TMC3    C6 6806   1.258   1.680  16.994 -0.0606  0.3210  0.3019
  457TMC3     C 6807   1.274   1.411  16.669 -0.5193  0.1067  0.5498
  457TMC3     O 6808   1.206   1.432  16.570 -0.0386 -0.1789 -0.7350
  457TMC3     H 6809   1.218   1.677  16.658  0.4205 -1.3098 -0.6271
  457TMC3    H1 6810   1.319   1.353  16.928 -0.9138 -0.2795  0.5420
  457TMC3    H2 6811   1.273   1.747  17.078  0.1657 -0.1030  0.5986
  457TMC3    C7 6812   1.301   1.504  17.147 -1.1696 -0.1484 -0.4394
  457TMC3    C8 6813   1.208   1.867  16.841 -0.2149 -0.1295 -0.0919
  457TMC3    O1 6814   1.355   1.395  17.152 -0.9696 -0.1833 -0.1015
  457TMC3    O2 6815   1.252   1.947  16.923  0.1356 -0.0976 -0.1342
  458MPD2     C 6816   4.021   0.882  12.361  0.7175 -0.4262  0.6482
  458MPD2    C1 6817   3.992   0.853  12.488  0.0131  0.0088 -0.8092
  458MPD2    C2 6818   3.857   0.857  12.532 -0.1009 -0.8555  0.1706
  458MPD2    C3 6819   3.764   0.914  12.450 -0.1572 -0.5010  1.0987
  458MPD2    C4 6820   3.803   0.954  12.317 -0.6831  0.0644  0.2126
  458MPD2    C5 6821   3.930   0.935  12.281  0.5023  0.2241  0.3872
  458MPD2     H 6822   3.835   0.828  12.635  1.6369 -1.2347  0.4488
  458MPD2    H1 6823   3.738   1.005  12.246  0.4473 -0.7616 -1.3965
  458MPD2    H2 6824   4.125   0.869  12.333  0.3514  0.4781 -1.1176
  458MPD2    H3 6825   3.970   0.969  12.186 -1.8331 -0.5517 -0.8759
  458MPD2     N 6826   3.634   0.930  12.508  0.0189 -0.5079 -0.4971
  458MPD2    H5 6827   3.617   0.887  12.598  1.2687 -0.5543 -0.2810
  458MPD2    N1 6828   4.103   0.822  12.567 -0.1722  0.0825  0.3969
  458MPD2    H7 6829   4.195   0.839  12.527 -0.4707  0.0556 -0.3111
  459TMC3    C1 6830   4.234   0.773  12.761 -0.2094 -0.3524 -0.3607
  459TMC3    C2 6831   4.343   0.844  12.705  0.3204 -0.1219  0.5155
  459TMC3    C3 6832   4.447   0.867  12.788 -0.0040 -0.2079  0.0465
  459TMC3    C4 6833   4.237   0.714  12.885  0.6979 -0.1293 -0.1402
  459TMC3    C5 6834   4.345   0.737  12.961  0.2205 -0.4762 -0.4936
  459TMC3    C6 6835   4.449   0.823  12.920 -0.0296  0.7719  0.8656
  459TMC3     C 6836   4.106   0.788  12.698 -0.8130  0.5014 -0.1675
  459TMC3     O 6837   4.011   0.746  12.761 -0.6480  0.4251  0.1718
  459TMC3     H 6838   4.326   0.892  12.609  1.7204 -2.6571 -0.9924
  459TMC3    H1 6839   4.158   0.647  12.917  0.2373 -0.1228 -1.2695
  459TMC3    H2 6840   4.532   0.842  12.987  0.1786 -0.0537  0.8383
  459TMC3    C7 6841   4.359   0.645  13.074 -0.2513  0.0890  0.2226
  459TMC3    C8 6842   4.551   0.959  12.752 -0.2167  0.1058 -0.6920
  459TMC3    O1 6843   4.293   0.543  13.068 -0.0852 -0.4935 -0.7868
  459TMC3    O2 6844   4.625   1.009  12.835 -0.3419  0.1599 -0.3458
  460MPD2     C 6845   3.442   2.967  10.620  0.1090  0.1997  0.0764
  460MPD2    C1 6846   3.316   2.977  10.671  0.6943  0.7040  0.0674
  460MPD2    C2 6847   3.208   2.997  10.594  0.2089  0.0557 -0.4737
  460MPD2    C3 6848   3.220   3.005  10.454 -0.0204 -0.3646 -0.3989
  460MPD2    C4 6849   3.352   2.982  10.401  0.4999  0.0479 -0.0001
  460MPD2    C5 6850   3.455   2.971  10.483  0.1415 -0.2696  0.6323
  460MPD2     H 6851   3.108   3.006  10.635 -0.1016 -2.9656 -0.6201
  460MPD2    H1 6852   3.378   2.957  10.299 -1.3315 -1.9227  0.0084
  460MPD2    H2 6853   3.530   2.951  10.681 -0.3133  1.7074  1.0915
  460MPD2    H3 6854   3.553   2.950  10.441 -0.6826 -0.6300 -1.1247
  460MPD2     N 6855   3.108   3.030  10.370  0.1168 -0.4029  0.2366
  460MPD2    H5 6856   3.017   3.043  10.413 -0.9303  0.5845 -2.2441
  460MPD2    N1 6857   3.313   2.972  10.812  0.0059 -0.1264  0.3979
  460MPD2    H7 6858   3.396   2.936  10.856  0.3810 -0.2202 -0.3800
  461TMC3    C1 6859   2.988   3.083  10.179 -0.5770 -0.2331  0.2072
  461TMC3    C2 6860   2.951   3.025  10.061  0.2640 -0.3314 -0.6524
  461TMC3    C3 6861   2.897   3.106   9.962  0.1698 -0.0985  0.1012
  461TMC3    C4 6862   2.948   3.211  10.210  0.7392  0.4133  0.5444
  461TMC3    C5 6863   2.876   3.289  10.111 -0.1334  0.0883 -0.0940
  461TMC3    C6 6864   2.863   3.235   9.990 -0.7176  0.9348  0.2645
  461TMC3     C 6865   3.113   3.050  10.234  0.0708 -0.2568 -0.2966
  461TMC3     O 6866   3.204   3.034  10.154 -0.7623 -0.0446 -0.6937
  461TMC3     H 6867   2.992   2.927  10.041  1.4277 -0.0117  0.1792
  461TMC3    H1 6868   2.956   3.248  10.311  0.4372  1.7215  0.0812
  461TMC3    H2 6869   2.826   3.293   9.906 -0.3859 -0.1008 -0.5980
  461TMC3    C7 6870   2.829   3.418  10.146  0.3137  0.0005  0.3357
  461TMC3    C8 6871   2.882   3.053   9.829 -0.9397 -0.2561 -0.4273
  461TMC3    O1 6872   2.766   3.484  10.066 -0.3931  0.3884 -0.2713
  461TMC3    O2 6873   2.859   3.131   9.738 -0.2516  0.5806 -0.0839
  462TMC3    C1 6874   3.654   3.470  17.430  0.4639  0.4597  0.6537
  462TMC3    C2 6875   3.691   3.340  17.403 -0.1845 -0.0165 -0.8314
  462TMC3    C3 6876   3.630   3.239  17.468  0.3022 -0.4154 -0.8119
  462TMC3    C4 6877   3.569   3.503  17.530 -0.6586  0.2868  0.4835
  462TMC3    C5 6878   3.523   3.399  17.601 -0.2089  0.0173  0.7347
  462TMC3    C6 6879   3.541   3.265  17.569  0.3015  0.1013  0.2765
  462TMC3     C 6880   3.737   3.580  17.371  0.1294 -0.3956 -0.1229
  462TMC3     O 6881   3.708   3.694  17.411  0.2594 -0.0443 -0.3825
  462TMC3     H 6882   3.768   3.299  17.337  0.9807  1.1980 -0.2227
  462TMC3    H1 6883   3.541   3.605  17.556 -0.6931  0.0587  1.3713
  462TMC3    H2 6884   3.495   3.186  17.627 -3.0069  1.6381 -0.2201
  462TMC3    C7 6885   3.426   3.425   0.014  0.4471 -0.1207 -0.3101
  462TMC3    C8 6886   3.635   3.102  17.422 -0.1827 -0.5192 -0.1219
  462TMC3    O1 6887   3.344   3.338   0.033  0.7839 -0.1083  0.2568
  462TMC3    O2 6888   3.553   3.022  17.475  0.1383 -0.0630  0.7630
  463MPD2     C 6889   3.732   2.961   1.758  0.0719  0.5676  0.0243
  463MPD2    C1 6890   3.649   3.014   1.665 -0.8463  0.2594  0.2456
  463MPD2    C2 6891   3.694   3.049   1.539 -0.3735  0.6648  0.2459
  463MPD2    C3 6892   3.824   3.039   1.513  0.3591  0.1623  0.6177
  463MPD2    C4 6893   3.913   2.991   1.608  0.1022  0.2720 -0.6151
  463MPD2    C5 6894   3.867   2.949   1.728  0.5058  0.5035 -0.1123
  463MPD2     H 6895   3.617   3.086   1.471 -0.7818  1.0054  0.8972
  463MPD2    H1 6896   4.017   2.983   1.580  0.6072  0.1246  1.3088
  463MPD2    H2 6897   3.697   2.917   1.851 -1.9987  3.2352  0.5243
  463MPD2    H3 6898   3.937   2.903   1.797  2.0233  2.2373 -0.4972
  463MPD2     N 6899   3.884   3.077   1.389 -0.0242 -0.7446  0.1607
  463MPD2    H5 6900   3.983   3.062   1.372  0.6096  1.9076  1.4659
  463MPD2    N1 6901   3.509   3.027   1.675 -0.7936  0.0454 -0.6783
  463MPD2    H7 6902   3.460   3.076   1.600  0.2359  3.1384  0.6517
  464TMC3    C1 6903   3.299   3.041   1.787 -0.3211 -0.3883 -1.2028
  464TMC3    C2 6904   3.264   3.151   1.711 -0.2288 -0.1711  0.9809
  464TMC3    C3 6905   3.143   3.208   1.722 -0.6737 -0.0539 -0.1414
  464TMC3    C4 6906   3.203   2.983   1.864  0.1111  0.5727  0.5535
  464TMC3    C5 6907   3.076   3.029   1.854 -0.0314 -0.9585 -0.4396
  464TMC3    C6 6908   3.042   3.136   1.779 -0.4551  0.0749 -0.2036
  464TMC3     C 6909   3.433   2.993   1.790 -0.6415 -0.0372 -0.0446
  464TMC3     O 6910   3.455   2.912   1.880  0.3333 -0.0167 -0.0925
  464TMC3     H 6911   3.343   3.207   1.660  0.1010 -2.2101 -0.7418
  464TMC3    H1 6912   3.217   2.893   1.923  2.3337  0.2440 -0.4749
  464TMC3    H2 6913   2.944   3.183   1.780 -0.8001 -0.6595  0.3034
  464TMC3    C7 6914   2.969   2.940   1.906 -0.4932  0.5675 -0.2918
  464TMC3    C8 6915   3.100   3.281   1.604  0.0207  0.2093 -0.8235
  464TMC3    O1 6916   2.991   2.852   1.989 -0.5473  0.3585 -0.0246
  464TMC3    O2 6917   3.149   3.254   1.491  0.1165  0.1774 -0.0233
  465MPD2     C 6918   0.764   0.904  17.001 -0.2363  0.6425  0.0711
  465MPD2    C1 6919   0.695   0.954  17.108 -0.0375 -0.1195  0.2422
  465MPD2    C2 6920   0.635   1.078  17.087 -0.2015  0.7830 -0.1278
  465MPD2    C3 6921   0.629   1.143  16.966  0.8178  0.0382  0.2672
  465MPD2    C4 6922   0.704   1.086  16.861 -0.3611  0.3415  0.5595
  465MPD2    C5 6923   0.760   0.964  16.879  0.2428 -0.4871  0.2680
  465MPD2     H 6924   0.597   1.132  17.172 -0.0090 -0.2171  0.5826
  465MPD2    H1 6925   0.707   1.142  16.768  1.1362  2.5032  1.9094
  465MPD2    H2 6926   0.831   0.820  17.005  0.7588  1.4282 -0.2041
  465MPD2    H3 6927   0.807   0.913  16.796  0.0630 -0.9601  0.4575
  465MPD2     N 6928   0.562   1.266  16.957 -0.0392 -0.0543 -0.7460
  465MPD2    H5 6929   0.520   1.288  17.047  2.6889 -3.2274  1.3326
  465MPD2    N1 6930   0.699   0.905  17.237 -0.1148 -0.6110 -0.0753
  465MPD2    H7 6931   0.637   0.948  17.306 -3.5094 -4.1446 -0.8612
  466TMC3    C1 6932   0.230   1.507  16.932 -0.4916  0.7945  0.2148
  466TMC3    C2 6933   0.223   1.596  16.826  0.3010  0.4046  0.2797
  466TMC3    C3 6934   0.331   1.617  16.741  0.4932  0.7783 -0.0974
  466TMC3    C4 6935   0.351   1.442  16.956  0.2287  0.0237  0.2456
  466TMC3    C5 6936   0.451   1.457  16.863 -1.0342  0.0779  0.5903
  466TMC3    C6 6937   0.448   1.547  16.757  0.3802  0.0944 -0.5514
  466TMC3     C 6938   0.121   1.516  17.036  0.3197  0.4811  0.0392
  466TMC3     O 6939   0.160   1.472  17.145 -0.5445  0.4851  0.2460
  466TMC3     H 6940   0.130   1.650  16.820 -0.3478 -0.6488  0.8479
  466TMC3    H1 6941   0.351   1.380  17.045  0.4777 -0.3037  0.0145
  466TMC3    H2 6942   0.541   1.576  16.709  0.7141  0.5770  0.3705
  466TMC3    C7 6943   0.556   1.359  16.853 -1.4212 -0.0398 -0.3291
  466TMC3    C8 6944   0.323   1.719  16.643 -0.3388  0.7538  0.4388
  466TMC3    O1 6945   0.595   1.352  16.738 -0.0261 -0.4273 -0.2154
  466TMC3    O2 6946   0.392   1.716  16.543  0.1369  0.2843  0.3492
  467TMC3    C1 6947   1.031   4.698  13.490  0.3710 -0.9090 -0.0458
  467TMC3    C2 6948   1.054   0.007  13.356  0.1213  0.7620 -0.7185
  467TMC3    C3 6949   0.988   0.113  13.301  0.5173  0.6606  0.4770
  467TMC3    C4 6950   0.928   0.028  13.562 -0.2182 -0.0788 -0.1828
  467TMC3    C5 6951   0.865   0.139  13.504 -0.8325 -0.2165 -0.0959
  467TMC3    C6 6952   0.895   0.178  13.374  0.4933 -0.6872  0.5707
  467TMC3     C 6953   1.153   4.695  13.570  0.1346 -0.4076  0.0225
  467TMC3     O 6954   1.153   0.050  13.666 -0.1134  0.2612  0.8685
  467TMC3     H 6955   1.133   4.678  13.304 -0.1915  1.2339 -1.6745
  467TMC3    H1 6956   0.919   0.002  13.667  0.9346 -2.5648 -0.7003
  467TMC3    H2 6957   0.843   0.266  13.338  1.8693  0.3894  1.1909
  467TMC3    C7 6958   0.752   0.190  13.567  0.3843 -0.2198  0.9406
  467TMC3    C8 6959   1.055   0.187  13.200  0.3510 -0.1485 -0.0903
  467TMC3    O1 6960   0.708   0.292  13.512 -0.3011  0.0670 -0.1882
  467TMC3    O2 6961   1.026   0.304  13.186 -0.2352 -0.6828  0.7606
  468MPD2     C 6962   0.082   2.748  10.322  0.0098  0.6847  0.0158
  468MPD2    C1 6963   0.198   2.791  10.385 -0.5072 -0.2750  0.2784
  468MPD2    C2 6964   0.263   2.690  10.459 -0.2177 -0.3150  0.1909
  468MPD2    C3 6965   0.213   2.561  10.468  0.4021 -0.6925 -0.5785
  468MPD2    C4 6966   0.091   2.538  10.414  0.5681 -0.3500  0.2652
  468MPD2    C5 6967   0.029   2.624  10.333 -0.8889 -0.5951  0.0610
  468MPD2     H 6968   0.352   2.722  10.513  0.0249  2.4875 -1.8645
  468MPD2    H1 6969   0.033   2.446  10.421 -0.0252 -0.0590 -0.7194
  468MPD2    H2 6970   0.025   2.818  10.262 -2.2305 -1.0491  0.0892
  468MPD2    H3 6971   4.659   2.595  10.288 -0.1218  0.1244 -1.9935
  468MPD2     N 6972   0.277   2.456  10.533  0.1428 -0.0573 -0.6335
  468MPD2    H5 6973   0.230   2.367  10.544  0.3592  0.0404  1.0926
  468MPD2    N1 6974   0.246   2.925  10.383 -0.2706  0.2319  0.5398
  468MPD2    H7 6975   0.325   2.948  10.442  0.4605 -0.4966 -0.1432
  469TMC3    C1 6976   0.271   3.146  10.320 -0.3656  0.2110  0.1689
  469TMC3    C2 6977   0.298   3.167  10.456 -0.3996 -0.1333 -0.1167
  469TMC3    C3 6978   0.341   3.293  10.476 -0.1826  0.5468 -0.0530
  469TMC3    C4 6979   0.299   3.234  10.215 -0.1651  0.1562  0.5282
  469TMC3    C5 6980   0.341   3.358  10.247  0.0727 -0.2481 -0.3595
  469TMC3    C6 6981   0.365   3.391  10.380 -0.1361  0.2181 -0.1337
  469TMC3     C 6982   0.208   3.023  10.290 -0.0282 -0.9923  0.0027
  469TMC3     O 6983   0.166   3.006  10.182 -0.5983  0.3209  0.0971
  469TMC3     H 6984   0.286   3.097  10.538  0.1375 -1.4565 -1.1745
  469TMC3    H1 6985   0.286   3.203  10.112 -0.1832  1.9304 -0.0086
  469TMC3    H2 6986   0.401   3.490  10.405  2.7873 -0.2907 -2.3064
  469TMC3    C7 6987   0.393   3.451  10.146  0.0379  0.6341 -0.4535
  469TMC3    C8 6988   0.396   3.335  10.600 -0.4653 -0.5649 -0.5382
  469TMC3    O1 6989   0.373   3.574  10.153 -0.3525 -0.2720  0.3818
  469TMC3    O2 6990   0.486   3.418  10.595 -0.2445 -0.0394  0.0604
  470TMC3    C1 6991   2.624   0.022   0.790 -0.2884 -0.2216  0.3418
  470TMC3    C2 6992   2.624   0.149   0.834 -0.3279  0.5749 -0.4583
  470TMC3    C3 6993   2.691   0.175   0.948  0.6782 -0.1983  0.2393
  470TMC3    C4 6994   2.681   4.643   0.866  0.2124  0.3047  0.3534
  470TMC3    C5 6995   2.739   4.669   0.984 -0.4786 -0.3728  0.4458
  470TMC3    C6 6996   2.745   0.079   1.029  0.2774 -0.2586  0.0073
  470TMC3     C 6997   2.612   0.003   0.651 -0.7157 -0.1420  0.1006
  470TMC3     O 6998   2.537   0.082   0.601  0.0110  0.4328 -0.0042
  470TMC3     H 6999   2.599   0.225   0.761  2.7127 -0.3249 -2.4263
  470TMC3    H1 7000   2.661   4.540   0.838 -2.4412  0.0629  3.0769
  470TMC3    H2 7001   2.807   0.113   1.111  1.0453 -1.2036 -0.1888
  470TMC3    C7 7002   2.759   4.559   1.081 -0.1960  0.2695 -0.0078
  470TMC3    C8 7003   2.670   0.304   1.015  0.1042  0.3550  0.2609
  470TMC3    O1 7004   2.748   4.444   1.044  0.0797  0.6531 -0.2817
  470TMC3    O2 7005   2.747   0.333   1.106 -0.4428  0.6680 -0.0112
  471MPD2     C 7006   3.152   0.671  16.904  0.7659 -0.0138  0.2740
  471MPD2    C1 7007   3.180   0.551  16.837 -0.0528 -0.5166  0.7198
  471MPD2    C2 7008   3.291   0.476  16.876 -0.1315  1.2357 -0.4252
  471MPD2    C3 7009   3.381   0.527  16.973 -0.1652  0.1391  0.0559
  471MPD2    C4 7010   3.355   0.642  17.043  0.1934 -0.1731  0.4361
  471MPD2    C5 7011   3.229   0.707  17.020 -0.1487 -0.2549 -0.6265
  471MPD2     H 7012   3.311   0.390  16.813 -0.6671  1.4992 -0.9510
  471MPD2    H1 7013   3.422   0.676  17.121 -0.2527  0.9943  0.3101
  471MPD2    H2 7014   3.063   0.728  16.880 -0.0241 -0.4888  2.0007
  471MPD2    H3 7015   3.209   0.796  17.079  0.8736 -0.0960 -0.5231
  471MPD2     N 7016   3.493   0.443  17.022 -0.0334  0.3397  0.1895
  471MPD2    H5 7017   3.522   0.459  17.118  1.1828 -1.3161  0.1056
  471MPD2    N1 7018   3.098   0.492  16.745  0.9100  0.2336  0.3765
  471MPD2    H7 7019   3.135   0.405  16.707 -0.7205 -0.5092  0.4979
  472TMC3    C1 7020   2.906   0.439  16.620 -0.1053 -0.5192  0.2568
  472TMC3    C2 7021   2.838   0.488  16.513 -0.0177 -0.4954  0.5014
  472TMC3    C3 7022   2.822   0.397  16.408 -0.9146  0.3925  0.6608
  472TMC3    C4 7023   2.932   0.311  16.642 -0.2195 -0.3957  0.2370
  472TMC3    C5 7024   2.918   0.229  16.531 -0.2721 -0.7597  1.0583
  472TMC3    C6 7025   2.868   0.270  16.413  0.0369 -0.2205 -0.0795
  472TMC3     C 7026   2.977   0.539  16.692  0.5413 -0.7362 -0.2862
  472TMC3     O 7027   2.930   0.650  16.694 -0.2600 -0.4794  0.1180
  472TMC3     H 7028   2.831   0.595  16.492 -0.9748 -0.3105  1.7221
  472TMC3    H1 7029   2.979   0.271  16.731 -0.4931 -1.6651 -0.1770
  472TMC3    H2 7030   2.875   0.216  16.319  0.7745 -0.2587  0.0003
  472TMC3    C7 7031   2.921   0.088  16.560 -0.1516  0.4114  0.2163
  472TMC3    C8 7032   2.698   0.402  16.317 -0.1063  0.3808  0.0364
  472TMC3    O1 7033   2.947   0.059  16.675 -0.1878  0.3360 -0.9366
  472TMC3    O2 7034   2.684   0.501  16.246 -0.0240  0.9347  0.5099
  473MPD2     C 7035   2.708   2.368  13.951  0.0191 -0.5135 -0.6312
  473MPD2    C1 7036   2.623   2.467  13.919  0.4152  0.3530  0.1107
  473MPD2    C2 7037   2.640   2.593  13.979 -0.1102 -0.4662  0.0377
  473MPD2    C3 7038   2.729   2.616  14.083 -0.0127 -0.4219  0.1356
  473MPD2    C4 7039   2.811   2.512  14.118 -0.4092 -0.3392 -0.1062
  473MPD2    C5 7040   2.802   2.396  14.052 -1.1516 -0.0296 -0.1124
  473MPD2     H 7041   2.570   2.670  13.947  1.6490 -0.9661 -4.8839
  473MPD2    H1 7042   2.891   2.527  14.189 -1.7622 -2.1195  1.7963
  473MPD2    H2 7043   2.709   2.269  13.906  1.9832  0.1341 -2.0107
  473MPD2    H3 7044   2.863   2.316  14.092 -1.6293 -0.5973 -0.5307
  473MPD2     N 7045   2.748   2.734  14.148 -0.5059  0.7191  0.0861
  473MPD2    H5 7046   2.818   2.740  14.221  1.1540 -1.5876 -1.2833
  473MPD2    N1 7047   2.516   2.449  13.822  0.4514 -0.3265  0.4029
  473MPD2    H7 7048   2.455   2.527  13.797 -1.1821 -1.8312 -0.3066
  474TMC3    C1 7049   2.745   2.948  14.213  0.5417  0.5355 -1.0012
  474TMC3    C2 7050   2.666   3.055  14.257  0.0838 -0.1543 -0.4686
  474TMC3    C3 7051   2.709   3.136  14.354  0.0156 -0.6604  0.7385
  474TMC3    C4 7052   2.863   2.925  14.270  0.1793  0.2332  0.3693
  474TMC3    C5 7053   2.907   3.021  14.361  0.2730  0.1704 -0.7922
  474TMC3    C6 7054   2.828   3.122  14.414 -0.2491 -0.5317 -0.2552
  474TMC3     C 7055   2.689   2.853  14.121 -0.0766  0.3920 -0.4035
  474TMC3     O 7056   2.585   2.872  14.063  0.3624 -0.3573  0.7711
  474TMC3     H 7057   2.574   3.084  14.209 -0.8807  0.5160  1.8131
  474TMC3    H1 7058   2.936   2.862  14.222 -1.1954 -1.0081 -0.0945
  474TMC3    H2 7059   2.873   3.199  14.475  1.2138 -0.1918 -1.7515
  474TMC3    C7 7060   3.044   3.005  14.413  0.0654  0.0577 -0.3803
  474TMC3    C8 7061   2.647   3.263  14.357 -0.8746  0.1341 -0.7303
  474TMC3    O1 7062   3.139   2.993  14.330  0.2324  0.3726 -0.0999
  474TMC3    O2 7063   2.522   3.259  14.355  0.6311  0.1865  0.1301
  475MPD2     C 7064   0.808   0.713  10.975 -0.2915  0.4039  0.1485
  475MPD2    C1 7065   0.881   0.760  10.864  0.4566 -0.0898 -0.0230
  475MPD2    C2 7066   0.804   0.813  10.756  0.8659 -0.3442  0.3158
  475MPD2    C3 7067   0.666   0.824  10.761  0.4827  0.3090 -0.2751
  475MPD2    C4 7068   0.606   0.788  10.878 -0.4181  0.6965  0.0745
  475MPD2    C5 7069   0.671   0.722  10.978 -0.7991 -0.5327  0.4750
  475MPD2     H 7070   0.866   0.845  10.673 -2.2029  1.4628 -1.2402
  475MPD2    H1 7071   0.505   0.820  10.897 -0.9415 -0.6160 -0.4946
  475MPD2    H2 7072   0.859   0.686  11.066 -0.4101  0.2250  0.1626
  475MPD2    H3 7073   0.616   0.709  11.070 -1.9446 -0.9243 -0.2681
  475MPD2     N 7074   0.594   0.881  10.653  0.3997 -0.1833  0.2160
  475MPD2    H5 7075   0.646   0.914  10.572  1.1758 -1.0269  0.3583
  475MPD2    N1 7076   1.025   0.766  10.873 -0.2575  0.3808  0.1348
  475MPD2    H7 7077   1.070   0.755  10.964  1.3365 -0.7707 -0.7928
  476TMC3    C1 7078   1.250   0.821  10.797  0.8633 -0.0949  0.7330
  476TMC3    C2 7079   1.299   0.880  10.684 -0.3810 -0.2506  0.2658
  476TMC3    C3 7080   1.317   1.020  10.690  0.1822  0.4190  0.6424
  476TMC3    C4 7081   1.263   0.886  10.920  0.4838 -0.2373 -0.2067
  476TMC3    C5 7082   1.301   1.019  10.930  0.9561 -0.1642 -0.5533
  476TMC3    C6 7083   1.306   1.092  10.810 -0.0724  0.4730 -0.3005
  476TMC3     C 7084   1.105   0.790  10.764  0.4319  0.7705  0.1563
  476TMC3     O 7085   1.085   0.795  10.643  0.0918  0.3343 -0.0277
  476TMC3     H 7086   1.306   0.817  10.596 -0.5674  1.5088 -1.0149
  476TMC3    H1 7087   1.231   0.824  11.003  2.1692  1.0420  1.3890
  476TMC3    H2 7088   1.298   1.199  10.802 -0.9154  0.5062  1.0219
  476TMC3    C7 7089   1.255   1.084  11.052  0.6567 -0.2224  1.1928
  476TMC3    C8 7090   1.308   1.087  10.565 -0.2600  0.2275  0.8094
  476TMC3    O1 7091   1.193   1.007  11.129 -0.1905 -0.5577 -0.0042
  476TMC3    O2 7092   1.363   1.194  10.544  0.0262 -0.2184  0.1707
  477MPD2     C 7093   3.951   2.332  11.551  0.0707  0.1165  0.3548
  477MPD2    C1 7094   3.855   2.325  11.646  0.3028  0.1105 -0.2678
  477MPD2    C2 7095   3.870   2.245  11.756 -0.0609  0.6169 -0.0802
  477MPD2    C3 7096   3.987   2.183  11.781 -0.5682 -0.4330 -0.8299
  477MPD2    C4 7097   4.092   2.205  11.690 -0.0783 -0.0856 -0.5341
  477MPD2    C5 7098   4.078   2.277  11.578  0.7854 -0.7586  0.0378
  477MPD2     H 7099   3.796   2.244  11.836  0.3821 -0.0344  0.3169
  477MPD2    H1 7100   4.189   2.159  11.705 -0.1700  0.0895  0.6001
  477MPD2    H2 7101   3.937   2.377  11.453  0.9085 -1.8358 -0.6653
  477MPD2    H3 7102   4.156   2.270  11.503  0.7514 -0.3444 -0.0407
  477MPD2     N 7103   3.993   2.096  11.891 -0.7726  0.2924 -0.0054
  477MPD2    H5 7104   3.903   2.087  11.937 -1.2066  0.1885 -0.8798
  477MPD2    N1 7105   3.735   2.398  11.618  0.1894 -0.2709  0.7598
  477MPD2    H7 7106   3.741   2.432  11.523 -0.2068  0.2482  0.9183
  478TMC3    C1 7107   3.523   2.495  11.661  0.9115  0.6585 -0.1746
  478TMC3    C2 7108   3.464   2.585  11.740  0.0594 -0.4971  0.1826
  478TMC3    C3 7109   3.368   2.666  11.688  0.0285 -0.2626  0.3623
  478TMC3    C4 7110   3.487   2.471  11.534 -0.6810 -0.7116  0.2097
  478TMC3    C5 7111   3.386   2.552  11.485  0.2678 -0.1394 -0.3886
  478TMC3    C6 7112   3.325   2.648  11.557  0.5196  0.0026 -0.2967
  478TMC3     C 7113   3.644   2.439  11.714  0.3005 -0.2590 -0.4639
  478TMC3     O 7114   3.660   2.429  11.834 -0.3125  0.2750 -0.0901
  478TMC3     H 7115   3.493   2.590  11.845  0.2684 -1.7941  0.1880
  478TMC3    H1 7116   3.534   2.400  11.467 -2.4190 -1.9801  0.3278
  478TMC3    H2 7117   3.255   2.713  11.505  1.4651  2.1672  1.1562
  478TMC3    C7 7118   3.400   2.575  11.343 -0.2373  0.0811  0.2748
  478TMC3    C8 7119   3.326   2.771  11.781 -0.7955 -0.6053  0.8937
  478TMC3    O1 7120   3.511   2.575  11.298 -0.3683  0.3198 -0.0241
  478TMC3    O2 7121   3.341   2.742  11.896  0.0419 -0.0394 -0.0624
  479MPD2     C 7122   2.812   4.677  15.233 -0.3837  0.5649 -0.3562
  479MPD2    C1 7123   2.717   4.622  15.319 -0.2769 -0.2608 -0.2750
  479MPD2    C2 7124   2.741   4.627  15.456 -0.5007 -0.2559  0.6621
  479MPD2    C3 7125   2.854   4.683  15.509  0.3503  0.4845 -0.2278
  479MPD2    C4 7126   2.937   0.022  15.418 -0.2990  1.1035  0.1980
  479MPD2    C5 7127   2.924   0.020  15.282  0.4179  0.5233 -0.0793
  479MPD2     H 7128   2.675   4.565  15.517 -2.7924  1.9197  0.4137
  479MPD2    H1 7129   3.026   0.069  15.458  1.1291  0.6303 -2.3730
  479MPD2    H2 7130   2.802   4.665  15.126  1.2634  1.7090 -0.6448
  479MPD2    H3 7131   2.999   0.070  15.223  2.1863 -0.4127  1.3606
  479MPD2     N 7132   2.899   4.698  15.644 -0.5446 -0.2816  0.1514
  479MPD2    H5 7133   2.993   0.008  15.662 -1.2113  1.3947  0.5079
  479MPD2    N1 7134   2.602   4.573  15.265  0.5269  0.1117  0.1124
  479MPD2    H7 7135   2.590   4.567  15.165 -0.8194  5.3020  0.0026
  480TMC3    C1 7136   2.512   4.550  15.864 -0.2522  0.5051 -0.4278
  480TMC3    C2 7137   2.420   4.615  15.789  0.5619 -0.4912  0.1088
  480TMC3    C3 7138   2.475   4.717  15.714  0.0228 -0.0551  0.2298
  480TMC3    C4 7139   2.645   4.560  15.842  0.0308 -0.2268 -0.3146
  480TMC3    C5 7140   2.686   4.659  15.759  0.1212  0.6963  0.2556
  480TMC3    C6 7141   2.610   0.019  15.688 -0.4039  0.3367  0.2424
  480TMC3     C 7142   2.466   4.460  15.963  0.4899  0.5673 -0.4257
  480TMC3     O 7143   2.558   4.414  16.031  0.2965 -0.1735 -0.1047
  480TMC3     H 7144   2.315   4.614  15.816  0.8059  0.8593  1.1279
  480TMC3    H1 7145   2.722   4.506  15.897  0.4038 -1.0361 -1.6436
  480TMC3    H2 7146   2.654   0.102  15.634 -0.0143  0.0804  0.1620
  480TMC3    C7 7147   2.826   4.686  15.761 -0.1217 -0.2347 -0.0488
  480TMC3    C8 7148   2.381   0.042  15.617 -0.2397 -0.3784  0.1445
  480TMC3    O1 7149   2.879   4.688  15.875  0.4648  0.6950  0.4726
  480TMC3    O2 7150   2.264   0.002  15.617  0.0742 -0.4437  0.2296
  481MPD2     C 7151   4.477   4.196  14.607  0.2416 -0.4892 -0.9324
  481MPD2    C1 7152   4.346   4.153  14.587  0.2903  0.1956  0.2323
  481MPD2    C2 7153   4.290   4.085  14.691 -0.1670  0.6771  0.2646
  481MPD2    C3 7154   4.361   4.042  14.806  0.1105  0.2858  0.7297
  481MPD2    C4 7155   4.498   4.067  14.804  0.3931 -1.0097 -0.1477
  481MPD2    C5 7156   4.551   4.158  14.711 -0.8070  0.4383  0.3329
  481MPD2     H 7157   4.182   4.083  14.702 -0.1641  0.2076  0.1857
  481MPD2    H1 7158   4.564   4.034  14.884  2.5155  0.0492 -1.4691
  481MPD2    H2 7159   4.533   4.257  14.538 -1.1254  1.7792 -0.0532
  481MPD2    H3 7160   4.650   4.201  14.723 -0.4632 -0.0533 -0.7753
  481MPD2     N 7161   4.309   3.978  14.925  0.1527  0.1729 -0.0302
  481MPD2    H5 7162   4.368   3.953  15.003 -0.0882 -1.2957 -0.3297
  481MPD2    N1 7163   4.282   4.188  14.465 -0.3164  0.0249  0.2586
  481MPD2    H7 7164   4.325   4.258  14.406  0.1742 -1.5197 -1.2162
  482TMC3    C1 7165   4.163   4.177  14.276  0.0140 -0.8558  0.1504
  482TMC3    C2 7166   4.155   4.076  14.190  0.6184 -0.3152 -0.4100
  482TMC3    C3 7167   4.154   4.104  14.052  0.7242 -0.3369 -0.3384
  482TMC3    C4 7168   4.159   4.309  14.227  0.1450 -0.2307  0.8959
  482TMC3    C5 7169   4.162   4.335  14.093 -0.0094 -0.1677  0.6190
  482TMC3    C6 7170   4.153   4.232  14.004  0.3868  0.0720  0.5357
  482TMC3     C 7171   4.166   4.139  14.415 -0.5287 -1.0524  0.7766
  482TMC3     O 7172   4.100   4.042  14.451  0.2157  0.0562 -0.1470
  482TMC3     H 7173   4.159   3.976  14.232 -0.2967 -0.0948  0.2112
  482TMC3    H1 7174   4.147   4.393  14.295 -1.7448 -0.4499  0.8212
  482TMC3    H2 7175   4.188   4.255  13.904  0.3621  0.9883  0.7380
  482TMC3    C7 7176   4.136   4.471  14.048  0.2758 -0.9346 -0.2361
  482TMC3    C8 7177   4.143   3.987  13.966  0.8681 -0.0913 -0.1678
  482TMC3    O1 7178   4.165   4.559  14.124  0.4051  0.5131  0.2589
  482TMC3    O2 7179   4.146   3.887  14.031 -0.1205  0.8606  0.3400
  483TMC3    C1 7180   1.936   3.308   1.062  0.0995 -0.1152  0.0478
  483TMC3    C2 7181   1.957   3.443   1.091  0.1392 -0.2383 -0.5651
  483TMC3    C3 7182   2.062   3.480   1.170 -0.7847  0.2233 -0.3341
  483TMC3    C4 7183   2.033   3.219   1.112  0.7409  0.6316 -0.6835
  483TMC3    C5 7184   2.118   3.266   1.211 -0.1912  0.0899  0.6634
  483TMC3    C6 7185   2.130   3.396   1.253  0.5370  0.3379  0.4540
  483TMC3     C 7186   1.879   3.274   0.932 -0.3698 -0.8035  0.2944
  483TMC3     O 7187   1.879   3.154   0.906  0.5025  0.3303 -0.1919
  483TMC3     H 7188   1.885   3.519   1.060 -1.3494 -0.2138  2.9949
  483TMC3    H1 7189   2.039   3.116   1.078  1.1007  0.7036 -0.8355
  483TMC3    H2 7190   2.207   3.440   1.316 -0.4968  1.5663  0.8612
  483TMC3    C7 7191   2.233   3.174   1.248  0.2236 -0.4710 -0.1589
  483TMC3    C8 7192   2.167   3.525   1.079 -0.7233 -0.8809 -0.4494
  483TMC3    O1 7193   2.240   3.080   1.170  0.0801  0.5339  0.5841
  483TMC3    O2 7194   2.136   3.518   0.959 -0.0272 -0.1854  0.5868
  484MPD2     C 7195   4.651   1.031  12.403  0.1204  0.3902  0.5927
  484MPD2    C1 7196   4.647   1.059  12.539  0.4501  0.3359 -0.3021
  484MPD2    C2 7197   4.722   1.161  12.585  0.1733  0.2836  0.1787
  484MPD2    C3 7198   0.077   1.231  12.498 -0.2205  0.2738 -0.2153
  484MPD2    C4 7199   0.093   1.188  12.367 -0.1129  0.3297 -0.1031
  484MPD2    C5 7200   0.016   1.087  12.318 -0.0061  0.1582 -0.7684
  484MPD2     H 7201   4.716   1.169  12.693 -1.2552  0.3912  0.0915
  484MPD2    H1 7202   0.167   1.233  12.301 -0.1459  0.3021 -0.1593
  484MPD2    H2 7203   4.575   0.969  12.356  2.2610 -1.1724 -0.7984
  484MPD2    H3 7204   0.025   1.066  12.212 -0.4641  0.4712 -0.8694
  484MPD2     N 7205   0.162   1.336  12.536 -0.1423  0.5879 -0.0848
  484MPD2    H5 7206   0.216   1.376  12.460 -1.1375 -1.5008 -1.8596
  484MPD2    N1 7207   4.549   0.988  12.616 -0.5373  0.6018  0.2644
  484MPD2    H7 7208   4.493   0.926  12.558  0.1219  0.2527  0.0042
  485TMC3    C1 7209   0.307   1.460  12.672  0.8433  0.2514  0.2103
  485TMC3    C2 7210   0.402   1.413  12.756 -0.3664 -0.2816 -0.1275
  485TMC3    C3 7211   0.522   1.387  12.693  0.8778  0.1807  0.1368
  485TMC3    C4 7212   0.330   1.518  12.556  0.0452 -0.0381 -0.2334
  485TMC3    C5 7213   0.456   1.516  12.508 -0.8741 -0.6030  0.9957
  485TMC3    C6 7214   0.557   1.460  12.581 -0.4529 -1.3087 -0.1901
  485TMC3     C 7215   0.180   1.382  12.667 -0.4694 -0.1490 -0.5848
  485TMC3     O 7216   0.154   1.317  12.768 -0.1090  0.5821 -0.6364
  485TMC3     H 7217   0.363   1.367  12.846  0.6661  0.1063  0.5094
  485TMC3    H1 7218   0.245   1.550  12.497  1.1189 -0.5580 -2.0828
  485TMC3    H2 7219   0.643   1.422  12.527  0.8467  0.7901  0.3881
  485TMC3    C7 7220   0.467   1.475  12.370  0.1497 -0.0526 -0.4457
  485TMC3    C8 7221   0.541   1.243  12.679  0.3424 -0.1902  0.5285
  485TMC3    O1 7222   0.361   1.419  12.341 -0.0497  0.0651 -0.1561
  485TMC3    O2 7223   0.600   1.211  12.579 -0.3076  0.4972 -0.3487
  486MPD2     C 7224   2.106   4.661  13.017  1.2298 -0.1021  0.0947
  486MPD2    C1 7225   2.035   4.615  12.901 -0.1314 -0.5177  0.7833
  486MPD2    C2 7226   1.937   4.698  12.840 -0.2117 -0.1627  0.2761
  486MPD2    C3 7227   1.901   0.098  12.892 -0.4255 -0.0552  0.4096
  486MPD2    C4 7228   1.958   0.136  13.010  0.2047 -0.4086 -0.0774
  486MPD2    C5 7229   2.056   0.054  13.070 -0.3615 -0.5929  0.1657
  486MPD2     H 7230   1.883   4.663  12.752 -0.0815 -1.3079  0.6546
  486MPD2    H1 7231   1.932   0.227  13.064  2.7680 -0.5682  1.4324
  486MPD2    H2 7232   2.167   4.598  13.081 -1.4583 -1.2840  1.5171
  486MPD2    H3 7233   2.105   0.092  13.158  0.8676 -1.5383 -0.1142
  486MPD2     N 7234   1.798   0.171  12.833  0.1455 -0.0778 -0.1716
  486MPD2    H5 7235   1.744   0.136  12.754 -0.8242  1.3933 -0.1617
  486MPD2    N1 7236   2.066   4.489  12.851  0.6233 -0.7129  0.0039
  486MPD2    H7 7237   2.138   4.437  12.901  1.0423 -0.2965 -0.1622
  487TMC3    C1 7238   2.057   4.286  12.730 -0.2829  0.0402  0.6368
  487TMC3    C2 7239   1.967   4.184  12.709 -0.0301 -0.1727  0.5503
  487TMC3    C3 7240   2.012   4.054  12.740  0.3454  0.4556 -0.2787
  487TMC3    C4 7241   2.179   4.270  12.785  1.2483  0.1840 -0.1759
  487TMC3    C5 7242   2.219   4.148  12.819 -0.0852 -0.1320  0.9018
  487TMC3    C6 7243   2.139   4.036  12.790  0.1572  0.1638  0.5399
  487TMC3     C 7244   2.006   4.422  12.750 -0.5231 -0.4634  0.3105
  487TMC3     O 7245   1.906   4.451  12.681  0.2843 -0.7013  0.4438
  487TMC3     H 7246   1.868   4.206  12.671 -0.1049 -1.6198 -0.0791
  487TMC3    H1 7247   2.245   4.351  12.813  1.3769 -0.5454  1.6238
  487TMC3    H2 7248   2.180   3.935  12.792 -0.8063 -0.2362  0.1712
  487TMC3    C7 7249   2.232   4.153  12.963  0.3095 -0.2198  0.2844
  487TMC3    C8 7250   1.915   3.950  12.766 -0.6796 -0.3315 -0.3477
  487TMC3    O1 7251   2.220   4.263  13.018 -0.2364 -0.5434  0.4406
  487TMC3    O2 7252   1.797   3.982  12.752 -0.1907 -0.7466 -0.6061
  488MPD2     C 7253   2.132   1.409  16.727 -0.0407 -0.9420 -0.8770
  488MPD2    C1 7254   2.142   1.534  16.786 -0.5408 -0.9879 -0.0285
  488MPD2    C2 7255   2.103   1.555  16.919 -0.4340 -0.3008 -0.0234
  488MPD2    C3 7256   2.071   1.442  16.994  0.1997  0.1177 -0.4791
  488MPD2    C4 7257   2.062   1.317  16.937 -0.1915  0.5702 -0.8482
  488MPD2    C5 7258   2.094   1.304  16.804 -0.3492 -0.6354 -0.5283
  488MPD2     H 7259   2.113   1.654  16.964  0.5443 -0.8264  0.9270
  488MPD2    H1 7260   2.046   1.231  17.001 -0.3794  0.3192 -1.2328
  488MPD2    H2 7261   2.167   1.393  16.625 -1.4122 -4.0347 -0.8529
  488MPD2    H3 7262   2.097   1.209  16.753  3.1457 -0.2074 -1.1127
  488MPD2     N 7263   2.060   1.465  17.136 -0.5034 -0.3171 -0.3051
  488MPD2    H5 7264   2.078   1.560  17.166  1.0296 -0.4001 -0.9359
  488MPD2    N1 7265   2.179   1.654  16.717  0.3008 -0.4680  0.3395
  488MPD2    H7 7266   2.157   1.738  16.769 -0.2916  0.7690 -1.8805
  489TMC3    C1 7267   2.047   1.408  17.363  0.0848  0.0735 -0.1679
  489TMC3    C2 7268   2.113   1.531  17.362  0.1799  0.7534  0.4160
  489TMC3    C3 7269   2.080   1.611  17.470 -0.2874 -0.4293  0.1027
  489TMC3    C4 7270   1.954   1.366  17.455 -0.2210 -0.3352  0.1635
  489TMC3    C5 7271   1.929   1.452  17.547 -0.2944 -0.5848 -0.7204
  489TMC3    C6 7272   1.982   1.576  17.558  0.3501 -0.1044 -0.5531
  489TMC3     C 7273   2.013   1.374  17.225  0.4095  0.0327 -0.0991
  489TMC3     O 7274   1.938   1.280  17.205  0.3740  0.3534 -0.3799
  489TMC3     H 7275   2.188   1.564  17.291 -0.5673  1.8838  0.1496
  489TMC3    H1 7276   1.899   1.273  17.444  0.0485 -0.2470 -1.9393
  489TMC3    H2 7277   1.935   1.643  17.629  0.7690  1.1627 -1.4804
  489TMC3    C7 7278   1.805   1.434  17.614 -0.0886  0.9300 -0.0511
  489TMC3    C8 7279   2.101   1.753  17.443  0.0299  0.3230 -0.0203
  489TMC3    O1 7280   1.713   1.519  17.601  0.7578  0.4765 -0.1306
  489TMC3    O2 7281   2.138   1.765  17.330 -0.7848  0.2701 -0.0397
  490MPD2     C 7282   3.602   0.802  17.257  0.1660 -0.2175  0.0777
  490MPD2    C1 7283   3.495   0.840  17.332  0.6544  0.3148 -0.1678
  490MPD2    C2 7284   3.460   0.975  17.350  0.0059 -0.3207  0.6935
  490MPD2    C3 7285   3.528   1.073  17.275 -0.3440 -0.7037 -0.4143
  490MPD2    C4 7286   3.642   1.032  17.198  0.9600  0.3870  0.3152
  490MPD2    C5 7287   3.670   0.898  17.189  0.6468  0.1460 -0.0214
  490MPD2     H 7288   3.385   0.993  17.426  0.4271 -1.0448  1.2868
  490MPD2    H1 7289   3.713   1.094  17.145  0.2594 -0.6519 -1.8313
  490MPD2    H2 7290   3.647   0.703  17.252 -2.0925 -1.2128 -0.5387
  490MPD2    H3 7291   3.755   0.868  17.129  0.1922  2.0282 -1.6045
  490MPD2     N 7292   3.508   1.212  17.291  0.4854 -0.2634 -0.3937
  490MPD2    H5 7293   3.579   1.276  17.256  0.9390 -0.2127  0.6424
  490MPD2    N1 7294   3.412   0.748  17.401 -0.2291  0.2833 -0.1527
  490MPD2    H7 7295   3.326   0.784  17.441  0.3065 -1.0061  2.1661
  491TMC3    C1 7296   3.356   0.550  17.519 -0.4437 -0.2149  0.5791
  491TMC3    C2 7297   3.276   0.627  17.604  0.1161 -0.4549  0.4192
  491TMC3    C3 7298   3.190   0.559  17.688 -0.1722 -0.5724  0.0677
  491TMC3    C4 7299   3.337   0.417  17.508  0.1540  0.0499  0.3507
  491TMC3    C5 7300   3.237   0.357  17.576  0.6660 -0.2769 -0.1629
  491TMC3    C6 7301   3.179   0.426  17.685  0.3129 -0.4504 -0.3390
  491TMC3     C 7302   3.441   0.613  17.423 -0.2544 -0.5431  0.4748
  491TMC3     O 7303   3.523   0.538  17.368 -0.5342  0.2866  0.2203
  491TMC3     H 7304   3.309   0.729  17.620 -0.5903 -0.2867  0.8338
  491TMC3    H1 7305   3.407   0.360  17.449 -0.2237  0.1364 -0.1809
  491TMC3    H2 7306   3.112   0.373   0.055  0.9476  0.6117  1.1541
  491TMC3    C7 7307   3.146   0.280  17.499  0.8571  0.7620 -0.2536
  491TMC3    C8 7308   3.107   0.640   0.070 -0.4284 -0.5926  0.2613
  491TMC3    O1 7309   3.032   0.280  17.548 -0.3608 -0.2715  0.1804
  491TMC3    O2 7310   3.031   0.576   0.140  0.2504 -0.3633 -0.1139
  492MPD2     C 7311   2.090   1.007  11.040  0.0142 -0.3771 -0.3190
  492MPD2    C1 7312   2.225   1.012  11.074 -0.0011 -0.1681  0.0990
  492MPD2    C2 7313   2.272   0.968  11.198  0.0011  0.4052 -1.0447
  492MPD2    C3 7314   2.183   0.920  11.288 -0.0396  0.0341 -0.1577
  492MPD2    C4 7315   2.047   0.918  11.264 -0.3518  0.4944 -0.2079
  492MPD2    C5 7316   2.001   0.968  11.142 -0.2075  0.1526  0.1296
  492MPD2     H 7317   2.376   0.970  11.229  0.0177  1.8915 -1.2019
  492MPD2    H1 7318   1.983   0.894  11.348 -0.2581 -2.0498 -0.8869
  492MPD2    H2 7319   2.063   1.041  10.941 -3.2967 -2.1187 -0.0232
  492MPD2    H3 7320   1.895   0.964  11.117  0.3384 -1.3659 -1.9441
  492MPD2     N 7321   2.225   0.872  11.416 -0.2213 -0.2206 -0.2073
  492MPD2    H5 7322   2.150   0.840  11.476 -0.7907  0.6175 -0.4714
  492MPD2    N1 7323   2.303   1.089  10.982  0.2226 -0.1011 -0.2260
  492MPD2    H7 7324   2.251   1.133  10.906  0.3732 -2.1000 -1.5040
  493TMC3    C1 7325   2.491   1.188  10.887  0.1592  0.2287  0.8987
  493TMC3    C2 7326   2.601   1.262  10.921  0.5326 -0.7437 -0.2710
  493TMC3    C3 7327   2.652   1.347  10.829 -0.3634  0.5170  0.0094
  493TMC3    C4 7328   2.429   1.200  10.766 -0.3086 -0.1869 -0.6516
  493TMC3    C5 7329   2.486   1.290  10.675  0.2744 -0.4971  0.1530
  493TMC3    C6 7330   2.600   1.368  10.703 -0.3315  0.7897 -0.8047
  493TMC3     C 7331   2.435   1.109  10.993  0.7326  0.4720 -0.3431
  493TMC3     O 7332   2.517   1.054  11.060  0.1432 -0.5242 -0.0389
  493TMC3     H 7333   2.643   1.255  11.021  1.1718  0.6610 -0.4483
  493TMC3    H1 7334   2.344   1.137  10.747 -1.1063  1.3873 -2.2931
  493TMC3    H2 7335   2.637   1.443  10.633 -0.7730  0.8138 -1.0120
  493TMC3    C7 7336   2.399   1.324  10.567  0.6814 -0.5646  0.6027
  493TMC3    C8 7337   2.773   1.418  10.866  0.1183 -0.5884  0.0757
  493TMC3    O1 7338   2.286   1.286  10.580 -0.0142  0.4701 -0.4245
  493TMC3    O2 7339   2.792   1.426  10.987 -0.8525  0.6723 -0.2136
  494TMC3    C1 7340   3.519   3.138   0.444 -0.3479  0.0765 -0.1783
  494TMC3    C2 7341   3.567   3.018   0.490 -0.6279 -0.0961 -0.4643
  494TMC3    C3 7342   3.666   2.957   0.421 -0.5270 -0.0545 -0.6392
  494TMC3    C4 7343   3.574   3.205   0.342 -0.4044 -0.4755  0.6701
  494TMC3    C5 7344   3.677   3.143   0.280 -0.1303 -0.2943  0.2387
  494TMC3    C6 7345   3.722   3.013   0.315  0.7848  1.7018 -0.3203
  494TMC3     C 7346   3.414   3.199   0.525 -0.5020 -0.0472  0.2303
  494TMC3     O 7347   3.345   3.123   0.592 -0.2068 -0.0849 -0.2185
  494TMC3     H 7348   3.521   2.974   0.578  1.0455 -1.3168 -0.1947
  494TMC3    H1 7349   3.526   3.287   0.291 -0.5077 -1.3145 -0.5751
  494TMC3    H2 7350   3.808   2.974   0.261  0.8002  0.4538  0.6197
  494TMC3    C7 7351   3.735   3.212   0.167  0.0674  0.1068  0.9861
  494TMC3    C8 7352   3.725   2.841   0.474  0.3374  0.5974 -0.8029
  494TMC3    O1 7353   3.772   3.139   0.081 -0.4980 -0.8316 -0.8909
  494TMC3    O2 7354   3.654   2.782   0.556 -0.8888 -0.4540  0.1144
  495TMC3    C1 7355   2.782   0.054  14.783 -0.3662  0.1646  0.2710
  495TMC3    C2 7356   2.716   0.102  14.674  0.2501 -0.1009 -0.4118
  495TMC3    C3 7357   2.627   0.208  14.691  0.8275  0.9559  0.3481
  495TMC3    C4 7358   2.777   0.128  14.897  0.4226 -0.5159 -0.0379
  495TMC3    C5 7359   2.699   0.241  14.911  0.2918 -0.1280  0.4608
  495TMC3    C6 7360   2.619   0.280  14.809  0.1646 -0.3396 -0.1098
  495TMC3     C 7361   2.806   4.634  14.805  0.4669 -0.7926 -0.0796
  495TMC3     O 7362   2.872   4.588  14.894  0.6448  1.1947  0.2606
  495TMC3     H 7363   2.737   0.047  14.583  1.7393  0.5525 -0.4694
  495TMC3    H1 7364   2.827   0.086  14.984 -2.0022 -0.7979  1.2134
  495TMC3    H2 7365   2.561   0.371  14.815  0.5154 -0.1578  0.5293
  495TMC3    C7 7366   2.648   0.242  15.045 -0.1144 -0.1105 -0.3669
  495TMC3    C8 7367   2.533   0.240  14.583  0.2648 -0.0449 -0.4469
  495TMC3    O1 7368   2.721   0.227  15.139  0.5071 -0.1283 -0.4816
  495TMC3    O2 7369   2.440   0.314  14.608 -0.0963 -1.1960  0.1791
  496MPD2     C 7370   4.601   0.046  15.056  0.5512  0.6950 -0.0902
  496MPD2    C1 7371   4.672   0.031  15.173  0.4386 -0.1626  0.5994
  496MPD2    C2 7372   4.599   4.692  15.277 -0.4195  0.0923 -0.4155
  496MPD2    C3 7373   4.472   4.638  15.262 -0.2424 -0.8252 -0.6104
  496MPD2    C4 7374   4.413   4.652  15.141 -0.2751  0.0016  0.7908
  496MPD2    C5 7375   4.480   4.707  15.043 -0.0702 -0.9215  0.1939
  496MPD2     H 7376   4.659   4.665  15.363  0.5746 -0.8190 -1.3925
  496MPD2    H1 7377   4.315   4.611  15.118  0.3023 -0.2616 -1.2088
  496MPD2    H2 7378   4.629   0.111  14.974 -2.2487  0.4388 -1.2504
  496MPD2    H3 7379   4.422   4.712  14.951  0.7865  1.1736 -0.2311
  496MPD2     N 7380   4.397   4.559  15.354 -0.3902  0.2959  0.1342
  496MPD2    H5 7381   4.318   4.510  15.313  0.8103  1.4802 -3.6071
  496MPD2    N1 7382   0.075   0.090  15.179  0.3350 -0.3919  0.1842
  496MPD2    H7 7383   0.107   0.134  15.094 -0.1579  1.9998  1.2469
  497TMC3    C1 7384   4.399   4.434  15.556  0.7538  0.0802  0.3727
  497TMC3    C2 7385   4.302   4.352  15.509  1.0009 -0.3429  0.2455
  497TMC3    C3 7386   4.269   4.248  15.582  0.0736 -0.7273 -0.0803
  497TMC3    C4 7387   4.469   4.403  15.669  0.2769 -0.0112 -0.1347
  497TMC3    C5 7388   4.436   4.290  15.736 -0.3308  0.2675  0.4028
  497TMC3    C6 7389   4.337   4.209  15.691 -0.0812 -0.4645 -0.0674
  497TMC3     C 7390   4.433   4.546  15.482 -0.2692  0.1483  0.2053
  497TMC3     O 7391   4.493   4.634  15.544 -0.1303 -0.6228  0.1564
  497TMC3     H 7392   4.239   4.378  15.425  1.7209 -1.6144 -0.6939
  497TMC3    H1 7393   4.545   4.474  15.699 -1.6910  0.9595  2.5405
  497TMC3    H2 7394   4.307   4.120  15.745  0.4305 -2.0903 -2.4654
  497TMC3    C7 7395   4.450   4.294  15.879  0.5995 -0.0360  0.7394
  497TMC3    C8 7396   4.134   4.201  15.575  0.0443 -0.3586 -0.4623
  497TMC3    O1 7397   4.398   4.204  15.945 -0.1422 -0.3479 -0.4637
  497TMC3    O2 7398   4.085   4.166  15.684 -0.1334  0.0388 -0.5373
  498MPD2     C 7399   0.494   0.996   9.375 -0.7702  0.2052  0.6796
  498MPD2    C1 7400   0.528   0.993   9.509 -0.0710  0.2849  0.1471
  498MPD2    C2 7401   0.433   0.959   9.608 -0.4099 -0.1706  0.0096
  498MPD2    C3 7402   0.311   0.924   9.568 -0.0069 -0.0922  0.4330
  498MPD2    C4 7403   0.280   0.926   9.432  0.0963  0.0847 -0.5167
  498MPD2    C5 7404   0.370   0.959   9.337 -0.6376  0.8183 -0.4187
  498MPD2     H 7405   0.460   0.958   9.713 -0.2978 -0.4946 -0.0231
  498MPD2    H1 7406   0.176   0.908   9.404 -0.4920  0.0534  1.7400
  498MPD2    H2 7407   0.561   1.015   9.293  1.2514 -0.8637  2.0907
  498MPD2    H3 7408   0.346   0.961   9.231  1.1283 -0.5928 -0.8439
  498MPD2     N 7409   0.215   0.883   9.666  0.1316  0.6923  0.1536
  498MPD2    H5 7410   0.252   0.892   9.760 -0.3315  1.4521  0.2669
  498MPD2    N1 7411   0.658   1.023   9.550  0.2740  0.7137 -0.0313
  498MPD2    H7 7412   0.680   0.990   9.644 -1.8793  0.6660  0.4370
  499TMC3    C1 7413   0.877   1.092   9.542  0.0016  0.7334 -0.9959
  499TMC3    C2 7414   0.909   0.995   9.633 -0.2969 -0.3807  0.8711
  499TMC3    C3 7415   1.041   0.985   9.663 -0.1693  0.6849  0.5737
  499TMC3    C4 7416   0.966   1.189   9.499 -0.2069  0.0879  0.2059
  499TMC3    C5 7417   1.095   1.173   9.541 -0.4566  0.1120  0.6713
  499TMC3    C6 7418   1.139   1.073   9.626 -0.1413  0.2292 -0.4545
  499TMC3     C 7419   0.754   1.084   9.474 -0.2651 -0.1531 -0.0483
  499TMC3     O 7420   0.737   1.154   9.373  0.0486 -0.4216 -0.5126
  499TMC3     H 7421   0.834   0.922   9.663  0.2866 -0.9522  0.9310
  499TMC3    H1 7422   0.931   1.259   9.424 -1.4339 -2.4475 -1.5990
  499TMC3    H2 7423   1.244   1.057   9.647 -0.0960  2.5915  1.1154
  499TMC3    C7 7424   1.203   1.253   9.488 -0.0366 -0.6441 -0.6625
  499TMC3    C8 7425   1.083   0.862   9.730 -0.4130  0.9471  0.0268
  499TMC3    O1 7426   1.306   1.244   9.548 -0.0863  0.2902 -0.0870
  499TMC3    O2 7427   1.004   0.769   9.726  0.4545  0.1177  0.1415
  500MPD2     C 7428   1.915   2.376  10.189  0.3382  0.0354  1.2073
  500MPD2    C1 7429   1.978   2.270  10.252 -0.1713  0.2576  0.8714
  500MPD2    C2 7430   1.909   2.156  10.289  0.4516  0.0915  0.5578
  500MPD2    C3 7431   1.772   2.160  10.278  0.0854  0.5214  0.5226
  500MPD2    C4 7432   1.702   2.264  10.224  0.1220  0.1444 -0.4312
  500MPD2    C5 7433   1.778   2.364  10.169  0.4643  1.2549  0.0535
  500MPD2     H 7434   1.952   2.067  10.333  2.7847  1.4103  0.9406
  500MPD2    H1 7435   1.594   2.269  10.229  0.0780 -1.4839  0.3483
  500MPD2    H2 7436   1.973   2.458  10.148 -1.2266  0.9598  0.8310
  500MPD2    H3 7437   1.733   2.453  10.126 -1.9647  0.1022  0.1947
  500MPD2     N 7438   1.692   2.049  10.301 -0.2407 -0.8575 -0.1714
  500MPD2    H5 7439   1.593   2.070  10.306 -0.1162 -0.5100  0.7951
  500MPD2    N1 7440   2.120   2.266  10.262  0.5519 -0.0776  0.3712
  500MPD2    H7 7441   2.167   2.189  10.307  0.0749 -0.2555  0.5697
  501TMC3    C1 7442   2.343   2.325  10.260 -0.9459 -0.6901  1.0772
  501TMC3    C2 7443   2.445   2.373  10.184  0.0616  0.0793  0.3245
  501TMC3    C3 7444   2.575   2.331  10.200  0.0885  0.1177 -0.2243
  501TMC3    C4 7445   2.369   2.220  10.356  0.6285  0.7918  0.3323
  501TMC3    C5 7446   2.499   2.201  10.367 -0.0382  0.4260 -0.4107
  501TMC3    C6 7447   2.607   2.244  10.299 -0.1206 -0.2294  0.1600
  501TMC3     C 7448   2.205   2.371  10.237 -0.2784 -0.3422  0.0865
  501TMC3     O 7449   2.193   2.474  10.171  0.7355 -0.1616  0.3597
  501TMC3     H 7450   2.416   2.434  10.099  0.0112  1.5085  1.3569
  501TMC3    H1 7451   2.294   2.195  10.430  3.6381 -1.0905  2.7593
  501TMC3    H2 7452   2.704   2.197  10.307 -0.2176 -0.2115  1.3256
  501TMC3    C7 7453   2.544   2.202  10.508 -0.0170  0.7698 -0.2270
  501TMC3    C8 7454   2.674   2.439  10.195  0.0605 -0.2096 -0.5603
  501TMC3    O1 7455   2.475   2.149  10.595  0.3850 -0.5834 -0.0434
  501TMC3    O2 7456   2.773   2.433  10.265 -0.6398 -0.0193 -0.2439
  502TMC3    C1 7457   2.011   0.868  15.330  0.2536  0.1401  0.3950
  502TMC3    C2 7458   1.984   0.999  15.307 -0.3359  0.4038 -0.5820
  502TMC3    C3 7459   1.852   1.036  15.312 -0.0250 -0.0156 -0.0548
  502TMC3    C4 7460   1.910   0.774  15.339  0.0939  0.5206 -0.8840
  502TMC3    C5 7461   1.782   0.816  15.331 -0.0833 -0.3750  1.2531
  502TMC3    C6 7462   1.747   0.950  15.321  0.3042 -0.1184 -0.0841
  502TMC3     C 7463   2.132   0.851  15.416  0.2361  0.0372 -0.5392
  502TMC3     O 7464   2.236   0.903  15.381  0.2129  0.5356 -0.3874
  502TMC3     H 7465   2.062   1.072  15.325  1.6326 -2.0155  0.6546
  502TMC3    H1 7466   1.934   0.668  15.337 -0.2081  0.4380  0.1380
  502TMC3    H2 7467   1.647   0.990  15.309 -0.4907 -1.4387  2.2882
  502TMC3    C7 7468   1.684   0.717  15.352 -0.8515  0.1233 -0.4300
  502TMC3    C8 7469   1.822   1.163  15.261  0.2126  0.4617 -0.1503
  502TMC3    O1 7470   1.719   0.607  15.388 -0.6418 -0.3964  0.5464
  502TMC3    O2 7471   1.890   1.204  15.167 -0.8126  0.0307  0.5932
  503MPD2     C 7472   4.213   1.777  16.560 -0.6583 -0.8024 -0.0596
  503MPD2    C1 7473   4.204   1.810  16.694  0.0663  0.3690  0.9473
  503MPD2    C2 7474   4.252   1.728  16.795  0.0498  0.4543 -0.1067
  503MPD2    C3 7475   4.293   1.600  16.776 -0.2814 -0.0838  0.0646
  503MPD2    C4 7476   4.287   1.552  16.644  0.0704  0.0659  0.1591
  503MPD2    C5 7477   4.240   1.644  16.545 -0.0925 -0.1165  0.2513
  503MPD2     H 7478   4.247   1.772  16.894 -1.8145  0.0019 -0.0006
  503MPD2    H1 7479   4.312   1.450  16.618  2.3375  0.2826  1.3923
  503MPD2    H2 7480   4.179   1.839  16.478  1.8876 -1.8211 -1.9117
  503MPD2    H3 7481   4.236   1.600  16.446 -2.7377 -1.1525  0.8194
  503MPD2     N 7482   4.331   1.519  16.885 -0.1488 -0.3385 -0.2578
  503MPD2    H5 7483   4.313   1.561  16.975  2.2884 -0.1321  0.1261
  503MPD2    N1 7484   4.153   1.938  16.732 -0.3137  0.0794 -0.4783
  503MPD2    H7 7485   4.143   1.951  16.832  1.8308  1.1944 -0.4097
  504TMC3    C1 7486   4.428   1.331  17.004 -0.2723  1.1008 -0.3923
  504TMC3    C2 7487   4.361   1.372  17.115  0.0354  0.6218  0.7563
  504TMC3    C3 7488   4.373   1.302  17.233 -0.3590 -0.3187 -0.2221
  504TMC3    C4 7489   4.500   1.210  17.004 -0.2610 -0.5097  0.0324
  504TMC3    C5 7490   4.512   1.143  17.127 -0.2479  0.1069 -0.5219
  504TMC3    C6 7491   4.445   1.188  17.237  0.0635 -0.3046 -0.2082
  504TMC3     C 7492   4.406   1.401  16.880  0.6984  0.0638  0.5872
  504TMC3     O 7493   4.469   1.349  16.785 -0.7129 -0.5235  0.7032
  504TMC3     H 7494   4.295   1.458  17.112  0.3194  0.8021 -0.7355
  504TMC3    H1 7495   4.555   1.181  16.915  0.7772 -0.2543  0.5900
  504TMC3    H2 7496   4.445   1.129  17.328 -0.1243 -0.1191 -0.0898
  504TMC3    C7 7497   4.630   1.056  17.132  0.1254  0.3210  0.6368
  504TMC3    C8 7498   4.287   1.342  17.351 -0.1964 -0.2424 -0.3944
  504TMC3    O1 7499   4.699   1.061  17.030 -0.0438 -0.4845  0.1181
  504TMC3    O2 7500   4.240   1.453  17.351 -0.1292  0.3338 -0.6986
  505MPD2     C 7501   4.544   0.937  10.713  0.2248  0.2576 -0.0446
  505MPD2    C1 7502   4.520   0.811  10.765  0.0299 -0.5256 -0.9529
  505MPD2    C2 7503   4.626   0.728  10.802 -0.8105 -0.1319 -0.0432
  505MPD2    C3 7504   0.039   0.769  10.796  0.4808  0.6176  0.3273
  505MPD2    C4 7505   0.052   0.894  10.746  0.8437  0.0075  0.7945
  505MPD2    C5 7506   4.677   0.977  10.702 -0.2647 -0.3598 -0.0055
  505MPD2     H 7507   4.600   0.627  10.832 -0.7141 -0.4362 -0.9852
  505MPD2    H1 7508   0.154   0.931  10.751  0.3021  1.6134  0.1841
  505MPD2    H2 7509   4.457   0.997  10.688  0.1031  0.2934  0.4773
  505MPD2    H3 7510   4.700   1.076  10.664 -1.0190 -0.6462 -1.2219
  505MPD2     N 7511   0.156   0.692  10.832  0.0542 -0.0411  0.8037
  505MPD2    H5 7512   0.247   0.734  10.816 -0.0630 -0.3803 -0.8217
  505MPD2    N1 7513   4.389   0.772  10.793 -0.3572  0.9117  0.5082
  505MPD2    H7 7514   4.316   0.842  10.779 -1.3947 -0.9723 -3.3038
  506TMC3    C1 7515   4.198   0.619  10.821 -0.2409  0.0880 -0.2092
  506TMC3    C2 7516   4.156   0.627  10.688  0.2713  0.3095 -0.1619
  506TMC3    C3 7517   4.080   0.520  10.644 -0.0182 -0.0769  0.8766
  506TMC3    C4 7518   4.165   0.515  10.900  0.3593  0.4089  0.0439
  506TMC3    C5 7519   4.089   0.415  10.853  0.5477 -0.0682 -0.1648
  506TMC3    C6 7520   4.036   0.423  10.729  0.1187  0.5510  0.7250
  506TMC3     C 7521   4.344   0.651  10.836  0.2180 -0.4575 -0.4120
  506TMC3     O 7522   4.405   0.559  10.887  0.3451 -0.1119 -0.0565
  506TMC3     H 7523   4.195   0.705  10.623 -0.6396  0.3217 -0.6846
  506TMC3    H1 7524   4.208   0.503  10.999 -0.8074  3.6252  0.9332
  506TMC3    H2 7525   3.983   0.344  10.677  2.1873 -0.3610  0.0025
  506TMC3    C7 7526   4.162   0.286  10.862  0.5968 -0.4202 -1.1323
  506TMC3    C8 7527   4.040   0.507  10.511  0.3614 -0.2537 -0.1831
  506TMC3    O1 7528   4.101   0.185  10.829  0.1251  0.1436 -0.4588
  506TMC3    O2 7529   3.942   0.441  10.479 -0.0654 -0.2224 -0.2801
  507TMC3    C1 7530   0.518   0.891  14.550 -0.2598  0.4630  0.3715
  507TMC3    C2 7531   0.473   0.775  14.493 -0.3217 -0.4609 -0.2693
  507TMC3    C3 7532   0.492   0.757  14.359  0.7582  0.5329  0.7749
  507TMC3    C4 7533   0.598   0.980  14.488 -0.8072 -0.0118  0.4541
  507TMC3    C5 7534   0.616   0.968  14.351 -0.3342 -0.7708  0.1294
  507TMC3    C6 7535   0.568   0.857  14.289 -0.2734  0.0345  0.9371
  507TMC3     C 7536   0.417   0.955  14.626  0.2825 -0.2814  0.3393
  507TMC3     O 7537   0.457   1.039  14.707 -0.2946 -0.5814  0.2181
  507TMC3     H 7538   0.409   0.716  14.557  0.6702 -1.8388 -0.5503
  507TMC3    H1 7539   0.626   1.069  14.544  0.5250  0.6882 -1.3220
  507TMC3    H2 7540   0.579   0.843  14.182  0.3801  0.5986  0.9363
  507TMC3    C7 7541   0.568   1.086  14.280  0.2791 -0.3599 -0.1117
  507TMC3    C8 7542   0.374   0.715  14.284 -0.1217 -0.2077  0.2456
  507TMC3    O1 7543   0.492   1.054  14.189 -0.0363  0.4035 -0.2825
  507TMC3    O2 7544   0.299   0.641  14.350 -0.0607 -0.4041 -0.2355
  508MPD2     C 7545   1.464   3.143  15.944 -0.6474 -0.0983 -0.0522
  508MPD2    C1 7546   1.441   3.242  16.032 -0.2134 -0.2214  0.1968
  508MPD2    C2 7547   1.399   3.374  15.982 -1.0054 -0.1891  0.8488
  508MPD2    C3 7548   1.394   3.388  15.839 -0.4538 -0.0388 -0.1892
  508MPD2    C4 7549   1.402   3.278  15.762 -0.3943 -0.1734  0.1870
  508MPD2    C5 7550   1.443   3.159  15.815  0.2787  0.7563 -0.5059
  508MPD2     H 7551   1.381   3.460  16.045  0.4926  0.3590  0.5333
  508MPD2    H1 7552   1.388   3.280  15.655  1.3003 -0.2080 -0.0286
  508MPD2    H2 7553   1.491   3.048  15.988 -1.2584 -1.0603 -1.7374
  508MPD2    H3 7554   1.472   3.078  15.749 -0.1765 -2.0654  2.7476
  508MPD2     N 7555   1.363   3.514  15.780  0.5005  0.3906  0.2885
  508MPD2    H5 7556   1.355   3.594  15.843  0.9413  0.8233 -0.2083
  508MPD2    N1 7557   1.475   3.221  16.169  0.6296 -0.0102  0.6958
  508MPD2    H7 7558   1.538   3.144  16.189 -1.5029 -1.9061  0.1606
  509TMC3    C1 7559   1.295   3.848  15.459 -0.1517 -0.6215 -0.0098
  509TMC3    C2 7560   1.376   3.939  15.521 -0.5356 -1.0444 -0.1342
  509TMC3    C3 7561   1.438   3.893  15.629  0.0164 -0.3617 -0.2731
  509TMC3    C4 7562   1.274   3.716  15.492  0.0468  0.4626  0.3226
  509TMC3    C5 7563   1.349   3.678  15.600  0.4550 -0.7699  1.0597
  509TMC3    C6 7564   1.437   3.764  15.663 -0.1005 -0.4536  0.1254
  509TMC3     C 7565   1.239   3.883  15.329  0.6812 -0.0235 -0.1714
  509TMC3     O 7566   1.200   3.799  15.252 -0.4625  0.3825 -0.1803
  509TMC3     H 7567   1.393   4.033  15.471  0.4543 -1.1182  0.0453
  509TMC3    H1 7568   1.222   3.645  15.428 -0.2752 -1.4047  2.6759
  509TMC3    H2 7569   1.505   3.723  15.737  0.4822 -2.6770 -1.6268
  509TMC3    C7 7570   1.331   3.541  15.649  0.5994  0.1197 -0.5106
  509TMC3    C8 7571   1.523   3.975  15.713 -0.2194 -0.2548  0.3555
  509TMC3    O1 7572   1.305   3.463  15.559  0.0036  0.1609 -0.8694
  509TMC3    O2 7573   1.583   3.921  15.808 -0.4601 -1.0318 -0.1173
  510MPD2     C 7574   4.114   0.376  14.851 -1.2196  0.2258  0.2404
  510MPD2    C1 7575   4.137   0.241  14.864  0.0868  0.7065 -0.0995
  510MPD2    C2 7576   4.238   0.182  14.783 -0.4069 -0.1674  0.2942
  510MPD2    C3 7577   4.298   0.253  14.686  0.6058 -1.1201 -0.1832
  510MPD2    C4 7578   4.269   0.392  14.678  0.5350 -0.4201 -0.0541
  510MPD2    C5 7579   4.176   0.456  14.758  0.0060 -0.1458 -1.1720
  510MPD2     H 7580   4.264   0.077  14.789  1.6886  0.2936 -0.5012
  510MPD2    H1 7581   4.307   0.455  14.598 -0.8630 -2.2766 -2.1641
  510MPD2    H2 7582   4.049   0.426  14.921  0.2467  1.1853  0.9042
  510MPD2    H3 7583   4.161   0.562  14.742  0.8026  0.2567  0.7003
  510MPD2     N 7584   4.383   0.179  14.604 -0.2566 -0.0870  0.2820
  510MPD2    H5 7585   4.389   0.080  14.624 -0.0296 -0.3561 -1.1449
  510MPD2    N1 7586   4.056   0.174  14.960  0.3918  0.1332  0.2140
  510MPD2    H7 7587   3.982   0.228  15.004  0.2134  1.5964 -1.8929
  511TMC3    C1 7588   3.958   4.702  15.046 -0.3902  0.2000 -0.0012
  511TMC3    C2 7589   3.898   0.041  15.151 -0.0595 -0.0609 -0.6369
  511TMC3    C3 7590   3.781   4.715  15.207 -0.6790 -0.1894  0.1831
  511TMC3    C4 7591   3.888   4.604  14.992  0.7780 -0.0745 -0.0144
  511TMC3    C5 7592   3.780   4.545  15.055 -0.4627 -0.3101 -0.1052
  511TMC3    C6 7593   3.726   4.596  15.166 -0.0256 -0.0688 -0.2574
  511TMC3     C 7594   4.070   0.036  14.975 -0.3674  0.3930  0.2132
  511TMC3     O 7595   4.137   4.675  14.917 -0.0730  0.5507 -0.5795
  511TMC3     H 7596   3.941   0.121  15.210 -0.5166  0.5887 -1.1805
  511TMC3    H1 7597   3.928   4.547  14.909 -1.1730 -2.0205  0.4003
  511TMC3    H2 7598   3.638   4.558  15.217  0.1493 -1.0073 -0.6559
  511TMC3    C7 7599   3.702   4.454  14.973 -0.3973  0.2039  0.2745
  511TMC3    C8 7600   3.758   0.038  15.339 -0.1736 -0.1320 -0.0978
  511TMC3    O1 7601   3.725   4.461  14.851  0.0476  0.2432 -0.1408
  511TMC3    O2 7602   3.757   0.155  15.363  0.3854 -0.2293 -0.4612
  512TMC3    C1 7603   2.697   4.186  13.082 -0.4116  0.1798  0.1496
  512TMC3    C2 7604   2.753   4.199  13.200  0.1689 -0.1220 -0.2107
  512TMC3    C3 7605   2.802   4.089  13.265 -0.0281  0.3901  0.8503
  512TMC3    C4 7606   2.651   4.064  13.029  0.3917 -0.3054  0.1449
  512TMC3    C5 7607   2.704   3.950  13.096  0.1257 -0.1393  0.0100
  512TMC3    C6 7608   2.785   3.964  13.206  0.1322  1.6672  0.3609
  512TMC3     C 7609   2.658   4.301  13.001  0.1415 -0.6713 -0.0677
  512TMC3     O 7610   2.651   4.408  13.060  0.2038 -0.0026  0.0628
  512TMC3     H 7611   2.764   4.298  13.243 -1.3067  0.0448 -0.1964
  512TMC3    H1 7612   2.596   4.050  12.937  0.4187 -1.0064  0.2378
  512TMC3    H2 7613   2.829   3.879  13.258  0.4340  2.5428  1.5192
  512TMC3    C7 7614   2.681   3.825  13.027 -0.2657 -0.7529  0.2067
  512TMC3    C8 7615   2.833   4.097  13.407  0.0166 -0.2281 -0.1060
  512TMC3    O1 7616   2.636   3.824  12.915  0.4813  0.5368 -0.1561
  512TMC3    O2 7617   2.821   3.995  13.471 -0.0857  0.4553 -0.1109
  513MPD2     C 7618   4.582   3.944  13.254 -0.7165 -0.7637  0.0586
  513MPD2    C1 7619   4.689   3.886  13.197  0.3465  0.3142  0.3759
  513MPD2    C2 7620   0.082   3.963  13.195 -0.2493  0.3051  0.5961
  513MPD2    C3 7621   0.085   4.098  13.229  0.3684 -0.6559  0.0180
  513MPD2    C4 7622   4.691   4.154  13.271 -0.4250 -0.1186 -0.3839
  513MPD2    C5 7623   4.586   4.071  13.293  0.0855  0.0313 -0.0074
  513MPD2     H 7624   0.170   3.922  13.145 -1.4653 -0.8434 -0.6068
  513MPD2    H1 7625   4.687   4.258  13.301 -2.3662 -0.6672  1.2077
  513MPD2    H2 7626   4.496   3.887  13.287  1.6719 -3.6781  1.2251
  513MPD2    H3 7627   4.496   4.114  13.336 -0.1485  1.0184 -1.4664
  513MPD2     N 7628   0.202   4.179  13.210 -0.1345 -0.0927 -0.1981
  513MPD2    H5 7629   0.281   4.130  13.170 -0.2949 -0.7940  0.3391
  513MPD2    N1 7630   4.676   3.751  13.155 -0.0782 -0.0313 -0.3485
  513MPD2    H7 7631   4.583   3.712  13.161 -0.8621  2.2957  2.8410
  514TMC3    C1 7632   0.023   3.561  13.040 -0.0774  0.4649  0.3436
  514TMC3    C2 7633   4.637   3.565  12.956 -0.0658 -0.1846 -0.8107
  514TMC3    C3 7634   4.650   3.518  12.829 -0.7820  0.3654  0.5954
  514TMC3    C4 7635   0.137   3.490  13.003 -0.1818 -0.0159 -0.1062
  514TMC3    C5 7636   0.155   3.465  12.870 -0.0921  0.0031  0.2412
  514TMC3    C6 7637   0.052   3.481  12.782 -1.3728  0.0408 -0.4187
  514TMC3     C 7638   0.063   3.683  13.101 -0.0302 -0.5398  0.0273
  514TMC3     O 7639   0.182   3.711  13.105 -0.6373 -0.3340  0.4217
  514TMC3     H 7640   4.548   3.617  12.988 -0.3232 -0.6444 -0.7937
  514TMC3    H1 7641   0.222   3.482  13.069  0.3435 -0.8390 -0.8877
  514TMC3    H2 7642   0.074   3.465  12.677  0.4945  1.5807 -0.2545
  514TMC3    C7 7643   0.289   3.479  12.830  0.5549 -0.4073 -0.4747
  514TMC3    C8 7644   4.537   3.555  12.738  0.1009 -0.2042 -0.2075
  514TMC3    O1 7645   0.332   3.414  12.735  0.1604  0.6444 -0.2942
  514TMC3    O2 7646   4.439   3.604  12.789  0.7047  0.4508 -0.5376
  515MPD2     C 7647   2.852   1.937  14.879 -0.3855 -0.1032 -0.0816
  515MPD2    C1 7648   2.917   1.812  14.885 -0.2989  0.0779 -0.3058
  515MPD2    C2 7649   2.961   1.774  15.011  0.4437  0.1277  0.1673
  515MPD2    C3 7650   2.956   1.861  15.122 -0.0571  0.2519  0.3520
  515MPD2    C4 7651   2.913   1.992  15.099  0.6949  0.1438 -0.4089
  515MPD2    C5 7652   2.853   2.030  14.982  0.5240  0.1557  0.4006
  515MPD2     H 7653   3.016   1.681  15.018  1.0932  0.7766  3.4679
  515MPD2    H1 7654   2.908   2.075  15.169  1.5804 -0.2519  0.1185
  515MPD2    H2 7655   2.799   1.975  14.792 -2.4870  0.2869  1.3791
  515MPD2    H3 7656   2.806   2.127  14.966  0.8695 -0.0811 -2.0945
  515MPD2     N 7657   2.998   1.833  15.253  0.1109  0.4251  0.5743
  515MPD2    H5 7658   2.997   1.909  15.321 -1.7620  0.2021  0.8013
  515MPD2    N1 7659   2.920   1.715  14.779 -0.2934  0.4452  0.2531
  515MPD2    H7 7660   2.984   1.638  14.796 -1.9903 -1.1933 -0.8110
  516TMC3    C1 7661   2.869   1.632  14.560  0.4535 -0.2615 -0.4921
  516TMC3    C2 7662   2.831   1.654  14.429  1.0708 -0.2246  0.6466
  516TMC3    C3 7663   2.788   1.553  14.353  0.7842  0.2374  0.1865
  516TMC3    C4 7664   2.882   1.504  14.605 -0.0349  1.1437  0.6815
  516TMC3    C5 7665   2.832   1.408  14.529  0.7152  0.3450 -0.3450
  516TMC3    C6 7666   2.788   1.424  14.400 -0.1829  0.1151 -0.4698
  516TMC3     C 7667   2.869   1.743  14.651 -0.0688 -0.3237  0.3151
  516TMC3     O 7668   2.833   1.850  14.603 -0.1252 -0.5175 -0.3468
  516TMC3     H 7669   2.823   1.755  14.392  0.4013 -1.2297 -1.9753
  516TMC3    H1 7670   2.888   1.484  14.711  2.0138 -2.5238 -0.1421
  516TMC3    H2 7671   2.747   1.340  14.346  0.4208 -0.9714  0.7516
  516TMC3    C7 7672   2.801   1.288  14.598  0.0383  0.1545 -0.4295
  516TMC3    C8 7673   2.663   1.587  14.280  0.9107  0.3275 -0.5530
  516TMC3    O1 7674   2.881   1.258  14.688  0.3512  0.7014 -0.1260
  516TMC3    O2 7675   2.564   1.510  14.301  0.0365 -0.1201 -0.1800
  517MPD2     C 7676   2.438   2.816   0.076  0.2561  0.3772  0.4975
  517MPD2    C1 7677   2.569   2.838   0.081  0.3222  0.1409  0.5360
  517MPD2    C2 7678   2.608   2.953   0.153 -0.0063  0.1481 -0.0992
  517MPD2    C3 7679   2.518   3.043   0.215 -0.8084  0.2512 -0.3706
  517MPD2    C4 7680   2.381   3.010   0.200 -0.1901  0.4970  0.2284
  517MPD2    C5 7681   2.343   2.894   0.139  0.2840  0.2830 -0.7320
  517MPD2     H 7682   2.715   2.971   0.143 -0.2695  0.4362 -2.4478
  517MPD2    H1 7683   2.300   3.071   0.238 -1.1389  0.5598 -1.8651
  517MPD2    H2 7684   2.401   2.724   0.031 -5.2676  1.0395  3.7085
  517MPD2    H3 7685   2.237   2.871   0.132  0.6286 -1.1440 -1.4552
  517MPD2     N 7686   2.549   3.168   0.278  0.2239  0.0550 -0.0753
  517MPD2    H5 7687   2.472   3.214   0.324  1.7907  0.8835  1.6910
  517MPD2    N1 7688   2.671   2.748   0.029 -0.4823  0.3021  0.0371
  517MPD2    H7 7689   2.769   2.767   0.047  0.1286 -0.3390 -2.6970
  518TMC3    C1 7690   2.771   2.560  17.618 -0.4207 -0.2767 -0.2824
  518TMC3    C2 7691   2.762   2.420  17.618 -0.0437  0.5639 -0.1114
  518TMC3    C3 7692   2.843   2.355  17.520 -0.0221  0.2379  0.2049
  518TMC3    C4 7693   2.856   2.624  17.531  0.0115  0.2991  0.0902
  518TMC3    C5 7694   2.934   2.554  17.447 -0.0573 -0.4661  0.3176
  518TMC3    C6 7695   2.935   2.419  17.438 -0.0513 -0.1148  0.0415
  518TMC3     C 7696   2.649   2.630  17.656 -0.6999  0.1560  0.4019
  518TMC3     O 7697   2.553   2.557  17.673 -0.7853 -0.0434 -0.5346
  518TMC3     H 7698   2.701   2.360  17.684  0.1824  0.2736 -0.1672
  518TMC3    H1 7699   2.858   2.732  17.522  1.6815  0.1806 -1.0851
  518TMC3    H2 7700   2.992   2.365  17.364 -1.3589 -0.2070 -0.8818
  518TMC3    C7 7701   3.009   2.628  17.353  0.2023  0.2858  0.3533
  518TMC3    C8 7702   2.826   2.216  17.489 -0.0999  0.7933  0.2505
  518TMC3    O1 7703   2.979   2.743  17.329  0.4244  0.1121  0.2861
  518TMC3    O2 7704   2.910   2.153  17.425 -0.3381  0.2642 -0.3536
  519MPD2     C 7705   4.137   1.458  14.362  0.3533  0.4137 -0.6303
  519MPD2    C1 7706   4.064   1.438  14.243 -0.1136 -0.6497 -1.0440
  519MPD2    C2 7707   4.111   1.359  14.142  0.2056  0.0506  0.7034
  519MPD2    C3 7708   4.222   1.282  14.169 -0.7876 -0.1587 -0.0839
  519MPD2    C4 7709   4.295   1.290  14.283 -0.4112 -0.8050 -0.1957
  519MPD2    C5 7710   4.252   1.383  14.377  0.0711 -0.1083 -0.0176
  519MPD2     H 7711   4.053   1.350  14.050 -0.2692  1.8167  0.8356
  519MPD2    H1 7712   4.378   1.224  14.307 -0.5248 -1.2797 -1.1165
  519MPD2    H2 7713   4.101   1.505  14.453  2.2572 -1.0826  0.9021
  519MPD2    H3 7714   4.300   1.386  14.474 -1.4891 -1.5814  0.7940
  519MPD2     N 7715   4.260   1.177  14.088 -0.2518  0.1019 -0.0106
  519MPD2    H5 7716   4.349   1.134  14.109 -1.1747 -1.6210  0.3792
  519MPD2    N1 7717   3.934   1.492  14.232 -0.1271 -0.3924  0.4570
  519MPD2    H7 7718   3.894   1.527  14.318 -1.5114 -1.4175  0.2222
  520TMC3    C1 7719   4.240   1.001  13.932 -0.0792  0.4967  0.3332
  520TMC3    C2 7720   4.158   0.896  13.905 -0.4568 -0.5522 -0.5181
  520TMC3    C3 7721   4.207   0.776  13.878 -0.0284  0.2119 -0.0453
  520TMC3    C4 7722   4.375   0.991  13.923  0.1582 -0.0241  0.1278
  520TMC3    C5 7723   4.423   0.866  13.885 -0.0894 -0.0465  0.0494
  520TMC3    C6 7724   4.342   0.754  13.865 -0.4562  0.4369  0.6614
  520TMC3     C 7725   4.183   1.122  13.990  0.2865  0.2791  0.3488
  520TMC3     O 7726   4.064   1.143  13.965  0.3263  0.3558 -0.1861
  520TMC3     H 7727   4.052   0.915  13.913 -0.2104 -0.8055  3.4119
  520TMC3    H1 7728   4.436   1.081  13.925 -0.1828  0.1950  0.5312
  520TMC3    H2 7729   4.385   0.662  13.827 -0.2806  1.3983 -1.4820
  520TMC3    C7 7730   4.555   0.865  13.843  0.2775 -0.0271 -1.0198
  520TMC3    C8 7731   4.127   0.681  13.804  0.2575  0.1642  0.1527
  520TMC3    O1 7732   4.603   0.976  13.816  0.4076 -0.4890 -0.3879
  520TMC3    O2 7733   4.166   0.651  13.697 -0.0620 -0.0118  0.1653
  521MPD2     C 7734   0.662   4.319  17.567 -0.2089  0.2737 -0.4170
  521MPD2    C1 7735   0.599   4.198  17.560  0.0652  0.0055 -0.2715
  521MPD2    C2 7736   0.682   4.086  17.542  0.4904 -0.5213 -0.3380
  521MPD2    C3 7737   0.822   4.104  17.540 -0.0215  0.6912  0.0543
  521MPD2    C4 7738   0.880   4.229  17.553 -0.0607 -0.0167 -0.0713
  521MPD2    C5 7739   0.799   4.335  17.579 -0.5546  0.5060 -0.3061
  521MPD2     H 7740   0.653   3.983  17.525  1.7097 -0.7221 -1.2169
  521MPD2    H1 7741   0.988   4.239  17.544  0.4051 -2.6455  2.8850
  521MPD2    H2 7742   0.605   4.410  17.581 -0.9653 -0.2835  0.1070
  521MPD2    H3 7743   0.841   4.433  17.600 -0.7004 -0.0008  2.3437
  521MPD2     N 7744   0.896   3.992  17.512  0.0607 -0.0396 -0.0076
  521MPD2    H5 7745   0.849   3.902  17.514  1.4104 -0.7191  1.2250
  521MPD2    N1 7746   0.455   4.188  17.568  0.0683 -0.0375 -0.1213
  521MPD2    H7 7747   0.406   4.274  17.591  1.7148  0.3728  1.7986
  522TMC3    C1 7748   1.070   3.858  17.424 -0.0187  0.3353 -0.0657
  522TMC3    C2 7749   1.202   3.837  17.412  0.1653 -0.5667 -0.2586
  522TMC3    C3 7750   1.253   3.735  17.338  0.6029 -0.0638  0.6976
  522TMC3    C4 7751   0.977   3.764  17.383 -0.6860  0.0086 -0.4180
  522TMC3    C5 7752   1.032   3.650  17.311 -1.0755 -0.2506  0.1424
  522TMC3    C6 7753   1.171   3.638  17.289  0.7741 -0.0976 -0.1964
  522TMC3     C 7754   1.033   3.979  17.488  0.5468  0.4251  0.5560
  522TMC3     O 7755   1.112   4.068  17.490  0.3264 -0.0377  0.1731
  522TMC3     H 7756   1.264   3.920  17.443 -0.6968  0.5286 -1.4721
  522TMC3    H1 7757   0.870   3.770  17.403 -0.3171 -0.9731  1.7622
  522TMC3    H2 7758   1.216   3.551  17.242 -1.9978 -1.2998 -0.5934
  522TMC3    C7 7759   0.953   3.577  17.217 -0.0762 -0.1070  0.3528
  522TMC3    C8 7760   1.376   3.763  17.269 -0.1290  0.2002  0.1083
  522TMC3    O1 7761   0.990   3.464  17.193 -0.4211  0.1006 -0.0651
  522TMC3    O2 7762   1.451   3.844  17.322 -0.5980 -0.0114 -0.0739
  523MPD2     C 7763   2.836   3.573  10.484 -0.2887  0.4324 -0.2342
  523MPD2    C1 7764   2.805   3.565  10.350 -0.8234  0.2137  0.2172
  523MPD2    C2 7765   2.733   3.670  10.295 -0.1613 -0.5698  0.2215
  523MPD2    C3 7766   2.713   3.794  10.355 -0.0314 -0.0192 -0.2173
  523MPD2    C4 7767   2.755   3.800  10.488 -0.7115 -0.1619 -0.1533
  523MPD2    C5 7768   2.811   3.697  10.546 -0.1700 -0.7848  0.2545
  523MPD2     H 7769   2.715   3.668  10.188  1.6988  1.4583 -0.1396
  523MPD2    H1 7770   2.750   3.890  10.547  2.4812  0.0625 -0.1944
  523MPD2    H2 7771   2.889   3.500  10.545 -0.4236  1.2911  0.9006
  523MPD2    H3 7772   2.862   3.704  10.642 -1.5697 -3.4130  1.2138
  523MPD2     N 7773   2.671   3.907  10.294  0.5173 -0.3748 -0.0163
  523MPD2    H5 7774   2.666   3.991  10.351  2.0863 -1.7491  2.1540
  523MPD2    N1 7775   2.855   3.450  10.278 -0.1757  0.2971 -1.1631
  523MPD2    H7 7776   2.916   3.392  10.334  0.4677  3.1595  1.1210
  524TMC3    C1 7777   2.602   4.058  10.139 -0.3454  0.0622 -0.2137
  524TMC3    C2 7778   2.526   4.085  10.020  0.0169 -0.0165 -0.7113
  524TMC3    C3 7779   2.496   4.215   9.995 -0.6278  0.1722 -0.9063
  524TMC3    C4 7780   2.624   4.158  10.227  0.3972 -0.3014 -0.3393
  524TMC3    C5 7781   2.583   4.284  10.195  0.3003 -0.3746  0.3811
  524TMC3    C6 7782   2.510   4.317  10.085  0.2087 -0.0909 -0.8214
  524TMC3     C 7783   2.640   3.924  10.166  0.5267 -0.1181  0.0981
  524TMC3     O 7784   2.639   3.841  10.073 -0.1370 -0.1603  0.0781
  524TMC3     H 7785   2.512   4.016   9.937 -1.4046  0.1879 -0.6346
  524TMC3    H1 7786   2.698   4.140  10.303 -1.0550 -0.3357  1.0715
  524TMC3    H2 7787   2.474   4.418  10.073  2.4084  0.6466 -1.0787
  524TMC3    C7 7788   2.584   4.380  10.309  0.3492 -0.4375 -0.2475
  524TMC3    C8 7789   2.435   4.245   9.859 -0.0257  0.5585  0.7011
  524TMC3    O1 7790   2.599   4.331  10.419 -0.1607 -0.8460 -0.5059
  524TMC3    O2 7791   2.403   4.157   9.782  0.4984  0.2574 -0.1344
  525MPD2     C 7792   0.790   0.515  14.354  0.0270 -0.1867 -0.5427
  525MPD2    C1 7793   0.869   0.568  14.454 -0.1096 -0.0914 -0.5046
  525MPD2    C2 7794   0.948   0.686  14.419 -0.0882 -0.6919 -0.0673
  525MPD2    C3 7795   0.949   0.742  14.296  0.1081  0.2574 -0.2367
  525MPD2    C4 7796   0.856   0.690  14.208  0.4531 -0.2998 -0.4454
  525MPD2    C5 7797   0.788   0.576  14.241 -0.1493  0.3681 -0.1126
  525MPD2     H 7798   1.013   0.722  14.497  0.1689 -0.3810 -0.4265
  525MPD2    H1 7799   0.868   0.736  14.110  0.0766 -0.1058 -0.4007
  525MPD2    H2 7800   0.729   0.428  14.373  1.6349 -1.2389 -0.1487
  525MPD2    H3 7801   0.734   0.528  14.160 -1.2967  1.8305 -0.2107
  525MPD2     N 7802   1.027   0.854  14.256  0.2786 -0.5032  0.4012
  525MPD2    H5 7803   0.999   0.896  14.168  0.5990  0.6505  0.8498
  525MPD2    N1 7804   0.883   0.518  14.583 -0.0760 -0.0154 -0.2255
  525MPD2    H7 7805   0.943   0.568  14.648  2.3790 -0.9325 -1.7863
  526TMC3    C1 7806   0.885   0.352  14.753 -0.3127 -0.0958  0.3406
  526TMC3    C2 7807   0.807   0.274  14.833  0.9130  0.4158  0.3235
  526TMC3    C3 7808   0.855   0.244  14.957  0.2444  0.1727 -0.2730
  526TMC3    C4 7809   1.008   0.395  14.786  0.4740  0.1786  0.3388
  526TMC3    C5 7810   1.047   0.370  14.915  0.3230 -0.0748  0.2384
  526TMC3    C6 7811   0.973   0.301  15.007 -0.2852  0.6827 -0.3650
  526TMC3     C 7812   0.814   0.410  14.636 -0.2647 -0.6832 -0.4705
  526TMC3     O 7813   0.716   0.355  14.590 -0.4426 -0.0255  0.0404
  526TMC3     H 7814   0.705   0.246  14.810  1.1121  0.4150 -0.5531
  526TMC3    H1 7815   1.069   0.452  14.718  1.5449 -0.9570  0.3498
  526TMC3    H2 7816   1.010   0.292  15.108 -1.4995  2.5464  0.2502
  526TMC3    C7 7817   1.188   0.368  14.948  0.0243  0.2343 -0.2881
  526TMC3    C8 7818   0.769   0.227  15.070  0.2413 -0.6083 -0.2354
  526TMC3    O1 7819   1.229   0.347  15.061 -0.2804  0.4015 -0.2414
  526TMC3    O2 7820   0.821   0.176  15.168  0.2045 -0.3967 -0.3617
  527MPD2     C 7821   3.210   3.190   0.962 -0.4742  0.0097  0.5566
  527MPD2    C1 7822   3.300   3.212   1.062  0.0406 -0.4800 -0.8822
  527MPD2    C2 7823   3.412   3.134   1.079  0.5562 -0.1354 -0.3992
  527MPD2    C3 7824   3.440   3.035   0.994  0.3618  0.1766 -0.9680
  527MPD2    C4 7825   3.358   3.014   0.882  0.1744  0.5711  0.1831
  527MPD2    C5 7826   3.236   3.086   0.875  0.4005 -0.4684 -0.4008
  527MPD2     H 7827   3.472   3.140   1.169 -0.1197  1.2619 -0.0423
  527MPD2    H1 7828   3.376   2.931   0.816  0.0513 -0.4659  1.4441
  527MPD2    H2 7829   3.124   3.253   0.944 -0.0493  0.0828 -1.2043
  527MPD2    H3 7830   3.168   3.067   0.793 -1.1219 -1.1196  1.0221
  527MPD2     N 7831   3.565   2.973   1.024 -0.4462 -1.1000  0.6094
  527MPD2    H5 7832   3.614   3.001   1.108 -3.2398 -0.6351  2.0862
  527MPD2    N1 7833   3.276   3.317   1.156  0.3870 -0.0031  0.1348
  527MPD2    H7 7834   3.354   3.339   1.217  0.3161  1.8206 -0.4218
  528TMC3    C1 7835   3.185   3.495   1.267  0.3844  0.4068  0.0684
  528TMC3    C2 7836   3.279   3.484   1.367  0.2612  0.5348 -0.1162
  528TMC3    C3 7837   3.310   3.590   1.446  0.7185  0.3378 -0.5925
  528TMC3    C4 7838   3.118   3.609   1.246 -0.0115 -0.1256  0.4218
  528TMC3    C5 7839   3.148   3.715   1.325 -0.2456 -0.5580 -0.0714
  528TMC3    C6 7840   3.244   3.703   1.423  0.0934  0.4611 -0.4740
  528TMC3     C 7841   3.160   3.386   1.180 -0.9146  0.3988  0.7178
  528TMC3     O 7842   3.055   3.372   1.118  0.0839 -0.1355  0.2511
  528TMC3     H 7843   3.322   3.386   1.386  0.5690  0.5651 -0.6568
  528TMC3    H1 7844   3.039   3.614   1.171 -0.4795  1.1118  0.9973
  528TMC3    H2 7845   3.272   3.782   1.492 -1.6882  1.2835 -0.6717
  528TMC3    C7 7846   3.051   3.820   1.339  0.5305  0.0036  0.0521
  528TMC3    C8 7847   3.450   3.615   1.485  0.3723  0.1265 -0.2597
  528TMC3    O1 7848   3.057   3.900   1.435  0.8593  0.5042  0.1882
  528TMC3    O2 7849   3.505   3.723   1.471  0.1070 -0.7177 -0.3710
  529MPD2     C 7850   1.208   1.975   0.927  0.3220  0.5131  0.3903
  529MPD2    C1 7851   1.285   1.932   0.822 -0.0233 -0.5545  0.3599
  529MPD2    C2 7852   1.288   2.011   0.710  0.1849 -0.2906  0.4405
  529MPD2    C3 7853   1.206   2.125   0.696  0.0496 -0.3700  0.1327
  529MPD2    C4 7854   1.117   2.152   0.795  0.6940  0.2215 -0.5271
  529MPD2    C5 7855   1.122   2.087   0.909 -0.1547 -0.5700 -0.1099
  529MPD2     H 7856   1.355   1.973   0.633 -0.5861  2.8804 -1.8115
  529MPD2    H1 7857   1.049   2.236   0.799  0.9841  0.5330 -2.1709
  529MPD2    H2 7858   1.215   1.925   1.023 -0.2620  0.0184  0.1732
  529MPD2    H3 7859   1.064   2.118   0.995 -1.3695  0.7507 -1.4150
  529MPD2     N 7860   1.201   2.207   0.583 -0.0914 -0.3958 -0.4925
  529MPD2    H5 7861   1.139   2.287   0.588  1.8193  0.8106  3.9385
  529MPD2    N1 7862   1.367   1.821   0.819 -0.0039 -0.0417 -0.0964
  529MPD2    H7 7863   1.388   1.783   0.727 -0.1275 -0.2371 -0.0464
  530TMC3    C1 7864   1.447   1.608   0.909 -0.0326 -0.0243 -0.1465
  530TMC3    C2 7865   1.496   1.547   1.018  0.1332 -0.3236  0.0588
  530TMC3    C3 7866   1.479   1.414   1.034  0.6728 -0.1844  0.1558
  530TMC3    C4 7867   1.372   1.536   0.822  0.2281  0.3938 -0.6770
  530TMC3    C5 7868   1.348   1.404   0.839 -0.2087  0.9292 -0.4431
  530TMC3    C6 7869   1.401   1.340   0.948  0.1174  0.3306 -0.5976
  530TMC3     C 7870   1.411   1.752   0.928 -0.2275 -0.2631 -0.7050
  530TMC3     O 7871   1.422   1.803   1.037  0.2047 -0.0414  0.3459
  530TMC3     H 7872   1.542   1.604   1.098  0.5569 -0.8401  0.1769
  530TMC3    H1 7873   1.336   1.599   0.740  0.3980  0.1042 -0.9746
  530TMC3    H2 7874   1.407   1.232   0.954 -0.6793  0.3596  0.8767
  530TMC3    C7 7875   1.220   1.348   0.799 -0.0090  0.3209 -0.1994
  530TMC3    C8 7876   1.568   1.342   1.116 -0.1687  0.3598 -0.1607
  530TMC3    O1 7877   1.162   1.394   0.702 -0.2960 -0.4390  0.0242
  530TMC3    O2 7878   1.521   1.229   1.137 -0.0406  0.0598  0.1603
  531MPD2     C 7879   0.694   3.812  12.843 -0.0688 -0.0926 -0.0534
  531MPD2    C1 7880   0.591   3.855  12.922  0.0346  0.0246  0.4100
  531MPD2    C2 7881   0.479   3.777  12.938 -0.9343  0.0757  0.0447
  531MPD2    C3 7882   0.460   3.657  12.870 -0.5881  0.0695  0.3744
  531MPD2    C4 7883   0.565   3.611  12.789  0.0171 -0.4674 -0.2349
  531MPD2    C5 7884   0.675   3.697  12.775  0.2092  0.5187 -0.2146
  531MPD2     H 7885   0.407   3.817  13.008  0.9588 -0.0060  2.0320
  531MPD2    H1 7886   0.563   3.518  12.733 -2.1599 -0.6152  0.0882
  531MPD2    H2 7887   0.775   3.880  12.822  0.3313 -0.5888 -0.0975
  531MPD2    H3 7888   0.750   3.648  12.713 -0.5810 -1.0731  0.0698
  531MPD2     N 7889   0.338   3.591  12.890 -1.1357 -0.1054 -0.3946
  531MPD2    H5 7890   0.281   3.630  12.965  1.3097  2.5212  0.0884
  531MPD2    N1 7891   0.601   3.981  12.988 -0.3675  0.0455  0.4407
  531MPD2    H7 7892   0.682   4.040  12.973 -1.3095  0.6219 -2.3706
  532TMC3    C1 7893   0.518   4.175  13.120 -0.4541  0.1451  0.1345
  532TMC3    C2 7894   0.409   4.263  13.124  0.1388 -0.2614  0.1310
  532TMC3    C3 7895   0.373   4.331  13.231 -0.6500 -0.2452  0.0625
  532TMC3    C4 7896   0.593   4.158  13.233 -1.0482 -0.1404  0.2231
  532TMC3    C5 7897   0.550   4.223  13.342  0.6767  0.0095  0.4127
  532TMC3    C6 7898   0.448   4.321  13.349  0.4099 -0.3086  0.4901
  532TMC3     C 7899   0.493   4.051  13.049 -0.2778  0.3556 -0.3304
  532TMC3     O 7900   0.377   4.031  13.033  0.0037  0.5688  0.0157
  532TMC3     H 7901   0.356   4.270  13.029 -0.1669  0.8348  0.3734
  532TMC3    H1 7902   0.678   4.091  13.238  0.3744  1.5676 -0.8675
  532TMC3    H2 7903   0.418   4.361  13.445 -1.3401  0.4878 -0.3727
  532TMC3    C7 7904   0.618   4.197  13.465  0.2833  0.1000  0.3650
  532TMC3    C8 7905   0.234   4.308  13.248  0.2536  0.2289  0.4676
  532TMC3    O1 7906   0.652   4.303  13.513  0.2632 -0.0962 -0.5875
  532TMC3    O2 7907   0.171   4.375  13.329  0.4604 -0.0566  0.2155
  533TMC3    C1 7908   1.152   1.050  14.320 -0.1399 -0.5503  0.4074
  533TMC3    C2 7909   1.265   1.099  14.381  0.7006 -0.7847 -0.0513
  533TMC3    C3 7910   1.266   1.228  14.414  0.2153  0.2327 -0.4353
  533TMC3    C4 7911   1.040   1.125  14.307  0.2515  0.0725 -0.7957
  533TMC3    C5 7912   1.043   1.252  14.370  0.3648 -0.1514 -0.2974
  533TMC3    C6 7913   1.154   1.305  14.422  0.9767 -0.2729  0.3822
  533TMC3     C 7914   1.133   0.907  14.322  0.1021  0.0323  0.0841
  533TMC3     O 7915   1.197   0.851  14.408  1.0577 -0.1266 -0.0386
  533TMC3     H 7916   1.353   1.039  14.402  1.8414  0.8541 -0.1173
  533TMC3    H1 7917   0.950   1.076  14.271 -0.7427 -0.4804  2.4889
  533TMC3    H2 7918   1.171   1.405  14.460  3.1777  0.2355 -1.9363
  533TMC3    C7 7919   0.930   1.260  14.462  0.2312 -0.1263  0.2949
  533TMC3    C8 7920   1.388   1.279  14.479 -0.0776 -0.0717  0.0910
  533TMC3    O1 7921   0.854   1.164  14.467 -0.3812  0.3096  0.2193
  533TMC3    O2 7922   1.373   1.363  14.566 -0.0011  0.0890  0.3792
  534MPD2     C 7923   2.701   2.819   1.954  0.0322  0.4034  0.0147
  534MPD2    C1 7924   2.756   2.848   1.826  0.2412 -0.8562  0.2652
  534MPD2    C2 7925   2.683   2.828   1.710 -0.4902 -0.6592  0.4394
  534MPD2    C3 7926   2.562   2.762   1.713 -0.1382 -0.2721  0.0395
  534MPD2    C4 7927   2.520   2.705   1.829 -0.1190  0.0754  0.2693
  534MPD2    C5 7928   2.585   2.739   1.950 -0.4483 -0.4239 -0.6771
  534MPD2     H 7929   2.726   2.868   1.619 -1.8708 -1.8889 -0.7320
  534MPD2    H1 7930   2.431   2.643   1.834  0.1578 -0.3131  0.3251
  534MPD2    H2 7931   2.755   2.826   2.047  0.4113 -1.0222 -0.1003
  534MPD2    H3 7932   2.559   2.690   2.044 -1.5243  0.7524 -0.3663
  534MPD2     N 7933   2.491   2.744   1.594 -0.4168  0.8191  0.0315
  534MPD2    H5 7934   2.393   2.717   1.597  0.3213 -2.0056 -0.8355
  534MPD2    N1 7935   2.867   2.934   1.810  0.0596 -0.2440 -0.0200
  534MPD2    H7 7936   2.888   2.967   1.716 -2.3965 -0.2411 -0.5749
  535TMC3    C1 7937   2.467   2.722   1.355  0.4735 -0.7935  1.4298
  535TMC3    C2 7938   2.329   2.733   1.367  0.2554 -0.3048 -0.0452
  535TMC3    C3 7939   2.249   2.738   1.257  0.2158  0.5852  0.5609
  535TMC3    C4 7940   2.530   2.707   1.236  0.5529  0.3863  0.0748
  535TMC3    C5 7941   2.454   2.705   1.126 -0.3223 -0.4792  0.0136
  535TMC3    C6 7942   2.312   2.716   1.132 -0.2261  0.9498 -0.2436
  535TMC3     C 7943   2.560   2.737   1.474 -0.1428 -0.7514  0.1467
  535TMC3     O 7944   2.678   2.737   1.444 -0.3309  0.4795  0.5593
  535TMC3     H 7945   2.287   2.726   1.467 -0.4802  0.6453 -0.2866
  535TMC3    H1 7946   2.635   2.729   1.226  0.7206  0.1166  1.2787
  535TMC3    H2 7947   2.252   2.708   1.042 -0.2524  0.6159 -0.1974
  535TMC3    C7 7948   2.523   2.643   1.014  0.2714 -0.6511  0.2828
  535TMC3    C8 7949   2.106   2.699   1.263  0.4519 -0.2667 -0.3588
  535TMC3    O1 7950   2.647   2.644   1.015  0.9069  0.2772 -0.3761
  535TMC3    O2 7951   2.048   2.687   1.158  0.0181 -0.0767  0.5242
  536MPD2     C 7952   2.550   0.649  16.733  0.2933 -0.1015  0.2150
  536MPD2    C1 7953   2.443   0.569  16.773 -0.5955 -0.3117  0.0275
  536MPD2    C2 7954   2.342   0.540  16.680 -0.0620  0.0558 -0.0338
  536MPD2    C3 7955   2.340   0.596  16.556  0.1731 -0.5508  0.4713
  536MPD2    C4 7956   2.444   0.681  16.519 -0.2952 -0.8483 -0.7408
  536MPD2    C5 7957   2.550   0.699  16.606  0.1243  0.0715 -0.8098
  536MPD2     H 7958   2.256   0.479  16.706 -0.2730  0.8504  1.1367
  536MPD2    H1 7959   2.437   0.738  16.427  0.0051  0.2952 -0.0623
  536MPD2    H2 7960   2.634   0.676  16.797  1.2505  0.6702 -1.3522
  536MPD2    H3 7961   2.629   0.762  16.568  0.8475  0.4462  1.2876
  536MPD2     N 7962   2.239   0.572  16.460  0.0106  0.3181 -0.3335
  536MPD2    H5 7963   2.246   0.632  16.378 -3.0546 -2.5823 -2.7324
  536MPD2    N1 7964   2.440   0.525  16.909 -0.5958  0.2722  0.5167
  536MPD2    H7 7965   2.513   0.556  16.972  1.9710 -1.0071 -1.8481
  537TMC3    C1 7966   2.360   0.399  17.105 -0.3773 -0.4042  0.7615
  537TMC3    C2 7967   2.492   0.382  17.135  0.1876  0.4891  0.0152
  537TMC3    C3 7968   2.526   0.295  17.241  0.7793 -0.5502 -0.6980
  537TMC3    C4 7969   2.261   0.343  17.185 -0.4593  0.1517  0.2916
  537TMC3    C5 7970   2.306   0.270  17.296 -0.2518 -0.1969 -0.6060
  537TMC3    C6 7971   2.433   0.237  17.325 -0.2742 -0.1706  0.4564
  537TMC3     C 7972   2.331   0.461  16.974  0.1061 -0.3591 -0.0905
  537TMC3     O 7973   2.215   0.451  16.932 -0.4261  0.5344  0.4943
  537TMC3     H 7974   2.567   0.415  17.064  0.1921  2.0624  0.7475
  537TMC3    H1 7975   2.154   0.355  17.168 -0.7769 -4.2507 -0.8323
  537TMC3    H2 7976   2.462   0.176  17.410  2.5814 -0.0281 -0.3999
  537TMC3    C7 7977   2.205   0.174  17.335  0.2369 -0.3682  0.3935
  537TMC3    C8 7978   2.670   0.270  17.269  0.6564  0.7700  0.5829
  537TMC3    O1 7979   2.086   0.204  17.336  0.4029 -0.0950  0.4448
  537TMC3    O2 7980   2.695   0.231  17.385 -0.3273 -0.1347  0.1226
  538TMC3    C1 7981   3.405   3.893  11.551  0.1096  0.1518  0.2287
  538TMC3    C2 7982   3.465   3.888  11.430  0.5688  0.1004  0.2364
  538TMC3    C3 7983   3.447   3.997  11.347 -0.1334 -0.4285 -0.3702
  538TMC3    C4 7984   3.314   3.989  11.585  0.4320  0.1007 -0.0305
  538TMC3    C5 7985   3.293   4.089  11.493 -0.3170 -0.2497  0.1236
  538TMC3    C6 7986   3.352   4.092  11.373 -0.0980 -0.6105 -0.5640
  538TMC3     C 7987   3.420   3.794  11.649  0.4073 -0.1437 -0.1680
  538TMC3     O 7988   3.356   3.802  11.752  0.2622 -0.0835 -0.2917
  538TMC3     H 7989   3.550   3.822  11.418 -0.8652 -1.2935 -2.3097
  538TMC3    H1 7990   3.267   3.996  11.682 -0.3589  0.1219 -0.4167
  538TMC3    H2 7991   3.330   4.151  11.284 -2.1738 -0.6337 -0.0596
  538TMC3    C7 7992   3.157   4.139  11.490  0.5910  0.3670 -0.1885
  538TMC3    C8 7993   3.493   3.993  11.209 -0.3037 -0.4705 -0.8273
  538TMC3    O1 7994   3.073   4.081  11.558 -0.4318  0.1486  0.5483
  538TMC3    O2 7995   3.529   4.096  11.152  0.0524 -0.4282 -0.2178
  539MPD2     C 7996   3.218   3.003  11.938 -0.1776  1.1447 -0.3564
  539MPD2    C1 7997   3.226   3.001  11.801 -0.3434  0.5996 -0.0378
  539MPD2    C2 7998   3.194   3.113  11.730 -0.2129  0.9911  0.0351
  539MPD2    C3 7999   3.158   3.232  11.790  0.1144 -0.2294  0.0939
  539MPD2    C4 8000   3.155   3.230  11.930 -0.5500  0.0166  0.7502
  539MPD2    C5 8001   3.184   3.118  12.003 -0.1450  0.3302 -0.2529
  539MPD2     H 8002   3.204   3.100  11.623  2.2692 -0.7617  0.4824
  539MPD2    H1 8003   3.128   3.313  11.993 -1.0886 -0.0257  0.5687
  539MPD2    H2 8004   3.240   2.916  12.000 -0.0501  0.6184 -1.1443
  539MPD2    H3 8005   3.171   3.114  12.111  1.5162  1.0887 -0.0255
  539MPD2     N 8006   3.129   3.359  11.734 -0.3187  0.2096 -0.4224
  539MPD2    H5 8007   3.105   3.433  11.800 -3.2516 -0.9233 -0.2343
  539MPD2    N1 8008   3.265   2.883  11.730  0.3331 -0.1991 -0.1849
  539MPD2    H7 8009   3.246   2.875  11.630 -0.4345  1.2547 -0.1583
  540TMC3    C1 8010   3.090   3.517  11.575  0.5086 -0.1722 -0.5326
  540TMC3    C2 8011   3.024   3.535  11.458  0.5787  0.1385 -0.1441
  540TMC3    C3 8012   2.961   3.660  11.443 -0.3377  0.3257 -0.3574
  540TMC3    C4 8013   3.090   3.608  11.678 -0.3100  0.2006  0.8121
  540TMC3    C5 8014   3.010   3.721  11.663 -0.1772 -1.1342  0.2393
  540TMC3    C6 8015   2.947   3.747  11.545  0.2458 -0.6992 -0.0359
  540TMC3     C 8016   3.133   3.386  11.600  0.4004 -0.6414  0.2621
  540TMC3     O 8017   3.140   3.310  11.506 -0.2364 -0.2946  0.9073
  540TMC3     H 8018   3.031   3.459  11.382 -1.1140 -0.0576 -0.1097
  540TMC3    H1 8019   3.157   3.592  11.762 -0.3669 -0.6391  0.6948
  540TMC3    H2 8020   2.905   3.845  11.525  0.3237 -0.6276  0.1465
  540TMC3    C7 8021   2.955   3.788  11.782 -0.1891  0.8969  0.2214
  540TMC3    C8 8022   2.907   3.701  11.319  0.6258 -0.0491 -0.6520
  540TMC3    O1 8023   3.029   3.794  11.877 -0.3897 -0.5337  0.3715
  540TMC3    O2 8024   2.889   3.821  11.301 -0.1866 -0.1924  0.0892
  541MPD2     C 8025   1.680   4.204  13.060 -0.5199 -0.5288 -1.0362
  541MPD2    C1 8026   1.558   4.234  13.126  0.2979  0.9486  0.5015
  541MPD2    C2 8027   1.462   4.326  13.070  0.1343  0.2259 -0.5490
  541MPD2    C3 8028   1.500   4.405  12.965 -0.3669 -0.3440 -0.1507
  541MPD2    C4 8029   1.621   4.389  12.910  0.1492  0.3701  0.3767
  541MPD2    C5 8030   1.707   4.288  12.956 -0.7653  0.3916  0.1974
  541MPD2     H 8031   1.367   4.335  13.123 -0.0383 -1.5726 -0.5630
  541MPD2    H1 8032   1.639   4.460  12.831 -0.0215 -1.6226 -1.4684
  541MPD2    H2 8033   1.758   4.136  13.091 -0.1107  0.0826 -0.7208
  541MPD2    H3 8034   1.805   4.297  12.910 -1.4920 -2.7505 -1.9390
  541MPD2     N 8035   1.415   4.497  12.908  0.4493  0.3371 -1.2561
  541MPD2    H5 8036   1.448   4.545  12.825 -1.0648  1.2489 -1.3194
  541MPD2    N1 8037   1.527   4.145  13.233  0.2160  0.2766 -0.4870
  541MPD2    H7 8038   1.597   4.080  13.268 -0.5883 -0.8421 -0.9405
  542TMC3    C1 8039   1.204   4.589  12.855 -0.6659 -0.1274  0.5499
  542TMC3    C2 8040   1.206   4.524  12.740  0.0344  0.5370 -0.0110
  542TMC3    C3 8041   1.102   4.514  12.655 -0.1860 -0.2944 -0.3261
  542TMC3    C4 8042   1.086   4.645  12.888 -0.2767 -0.2194  0.3097
  542TMC3    C5 8043   0.981   4.643  12.805 -1.0445 -0.8229  0.1973
  542TMC3    C6 8044   0.984   4.577  12.682  0.2853 -0.1393  0.1639
  542TMC3     C 8045   1.292   4.540  12.956  0.0787  0.3351 -0.1897
  542TMC3     O 8046   1.240   4.537  13.070 -0.3413  0.8439 -0.2684
  542TMC3     H 8047   1.300   4.475  12.719 -1.1037 -1.4344 -0.4963
  542TMC3    H1 8048   1.080   4.705  12.978 -0.2473  0.2748 -0.0166
  542TMC3    H2 8049   0.908   4.571  12.605 -0.6566  0.4190  1.0362
  542TMC3    C7 8050   0.867   0.004  12.838 -0.3276  0.0991  0.2525
  542TMC3    C8 8051   1.096   4.407  12.561  0.0985  0.2128 -0.5569
  542TMC3    O1 8052   0.888   0.096  12.914 -0.4602 -0.7894  0.1676
  542TMC3    O2 8053   1.036   4.410  12.451  0.1525 -0.1544  0.0047
  543TMC3    C1 8054   0.818   1.328  17.467 -0.6127 -0.7332 -0.6636
  543TMC3    C2 8055   0.808   1.233  17.563  0.1935 -0.1644 -0.0829
  543TMC3    C3 8056   0.711   1.242  17.658 -0.4957 -0.7375  0.3313
  543TMC3    C4 8057   0.748   1.441  17.482 -0.1235  0.5987 -0.0325
  543TMC3    C5 8058   0.665   1.461  17.591 -0.4388 -0.5912 -0.0936
  543TMC3    C6 8059   0.637   1.356  17.674  0.3848 -0.7089 -0.0421
  543TMC3     C 8060   0.902   1.292  17.350 -0.1140 -0.6001 -0.3297
  543TMC3     O 8061   0.960   1.185  17.342  0.1767 -0.0261  0.3240
  543TMC3     H 8062   0.866   1.141  17.565 -1.9675 -1.5474 -1.0752
  543TMC3    H1 8063   0.745   1.517  17.405 -0.3099  0.5606 -0.0622
  543TMC3    H2 8064   0.562   1.371   0.055  0.4419 -0.2951 -0.0705
  543TMC3    C7 8065   0.648   1.597  17.643  0.3347 -0.2509 -0.9127
  543TMC3    C8 8066   0.709   1.147   0.066  0.0491  0.2235 -0.0269
  543TMC3    O1 8067   0.596   1.612   0.058 -0.2509 -0.2795  0.7244
  543TMC3    O2 8068   0.819   1.111   0.107 -0.0563  0.5925 -0.4073
  544MPD2     C 8069   0.452   0.774   0.291  0.1401  0.1078  0.5412
  544MPD2    C1 8070   0.595   0.786   0.286 -0.4181 -0.2943 -0.2289
  544MPD2    C2 8071   0.629   0.906   0.230  0.2243 -0.0841 -0.5707
  544MPD2    C3 8072   0.539   0.993   0.168  0.4196 -1.0661 -0.0198
  544MPD2    C4 8073   0.401   0.971   0.170 -0.7294  0.0661  0.6316
  544MPD2    C5 8074   0.361   0.855   0.232  0.5711 -0.4873  0.2036
  544MPD2     H 8075   0.732   0.937   0.242  0.6470 -1.0983 -1.5395
  544MPD2    H1 8076   0.330   1.039   0.125  1.7076  0.5926 -2.4074
  544MPD2    H2 8077   0.408   0.682   0.330 -2.2539  0.9723 -0.1135
  544MPD2    H3 8078   0.254   0.837   0.234  0.3881  0.7936  1.6500
  544MPD2     N 8079   0.580   1.109   0.096 -0.5154  0.0366  0.2256
  544MPD2    H5 8080   0.503   1.153   0.046  0.1893  1.4534  0.4153
  544MPD2    N1 8081   0.682   0.684   0.326 -0.1940 -0.3478  0.3633
  544MPD2    H7 8082   0.633   0.606   0.368 -0.2284 -1.3313 -1.4777
  545TMC3    C1 8083   0.892   0.557   0.343  0.0335 -0.9110  0.2716
  545TMC3    C2 8084   1.028   0.552   0.312 -0.1879  0.2320 -0.3627
  545TMC3    C3 8085   1.093   0.444   0.361 -0.1249 -0.3227 -0.1343
  545TMC3    C4 8086   0.832   0.455   0.415  0.3532  0.2686  0.1371
  545TMC3    C5 8087   0.908   0.358   0.473 -0.2405  0.2819  0.1575
  545TMC3    C6 8088   1.041   0.342   0.432  1.0402 -0.6739 -0.5867
  545TMC3     C 8089   0.821   0.679   0.300  0.2505  1.1422 -0.3279
  545TMC3     O 8090   0.893   0.760   0.249 -0.7557 -0.0241  0.1853
  545TMC3     H 8091   1.067   0.634   0.252 -2.5698  0.4828 -1.5444
  545TMC3    H1 8092   0.729   0.461   0.450 -0.2032 -0.9888 -1.2402
  545TMC3    H2 8093   1.099   0.253   0.454  1.9238 -0.5848 -2.5431
  545TMC3    C7 8094   0.830   0.238   0.522  0.0626 -0.2025 -0.2688
  545TMC3    C8 8095   1.229   0.420   0.303 -0.3578  0.8688  0.2881
  545TMC3    O1 8096   0.707   0.247   0.513 -0.2165  0.5295 -0.0712
  545TMC3    O2 8097   1.290   0.323   0.346 -0.0331 -0.4880 -0.2832
  546MPD2     C 8098   2.642   0.779  17.532  0.0018 -0.0976 -0.1719
  546MPD2    C1 8099   2.549   0.822  17.445 -0.9900  0.1811 -0.2829
  546MPD2    C2 8100   2.575   0.932  17.365 -0.3201  0.0458 -0.3531
  546MPD2    C3 8101   2.690   1.001  17.373 -0.7391  0.6533  0.2488
  546MPD2    C4 8102   2.787   0.950  17.461  0.1163  0.3890  0.3573
  546MPD2    C5 8103   2.759   0.845  17.541  0.6103 -0.0256 -0.1869
  546MPD2     H 8104   2.502   0.975  17.298 -2.5513 -1.1892  1.3179
  546MPD2    H1 8105   2.888   0.988  17.474  1.1042 -1.8641 -0.5206
  546MPD2    H2 8106   2.627   0.690  17.593  0.1873  0.4659  0.6817
  546MPD2    H3 8107   2.832   0.796  17.604  1.2186  0.6192 -0.3943
  546MPD2     N 8108   2.713   1.123  17.299 -1.0066  0.4838 -0.2433
  546MPD2    H5 8109   2.645   1.141  17.225 -0.2716  1.1042 -0.7719
  546MPD2    N1 8110   2.438   0.736  17.426 -0.1902 -0.1760 -0.3619
  546MPD2    H7 8111   2.443   0.657  17.489 -1.2451 -1.7178 -2.1908
  547TMC3    C1 8112   2.233   0.653  17.339 -0.4683  0.3461 -0.2324
  547TMC3    C2 8113   2.142   0.656  17.241 -0.4486  0.5019 -0.2168
  547TMC3    C3 8114   2.020   0.597  17.246  0.1856 -0.1823 -0.6219
  547TMC3    C4 8115   2.207   0.584  17.455  0.0225  0.2694  0.0485
  547TMC3    C5 8116   2.087   0.517  17.459  0.8788 -0.5220 -0.7597
  547TMC3    C6 8117   1.993   0.526  17.360  0.0752  0.0944  0.6261
  547TMC3     C 8118   2.334   0.756  17.338 -0.0794 -0.0238 -0.8221
  547TMC3     O 8119   2.308   0.851  17.261 -0.2350  0.0124 -0.7233
  547TMC3     H 8120   2.164   0.719  17.155 -1.5151 -0.7475 -1.3979
  547TMC3    H1 8121   2.275   0.561  17.536 -0.0109 -0.0485 -0.0167
  547TMC3    H2 8122   1.894   0.487  17.379 -1.1624  1.9248 -2.0212
  547TMC3    C7 8123   2.052   0.439  17.583  0.2440 -0.1241 -0.9968
  547TMC3    C8 8124   1.907   0.651  17.170 -0.1579  0.5533  0.0857
  547TMC3    O1 8125   2.134   0.439  17.674  0.1346  0.0035  0.1204
  547TMC3    O2 8126   1.804   0.667  17.237  0.3981  0.2242 -0.6846
  548MPD2     C 8127   2.300   1.624  12.571 -0.3341 -0.7082 -0.2010
  548MPD2    C1 8128   2.232   1.517  12.530 -0.4931  0.2167  0.4696
  548MPD2    C2 8129   2.294   1.396  12.499 -0.3983  0.3968  0.0906
  548MPD2    C3 8130   2.429   1.390  12.517  0.3846  0.4196 -0.1407
  548MPD2    C4 8131   2.499   1.496  12.561 -0.3270  0.0285  0.1752
  548MPD2    C5 8132   2.433   1.610  12.581  0.2175  0.4752  0.1041
  548MPD2     H 8133   2.235   1.308  12.478 -0.9281  0.8892 -0.4996
  548MPD2    H1 8134   2.606   1.490  12.571 -0.3196 -0.4425 -0.1963
  548MPD2    H2 8135   2.238   1.712  12.583  1.2449  0.0398  2.3186
  548MPD2    H3 8136   2.490   1.697  12.612 -0.5017  0.4711  1.4622
  548MPD2     N 8137   2.488   1.265  12.494  0.1797  0.1324  0.5403
  548MPD2    H5 8138   2.424   1.186  12.500  0.7705 -0.3630  0.2828
  548MPD2    N1 8139   2.094   1.531  12.517  0.4525 -0.0874  0.7043
  548MPD2    H7 8140   2.058   1.620  12.549  0.8734  0.7028 -1.0212
  549TMC3    C1 8141   1.877   1.479  12.480 -0.1177 -0.1409  0.0349
  549TMC3    C2 8142   1.838   1.611  12.456 -0.3470  0.4281  0.6892
  549TMC3    C3 8143   1.702   1.634  12.422 -0.0477  0.4975 -0.1094
  549TMC3    C4 8144   1.786   1.377  12.465  1.0702 -0.7544 -0.5818
  549TMC3    C5 8145   1.655   1.413  12.448  0.4901 -0.2864 -0.2622
  549TMC3    C6 8146   1.606   1.535  12.416 -0.1890 -0.1741  0.7903
  549TMC3     C 8147   2.009   1.434  12.474 -0.0976 -0.2773  0.0018
  549TMC3     O 8148   2.036   1.334  12.408 -0.5807 -0.6457  0.1535
  549TMC3     H 8149   1.908   1.693  12.450  0.2020 -0.1599 -1.0312
  549TMC3    H1 8150   1.818   1.274  12.471  3.5903 -0.0522 -2.2637
  549TMC3    H2 8151   1.503   1.564  12.400 -0.1599 -1.3447 -1.4935
  549TMC3    C7 8152   1.572   1.304  12.402 -0.6880  0.1769  0.6897
  549TMC3    C8 8153   1.651   1.769  12.404  0.1769  0.2096  0.7016
  549TMC3    O1 8154   1.503   1.344  12.309 -0.0365  0.2861 -0.0100
  549TMC3    O2 8155   1.546   1.791  12.342 -0.1920  0.1070  0.0883
  550TMC3    C1 8156   0.600   3.999  12.493 -0.0830 -0.6178 -0.1596
  550TMC3    C2 8157   0.512   4.091  12.555  0.5717 -0.0339  0.1659
  550TMC3    C3 8158   0.413   4.150  12.481  0.5306 -0.1869 -0.0300
  550TMC3    C4 8159   0.595   3.979  12.356  0.1448 -0.7354 -0.4520
  550TMC3    C5 8160   0.504   4.052  12.283  0.3590  0.3588 -0.2469
  550TMC3    C6 8161   0.419   4.134  12.348 -0.1469 -0.1479  0.4338
  550TMC3     C 8162   0.730   4.003  12.555 -0.3736 -0.3477 -0.9290
  550TMC3     O 8163   0.748   4.087  12.641  0.4247  0.2208  0.0758
  550TMC3     H 8164   0.521   4.112  12.661 -0.0838  3.3985 -0.4819
  550TMC3    H1 8165   0.652   3.904  12.302  0.3507 -1.3633  0.6334
  550TMC3    H2 8166   0.344   4.193  12.297 -1.6773 -2.2817  0.2030
  550TMC3    C7 8167   0.458   4.003  12.154 -0.3329 -0.0830 -0.5114
  550TMC3    C8 8168   0.333   4.258  12.531  0.1098 -0.4166 -0.0413
  550TMC3    O1 8169   0.338   4.023  12.128  0.2388 -0.0803 -0.7708
  550TMC3    O2 8170   0.330   4.353  12.455  0.0130 -0.3592 -0.0858
  551TMC3    C1 8171   2.802   1.679  13.438  0.0232  0.0808 -0.6157
  551TMC3    C2 8172   2.903   1.666  13.349  0.1402  0.1081  0.8707
  551TMC3    C3 8173   3.010   1.745  13.369 -0.5781 -0.2147  0.7243
  551TMC3    C4 8174   2.809   1.772  13.541  0.4824  0.6668 -0.6082
  551TMC3    C5 8175   2.923   1.844  13.557  0.3450 -0.3450 -0.6706
  551TMC3    C6 8176   3.019   1.835  13.468  0.5414 -0.1127  0.3043
  551TMC3     C 8177   2.674   1.658  13.377  0.6772  0.5093  0.8986
  551TMC3     O 8178   2.585   1.675  13.454 -0.0176  0.3212  0.2590
  551TMC3     H 8179   2.900   1.602  13.261  0.9697 -1.1106  1.7294
  551TMC3    H1 8180   2.721   1.766  13.603  1.1278 -0.3267  0.2114
  551TMC3    H2 8181   3.110   1.890  13.493  0.4535  0.2813 -0.2308
  551TMC3    C7 8182   2.915   1.934  13.665  0.8299  0.2718  0.1251
  551TMC3    C8 8183   3.115   1.742  13.273 -0.1041  0.3133 -0.0100
  551TMC3    O1 8184   2.858   1.901  13.770 -0.2650 -0.2532  0.8055
  551TMC3    O2 8185   3.152   1.638  13.222  0.2678 -0.0368 -0.3846
  552MPD2     C 8186   0.444   4.328  13.765 -0.0149  0.4486 -0.0607
  552MPD2    C1 8187   0.432   4.209  13.847 -0.4106 -0.4243  0.0313
  552MPD2    C2 8188   0.519   4.202  13.949  0.4158 -0.7256 -0.4895
  552MPD2    C3 8189   0.613   4.294  13.981  0.4397  0.4518 -0.0935
  552MPD2    C4 8190   0.620   4.411  13.908 -0.3313  0.7082 -0.1652
  552MPD2    C5 8191   0.541   4.424  13.795  0.3482 -0.2837  0.0518
  552MPD2     H 8192   0.512   4.117  14.017 -0.4681  0.2096  0.5726
  552MPD2    H1 8193   0.686   4.495  13.931  1.1391 -0.3596 -0.4860
  552MPD2    H2 8194   0.379   4.350  13.681 -0.7205 -0.0169  0.3680
  552MPD2    H3 8195   0.552   4.518  13.744  0.2168 -0.2164  0.1463
  552MPD2     N 8196   0.703   4.283  14.085  0.8376 -0.1301  0.0960
  552MPD2    H5 8197   0.762   4.365  14.097  1.0169  0.5663 -5.3588
  552MPD2    N1 8198   0.339   4.109  13.815  0.2585  0.1134 -0.7335
  552MPD2    H7 8199   0.350   4.024  13.869 -2.8802 -1.0749 -1.9372
  553TMC3    C1 8200   0.167   3.996  13.707  0.5583 -0.5934 -0.0253
  553TMC3    C2 8201   0.134   3.953  13.582 -0.1068 -0.0179  0.9831
  553TMC3    C3 8202   0.083   3.829  13.565  0.2173  0.1140 -0.0711
  553TMC3    C4 8203   0.160   3.912  13.822  0.8756  0.8998  0.7738
  553TMC3    C5 8204   0.103   3.793  13.795  0.9545  1.5380 -0.8199
  553TMC3    C6 8205   0.060   3.755  13.674 -0.5777 -0.3606  0.9213
  553TMC3     C 8206   0.239   4.117  13.720  0.8339 -0.0775 -0.1085
  553TMC3     O 8207   0.219   4.201  13.634  0.1032 -0.0544 -0.0640
  553TMC3     H 8208   0.145   4.012  13.492 -2.2225  0.9520  1.3593
  553TMC3    H1 8209   0.183   3.943  13.923  2.6277  0.2253  0.5760
  553TMC3    H2 8210   0.025   3.653  13.665 -1.4324  0.0727 -0.5342
  553TMC3    C7 8211   0.112   3.691  13.892 -0.1628  0.8156 -0.0504
  553TMC3    C8 8212   0.153   3.751  13.468  0.3800 -0.0554  0.2326
  553TMC3    O1 8213   0.061   3.587  13.863 -0.1657  0.0697 -0.3803
  553TMC3    O2 8214   0.262   3.795  13.439  0.1483  0.0401  0.4234
  554TMC3    C1 8215   2.276   2.738  11.686  0.2287  0.0245 -0.2297
  554TMC3    C2 8216   2.238   2.692  11.561 -0.3630 -0.0253  0.5269
  554TMC3    C3 8217   2.305   2.738  11.451 -1.5673  0.2013  0.9891
  554TMC3    C4 8218   2.379   2.827  11.704  0.3905 -0.2743  0.1492
  554TMC3    C5 8219   2.442   2.870  11.588  0.2841  0.0822 -0.5490
  554TMC3    C6 8220   2.410   2.819  11.465 -0.6125 -0.4975  1.0045
  554TMC3     C 8221   2.162   2.731  11.773 -0.1332  0.0816  0.1792
  554TMC3     O 8222   2.051   2.711  11.725 -0.2189  0.2093 -0.3923
  554TMC3     H 8223   2.149   2.631  11.547 -0.2588  0.5472 -2.6455
  554TMC3    H1 8224   2.388   2.885  11.795 -0.2411  0.2475 -0.1262
  554TMC3    H2 8225   2.470   2.842  11.377 -1.2454 -3.1164 -0.1186
  554TMC3    C7 8226   2.496   3.003  11.562 -0.0437  0.0392 -0.4964
  554TMC3    C8 8227   2.251   2.732  11.312 -0.3979  0.5338  0.6566
  554TMC3    O1 8228   2.469   3.047  11.449 -0.2953  0.1381 -0.1186
  554TMC3    O2 8229   2.321   2.774  11.224 -0.4198  0.1435 -0.8044
  555TMC3    C1 8230   1.120   2.755  15.343  1.2641  0.3919 -0.4494
  555TMC3    C2 8231   1.214   2.761  15.442 -0.3495  0.4694  0.7951
  555TMC3    C3 8232   1.283   2.649  15.471 -0.4516  0.5400  0.8896
  555TMC3    C4 8233   1.105   2.642  15.264 -0.5918  0.4482 -0.4106
  555TMC3    C5 8234   1.172   2.531  15.298  0.0195 -0.1214 -0.1760
  555TMC3    C6 8235   1.270   2.533  15.396 -0.1807  0.0536  0.4585
  555TMC3     C 8236   1.048   2.871  15.299 -0.1148  0.5993  0.0909
  555TMC3     O 8237   1.100   2.983  15.305 -0.4550 -0.0862 -0.0575
  555TMC3     H 8238   1.232   2.844  15.509  3.1116 -0.0825  0.5650
  555TMC3    H1 8239   1.036   2.637  15.181  0.7290  0.6901 -1.5220
  555TMC3    H2 8240   1.344   2.453  15.396 -1.3036 -0.9950  1.0356
  555TMC3    C7 8241   1.152   2.402  15.248  0.1364  0.6306 -0.2072
  555TMC3    C8 8242   1.359   2.652  15.593 -0.3926 -0.5358  0.7959
  555TMC3    O1 8243   1.187   2.306  15.319 -0.2179  0.3044 -0.2620
  555TMC3    O2 8244   1.404   2.759  15.632  0.1825  0.1540  0.5123
  556MPD2     C 8245   3.720   0.197  10.609  0.3044 -0.1489  0.2573
  556MPD2    C1 8246   3.727   0.099  10.709 -0.1169 -0.1868 -0.0571
  556MPD2    C2 8247   3.698   4.689  10.682 -0.3667  0.1346  0.0553
  556MPD2    C3 8248   3.669   4.660  10.545  0.1295 -0.5079  0.5024
  556MPD2    C4 8249   3.655   0.032  10.448  0.4315 -0.5353 -0.5648
  556MPD2    C5 8250   3.679   0.160  10.487 -0.0872  0.0036 -0.2938
  556MPD2     H 8251   3.686   4.619  10.763 -0.0983 -0.8578 -0.7663
  556MPD2    H1 8252   3.615   0.022  10.348 -2.7586  0.1016  0.6477
  556MPD2    H2 8253   3.736   0.303  10.626 -1.3156  0.1473 -0.0245
  556MPD2    H3 8254   3.661   0.241  10.416 -1.1035  1.7323  1.9237
  556MPD2     N 8255   3.644   4.531  10.509  0.7748 -0.2538 -0.5334
  556MPD2    H5 8256   3.663   4.468  10.586  3.2016  2.3267  0.9727
  556MPD2    N1 8257   3.763   0.130  10.842 -0.1412 -0.6772 -0.4864
  556MPD2    H7 8258   3.777   0.054  10.908 -2.8652 -1.1311 -0.4096
  557TMC3    C1 8259   3.589   4.340  10.402  0.4109  0.2703  0.7569
  557TMC3    C2 8260   3.583   4.266  10.287  0.5784 -0.3785 -0.1698
  557TMC3    C3 8261   3.561   4.130  10.309  0.3994 -0.0338 -0.5513
  557TMC3    C4 8262   3.581   4.288  10.525 -0.4738 -0.3994 -0.2485
  557TMC3    C5 8263   3.570   4.152  10.539 -0.7330 -0.7390  0.2740
  557TMC3    C6 8264   3.558   4.068  10.434  0.1540 -0.8739  0.6828
  557TMC3     C 8265   3.622   4.481  10.381  0.0499  0.0207 -0.3956
  557TMC3     O 8266   3.634   4.531  10.270  0.1824  0.6827  0.1562
  557TMC3     H 8267   3.573   4.311  10.189  0.5448 -1.8661 -0.8534
  557TMC3    H1 8268   3.583   4.344  10.618 -0.1322 -2.2323  0.8458
  557TMC3    H2 8269   3.575   3.961  10.435  0.5462 -0.8042  1.2362
  557TMC3    C7 8270   3.541   4.100  10.664  0.9267  0.9915  0.1473
  557TMC3    C8 8271   3.516   4.053  10.192  0.2357 -0.3070  0.4772
  557TMC3    O1 8272   3.520   4.176  10.762  0.3247  0.0449 -0.2612
  557TMC3    O2 8273   3.449   4.113  10.111  0.1765  0.3316 -0.1244
  558TMC3    C1 8274   1.628   1.830  10.314 -0.1171  0.4604 -0.1538
  558TMC3    C2 8275   1.522   1.866  10.393  0.2688 -0.5289  0.1806
  558TMC3    C3 8276   1.405   1.791  10.392 -0.3302  0.6979 -0.0274
  558TMC3    C4 8277   1.611   1.733  10.227 -0.0112 -0.7870 -0.5486
  558TMC3    C5 8278   1.493   1.663  10.220 -0.0446  0.1143  0.3317
  558TMC3    C6 8279   1.388   1.690  10.303  0.9719  0.0730 -1.0883
  558TMC3     C 8280   1.741   1.917  10.307  0.3718  0.3963  0.1900
  558TMC3     O 8281   1.849   1.878  10.269 -0.0132  0.4698  0.1640
  558TMC3     H 8282   1.533   1.945  10.467 -2.3943  1.7851 -1.8991
  558TMC3    H1 8283   1.694   1.706  10.162  2.5502  0.4396  2.1980
  558TMC3    H2 8284   1.312   1.613  10.306  0.8424  0.3295  2.0315
  558TMC3    C7 8285   1.487   1.538  10.148 -0.1245  0.0192  0.1847
  558TMC3    C8 8286   1.295   1.816  10.480  0.1917 -0.2411  0.3382
  558TMC3    O1 8287   1.414   1.448  10.183  0.3203 -0.1875  0.0765
  558TMC3    O2 8288   1.187   1.769  10.450 -0.3056  0.1373  0.0599
  559MPD2     C 8289   2.156   2.571  10.498  0.7697 -0.3658  0.4917
  559MPD2    C1 8290   2.063   2.497  10.568  0.0731  0.1825  0.2870
  559MPD2    C2 8291   2.102   2.443  10.688  0.0662 -0.2155 -0.0526
  559MPD2    C3 8292   2.231   2.463  10.735  0.2613 -0.4662 -0.3624
  559MPD2    C4 8293   2.324   2.530  10.656 -1.5678  1.4664  0.4769
  559MPD2    C5 8294   2.283   2.586  10.537 -0.5266  0.8554 -0.8110
  559MPD2     H 8295   2.033   2.392  10.755 -0.1858  0.5062  0.2397
  559MPD2    H1 8296   2.429   2.543  10.678 -0.7357 -1.4864 -1.7091
  559MPD2    H2 8297   2.124   2.624  10.409  0.2596 -1.7614 -0.1690
  559MPD2    H3 8298   2.356   2.640  10.478  0.2733 -0.8764 -1.4290
  559MPD2     N 8299   2.266   2.419  10.860 -0.0317  0.3039  0.7583
  559MPD2    H5 8300   2.191   2.384  10.918 -0.7901 -1.6270 -1.3879
  559MPD2    N1 8301   1.926   2.500  10.526 -0.3953 -0.1849  0.1492
  559MPD2    H7 8302   1.905   2.562  10.449  0.2669  0.9448  0.8832
  560TMC3    C1 8303   2.386   2.381  11.055 -0.0813 -0.0763 -0.3671
  560TMC3    C2 8304   2.273   2.311  11.095 -0.6316  0.1773 -0.2061
  560TMC3    C3 8305   2.255   2.293  11.229  0.1355  0.1007  0.4928
  560TMC3    C4 8306   2.465   2.443  11.149  0.1648  0.2549 -0.0062
  560TMC3    C5 8307   2.437   2.430  11.279 -0.5944 -0.0397 -0.5917
  560TMC3    C6 8308   2.334   2.350  11.325  0.0484  0.0573 -0.7192
  560TMC3     C 8309   2.387   2.437  10.928  0.5780 -0.6782  1.2181
  560TMC3     O 8310   2.479   2.508  10.903 -0.0161  0.2784  0.0223
  560TMC3     H 8311   2.207   2.259  11.026 -1.2428 -0.3370  0.7650
  560TMC3    H1 8312   2.551   2.504  11.123  0.1962 -0.0064 -0.5174
  560TMC3    H2 8313   2.287   2.372  11.420  0.7351  1.4258 -0.6923
  560TMC3    C7 8314   2.510   2.501  11.385  0.5544  1.0683 -0.3103
  560TMC3    C8 8315   2.138   2.229  11.266 -0.7404 -0.3512 -0.4935
  560TMC3    O1 8316   2.463   2.488  11.495  0.1233  0.7537  0.0512
  560TMC3    O2 8317   2.051   2.233  11.180 -0.1645  0.3453  0.7289
  561TMC3    C1 8318   4.443   1.471  10.998  0.3126  0.8120  0.5559
  561TMC3    C2 8319   4.369   1.413  11.094 -0.1784  0.1574 -1.0040
  561TMC3    C3 8320   4.392   1.441  11.225 -0.5940 -0.3337  0.2359
  561TMC3    C4 8321   4.533   1.573  11.031 -0.2611  0.4647  0.4376
  561TMC3    C5 8322   4.554   1.597  11.164  0.0252 -0.3397  0.2196
  561TMC3    C6 8323   4.488   1.536  11.264 -0.1098 -0.2544  0.5917
  561TMC3     C 8324   4.425   1.421  10.868  0.3609  1.3921 -0.5761
  561TMC3     O 8325   4.331   1.344  10.851 -0.4715 -0.3103 -0.5698
  561TMC3     H 8326   4.299   1.331  11.080  0.9522 -0.9226 -0.3116
  561TMC3    H1 8327   4.573   1.631  10.950 -2.1286  1.1962  0.0275
  561TMC3    H2 8328   4.527   1.543  11.365 -0.4535  0.8379  0.6468
  561TMC3    C7 8329   4.622   1.716  11.213 -0.3647 -0.1710  0.0161
  561TMC3    C8 8330   4.323   1.363  11.322 -1.0281 -0.2823  0.1038
  561TMC3    O1 8331   4.581   1.755  11.325  0.8793  0.0193 -0.0589
  561TMC3    O2 8332   4.300   1.244  11.311 -0.4111 -0.0135  0.4256
  562TMC3    C1 8333   0.968   3.380  16.250  0.1988 -0.1014 -0.0511
  562TMC3    C2 8334   0.860   3.425  16.183 -0.2707 -0.0302 -0.5362
  562TMC3    C3 8335   0.842   3.377  16.057  0.5084  0.1596 -0.0955
  562TMC3    C4 8336   1.074   3.300  16.201  0.4861 -1.0230 -0.4769
  562TMC3    C5 8337   1.050   3.253  16.075 -0.1791 -0.5139  0.4666
  562TMC3    C6 8338   0.941   3.290  15.999  0.1901  0.4824  0.0576
  562TMC3     C 8339   0.989   3.445  16.377  0.0831 -0.2398 -0.1442
  562TMC3     O 8340   0.889   3.483  16.441 -0.2223 -0.5263 -0.5143
  562TMC3     H 8341   0.782   3.491  16.219  0.4358  1.2527 -1.3210
  562TMC3    H1 8342   1.151   3.266  16.268  0.3080  0.1411  0.3307
  562TMC3    H2 8343   0.921   3.237  15.907 -2.2354 -0.7433  1.2964
  562TMC3    C7 8344   1.121   3.132  16.031  0.3852  0.1961  0.1761
  562TMC3    C8 8345   0.710   3.395  15.996  0.2013 -0.6739 -0.4206
  562TMC3    O1 8346   1.117   3.114  15.909 -0.4003  0.0907  0.1856
  562TMC3    O2 8347   0.621   3.439  16.065  0.1414  0.0131  0.4565
  563MPD2     C 8348   3.491   3.805  15.594 -0.7253  0.3301  0.8011
  563MPD2    C1 8349   3.521   3.927  15.661  0.4525 -0.2696 -0.3736
  563MPD2    C2 8350   3.644   3.946  15.716  0.1356  0.7445 -0.4601
  563MPD2    C3 8351   3.746   3.849  15.713  0.0671  0.1612  0.0842
  563MPD2    C4 8352   3.717   3.723  15.647  0.1846 -0.6005  1.5060
  563MPD2    C5 8353   3.587   3.704  15.592  0.0392  0.2312  0.3527
  563MPD2     H 8354   3.672   4.036  15.771  1.7379 -0.0691  0.0650
  563MPD2    H1 8355   3.781   3.636  15.657  1.1344 -0.2971 -1.9674
  563MPD2    H2 8356   3.398   3.783  15.544  1.6709 -2.1047 -2.5855
  563MPD2    H3 8357   3.570   3.606  15.549 -2.7786  0.4997  0.8881
  563MPD2     N 8358   3.871   3.881  15.774 -0.4074  0.0966  0.1407
  563MPD2    H5 8359   3.890   3.971  15.816 -1.3655  1.3546 -2.1297
  563MPD2    N1 8360   3.418   4.027  15.674  0.4444  0.3096 -0.9713
  563MPD2    H7 8361   3.323   3.994  15.660  0.3575  1.4455 -3.0677
  564TMC3    C1 8362   3.340   4.228  15.771  0.5084  0.5846 -0.9116
  564TMC3    C2 8363   3.219   4.160  15.767 -0.2178 -0.5576  0.3544
  564TMC3    C3 8364   3.162   4.142  15.889 -0.5302  0.1579  0.5622
  564TMC3    C4 8365   3.410   4.267  15.880 -0.0433  0.0152  0.0282
  564TMC3    C5 8366   3.342   4.255  15.999  0.3091 -0.1311  0.2109
  564TMC3    C6 8367   3.218   4.203  15.999 -0.4691  0.0916 -0.3799
  564TMC3     C 8368   3.442   4.160  15.688 -0.4285  0.4054  0.7429
  564TMC3     O 8369   3.547   4.218  15.676  0.5172 -0.0020 -0.4757
  564TMC3     H 8370   3.181   4.115  15.675  1.0550 -1.0321  0.0669
  564TMC3    H1 8371   3.517   4.276  15.891  0.1242  0.3226 -1.8354
  564TMC3    H2 8372   3.167   4.207  16.095 -0.7938  0.6035 -0.5732
  564TMC3    C7 8373   3.418   4.182  16.096  0.6667  1.0620  0.3177
  564TMC3    C8 8374   3.077   4.034  15.925 -0.7728 -0.4485 -0.3538
  564TMC3    O1 8375   3.530   4.225  16.127 -0.2428 -0.6941 -0.6639
  564TMC3    O2 8376   3.098   3.989  16.036 -0.3693  0.0743 -0.0548
  565TMC3    C1 8377   3.503   1.146   9.611 -0.4485 -0.3498  0.4811
  565TMC3    C2 8378   3.479   1.052   9.707 -0.3121 -0.7301 -0.1737
  565TMC3    C3 8379   3.362   0.990   9.713 -0.1548  0.3682  0.1821
  565TMC3    C4 8380   3.407   1.188   9.524 -0.3210 -0.1968  0.1486
  565TMC3    C5 8381   3.288   1.115   9.529 -0.3290  0.2904 -0.4844
  565TMC3    C6 8382   3.267   1.017   9.620  0.1680  0.3814  0.9648
  565TMC3     C 8383   3.600   1.250   9.654  0.8625  0.3679  0.2029
  565TMC3     O 8384   3.632   1.336   9.571 -0.0643  0.4830 -0.2900
  565TMC3     H 8385   3.564   1.013   9.763  1.5746  3.6320 -0.0510
  565TMC3    H1 8386   3.423   1.277   9.464  0.0521 -1.1643 -1.1892
  565TMC3    H2 8387   3.163   0.987   9.630 -0.3809  2.2338  0.7991
  565TMC3    C7 8388   3.192   1.132   9.420  0.2961 -0.0186 -0.0500
  565TMC3    C8 8389   3.335   0.922   9.838 -0.5202  0.1431  0.2451
  565TMC3    O1 8390   3.091   1.066   9.418 -0.1958 -0.2836 -0.0811
  565TMC3    O2 8391   3.409   0.958   9.933 -0.2227 -0.1280  0.4972
  566MPD2     C 8392   0.340   2.462  14.388  0.0711  0.1970 -0.7442
  566MPD2    C1 8393   0.347   2.504  14.252  0.2851  0.2442 -0.4037
  566MPD2    C2 8394   0.247   2.469  14.156  0.2188  0.5045  0.6115
  566MPD2    C3 8395   0.161   2.374  14.194  0.1053 -0.0055 -0.0179
  566MPD2    C4 8396   0.161   2.321  14.319 -0.3344 -0.0192  0.7124
  566MPD2    C5 8397   0.247   2.365  14.413 -0.8469  0.4919  0.0756
  566MPD2     H 8398   0.258   2.507  14.055  1.9663  1.4042  1.1283
  566MPD2    H1 8399   0.087   2.246  14.342  0.7866 -1.6710 -1.1771
  566MPD2    H2 8400   0.409   2.493  14.465 -0.2113  0.5731 -0.6411
  566MPD2    H3 8401   0.243   2.331  14.515 -0.0670  0.6410  0.1553
  566MPD2     N 8402   0.082   2.327  14.091 -0.3150  0.0350 -0.0526
  566MPD2    H5 8403   0.049   2.231  14.097  0.8843 -0.3184  0.7837
  566MPD2    N1 8404   0.455   2.594  14.220 -0.5273  0.3204 -0.5494
  566MPD2    H7 8405   0.512   2.625  14.298  0.1910 -1.8255 -0.2104
  567TMC3    C1 8406   0.618   2.704  14.083 -0.4265  0.3191  0.1618
  567TMC3    C2 8407   0.688   2.707  13.960 -0.1236 -0.2098  0.3892
  567TMC3    C3 8408   0.805   2.779  13.949 -0.4286  0.1480  0.2292
  567TMC3    C4 8409   0.670   2.773  14.192 -0.3506 -0.6698 -0.3011
  567TMC3    C5 8410   0.787   2.844  14.178  0.2930  0.6294  0.0758
  567TMC3    C6 8411   0.853   2.853  14.055 -0.3223  0.6809 -0.4244
  567TMC3     C 8412   0.506   2.617  14.088  0.2535  0.1659 -0.1092
  567TMC3     O 8413   0.463   2.569  13.986  0.3272 -0.7175  0.4465
  567TMC3     H 8414   0.647   2.658  13.873  0.9139  3.2550 -2.0587
  567TMC3    H1 8415   0.617   2.776  14.286  0.4294 -1.5816  0.1741
  567TMC3    H2 8416   0.952   2.898  14.056  0.7215 -1.6039 -1.1295
  567TMC3    C7 8417   0.845   2.903  14.292  0.9829  0.5525 -0.3093
  567TMC3    C8 8418   0.851   2.823  13.819 -0.5783  0.3914  0.3625
  567TMC3    O1 8419   0.879   3.023  14.287 -0.1513  0.5456 -0.3532
  567TMC3    O2 8420   0.822   2.740  13.737 -0.4623  0.0877  0.3512
  568MPD2     C 8421   2.498   2.749  16.614  0.0869 -0.4318 -0.5349
  568MPD2    C1 8422   2.633   2.775  16.621 -0.5340  0.3980  0.3265
  568MPD2    C2 8423   2.695   2.870  16.548 -0.3980 -0.2986  1.4500
  568MPD2    C3 8424   2.617   2.949  16.467  0.5118  0.5313  0.2425
  568MPD2    C4 8425   2.483   2.922  16.452 -0.2197 -0.0112 -0.2824
  568MPD2    C5 8426   2.423   2.824  16.525 -0.0099 -0.2085 -0.5183
  568MPD2     H 8427   2.803   2.885  16.550 -0.0303 -2.7570  0.1833
  568MPD2    H1 8428   2.413   2.985  16.398 -0.4712  0.1226  0.1983
  568MPD2    H2 8429   2.449   2.673  16.673  0.4982  0.0502  0.4281
  568MPD2    H3 8430   2.315   2.817  16.521  0.1129 -0.6208 -3.2520
  568MPD2     N 8431   2.681   3.058  16.398  0.0850  0.2634  0.2483
  568MPD2    H5 8432   2.774   3.083  16.433 -0.3801  0.8587  1.0875
  568MPD2    N1 8433   2.703   2.698  16.711  0.9223  0.7973  0.4656
  568MPD2    H7 8434   2.642   2.632  16.758  1.4367  0.1637  0.2370
  569TMC3    C1 8435   2.713   3.242  16.267  0.1845 -0.4954 -0.2373
  569TMC3    C2 8436   2.761   3.312  16.367  0.7001  0.6425 -0.4375
  569TMC3    C3 8437   2.857   3.408  16.340 -0.5447 -0.4067 -0.5481
  569TMC3    C4 8438   2.747   3.274  16.137  0.0523 -0.2091  0.1423
  569TMC3    C5 8439   2.834   3.376  16.115  0.3538 -0.1664  0.0516
  569TMC3    C6 8440   2.899   3.446  16.215  0.4100  0.4914 -0.3116
  569TMC3     C 8441   2.623   3.138  16.295 -0.5775 -0.0818 -0.1484
  569TMC3     O 8442   2.525   3.124  16.226 -0.3699  0.1766 -0.0320
  569TMC3     H 8443   2.724   3.291  16.467 -0.5066  1.0891 -0.7855
  569TMC3    H1 8444   2.693   3.228  16.055 -0.6072  0.0161  0.4476
  569TMC3    H2 8445   2.975   3.515  16.180  2.2587 -1.3562  0.0605
  569TMC3    C7 8446   2.819   3.451  15.987  0.0345 -0.6013  0.1889
  569TMC3    C8 8447   2.902   3.495  16.449 -0.0337 -0.3254 -0.0040
  569TMC3    O1 8448   2.781   3.387  15.894 -0.4019 -0.7169  0.2661
  569TMC3    O2 8449   2.821   3.494  16.543 -0.2120 -0.3985 -0.3418
  570TMC3    C1 8450   2.248   1.804  16.542  0.1332  1.2023  0.0855
  570TMC3    C2 8451   2.340   1.800  16.443 -0.4110  0.0563 -0.2046
  570TMC3    C3 8452   2.340   1.918  16.367 -0.0152  0.3270 -1.3342
  570TMC3    C4 8453   2.169   1.912  16.576 -0.3616 -0.0993 -0.1858
  570TMC3    C5 8454   2.177   2.022  16.497 -0.1395  0.1883  0.1979
  570TMC3    C6 8455   2.266   2.023  16.392 -0.0099  0.1993  0.5484
  570TMC3     C 8456   2.226   1.669  16.587 -0.1486 -0.0700 -0.5341
  570TMC3     O 8457   2.259   1.587  16.504 -0.2852 -0.0533 -0.1150
  570TMC3     H 8458   2.417   1.724  16.435  0.3507  0.7496  0.5212
  570TMC3    H1 8459   2.101   1.900  16.660  0.3469 -0.0642  0.3981
  570TMC3    H2 8460   2.265   2.103  16.318  0.6539  0.0426  0.3742
  570TMC3    C7 8461   2.130   2.139  16.570  0.3854  0.2983 -0.5610
  570TMC3    C8 8462   2.450   1.946  16.274 -0.3167 -0.0373 -0.8485
  570TMC3    O1 8463   2.077   2.135  16.677 -0.9810 -0.5308 -0.3244
  570TMC3    O2 8464   2.460   2.057  16.226 -0.2707  0.1146  0.1361
  571MPD2     C 8465   1.418   4.154   0.506 -0.3351  0.6401 -0.2274
  571MPD2    C1 8466   1.340   4.048   0.463  0.3178 -0.0212 -0.4479
  571MPD2    C2 8467   1.217   4.063   0.408  0.0217 -0.5237 -0.8277
  571MPD2    C3 8468   1.165   4.186   0.383  0.3734 -0.4166 -0.4559
  571MPD2    C4 8469   1.238   4.296   0.425 -0.0799 -0.0409 -0.6585
  571MPD2    C5 8470   1.365   4.283   0.481  0.1409  0.1916  0.0669
  571MPD2     H 8471   1.158   3.979   0.374  0.4745  0.1796 -3.3788
  571MPD2    H1 8472   1.207   4.398   0.407 -1.3938  0.0320  2.0815
  571MPD2    H2 8473   1.520   4.154   0.545 -0.5604  1.3614  0.3536
  571MPD2    H3 8474   1.417   4.374   0.507  0.5495  0.0281 -0.1713
  571MPD2     N 8475   1.033   4.206   0.335  0.3194 -0.3077  0.7717
  571MPD2    H5 8476   1.010   4.304   0.319 -1.8613 -0.9593 -0.0728
  571MPD2    N1 8477   1.389   3.921   0.494  0.1791 -1.2706 -0.2906
  571MPD2    H7 8478   1.478   3.907   0.541 -0.6804 -0.3485  1.6430
  572TMC3    C1 8479   0.812   4.159   0.273 -0.0376 -0.0358  0.0587
  572TMC3    C2 8480   0.727   4.066   0.215 -0.1423 -0.3361  0.1329
  572TMC3    C3 8481   0.595   4.089   0.222  0.0514 -0.2447  0.0626
  572TMC3    C4 8482   0.778   4.287   0.314 -0.3467  0.3645  0.1144
  572TMC3    C5 8483   0.642   4.306   0.305 -0.2846 -0.2638 -0.3745
  572TMC3    C6 8484   0.551   4.212   0.260  0.4897  0.5421  0.1782
  572TMC3     C 8485   0.941   4.109   0.311  0.3630  0.4929  0.2661
  572TMC3     O 8486   0.942   3.993   0.336 -0.1385 -0.2214 -0.2614
  572TMC3     H 8487   0.758   3.969   0.178  0.1792 -2.3290  5.6361
  572TMC3    H1 8488   0.837   4.356   0.374  1.9623 -1.5956  0.1132
  572TMC3    H2 8489   0.447   4.239   0.244  0.3747 -0.0871 -0.1106
  572TMC3    C7 8490   0.610   4.439   0.240 -0.1752  0.2944 -0.2632
  572TMC3    C8 8491   0.518   3.989   0.159  0.2216  0.8757  0.3732
  572TMC3    O1 8492   0.495   4.451   0.197 -0.1836  0.1444  0.4111
  572TMC3    O2 8493   0.566   3.912   0.083 -0.1558 -0.1924 -0.1506
  573MPD2     C 8494   1.976   4.358   1.027  1.1839 -0.6885 -0.1873
  573MPD2    C1 8495   1.888   4.457   0.983 -0.9756  0.2734 -0.6314
  573MPD2    C2 8496   1.766   4.415   0.934 -0.1474 -0.6706 -0.2032
  573MPD2    C3 8497   1.724   4.286   0.926  0.0154 -0.4504 -0.0814
  573MPD2    C4 8498   1.817   4.195   0.975  0.4991  0.7395  0.3474
  573MPD2    C5 8499   1.937   4.233   1.020 -0.0987  0.5203  0.6971
  573MPD2     H 8500   1.687   4.488   0.922  1.9528  1.5386 -0.5473
  573MPD2    H1 8501   1.789   4.090   0.981 -1.2504  1.1769 -0.2305
  573MPD2    H2 8502   2.076   4.384   1.060  1.0862 -1.5441  0.7846
  573MPD2    H3 8503   2.015   4.166   1.054 -2.0405 -2.5684 -0.9656
  573MPD2     N 8504   1.594   4.242   0.896  0.2329  0.5575  0.4005
  573MPD2    H5 8505   1.582   4.142   0.888  2.0060  0.3359  0.6257
  573MPD2    N1 8506   1.928   4.592   1.008  0.3251 -0.0227  0.5002
  573MPD2    H7 8507   2.000   4.603   1.077 -0.9967  1.0378  1.7062
  574TMC3    C1 8508   1.362   4.232   0.863  0.4332 -0.7618 -0.2199
  574TMC3    C2 8509   1.256   4.293   0.795  0.2219 -0.3025  0.1733
  574TMC3    C3 8510   1.144   4.217   0.778  0.0228 -0.1329  0.1724
  574TMC3    C4 8511   1.349   4.115   0.930  0.7409  0.0444 -1.0040
  574TMC3    C5 8512   1.244   4.034   0.896 -0.0047  0.4218  0.3455
  574TMC3    C6 8513   1.136   4.090   0.831 -0.2858  0.0797 -0.4681
  574TMC3     C 8514   1.483   4.317   0.882 -0.1939 -0.1232 -0.2179
  574TMC3     O 8515   1.475   4.437   0.869  0.2674  0.3082  0.2527
  574TMC3     H 8516   1.281   4.384   0.742  2.6436  0.1424  2.0634
  574TMC3    H1 8517   1.426   4.080   0.998 -0.9546  2.8950  2.3890
  574TMC3    H2 8518   1.045   4.033   0.816 -0.8049  0.6958  0.3103
  574TMC3    C7 8519   1.250   3.895   0.934  0.3100 -0.4524  0.4432
  574TMC3    C8 8520   1.021   4.278   0.729 -0.6422 -0.3315  0.1106
  574TMC3    O1 8521   1.317   3.875   1.035 -0.4471  0.5644 -0.6187
  574TMC3    O2 8522   0.923   4.204   0.728  0.2044  0.0214 -0.6365
  575TMC3    C1 8523   3.657   0.640  10.550  0.6508  0.4837 -0.4949
  575TMC3    C2 8524   3.592   0.562  10.641  0.3047  0.1997 -0.7359
  575TMC3    C3 8525   3.478   0.497  10.609  0.1639  0.5434  0.4259
  575TMC3    C4 8526   3.604   0.662  10.422 -0.2397 -0.1743 -0.4811
  575TMC3    C5 8527   3.491   0.593  10.393 -0.7049  0.0769 -0.6767
  575TMC3    C6 8528   3.425   0.514  10.484 -0.0837 -0.4630 -0.7112
  575TMC3     C 8529   3.762   0.728  10.608 -0.7087 -0.3514 -0.5464
  575TMC3     O 8530   3.773   0.732  10.729  0.3561  0.3431 -0.7179
  575TMC3     H 8531   3.635   0.551  10.740  2.0617 -0.9534 -1.6275
  575TMC3    H1 8532   3.640   0.727  10.343 -3.4538  0.7968 -1.1588
  575TMC3    H2 8533   3.346   0.456  10.438 -0.0682 -2.7015  2.0751
  575TMC3    C7 8534   3.429   0.611  10.261 -0.4761 -0.2451 -0.4010
  575TMC3    C8 8535   3.390   0.428  10.702  0.4474 -0.5587  0.5386
  575TMC3    O1 8536   3.508   0.636  10.169  0.2423  0.0509  0.4668
  575TMC3    O2 8537   3.277   0.398  10.662  0.0036  0.4250  0.4027
  576MPD2     C 8538   3.569   1.897  12.456 -0.2816 -0.9931  0.3654
  576MPD2    C1 8539   3.626   1.991  12.371 -0.2956  0.3489  0.0475
  576MPD2    C2 8540   3.580   2.116  12.371 -0.3959 -0.6747 -0.8747
  576MPD2    C3 8541   3.468   2.145  12.446 -0.2384  0.3445  0.5448
  576MPD2    C4 8542   3.414   2.056  12.538 -0.0399  0.7233 -0.5117
  576MPD2    C5 8543   3.464   1.929  12.538  0.3239 -0.3566 -0.5153
  576MPD2     H 8544   3.629   2.187  12.306  2.2610  0.0928  1.9800
  576MPD2    H1 8545   3.327   2.079  12.598 -0.5418 -0.3075 -0.8432
  576MPD2    H2 8546   3.598   1.793  12.451 -0.1107 -0.9198 -0.1482
  576MPD2    H3 8547   3.424   1.859  12.611  0.2302  2.4732  2.1358
  576MPD2     N 8548   3.416   2.277  12.436  0.3242  0.2900  0.9983
  576MPD2    H5 8549   3.464   2.339  12.372  0.7564 -2.6439 -1.5139
  576MPD2    N1 8550   3.731   1.962  12.281 -0.2986  0.0081  0.8567
  576MPD2    H7 8551   3.763   2.043  12.229  0.4493 -1.1080 -0.4534
  577TMC3    C1 8552   3.893   1.839  12.160 -0.4650  0.5071 -0.6755
  577TMC3    C2 8553   3.931   1.717  12.121  0.0564 -0.4102  0.0986
  577TMC3    C3 8554   4.040   1.696  12.039 -0.0144  0.1059 -0.1933
  577TMC3    C4 8555   3.956   1.953  12.109 -0.3437 -0.0072 -0.3659
  577TMC3    C5 8556   4.064   1.925  12.029 -0.5958  0.3825  0.6253
  577TMC3    C6 8557   4.116   1.801  12.001  0.6688  0.9286 -0.2900
  577TMC3     C 8558   3.784   1.837  12.258 -0.4822  0.0618  0.5941
  577TMC3     O 8559   3.766   1.735  12.321  0.0324 -0.0925  0.5125
  577TMC3     H 8560   3.875   1.633  12.161 -0.9886 -0.0457 -0.5874
  577TMC3    H1 8561   3.932   2.056  12.134  2.6977  0.7812 -0.6980
  577TMC3    H2 8562   4.203   1.793  11.937  0.0053 -0.9921 -0.9296
  577TMC3    C7 8563   4.099   2.018  11.922 -0.0716 -0.0583 -0.8637
  577TMC3    C8 8564   4.057   1.565  11.975 -0.4371 -0.2413 -0.1003
  577TMC3    O1 8565   4.209   2.002  11.868  0.0556 -0.4860  0.0961
  577TMC3    O2 8566   4.001   1.466  12.031 -0.4940 -0.4692  0.4359
  578MPD2     C 8567   1.228   2.797   0.490  0.0076  0.2420  0.0479
  578MPD2    C1 8568   1.349   2.735   0.484 -0.4781 -0.3382 -0.1643
  578MPD2    C2 8569   1.381   2.637   0.576  0.3884  0.2436  0.6753
  578MPD2    C3 8570   1.300   2.596   0.675  0.6065 -0.2211  0.1304
  578MPD2    C4 8571   1.173   2.653   0.672 -0.0117 -0.2191  0.1391
  578MPD2    C5 8572   1.141   2.761   0.590  0.6228 -0.2513  0.4609
  578MPD2     H 8573   1.480   2.593   0.569  0.1949  0.2391 -2.0631
  578MPD2    H1 8574   1.096   2.636   0.746  0.6944 -1.3360  0.6207
  578MPD2    H2 8575   1.205   2.885   0.433 -0.4241  0.7680  1.0318
  578MPD2    H3 8576   1.042   2.802   0.605  1.3082  1.1931  1.0043
  578MPD2     N 8577   1.344   2.491   0.759  1.0556 -0.5167  0.4562
  578MPD2    H5 8578   1.436   2.452   0.743  1.0755 -0.1561 -0.3575
  578MPD2    N1 8579   1.439   2.780   0.384 -0.0277 -0.0481 -0.4609
  578MPD2    H7 8580   1.407   2.850   0.318  1.3682  0.3548 -0.7134
  579TMC3    C1 8581   1.355   2.351   0.959  0.1809 -0.1466  0.4238
  579TMC3    C2 8582   1.373   2.391   1.089  0.0101  0.2825 -0.5676
  579TMC3    C3 8583   1.476   2.338   1.157  0.5441  0.1351 -0.3528
  579TMC3    C4 8584   1.429   2.253   0.891  0.3538 -0.5745  0.4377
  579TMC3    C5 8585   1.538   2.206   0.972 -0.4157  0.2244  0.8505
  579TMC3    C6 8586   1.560   2.241   1.102 -0.4325 -0.2546 -0.6306
  579TMC3     C 8587   1.280   2.452   0.877 -0.2393  0.3119 -0.1774
  579TMC3     O 8588   1.181   2.498   0.931  0.5997  0.3633  0.2028
  579TMC3     H 8589   1.322   2.476   1.133 -0.8601 -0.0341 -0.9753
  579TMC3    H1 8590   1.421   2.232   0.785  0.0568 -0.8490  0.5144
  579TMC3    H2 8591   1.648   2.204   1.152 -0.7217 -0.4338 -0.2548
  579TMC3    C7 8592   1.621   2.102   0.921  0.7971  0.0853 -0.5087
  579TMC3    C8 8593   1.521   2.416   1.271  0.4164  0.9127  0.5393
  579TMC3    O1 8594   1.641   2.011   1.002 -0.2545  0.0325 -0.0815
  579TMC3    O2 8595   1.446   2.463   1.354 -0.1328  0.1536  0.7065
  580TMC3    C1 8596   0.859   0.841  12.129 -0.2575 -0.1785  0.2368
  580TMC3    C2 8597   0.897   0.801  12.006  0.3177 -0.1990 -0.0379
  580TMC3    C3 8598   0.952   0.680  11.984 -0.2328  0.1706  0.2080
  580TMC3    C4 8599   0.848   0.747  12.230  0.1410 -0.3001 -0.6055
  580TMC3    C5 8600   0.889   0.622  12.203  0.0510  0.0928 -0.0542
  580TMC3    C6 8601   0.953   0.588  12.083 -0.1051  0.2200 -0.3194
  580TMC3     C 8602   0.919   0.961  12.155  0.1704 -0.6797 -0.1191
  580TMC3     O 8603   1.006   0.997  12.076  0.5624 -0.2009 -0.2897
  580TMC3     H 8604   0.896   0.877  11.929  1.3452 -0.0505  0.0983
  580TMC3    H1 8605   0.811   0.773  12.328  1.2407  0.1844 -0.3253
  580TMC3    H2 8606   1.018   0.502  12.072 -0.8456 -0.5345  1.2339
  580TMC3    C7 8607   0.923   0.538  12.315  0.7394 -0.1682  0.8431
  580TMC3    C8 8608   1.064   0.673  11.893 -0.4119 -0.1934 -0.0076
  580TMC3    O1 8609   0.924   0.593  12.422  0.4337 -0.4929 -0.2476
  580TMC3    O2 8610   1.104   0.560  11.865  0.0679  0.2292 -0.0906
  581MPD2     C 8611   4.625   0.769  14.920 -0.1485 -0.0617 -0.7568
  581MPD2    C1 8612   4.506   0.698  14.908 -0.2204 -0.2088  0.3979
  581MPD2    C2 8613   4.391   0.761  14.875 -0.0850  0.6692  0.6541
  581MPD2    C3 8614   4.381   0.907  14.865  0.3778 -0.2568  0.4942
  581MPD2    C4 8615   4.504   0.973  14.872 -0.5188 -0.3072  0.4241
  581MPD2    C5 8616   4.622   0.906  14.894 -0.1992 -0.2408  0.7887
  581MPD2     H 8617   4.300   0.702  14.872  0.4072 -0.1690  2.2899
  581MPD2    H1 8618   4.509   1.081  14.862  2.4791 -0.4380  0.5273
  581MPD2    H2 8619   4.719   0.726  14.954  1.1462  1.9312 -1.8103
  581MPD2    H3 8620   4.709   0.965  14.921 -0.5395 -0.3848  2.2099
  581MPD2     N 8621   4.261   0.984  14.851 -0.4524 -0.5760 -0.0010
  581MPD2    H5 8622   4.273   1.085  14.861 -3.2775  0.0115 -2.5268
  581MPD2    N1 8623   4.490   0.568  14.959 -0.5081  0.2051  0.0788
  581MPD2    H7 8624   4.399   0.525  14.971 -0.2559 -0.4782 -0.4848
  582TMC3    C1 8625   4.531   0.385  15.101  0.6010 -0.5231 -0.4572
  582TMC3    C2 8626   4.610   0.349  15.208  0.3262 -1.1070 -0.0245
  582TMC3    C3 8627   4.551   0.285  15.313 -0.2784  0.0085 -0.0510
  582TMC3    C4 8628   4.396   0.373  15.100  0.4036 -0.8556 -0.4279
  582TMC3    C5 8629   4.340   0.299  15.201 -0.2101 -0.6546 -0.0202
  582TMC3    C6 8630   4.414   0.264  15.307 -0.2177  0.7595  0.5104
  582TMC3     C 8631   4.584   0.495  15.023  0.3358  0.2746  0.8698
  582TMC3     O 8632   4.698   0.523  15.034  0.2948 -0.0278 -0.8283
  582TMC3     H 8633   4.715   0.376  15.204  0.2388 -0.8078 -0.3755
  582TMC3    H1 8634   4.335   0.390  15.012 -1.3321  3.3540  1.5866
  582TMC3    H2 8635   4.371   0.220  15.396  3.4259 -1.7070  1.0854
  582TMC3    C7 8636   4.204   0.331  15.228 -0.7855 -0.0391 -0.2708
  582TMC3    C8 8637   4.593   0.322  15.447 -0.3609 -0.8277  0.9484
  582TMC3    O1 8638   4.129   0.252  15.281 -0.3241 -0.3908 -0.2310
  582TMC3    O2 8639   4.498   0.351  15.524 -0.3953  0.2906 -0.1765
  583MPD2     C 8640   4.451   2.564  16.914  0.0521 -0.4073  0.1543
  583MPD2    C1 8641   4.472   2.673  16.834  0.3133  0.7165 -0.0261
  583MPD2    C2 8642   4.444   2.803  16.883 -0.5501  0.1498 -0.1845
  583MPD2    C3 8643   4.388   2.814  17.011 -0.5321 -0.0213  0.2603
  583MPD2    C4 8644   4.375   2.701  17.090 -0.2118  1.0132 -0.7594
  583MPD2    C5 8645   4.403   2.580  17.037  0.6303  0.1614  0.4918
  583MPD2     H 8646   4.442   2.885  16.812  0.9568 -1.2305 -1.8229
  583MPD2    H1 8647   4.341   2.706  17.193  0.4191 -0.9280 -0.4580
  583MPD2    H2 8648   4.446   2.464  16.872  2.7406 -0.4666 -0.0408
  583MPD2    H3 8649   4.374   2.490  17.091 -2.8581  0.0071 -1.6900
  583MPD2     N 8650   4.349   2.942  17.056  0.1802  0.6478  0.0464
  583MPD2    H5 8651   4.370   3.020  16.995 -0.7926  0.3752 -0.6439
  583MPD2    N1 8652   4.536   2.649  16.708  0.2138  0.1041  0.3902
  583MPD2    H7 8653   4.559   2.724  16.643 -0.5960  0.1043  0.0968
  584TMC3    C1 8654   4.255   3.102  17.208  0.2927  0.8846  0.4026
  584TMC3    C2 8655   4.349   3.199  17.181  0.8218 -0.2546 -0.3371
  584TMC3    C3 8656   4.325   3.322  17.223  0.0975  0.1353 -0.3521
  584TMC3    C4 8657   4.144   3.134  17.285  0.3679  0.0637 -0.0804
  584TMC3    C5 8658   4.129   3.267  17.327  0.1854  0.6249  0.6674
  584TMC3    C6 8659   4.217   3.365  17.295 -0.7039 -0.6956  0.5799
  584TMC3     C 8660   4.281   2.962  17.178 -0.0694 -0.9255  0.5242
  584TMC3     O 8661   4.228   2.883  17.252  0.6762  0.3213 -1.0007
  584TMC3     H 8662   4.432   3.173  17.116  0.4692 -1.5644 -0.2713
  584TMC3    H1 8663   4.082   3.052  17.319  1.5367 -1.2313 -1.0078
  584TMC3    H2 8664   4.193   3.470  17.311 -2.3320 -0.4778 -3.2611
  584TMC3    C7 8665   4.036   3.287  17.439  0.7727 -0.0690 -0.6142
  584TMC3    C8 8666   4.397   3.424  17.142  0.0116 -0.2014  0.0750
  584TMC3    O1 8667   3.972   3.186  17.482 -0.9378 -0.3789 -0.3808
  584TMC3    O2 8668   4.429   3.380  17.032 -0.1354 -0.1453 -0.4823
  585MPD2     C 8669   2.872   1.822   0.141  0.0028  0.8621  0.4022
  585MPD2    C1 8670   3.001   1.848   0.185  0.2327  0.1515  0.0236
  585MPD2    C2 8671   3.107   1.773   0.131 -0.0998  0.2370 -0.2582
  585MPD2    C3 8672   3.079   1.688   0.020  0.4347  0.4325 -0.1398
  585MPD2    C4 8673   2.952   1.672  17.674  0.0909 -0.3110  0.2100
  585MPD2    C5 8674   2.848   1.747   0.030 -0.0603  0.6765  0.0724
  585MPD2     H 8675   3.209   1.791   0.163 -0.3536  2.1413 -0.5140
  585MPD2    H1 8676   2.928   1.617  17.584 -0.8693  0.2791  0.1045
  585MPD2    H2 8677   2.791   1.878   0.186 -0.4911 -1.6661  2.6757
  585MPD2    H3 8678   2.749   1.732  17.685  0.2709 -0.8907 -0.1281
  585MPD2     N 8679   3.177   1.617  17.648  0.5137  0.1055 -0.5713
  585MPD2    H5 8680   3.138   1.547  17.586  1.3796 -1.0092  0.1487
  585MPD2    N1 8681   3.009   1.945   0.285 -0.2748  0.1854 -0.1574
  585MPD2    H7 8682   2.927   1.997   0.315 -0.9532 -0.9828 -0.0104
  586TMC3    C1 8683   3.401   1.538  17.595  0.6888 -0.1736 -0.2491
  586TMC3    C2 8684   3.534   1.570  17.592  0.1013 -0.4909  0.1589
  586TMC3    C3 8685   3.602   1.528  17.483 -0.3468  0.9896 -0.6204
  586TMC3    C4 8686   3.345   1.459  17.494 -0.0912 -0.3202 -0.5503
  586TMC3    C5 8687   3.423   1.407  17.392 -0.4231 -0.5618  0.5281
  586TMC3    C6 8688   3.552   1.440  17.389  0.2157  0.5803 -0.5050
  586TMC3     C 8689   3.314   1.638  17.664 -0.0603 -0.7729  0.1051
  586TMC3     O 8690   3.374   1.734   0.019 -0.2932 -0.0412 -0.5690
  586TMC3     H 8691   3.583   1.619  17.675 -0.7557  0.6580 -0.0090
  586TMC3    H1 8692   3.243   1.424  17.492 -0.2930  0.2544 -0.4270
  586TMC3    H2 8693   3.613   1.411  17.304  0.1619 -0.3618 -0.2147
  586TMC3    C7 8694   3.396   1.268  17.355 -0.8036 -0.4208 -1.3946
  586TMC3    C8 8695   3.742   1.514  17.513  0.2442  0.1880  0.0946
  586TMC3    O1 8696   3.290   1.216  17.388  0.0786  0.1510  0.2513
  586TMC3    O2 8697   3.755   1.446  17.617  1.2040  0.6356  0.2618
  587TMC3    C1 8698   1.367   4.722  16.555  0.0683  0.3759  0.6069
  587TMC3    C2 8699   1.329   0.050  16.676  0.2591 -0.4092  0.6081
  587TMC3    C3 8700   1.421   0.103  16.762  0.2627  0.4340 -0.1369
  587TMC3    C4 8701   1.495   4.722  16.513  0.6224 -0.2058 -0.3467
  587TMC3    C5 8702   1.585   0.043  16.604  0.1828 -0.1527 -1.0845
  587TMC3    C6 8703   1.552   0.090  16.730 -0.2930 -0.0188  0.7054
  587TMC3     C 8704   1.271   4.710  16.445  0.0649 -0.4108 -0.1049
  587TMC3     O 8705   1.311   0.015  16.331  0.2770  0.1457  0.7208
  587TMC3     H 8706   1.226   0.048  16.709 -0.0590 -1.5714 -0.4212
  587TMC3    H1 8707   1.518   4.703  16.408 -1.8716 -0.9407 -0.7657
  587TMC3    H2 8708   1.627   0.121  16.802  1.1020 -1.2619 -0.2091
  587TMC3    C7 8709   1.725   0.050  16.574 -0.0570 -0.0428  0.5854
  587TMC3    C8 8710   1.392   0.188  16.877  0.1998 -0.8151  0.4664
  587TMC3    O1 8711   1.812   0.047  16.656  0.5199  0.8128 -0.3813
  587TMC3    O2 8712   1.479   0.199  16.963 -0.2992  0.2748  0.5710
  588TMC3    C1 8713   3.393   2.811   9.610  0.2704  1.1859  0.2547
  588TMC3    C2 8714   3.378   2.686   9.568 -0.0205  0.2421  0.4611
  588TMC3    C3 8715   3.448   2.586   9.625  0.2106  0.5791  0.0568
  588TMC3    C4 8716   3.468   2.828   9.725  0.2673 -0.4352 -0.3815
  588TMC3    C5 8717   3.539   2.727   9.784  0.2037 -0.3113  0.2285
  588TMC3    C6 8718   3.527   2.599   9.730  0.2200 -0.1562  0.3184
  588TMC3     C 8719   3.310   2.928   9.579  0.3836  0.1186  0.7064
  588TMC3     O 8720   3.259   2.931   9.465 -0.3928 -0.1664  0.4592
  588TMC3     H 8721   3.296   2.664   9.501  1.0797  0.1750 -0.8712
  588TMC3    H1 8722   3.500   2.929   9.752 -0.8058 -0.2341  0.1474
  588TMC3    H2 8723   3.595   2.526   9.770  1.3715 -1.5184 -4.1356
  588TMC3    C7 8724   3.623   2.761   9.895  1.0910  0.0686  0.5310
  588TMC3    C8 8725   3.388   2.460   9.614 -0.2812 -0.7392 -0.2962
  588TMC3    O1 8726   3.726   2.701   9.913 -0.5886 -0.9665  0.1644
  588TMC3    O2 8727   3.342   2.433   9.506 -0.4915  0.3318  0.3924
  589TMC3    C1 8728   2.669   1.002   1.583  0.5249 -0.6186 -0.0753
  589TMC3    C2 8729   2.800   1.004   1.619  0.2725  0.2373  0.3607
  589TMC3    C3 8730   2.891   0.929   1.550 -0.9797 -0.0562 -0.5155
  589TMC3    C4 8731   2.621   0.910   1.484  0.1596 -0.0279 -0.3947
  589TMC3    C5 8732   2.713   0.832   1.419 -0.8557 -0.3259 -0.0253
  589TMC3    C6 8733   2.843   0.840   1.449  0.1838 -0.5228 -1.3139
  589TMC3     C 8734   2.564   1.081   1.646 -0.1864  0.1498  0.1182
  589TMC3     O 8735   2.456   1.034   1.626  0.2987 -0.3476 -0.2807
  589TMC3     H 8736   2.835   1.069   1.699  1.2505 -1.2467  1.1403
  589TMC3    H1 8737   2.516   0.889   1.466 -0.1851 -0.5680  2.3232
  589TMC3    H2 8738   2.905   0.778   1.385  3.1762  0.5448  0.5524
  589TMC3    C7 8739   2.671   0.730   1.328  0.2209  0.0313 -0.0554
  589TMC3    C8 8740   3.029   0.925   1.603  0.8432 -0.4419  0.3784
  589TMC3    O1 8741   2.755   0.646   1.299  0.4710  0.5850 -0.1458
  589TMC3    O2 8742   3.049   0.960   1.722 -0.2973 -0.2782  0.1092
  590MPD2     C 8743   2.134   3.218  16.721 -0.3298 -0.1990  0.2625
  590MPD2    C1 8744   2.074   3.243  16.602 -0.9393  0.1326 -0.5696
  590MPD2    C2 8745   2.143   3.329  16.515 -0.1003 -0.4296 -0.5446
  590MPD2    C3 8746   2.274   3.365  16.542 -0.0973  0.1710 -0.4296
  590MPD2    C4 8747   2.334   3.324  16.658  0.0443  0.5724 -0.3767
  590MPD2    C5 8748   2.258   3.255  16.746  0.2297 -0.3147  0.1773
  590MPD2     H 8749   2.101   3.368  16.423 -1.2079  0.5525  0.3872
  590MPD2    H1 8750   2.439   3.343  16.680  0.1702  0.3836 -0.8135
  590MPD2    H2 8751   2.085   3.179  16.809  1.1186 -2.9919 -0.1560
  590MPD2    H3 8752   2.299   3.217  16.839  0.4593  0.9917  0.6138
  590MPD2     N 8753   2.344   3.440  16.451 -0.3790  0.3092  0.6380
  590MPD2    H5 8754   2.315   3.454  16.355 -2.2097  0.0768  1.1408
  590MPD2    N1 8755   1.942   3.196  16.573  0.3644 -0.3038  0.1630
  590MPD2    H7 8756   1.891   3.169  16.656  0.9397  0.4535  0.7666
  591TMC3    C1 8757   2.499   3.575  16.357 -0.3836  0.1717  0.4608
  591TMC3    C2 8758   2.483   3.507  16.237  0.1218  0.3390 -0.2011
  591TMC3    C3 8759   2.481   3.585  16.122 -0.4975 -0.3124  0.3261
  591TMC3    C4 8760   2.478   3.710  16.370 -0.1404 -0.1991 -0.1842
  591TMC3    C5 8761   2.464   3.790  16.253 -0.2458  0.1047 -0.5376
  591TMC3    C6 8762   2.482   3.726  16.133  0.5305 -0.2754 -0.5040
  591TMC3     C 8763   2.458   3.508  16.476  0.4088 -0.4391 -0.0534
  591TMC3     O 8764   2.519   3.540  16.577  0.5866  0.5813  0.5663
  591TMC3     H 8765   2.482   3.399  16.231  0.5032  0.1959  2.1354
  591TMC3    H1 8766   2.453   3.757  16.464 -0.8020  1.4730 -1.1939
  591TMC3    H2 8767   2.487   3.793  16.049  2.1643 -0.1850 -0.3365
  591TMC3    C7 8768   2.373   3.896  16.264 -0.0284  0.1302  0.0832
  591TMC3    C8 8769   2.452   3.515  15.998 -0.5839  0.5108  0.2645
  591TMC3    O1 8770   2.270   3.872  16.323 -0.1229 -0.2636  0.9190
  591TMC3    O2 8771   2.448   3.395  16.008  0.1078  0.3280  0.3157
  592MPD2     C 8772   1.970   0.991  11.635  0.7246  0.1390 -0.2904
  592MPD2    C1 8773   2.039   0.964  11.753 -0.0335 -0.1812 -0.7885
  592MPD2    C2 8774   2.018   0.849  11.825  0.4374 -0.0744 -0.1023
  592MPD2    C3 8775   1.919   0.761  11.790 -0.3751  0.4257  0.5012
  592MPD2    C4 8776   1.856   0.780  11.673 -0.0132  0.0552  0.8572
  592MPD2    C5 8777   1.877   0.899  11.601  0.1640 -0.5426 -0.1320
  592MPD2     H 8778   2.089   0.819  11.902 -1.2375 -2.0556  0.6738
  592MPD2    H1 8779   1.781   0.720  11.622  0.0382  0.2395  0.5632
  592MPD2    H2 8780   1.997   1.075  11.572  0.0546  1.4035  1.0846
  592MPD2    H3 8781   1.824   0.924  11.511 -0.7896 -2.7498 -0.1784
  592MPD2     N 8782   1.898   0.647  11.874  0.4443  0.0271 -0.3686
  592MPD2    H5 8783   1.963   0.648  11.951 -0.1555  0.4690  0.1232
  592MPD2    N1 8784   2.159   1.044  11.770  0.0996  0.5773 -0.1251
  592MPD2    H7 8785   2.182   1.126  11.714  3.4301 -0.8174 -0.8312
  593TMC3    C1 8786   2.368   1.094  11.849 -0.4030  0.0951 -0.3445
  593TMC3    C2 8787   2.429   1.136  11.960  0.0922 -0.0312  0.2199
  593TMC3    C3 8788   2.546   1.213  11.949 -0.2716  0.6037  0.1973
  593TMC3    C4 8789   2.395   1.149  11.724 -1.2055  0.0465 -1.0292
  593TMC3    C5 8790   2.511   1.229  11.717  0.2698 -0.1261  0.5254
  593TMC3    C6 8791   2.587   1.264  11.827 -0.0067  0.3665 -0.9882
  593TMC3     C 8792   2.254   1.017  11.868  0.2064  0.1772  0.1897
  593TMC3     O 8793   2.256   0.934  11.960  0.7138 -0.0101  0.4913
  593TMC3     H 8794   2.396   1.093  12.053  1.3697 -0.6961  0.3721
  593TMC3    H1 8795   2.334   1.130  11.636 -0.4555  1.0263 -1.7559
  593TMC3    H2 8796   2.678   1.319  11.808  0.2355  0.0440 -0.7579
  593TMC3    C7 8797   2.530   1.323  11.611  0.1429 -0.0267 -0.3322
  593TMC3    C8 8798   2.547   1.302  12.066 -0.4523 -0.0916 -0.1989
  593TMC3    O1 8799   2.622   1.404  11.623  0.2525  0.5890  0.0738
  593TMC3    O2 8800   2.444   1.307  12.139 -0.2227 -1.2002 -0.2588
  594MPD2     C 8801   1.268   4.492  13.960 -0.1871 -0.6193 -0.3236
  594MPD2    C1 8802   1.274   4.476  14.100 -0.5200 -0.0047 -0.3546
  594MPD2    C2 8803   1.379   4.522  14.172 -0.0598  1.0315 -0.2376
  594MPD2    C3 8804   1.480   4.590  14.108  0.2448 -0.4286 -0.3123
  594MPD2    C4 8805   1.463   4.631  13.973  0.4886  0.4485  0.0405
  594MPD2    C5 8806   1.357   4.577  13.906 -0.1900  0.1790 -0.1486
  594MPD2     H 8807   1.392   4.504  14.278 -1.1272 -4.2160 -0.9928
  594MPD2    H1 8808   1.536   4.694  13.923 -0.7865  1.3520 -0.6784
  594MPD2    H2 8809   1.181   4.462  13.902  0.8999 -1.9923 -1.2537
  594MPD2    H3 8810   1.340   4.607  13.803 -2.3355 -0.1836  0.0902
  594MPD2     N 8811   1.585   4.646  14.182 -0.5134 -0.4100  0.9061
  594MPD2    H5 8812   1.580   4.654  14.283  1.8442  0.4051  0.9588
  594MPD2    N1 8813   1.161   4.417  14.156 -0.3016 -0.1014 -0.5976
  594MPD2    H7 8814   1.084   4.400  14.092 -1.6939  0.4427  0.9413
  595TMC3    C1 8815   1.924   0.213  14.295 -0.8760 -0.0943  1.0927
  595TMC3    C2 8816   1.865   0.124  14.204 -0.3135  0.3579 -0.5600
  595TMC3    C3 8817   1.730   0.092  14.214 -0.1755 -0.5856  0.1948
  595TMC3    C4 8818   1.839   0.289  14.368 -0.2681  0.3392 -0.3914
  595TMC3    C5 8819   1.703   0.265  14.362  0.0344 -0.3205  0.8856
  595TMC3    C6 8820   1.644   0.169  14.286  0.3997  0.0787 -0.8336
  595TMC3     C 8821   2.067   0.241  14.310  0.5411  0.3305  0.3159
  595TMC3     O 8822   2.107   0.303  14.409  0.3828  0.0177 -0.5807
  595TMC3     H 8823   1.924   0.052  14.149 -0.2526  0.1962 -0.2821
  595TMC3    H1 8824   1.875   0.381  14.412  0.5431  0.1893 -0.7362
  595TMC3    H2 8825   1.543   0.138  14.313  0.4248  0.9728  0.2929
  595TMC3    C7 8826   1.611   0.324  14.458  0.6667  0.3688  0.9395
  595TMC3    C8 8827   1.692   4.706  14.124 -0.1400 -0.3255 -0.4006
  595TMC3    O1 8828   1.489   0.310  14.433 -0.0687  0.2454 -0.3448
  595TMC3    O2 8829   1.750   4.690  14.019 -0.2775 -0.2124 -0.1600
  596MPD2     C 8830   0.500   2.316  16.976 -0.0969 -0.5022 -0.2683
  596MPD2    C1 8831   0.508   2.435  16.902 -0.3331  0.4484 -0.7946
  596MPD2    C2 8832   0.528   2.419  16.767 -0.6676  1.0082 -0.3449
  596MPD2    C3 8833   0.538   2.298  16.704  0.1769 -0.7487  0.0229
  596MPD2    C4 8834   0.539   2.183  16.782  0.5512  0.1496  0.3479
  596MPD2    C5 8835   0.514   2.193  16.920 -0.4359 -0.2850 -0.3667
  596MPD2     H 8836   0.519   2.515  16.716  0.6733  0.9866 -0.6196
  596MPD2    H1 8837   0.548   2.083  16.739 -0.5273  0.4242 -0.5273
  596MPD2    H2 8838   0.476   2.313  17.082 -1.6261 -0.8945 -0.6348
  596MPD2    H3 8839   0.515   2.102  16.979 -0.7303  0.7015  1.1575
  596MPD2     N 8840   0.564   2.278  16.567  0.1993  0.2440  0.3483
  596MPD2    H5 8841   0.539   2.189  16.525 -1.4562  0.7153  0.3465
  596MPD2    N1 8842   0.481   2.565  16.947  0.0980 -0.2112 -0.2151
  596MPD2    H7 8843   0.507   2.640  16.884 -0.0541 -1.2428 -1.5075
  597TMC3    C1 8844   0.439   2.733  17.113  0.3743 -0.2991  0.7327
  597TMC3    C2 8845   0.530   2.817  17.047 -0.3207 -0.1494 -0.1034
  597TMC3    C3 8846   0.527   2.947  17.081  0.6442  0.7167  0.6841
  597TMC3    C4 8847   0.339   2.783  17.194 -0.2930 -0.2539  0.3123
  597TMC3    C5 8848   0.334   2.919  17.208  0.3656 -0.4908  0.1922
  597TMC3    C6 8849   0.429   2.996  17.151  0.1102 -0.5362 -0.0886
  597TMC3     C 8850   0.434   2.594  17.075  0.1025 -0.2581  0.3355
  597TMC3     O 8851   0.391   2.515  17.156  0.6923  0.0052  0.2904
  597TMC3     H 8852   0.612   2.772  16.991  0.0458 -0.1396  0.4210
  597TMC3    H1 8853   0.268   2.713  17.237 -1.4231 -0.2791 -1.5674
  597TMC3    H2 8854   0.420   3.104  17.155 -0.3313 -0.6013  0.6037
  597TMC3    C7 8855   0.203   2.966  17.276 -0.4739 -0.0986 -0.5005
  597TMC3    C8 8856   0.584   3.024  16.978 -0.2672  0.4686  0.2046
  597TMC3    O1 8857   0.113   2.880  17.277 -1.0488 -0.2975  0.0586
  597TMC3    O2 8858   0.507   3.096  16.911 -0.2580  0.1647 -0.1144
  598TMC3    C1 8859   3.043   3.869  15.383  0.3832  0.3490 -0.3383
  598TMC3    C2 8860   2.924   3.802  15.367  0.4447  0.8477  0.2073
  598TMC3    C3 8861   2.858   3.834  15.255 -0.1308 -0.0469 -0.8244
  598TMC3    C4 8862   3.086   3.972  15.308  0.2590  0.4743  0.2247
  598TMC3    C5 8863   3.020   3.993  15.192 -0.0746 -0.0059  0.4581
  598TMC3    C6 8864   2.900   3.932  15.160  0.1595 -0.2507  0.2326
  598TMC3     C 8865   3.107   3.841  15.507 -0.2070  0.2316 -0.3097
  598TMC3     O 8866   3.183   3.926  15.551 -0.0058 -0.0354  0.2130
  598TMC3     H 8867   2.894   3.710  15.416  2.7893  0.2592  0.5512
  598TMC3    H1 8868   3.177   4.023  15.336 -0.6972  2.7911 -0.9274
  598TMC3    H2 8869   2.839   3.966  15.076 -2.9722 -0.3860  2.4409
  598TMC3    C7 8870   3.078   4.076  15.092  0.2403  0.4689  0.1264
  598TMC3    C8 8871   2.738   3.753  15.220  0.0960 -0.7170  0.1473
  598TMC3    O1 8872   3.019   4.070  14.982  0.3054 -0.1021 -0.2623
  598TMC3    O2 8873   2.687   3.705  15.322  0.0798 -0.0403 -0.3007
  599MPD2     C 8874   3.518   1.598  16.292 -0.7779 -0.2072 -0.2426
  599MPD2    C1 8875   3.449   1.479  16.265  0.4500 -0.6405 -0.3594
  599MPD2    C2 8876   3.316   1.472  16.299 -0.2830  0.2435  0.0258
  599MPD2    C3 8877   3.247   1.579  16.353  0.7034  0.5081 -0.0863
  599MPD2    C4 8878   3.312   1.694  16.380 -0.3013  0.3528 -0.4999
  599MPD2    C5 8879   3.450   1.700  16.351  0.9631 -0.2681 -0.2029
  599MPD2     H 8880   3.275   1.372  16.288 -0.5759  0.3851 -0.1639
  599MPD2    H1 8881   3.272   1.771  16.445  1.7718  0.3924  0.7477
  599MPD2    H2 8882   3.626   1.607  16.285 -0.8899  2.8894  1.9802
  599MPD2    H3 8883   3.500   1.794  16.373  0.2375 -0.1251  0.8839
  599MPD2     N 8884   3.120   1.579  16.404  0.0577 -0.2569 -0.0255
  599MPD2    H5 8885   3.077   1.665  16.437 -3.9968 -2.5048  0.5472
  599MPD2    N1 8886   3.523   1.373  16.216  0.3508 -0.2132  0.3337
  599MPD2    H7 8887   3.622   1.390  16.200 -0.4560  3.4635 -0.7999
  600TMC3    C1 8888   2.923   1.507  16.473 -0.9064 -0.0621  0.6536
  600TMC3    C2 8889   2.879   1.405  16.561  0.3457  0.2432  0.4489
  600TMC3    C3 8890   2.765   1.421  16.621  0.9497 -0.2421 -0.4739
  600TMC3    C4 8891   2.858   1.626  16.460 -0.2517  0.3488  0.4000
  600TMC3    C5 8892   2.741   1.638  16.533 -0.5022  0.4930  0.1369
  600TMC3    C6 8893   2.692   1.536  16.612  0.0410 -0.6148 -0.0503
  600TMC3     C 8894   3.048   1.469  16.410 -0.4799  0.3348  0.0722
  600TMC3     O 8895   3.080   1.348  16.425  0.1441  0.3492  0.2197
  600TMC3     H 8896   2.920   1.305  16.576  0.0257 -0.3108 -2.3694
  600TMC3    H1 8897   2.896   1.705  16.396 -0.3615  0.6385  0.6962
  600TMC3    H2 8898   2.604   1.555  16.672 -0.3952  0.4718 -1.0521
  600TMC3    C7 8899   2.681   1.767  16.552  0.2897 -0.5583 -0.6182
  600TMC3    C8 8900   2.731   1.308  16.712 -0.4103 -0.1030  0.2678
  600TMC3    O1 8901   2.592   1.771  16.636 -0.7903  0.1891 -0.6261
  600TMC3    O2 8902   2.818   1.273  16.789 -0.1022 -0.6875  0.5328
  601MPD2     C 8903   0.650   0.202   0.082 -0.6513 -0.0427  0.3505
  601MPD2    C1 8904   0.567   0.102   0.039  0.6548  0.3885  0.2604
  601MPD2    C2 8905   0.587   4.699   0.097  0.4606 -0.2490  0.6210
  601MPD2    C3 8906   0.688   4.668   0.186  0.4513 -0.0355 -0.6855
  601MPD2    C4 8907   0.778   0.043   0.218  0.2831 -0.0932  0.4312
  601MPD2    C5 8908   0.753   0.170   0.172  0.7522 -0.0553  0.5263
  601MPD2     H 8909   0.528   4.623   0.046 -0.1212  1.1345 -0.7569
  601MPD2    H1 8910   0.857   0.027   0.290 -0.4829 -2.7161  0.6688
  601MPD2    H2 8911   0.640   0.303   0.044 -1.1288 -0.6019 -1.0183
  601MPD2    H3 8912   0.816   0.250   0.208  0.4466  0.7032 -0.6506
  601MPD2     N 8913   0.706   4.537   0.246 -0.1401  0.4574 -0.0992
  601MPD2    H5 8914   0.797   4.512   0.283  0.4314 -0.5022 -2.1376
  601MPD2    N1 8915   0.477   0.113  17.629 -0.4477 -0.2294  0.3462
  601MPD2    H7 8916   0.418   0.033  17.610  1.2516 -1.3088 -0.4392
  602TMC3    C1 8917   0.401   0.197  17.430  0.4306 -0.3921 -0.2152
  602TMC3    C2 8918   0.488   0.225  17.328  0.2943  0.0642 -0.7836
  602TMC3    C3 8919   0.486   0.149  17.217 -0.3266 -0.0645  0.5434
  602TMC3    C4 8920   0.313   0.094  17.416 -0.0278 -0.0971 -0.1508
  602TMC3    C5 8921   0.309   0.021  17.301 -0.2358 -0.2232  0.1143
  602TMC3    C6 8922   0.397   0.048  17.196 -0.6156  0.0314 -0.0860
  602TMC3     C 8923   0.460   0.225  17.549 -0.3332  0.1437 -0.6049
  602TMC3     O 8924   0.523   0.330  17.550  0.7308 -0.1109 -0.2871
  602TMC3     H 8925   0.561   0.305  17.338  0.0895  0.0678  0.6581
  602TMC3    H1 8926   0.242   0.065  17.493 -2.5935  1.6026 -1.8977
  602TMC3    H2 8927   0.390   4.715  17.104 -0.4020  0.4466 -0.3577
  602TMC3    C7 8928   0.195   4.674  17.250 -0.5838  0.3245 -0.1262
  602TMC3    C8 8929   0.546   0.200  17.092  0.2132  0.1453 -0.1278
  602TMC3    O1 8930   0.167   4.560  17.298 -0.1117 -0.3439  0.4850
  602TMC3    O2 8931   0.670   0.196  17.080 -0.2699 -0.2027  0.3984
  603TMC3    C1 8932   2.951   0.610  11.353  0.2795 -0.0246  0.0729
  603TMC3    C2 8933   2.990   0.569  11.478 -0.2923 -0.4480  0.0304
  603TMC3    C3 8934   3.125   0.539  11.495  0.3807  0.5817 -0.3176
  603TMC3    C4 8935   3.044   0.628  11.256  0.0115  0.3491 -0.0083
  603TMC3    C5 8936   3.176   0.611  11.281 -0.1452 -0.4835 -0.2714
  603TMC3    C6 8937   3.220   0.573  11.404  0.5145  0.1398 -0.1428
  603TMC3     C 8938   2.810   0.637  11.338  0.3606  0.3212 -0.5984
  603TMC3     O 8939   2.746   0.665  11.439  0.0270 -0.4840 -0.1169
  603TMC3     H 8940   2.911   0.528  11.541 -0.2465  1.2100  1.1700
  603TMC3    H1 8941   3.013   0.675  11.163  1.0748  0.9626 -0.0590
  603TMC3    H2 8942   3.319   0.531  11.418 -0.0951 -1.8616 -1.8293
  603TMC3    C7 8943   3.276   0.641  11.180  0.4178 -0.2664  0.3868
  603TMC3    C8 8944   3.167   0.493  11.625  0.0693 -0.5641  0.0502
  603TMC3    O1 8945   3.382   0.686  11.215  0.1491  0.0476 -0.7570
  603TMC3    O2 8946   3.280   0.447  11.626  0.1497  0.2979  0.0793
  604MPD2     C 8947   4.415   3.271  16.333 -0.1938 -0.7535 -0.0871
  604MPD2    C1 8948   4.356   3.341  16.231  0.0362 -0.1720  0.0468
  604MPD2    C2 8949   4.386   3.328  16.096  0.7166 -0.0263  0.5100
  604MPD2    C3 8950   4.490   3.239  16.068  0.1803  0.3309  0.7120
  604MPD2    C4 8951   4.542   3.163  16.171  0.4681  0.2439  0.9126
  604MPD2    C5 8952   4.508   3.177  16.299  0.7365 -0.0350 -0.7006
  604MPD2     H 8953   4.332   3.382  16.019 -1.6849 -3.3344 -0.0856
  604MPD2    H1 8954   4.616   3.087  16.149  1.2487  0.9411  1.1413
  604MPD2    H2 8955   4.388   3.288  16.436 -2.0185  0.0198 -0.6905
  604MPD2    H3 8956   4.549   3.111  16.374 -0.2590 -1.7637 -1.6877
  604MPD2     N 8957   4.531   3.223  15.931 -0.4559 -0.4145 -0.3038
  604MPD2    H5 8958   4.473   3.264  15.859 -1.3500  0.7015  1.0557
  604MPD2    N1 8959   4.266   3.432  16.276 -0.0984  0.0468  0.2871
  604MPD2    H7 8960   4.258   3.444  16.377 -0.0772 -0.5553  0.3600
  605TMC3    C1 8961   4.135   3.615  16.279 -0.1146  0.0717  0.5552
  605TMC3    C2 8962   4.234   3.685  16.338 -0.6252  0.4106  0.1264
  605TMC3    C3 8963   4.203   3.816  16.363 -0.2253  0.7045  0.1806
  605TMC3    C4 8964   4.019   3.671  16.240  0.4736  0.0836 -0.4872
  605TMC3    C5 8965   3.985   3.803  16.264 -0.2336  0.1620 -0.0783
  605TMC3    C6 8966   4.081   3.878  16.328 -0.5984  0.0506  0.7670
  605TMC3     C 8967   4.176   3.500  16.201 -0.0272 -0.3817  0.1400
  605TMC3     O 8968   4.134   3.493  16.080 -0.7482  0.1290 -0.8020
  605TMC3     H 8969   4.335   3.649  16.353 -0.7656 -0.2946 -0.6266
  605TMC3    H1 8970   3.944   3.612  16.190 -2.8408  2.9112  1.0934
  605TMC3    H2 8971   4.066   3.985  16.335 -0.6578  0.1527 -0.9998
  605TMC3    C7 8972   3.852   3.864  16.247  0.0363 -0.2102 -0.6057
  605TMC3    C8 8973   4.306   3.893  16.432 -0.4459 -0.7766  0.1809
  605TMC3    O1 8974   3.845   3.987  16.226 -0.1359 -0.1755 -0.0434
  605TMC3    O2 8975   4.411   3.840  16.455  0.5531 -0.1521 -0.3463
  606TMC3    C1 8976   0.795   2.514  17.160 -0.7647  0.7091  0.2342
  606TMC3    C2 8977   0.755   2.563  17.276  0.1110 -0.2298 -0.7542
  606TMC3    C3 8978   0.700   2.478  17.368  0.0691  0.2392  0.7389
  606TMC3    C4 8979   0.785   2.379  17.122 -0.2944 -0.2825 -0.5531
  606TMC3    C5 8980   0.741   2.292  17.219 -0.1675 -0.5352 -0.7346
  606TMC3    C6 8981   0.685   2.344  17.335  0.0731  0.4158 -0.1164
  606TMC3     C 8982   0.846   2.609  17.064  0.5234 -0.9455  0.1389
  606TMC3     O 8983   0.865   2.723  17.103 -0.3006 -0.2507 -0.0898
  606TMC3     H 8984   0.780   2.665  17.304 -0.2154  0.1020 -1.6678
  606TMC3    H1 8985   0.813   2.344  17.023 -1.1500 -0.6828 -0.6525
  606TMC3    H2 8986   0.663   2.271  17.413  0.2661  1.1387  0.6108
  606TMC3    C7 8987   0.720   2.159  17.178  0.3740  0.4658 -0.4579
  606TMC3    C8 8988   0.719   2.509  17.512  0.3861  1.0692  0.0866
  606TMC3    O1 8989   0.795   2.119  17.090 -0.3918  0.0237 -0.0695
  606TMC3    O2 8990   0.794   2.602  17.541  0.8565  0.0998 -0.1609
  607MPD2     C 8991   2.159   0.266  11.920 -0.5267 -0.2384  0.5490
  607MPD2    C1 8992   2.221   0.378  11.978 -0.1196  0.8339 -0.5519
  607MPD2    C2 8993   2.265   0.369  12.104 -0.2397 -0.3960 -0.3329
  607MPD2    C3 8994   2.243   0.251  12.178  0.2819 -1.0165 -0.4657
  607MPD2    C4 8995   2.191   0.141  12.122 -0.0530 -0.2287  0.1316
  607MPD2    C5 8996   2.140   0.156  11.996  0.4502  0.3324 -0.1158
  607MPD2     H 8997   2.318   0.450  12.154 -2.4538  1.0459 -0.2999
  607MPD2    H1 8998   2.185   0.047  12.177 -1.0556  0.7058  1.6243
  607MPD2    H2 8999   2.130   0.256  11.816 -0.8857 -0.0595  0.6347
  607MPD2    H3 9000   2.071   0.085  11.953 -1.3605  1.7936  0.3413
  607MPD2     N 9001   2.299   0.258  12.310 -0.0519  0.0063  0.3337
  607MPD2    H5 9002   2.337   0.348  12.338  0.2635  0.8021 -2.5852
  607MPD2    N1 9003   2.254   0.496  11.907  0.7900  0.2251 -0.2082
  607MPD2    H7 9004   2.292   0.573  11.962  0.2026 -0.1669  0.7557
  608TMC3    C1 9005   2.329   0.640  11.749  0.1041  0.1190  0.7401
  608TMC3    C2 9006   2.450   0.657  11.811  0.5109  0.1251  0.2356
  608TMC3    C3 9007   2.526   0.764  11.775 -0.2138 -0.1265 -0.0695
  608TMC3    C4 9008   2.288   0.715  11.641  0.7351 -0.4282 -0.0077
  608TMC3    C5 9009   2.367   0.816  11.606 -1.2063  0.2636 -0.2945
  608TMC3    C6 9010   2.489   0.844  11.672  0.0974 -0.3956  0.2384
  608TMC3     C 9011   2.254   0.516  11.771 -0.2135  0.4928  0.7278
  608TMC3     O 9012   2.190   0.466  11.682 -0.3395 -0.4698  0.3126
  608TMC3     H 9013   2.475   0.576  11.879  2.8116  2.4790  2.1740
  608TMC3    H1 9014   2.199   0.683  11.587  0.5035  1.3421 -0.6953
  608TMC3    H2 9015   2.545   0.930  11.638 -0.2640 -0.2415  0.0326
  608TMC3    C7 9016   2.353   0.883  11.475  0.1447 -0.4033 -0.4341
  608TMC3    C8 9017   2.624   0.820  11.870 -0.3277  0.3104 -0.7509
  608TMC3    O1 9018   2.448   0.956  11.443 -0.1314 -0.3594  0.1442
  608TMC3    O2 9019   2.707   0.895  11.821  0.2912 -0.4285 -0.0130
  609TMC3    C1 9020   1.316   4.608   9.281  0.0604  0.5372  0.0768
  609TMC3    C2 9021   1.346   0.022   9.281  0.0588 -0.4353 -0.2419
  609TMC3    C3 9022   1.477   0.049   9.274  0.0059 -0.0085  1.1514
  609TMC3    C4 9023   1.419   4.515   9.269  0.4908 -0.1883  0.4289
  609TMC3    C5 9024   1.549   4.556   9.254 -0.3343  0.3059  0.6075
  609TMC3    C6 9025   1.579   4.684   9.270  0.3916  0.1813 -0.6587
  609TMC3     C 9026   1.191   4.569   9.347 -0.5206  0.4400 -0.1581
  609TMC3     O 9027   1.205   4.465   9.413 -0.3744 -0.1668 -0.4307
  609TMC3     H 9028   1.269   0.094   9.307  1.5460  1.3651 -0.9087
  609TMC3    H1 9029   1.396   4.410   9.279 -1.5360  0.2947  0.8334
  609TMC3    H2 9030   1.681   4.722   9.268 -0.4984  2.5796 -1.3955
  609TMC3    C7 9031   1.659   4.466   9.276 -0.2789 -0.1192 -0.0256
  609TMC3    C8 9032   1.500   0.200   9.290 -0.5225 -0.0723 -0.8844
  609TMC3    O1 9033   1.762   4.504   9.327 -0.8297 -0.1526 -0.2742
  609TMC3    O2 9034   1.403   0.278   9.284  0.3642 -0.0421 -0.4165
  610TMC3    C1 9035   2.952   0.528  12.820 -0.1413 -0.0188  0.6018
  610TMC3    C2 9036   3.001   0.602  12.718 -0.7689  0.4731 -0.0335
  610TMC3    C3 9037   3.136   0.610  12.701 -0.3685 -0.1399 -0.0712
  610TMC3    C4 9038   3.043   0.453  12.890 -0.9171 -0.0346 -0.2974
  610TMC3    C5 9039   3.176   0.455  12.866  0.5595 -0.7000 -0.2004
  610TMC3    C6 9040   3.228   0.544  12.767 -0.9164  0.0523 -0.5565
  610TMC3     C 9041   2.805   0.505  12.821  0.2183  0.1928 -0.5510
  610TMC3     O 9042   2.744   0.547  12.723  0.1095 -0.0539  0.6835
  610TMC3     H 9043   2.936   0.650  12.646 -0.1328 -2.6741 -2.7159
  610TMC3    H1 9044   3.001   0.394  12.971 -2.0245  0.3464 -0.5982
  610TMC3    H2 9045   3.334   0.563  12.755 -0.6116 -0.6134  0.9483
  610TMC3    C7 9046   3.263   0.343  12.906  0.3584  0.2864  0.5870
  610TMC3    C8 9047   3.173   0.684  12.583 -0.2470 -0.2201 -0.0288
  610TMC3    O1 9048   3.369   0.363  12.958  0.1696  0.3206  0.5972
  610TMC3    O2 9049   3.104   0.784  12.548  0.2264  0.0703 -0.1441
  611MPD2     C 9050   2.239   0.860  10.408 -0.9422  0.0530 -0.7068
  611MPD2    C1 9051   2.304   0.744  10.448 -0.0602 -0.5509 -0.4090
  611MPD2    C2 9052   2.438   0.735  10.408 -0.2160  0.5660 -0.4236
  611MPD2    C3 9053   2.501   0.847  10.363 -0.0981 -0.2814 -1.0127
  611MPD2    C4 9054   2.435   0.959  10.329 -0.8313  0.0103  0.1130
  611MPD2    C5 9055   2.306   0.962  10.349  0.4537  0.8800  0.5218
  611MPD2     H 9056   2.495   0.644  10.423 -2.4621 -0.5568  1.1347
  611MPD2    H1 9057   2.487   1.046  10.289 -0.7263 -0.5684 -1.0105
  611MPD2    H2 9058   2.133   0.878  10.418 -0.7536  0.6199  0.1958
  611MPD2    H3 9059   2.252   1.046  10.306 -0.6730 -1.4568 -2.5622
  611MPD2     N 9060   2.640   0.840  10.331 -0.1195  0.3979 -0.3306
  611MPD2    H5 9061   2.689   0.911  10.279  0.5919  0.0235 -0.1741
  611MPD2    N1 9062   2.222   0.636  10.493 -0.0223  0.2477  0.6697
  611MPD2    H7 9063   2.126   0.665  10.508  0.0275  0.3482  0.7923
  612TMC3    C1 9064   2.865   0.787  10.337 -1.1628 -0.6584  0.3776
  612TMC3    C2 9065   2.965   0.788  10.433  0.0295 -0.3723 -0.6875
  612TMC3    C3 9066   3.080   0.861  10.400 -1.0359 -0.3719  0.0641
  612TMC3    C4 9067   2.882   0.854  10.219 -0.2812  0.0367  0.5673
  612TMC3    C5 9068   2.996   0.927  10.195 -0.1300 -0.5842 -0.6713
  612TMC3    C6 9069   3.098   0.931  10.283 -0.3444 -0.2626 -0.1118
  612TMC3     C 9070   2.731   0.756  10.382  0.5441  0.8386  0.1842
  612TMC3     O 9071   2.725   0.658  10.456 -0.0521 -0.4631  0.2489
  612TMC3     H 9072   2.946   0.744  10.530 -2.1312 -0.0999 -0.9987
  612TMC3    H1 9073   2.810   0.841  10.139 -0.1170 -0.4132  0.4905
  612TMC3    H2 9074   3.163   1.017  10.282 -2.3105  1.2092  0.2489
  612TMC3    C7 9075   2.993   1.022  10.079 -0.1067  0.2331  0.5757
  612TMC3    C8 9076   3.193   0.856  10.488  0.4778  0.1838 -0.4384
  612TMC3    O1 9077   2.884   1.023  10.027  0.1137 -0.1508 -0.6044
  612TMC3    O2 9078   3.299   0.904  10.451  0.4293 -0.6600 -0.1788
  613MPD2     C 9079   1.864   1.751  16.436  0.4730  0.2677  0.0731
  613MPD2    C1 9080   1.856   1.855  16.341 -0.4920 -0.2171  0.9633
  613MPD2    C2 9081   1.816   1.981  16.382 -0.1349 -0.0033 -0.2934
  613MPD2    C3 9082   1.802   2.010  16.520  0.6072 -0.4311 -0.1392
  613MPD2    C4 9083   1.827   1.915  16.620  0.4709  0.2197 -0.6891
  613MPD2    C5 9084   1.867   1.791  16.573 -0.1822  0.8391  0.8074
  613MPD2     H 9085   1.787   2.058  16.312 -1.4724 -0.0885  0.1560
  613MPD2    H1 9086   1.808   1.941  16.723  2.4875 -0.4333 -0.1670
  613MPD2    H2 9087   1.881   1.648  16.409  2.0391  0.2910  0.9260
  613MPD2    H3 9088   1.891   1.721  16.652  1.5806 -0.3095 -0.7706
  613MPD2     N 9089   1.745   2.127  16.567  0.4859  0.9712  0.0086
  613MPD2    H5 9090   1.706   2.127  16.660  0.5908 -1.9026  0.0625
  613MPD2    N1 9091   1.868   1.818  16.209  0.1260  0.1476  0.1272
  613MPD2    H7 9092   1.876   1.720  16.184 -0.1173  0.0303  0.5031
  614TMC3    C1 9093   1.772   1.843  16.000  0.3175  0.1186 -0.4487
  614TMC3    C2 9094   1.671   1.764  16.049 -0.4307 -0.2642 -0.2891
  614TMC3    C3 9095   1.551   1.785  15.988 -0.2062  0.4883 -0.5062
  614TMC3    C4 9096   1.752   1.930  15.900  0.3890 -0.3808  0.6040
  614TMC3    C5 9097   1.631   1.941  15.838 -0.2211 -0.1127 -0.3048
  614TMC3    C6 9098   1.535   1.852  15.869 -0.1734 -0.4949 -0.3329
  614TMC3     C 9099   1.838   1.908  16.106 -0.8445  0.0293  0.4628
  614TMC3     O 9100   1.845   2.030  16.107 -0.1062 -0.2463  0.5791
  614TMC3     H 9101   1.692   1.695  16.130  0.3050  0.4995  0.1788
  614TMC3    H1 9102   1.829   2.004  15.882 -0.6663  0.1988 -1.4979
  614TMC3    H2 9103   1.441   1.874  15.821 -0.7807 -0.6130  0.7942
  614TMC3    C7 9104   1.587   2.077  15.792 -0.2206 -0.5664  0.0396
  614TMC3    C8 9105   1.449   1.799  16.090  0.2897 -0.2165  0.7771
  614TMC3    O1 9106   1.492   2.075  15.714 -0.2616  0.5944 -0.1090
  614TMC3    O2 9107   1.472   1.774  16.211 -0.1743 -0.0067 -0.3568
  615MPD2     C 9108   1.068   3.698  16.056 -0.6281 -0.4295  0.3782
  615MPD2    C1 9109   0.987   3.776  16.139 -0.0716  0.2603 -0.5812
  615MPD2    C2 9110   0.854   3.785  16.112  0.1436 -0.0838  0.9155
  615MPD2    C3 9111   0.799   3.732  15.994 -0.5474  0.3398  0.3413
  615MPD2    C4 9112   0.881   3.664  15.914  0.6887  0.9392  0.3249
  615MPD2    C5 9113   1.011   3.638  15.947 -0.0545 -0.5812  0.1478
  615MPD2     H 9114   0.783   3.832  16.179 -0.1920 -0.0088  0.5046
  615MPD2    H1 9115   0.839   3.614  15.827  1.1772 -0.8152  1.1046
  615MPD2    H2 9116   1.173   3.672  16.062 -0.7056 -0.9231 -0.4270
  615MPD2    H3 9117   1.079   3.573  15.891  0.6562  0.7926 -0.5778
  615MPD2     N 9118   0.660   3.738  15.953  0.6565 -0.5732 -0.0764
  615MPD2    H5 9119   0.630   3.681  15.875 -0.3631  1.5441 -1.2303
  615MPD2    N1 9120   1.039   3.847  16.256  0.7319 -0.5445  0.0742
  615MPD2    H7 9121   0.972   3.895  16.314 -0.1543 -0.7788 -0.7631
  616TMC3    C1 9122   1.175   3.962  16.387  0.1566  0.5211  0.1023
  616TMC3    C2 9123   1.288   4.035  16.386  0.8300  0.1233 -0.1671
  616TMC3    C3 9124   1.330   4.107  16.489 -0.3531 -0.4327 -0.0087
  616TMC3    C4 9125   1.091   3.960  16.504  0.0952  0.5814 -0.6768
  616TMC3    C5 9126   1.133   4.046  16.605 -0.7224 -0.0962  0.1094
  616TMC3    C6 9127   1.255   4.110  16.600  0.0878  0.3558  0.4882
  616TMC3     C 9128   1.167   3.866  16.280  0.0653 -1.1160  0.0299
  616TMC3     O 9129   1.269   3.818  16.235 -0.3164  0.2131  0.4063
  616TMC3     H 9130   1.345   4.024  16.294  1.0536  0.9417 -0.1270
  616TMC3    H1 9131   1.008   3.893  16.522  0.8465 -0.2237 -0.1856
  616TMC3    H2 9132   1.298   4.141  16.695 -0.1401 -1.2481  1.1293
  616TMC3    C7 9133   1.082   4.024  16.736  0.5215  0.1293  0.5963
  616TMC3    C8 9134   1.435   4.204  16.475  0.2614  0.2823 -0.7340
  616TMC3    O1 9135   1.153   4.018  16.834 -0.2029 -0.0466 -0.3539
  616TMC3    O2 9136   1.523   4.195  16.557  0.2042  0.1842 -0.2252
  617MPD2     C 9137   3.512   1.978  13.840  0.1811 -0.5416 -0.8976
  617MPD2    C1 9138   3.562   1.930  13.962  0.6797 -0.2956  0.0097
  617MPD2    C2 9139   3.478   1.869  14.048 -0.2589 -0.8594 -0.0888
  617MPD2    C3 9140   3.345   1.861  14.017 -0.1797  0.0955 -0.0188
  617MPD2    C4 9141   3.294   1.909  13.902  0.3753 -0.4416  0.4956
  617MPD2    C5 9142   3.382   1.961  13.813 -0.1557  0.2128  0.0866
  617MPD2     H 9143   3.524   1.834  14.139 -2.0708 -0.6830  0.8917
  617MPD2    H1 9144   3.193   1.887  13.871  0.8179 -1.2469 -0.3675
  617MPD2    H2 9145   3.577   2.028  13.769  0.3278 -0.8515 -0.9813
  617MPD2    H3 9146   3.350   2.001  13.718 -1.3097 -1.1785 -0.0968
  617MPD2     N 9147   3.262   1.784  14.106  0.4161  0.5208  0.1323
  617MPD2    H5 9148   3.172   1.759  14.066 -0.5959 -0.0811  2.8035
  617MPD2    N1 9149   3.704   1.957  13.986  0.1755  0.1510 -0.0862
  617MPD2    H7 9150   3.759   2.003  13.914 -0.8003  0.8487 -0.3897
  618TMC3    C1 9151   3.920   1.935  14.072 -0.8965  0.5491  0.8817
  618TMC3    C2 9152   4.002   1.827  14.067 -0.3513  0.3405 -0.2071
  618TMC3    C3 9153   4.124   1.848  14.007 -0.2337 -0.0713 -0.2629
  618TMC3    C4 9154   3.960   2.058  14.021 -0.1394 -0.3538 -0.2594
  618TMC3    C5 9155   4.079   2.070  13.956 -0.9348 -0.1280  0.7827
  618TMC3    C6 9156   4.157   1.959  13.937 -0.2729 -0.0857 -0.0982
  618TMC3     C 9157   3.780   1.913  14.088 -0.2566 -0.2339  1.2123
  618TMC3     O 9158   3.743   1.840  14.179  0.5242  0.4171 -0.3133
  618TMC3     H 9159   3.961   1.730  14.096 -0.1595  0.3355  0.0537
  618TMC3    H1 9160   3.897   2.141  14.051  0.8350  0.8341 -1.5452
  618TMC3    H2 9161   4.238   1.958  13.865 -0.5686 -1.9045 -0.4008
  618TMC3    C7 9162   4.052   2.140  13.834 -0.4058  0.0006  0.5198
  618TMC3    C8 9163   4.182   1.728  13.950  0.3941 -0.1488  0.0260
  618TMC3    O1 9164   3.930   2.147  13.810 -0.1617 -0.4824  0.5744
  618TMC3    O2 9165   4.115   1.630  13.949  0.3312  0.1910  0.7130
  619MPD2     C 9166   0.461   3.000  14.033 -0.5269 -0.3899  0.9521
  619MPD2    C1 9167   0.473   3.022  13.899 -0.3269  0.3387 -0.2406
  619MPD2    C2 9168   0.373   2.974  13.818 -0.7810 -0.3234 -0.2275
  619MPD2    C3 9169   0.260   2.902  13.863 -0.0492 -0.3409  0.4780
  619MPD2    C4 9170   0.256   2.882  14.002 -0.3257  0.0286 -0.1371
  619MPD2    C5 9171   0.354   2.928  14.084 -0.9574  0.2778 -0.3298
  619MPD2     H 9172   0.383   3.007  13.716 -0.1996  0.3866  0.0620
  619MPD2    H1 9173   0.166   2.838  14.042 -2.5449  0.9335 -4.0692
  619MPD2    H2 9174   0.544   3.028  14.097 -1.0688 -0.1561  1.5578
  619MPD2    H3 9175   0.348   2.909  14.190 -0.1053  0.6717 -0.2071
  619MPD2     N 9176   0.152   2.878  13.772  0.8788  0.0587 -0.1468
  619MPD2    H5 9177   0.070   2.836  13.814  1.5149 -0.2738  0.7512
  619MPD2    N1 9178   0.566   3.092  13.826  0.1770  0.2519 -0.1290
  619MPD2    H7 9179   0.553   3.102  13.726  0.9547  0.5770 -0.1955
  620TMC3    C1 9180   0.698   3.277  13.776  0.1508 -1.0697 -0.5683
  620TMC3    C2 9181   0.656   3.274  13.641  0.1708  0.4657 -0.3997
  620TMC3    C3 9182   0.700   3.364  13.554  0.5102 -0.0042  0.0529
  620TMC3    C4 9183   0.790   3.372  13.816  0.4129 -1.0873  1.0686
  620TMC3    C5 9184   0.839   3.458  13.720 -0.1730  0.0213  0.5842
  620TMC3    C6 9185   0.796   3.458  13.590 -0.4546  0.3531  0.0378
  620TMC3     C 9186   0.660   3.178  13.884 -0.5549  0.1812  0.3809
  620TMC3     O 9187   0.704   3.176  13.997  0.5987 -0.2835  0.6059
  620TMC3     H 9188   0.575   3.208  13.614 -1.9456  2.2252  1.6570
  620TMC3    H1 9189   0.815   3.385  13.921  0.4801 -0.9799  1.0392
  620TMC3    H2 9190   0.848   3.507  13.508 -2.7530  0.0257 -1.6147
  620TMC3    C7 9191   0.864   3.590  13.773 -0.1802 -0.5951  0.4783
  620TMC3    C8 9192   0.594   3.432  13.479  0.4798 -0.5660  0.1263
  620TMC3    O1 9193   0.896   3.607  13.889 -0.0601  0.8063 -0.1554
  620TMC3    O2 9194   0.596   3.551  13.499  0.2732 -0.8353 -0.4315
  621MPD2     C 9195   1.137   3.710   9.353 -0.2828  0.2672 -0.6339
  621MPD2    C1 9196   1.218   3.637   9.435  0.2598  0.5278  0.4819
  621MPD2    C2 9197   1.264   3.702   9.550  0.3316  0.0676  0.0420
  621MPD2    C3 9198   1.230   3.835   9.572 -0.2280  0.3919  0.5115
  621MPD2    C4 9199   1.143   3.898   9.487 -1.0348 -0.4703  0.1198
  621MPD2    C5 9200   1.082   3.829   9.386 -0.5456  0.4321 -0.6489
  621MPD2     H 9201   1.341   3.649   9.605 -1.3517  0.1957  2.5303
  621MPD2    H1 9202   1.108   4.001   9.494 -0.0775 -0.1512  0.1286
  621MPD2    H2 9203   1.117   3.677   9.252 -0.4074 -2.1474  0.1707
  621MPD2    H3 9204   1.011   3.867   9.314 -1.3510 -0.9936 -0.6177
  621MPD2     N 9205   1.287   3.908   9.681  0.1323 -0.1552 -0.1756
  621MPD2    H5 9206   1.313   3.860   9.766 -1.2025  0.4004  0.5479
  621MPD2    N1 9207   1.257   3.500   9.413  0.2175 -0.1174  0.9346
  621MPD2    H7 9208   1.315   3.451   9.480 -0.6186 -2.0223  0.2610
  622TMC3    C1 9209   1.257   3.288   9.303 -0.0495  0.4666 -1.0249
  622TMC3    C2 9210   1.288   3.213   9.415 -0.1949  0.7339 -0.1947
  622TMC3    C3 9211   1.302   3.080   9.400 -0.4740 -0.0416  0.7313
  622TMC3    C4 9212   1.262   3.225   9.178 -0.1569  0.4358  0.3199
  622TMC3    C5 9213   1.283   3.093   9.167  0.6965  0.0763 -0.5331
  622TMC3    C6 9214   1.299   3.016   9.284  0.0052  0.3189 -0.3571
  622TMC3     C 9215   1.214   3.424   9.310  0.7143  0.0967  0.2979
  622TMC3     O 9216   1.147   3.467   9.214  0.0246  0.1423 -0.7480
  622TMC3     H 9217   1.273   3.244   9.518  0.2454  0.2614  0.0135
  622TMC3    H1 9218   1.248   3.286   9.090 -0.0278  2.3613  1.6259
  622TMC3    H2 9219   1.310   2.908   9.282  1.5452  0.4793 -0.4413
  622TMC3    C7 9220   1.243   3.017   9.052  0.6451  0.4251  0.1223
  622TMC3    C8 9221   1.322   2.996   9.520  0.1062  0.0021  0.0375
  622TMC3    O1 9222   1.271   2.896   9.042  1.0673 -0.1318  0.6039
  622TMC3    O2 9223   1.369   2.887   9.492 -0.1135 -0.0467  0.2572
  623MPD2     C 9224   4.617   3.606  16.189 -0.0532  0.8673 -0.0970
  623MPD2    C1 9225   4.593   3.740  16.185  0.4701 -0.1789  0.1087
  623MPD2    C2 9226   4.683   3.823  16.252  0.2272  0.4892 -0.4288
  623MPD2    C3 9227   0.067   3.764  16.319  0.5812  0.5148 -0.3491
  623MPD2    C4 9228   0.087   3.629  16.319  0.4895 -0.0718  0.6432
  623MPD2    C5 9229   0.002   3.549  16.250  0.3191 -0.2527 -1.3486
  623MPD2     H 9230   4.676   3.930  16.235  3.3134  0.6529 -0.8191
  623MPD2    H1 9231   0.175   3.575  16.352  0.6745 -2.0376 -3.0421
  623MPD2    H2 9232   4.553   3.549  16.124  1.3235 -1.9946  1.0702
  623MPD2    H3 9233   0.017   3.442  16.248  0.5842 -0.2661  1.6925
  623MPD2     N 9234   0.151   3.851  16.385  0.4431  1.2065 -0.3239
  623MPD2    H5 9235   0.146   3.950  16.363 -0.0841  1.2598  0.0656
  623MPD2    N1 9236   4.489   3.802  16.111 -0.4739  0.2701  0.7085
  623MPD2    H7 9237   4.490   3.903  16.128  0.6002  0.0806  1.7964
  624TMC3    C1 9238   0.309   3.872  16.793 -0.7063 -0.0519 -0.2264
  624TMC3    C2 9239   0.223   3.974  16.826  0.0962 -0.9031 -0.1714
  624TMC3    C3 9240   0.159   4.041  16.726 -0.2019  0.6420  0.1245
  624TMC3    C4 9241   0.353   3.850  16.670  0.3033  0.1738 -0.3387
  624TMC3    C5 9242   0.290   3.910  16.568  0.0048  0.6079 -1.3726
  624TMC3    C6 9243   0.193   4.001  16.602  0.7902  0.6086  0.2857
  624TMC3     C 9244   0.398   3.823  16.893  0.8366  0.1412  0.3150
  624TMC3     O 9245   0.420   3.896  16.991 -0.4740  0.3401 -0.3436
  624TMC3     H 9246   0.191   3.982  16.929 -0.0274 -1.6077 -0.1550
  624TMC3    H1 9247   0.425   3.775  16.640 -2.8876 -2.5759 -1.1455
  624TMC3    H2 9248   0.114   4.032  16.534  0.6647  1.6557  0.9230
  624TMC3    C7 9249   0.224   3.802  16.498  0.1938  0.3062 -0.5200
  624TMC3    C8 9250   0.023   4.043  16.745  0.0650  0.0081  0.1058
  624TMC3    O1 9251   0.229   3.688  16.545 -0.3554  0.1544 -0.0323
  624TMC3    O2 9252   4.685   3.937  16.765  0.0614 -0.0206  0.0780
  625MPD2     C 9253   4.091   0.196   0.341  0.1981  0.1819  0.1555
  625MPD2    C1 9254   4.125   0.287   0.443 -0.0780 -0.0299 -0.4732
  625MPD2    C2 9255   4.183   0.236   0.561  0.3514 -0.0922  0.7000
  625MPD2    C3 9256   4.234   0.109   0.567  0.2141  0.1879  0.1897
  625MPD2    C4 9257   4.199   0.014   0.465 -0.0826 -0.6024  0.2590
  625MPD2    C5 9258   4.128   0.064   0.354 -0.4954 -0.3488 -0.0984
  625MPD2     H 9259   4.207   0.304   0.642  2.3440  0.0640 -0.0337
  625MPD2    H1 9260   4.210   4.631   0.479 -0.4745 -0.9475 -2.1402
  625MPD2    H2 9261   4.054   0.227   0.245 -1.8637  1.4481  1.3556
  625MPD2    H3 9262   4.085   4.721   0.280 -1.9967 -0.1685  0.6170
  625MPD2     N 9263   4.305   0.080   0.682  0.0944 -0.7201 -0.3032
  625MPD2    H5 9264   4.331   0.165   0.732  0.4546 -0.4052 -1.0306
  625MPD2    N1 9265   4.123   0.428   0.430  0.8269 -0.2669 -0.3456
  625MPD2    H7 9266   4.143   0.486   0.511  1.9150 -0.1855 -0.6786
  626TMC3    C1 9267   4.069   0.639   0.345 -0.3278 -0.9833 -0.5569
  626TMC3    C2 9268   4.074   0.720   0.231 -0.4497 -0.0238  0.9257
  626TMC3    C3 9269   4.103   0.848   0.253  0.3357 -0.4371  0.1716
  626TMC3    C4 9270   4.098   0.686   0.474  0.6118 -0.0378 -0.1595
  626TMC3    C5 9271   4.115   0.818   0.484  0.9961 -0.1874  0.1271
  626TMC3    C6 9272   4.119   0.905   0.377 -0.2143  0.1991 -0.1950
  626TMC3     C 9273   4.072   0.494   0.319  0.6604  0.1087 -0.3896
  626TMC3     O 9274   4.041   0.451   0.205 -0.0338 -0.3801  0.5018
  626TMC3     H 9275   4.066   0.679   0.132  0.5998  1.2018  0.3195
  626TMC3    H1 9276   4.077   0.621   0.559 -1.6439 -0.2740 -0.8922
  626TMC3    H2 9277   4.140   1.010   0.390 -0.2720 -0.1494  2.6568
  626TMC3    C7 9278   4.068   0.863   0.617 -0.1969  0.1736 -0.3557
  626TMC3    C8 9279   4.103   0.932   0.139 -0.1578  0.3175  0.1377
  626TMC3    O1 9280   4.104   0.790   0.708 -0.5411 -0.7919 -0.0026
  626TMC3    O2 9281   4.099   0.881   0.029  0.7101  0.2417  0.2708
  627MPD2     C 9282   3.493   1.074  14.788  0.2387  0.3466 -0.2605
  627MPD2    C1 9283   3.545   0.988  14.885 -0.1040 -0.3648 -0.4733
  627MPD2    C2 9284   3.477   0.870  14.902  0.0764 -0.5071  0.0053
  627MPD2    C3 9285   3.375   0.826  14.821  0.0737  0.1072  0.6104
  627MPD2    C4 9286   3.336   0.910  14.716 -0.7701 -0.0286  0.3342
  627MPD2    C5 9287   3.389   1.036  14.709 -0.0302  0.1132 -0.5556
  627MPD2     H 9288   3.517   0.814  14.986  1.3991 -0.4094 -0.5525
  627MPD2    H1 9289   3.254   0.888  14.648  0.5533  0.0676 -1.2747
  627MPD2    H2 9290   3.524   1.177  14.775 -0.1263  0.4296 -0.4673
  627MPD2    H3 9291   3.352   1.117  14.647  1.1131  0.5092 -0.7121
  627MPD2     N 9292   3.315   0.705  14.846 -0.3795 -0.5568 -0.4598
  627MPD2    H5 9293   3.365   0.644  14.909  1.0991  1.0968 -0.0233
  627MPD2    N1 9294   3.662   1.021  14.964  0.6124  0.0004  0.4431
  627MPD2    H7 9295   3.700   0.960  15.036  0.5142 -1.9492 -1.1762
  628TMC3    C1 9296   3.862   1.134  14.996 -0.0154 -0.0062  0.1018
  628TMC3    C2 9297   3.938   1.023  14.961  0.6111  0.3518  0.2683
  628TMC3    C3 9298   4.038   1.039  14.873  0.0273  0.7712 -0.0205
  628TMC3    C4 9299   3.914   1.255  14.966 -0.7977  0.4261 -0.1106
  628TMC3    C5 9300   4.003   1.264  14.862 -0.2822 -0.7144  0.2083
  628TMC3    C6 9301   4.077   1.160  14.813 -0.1686 -0.4123 -0.2223
  628TMC3     C 9302   3.723   1.143  14.964  0.1446 -0.2248  0.3221
  628TMC3     O 9303   3.690   1.248  14.914  0.1389  0.2916 -0.2526
  628TMC3     H 9304   3.909   0.925  14.999 -1.8077  0.2884 -1.7685
  628TMC3    H1 9305   3.883   1.348  15.012 -0.5332  0.4864 -0.0561
  628TMC3    H2 9306   4.134   1.163  14.722 -0.6020 -0.7449 -0.5041
  628TMC3    C7 9307   3.976   1.364  14.759  0.6231  0.6190  0.3513
  628TMC3    C8 9308   4.132   0.928  14.860 -0.0631 -0.4968 -0.3434
  628TMC3    O1 9309   4.072   1.384  14.688  0.2232  0.9205 -0.3497
  628TMC3    O2 9310   4.094   0.812  14.882 -0.1253 -0.4222 -0.0617
  629MPD2     C 9311   1.720   4.537  16.203  0.6646 -0.0965  0.2933
  629MPD2    C1 9312   1.765   4.438  16.283 -0.1420  0.4631  0.4554
  629MPD2    C2 9313   1.666   4.348  16.334  0.4530 -0.0031 -0.4280
  629MPD2    C3 9314   1.532   4.362  16.309  0.6100  0.5246  0.5518
  629MPD2    C4 9315   1.493   4.465  16.224 -0.5135  0.8274 -0.1969
  629MPD2    C5 9316   1.586   4.549  16.177 -0.1389  0.2207 -0.8056
  629MPD2     H 9317   1.692   4.274  16.408  1.1038 -0.1684 -0.8238
  629MPD2    H1 9318   1.392   4.479  16.187 -0.2517 -0.8208 -1.5476
  629MPD2    H2 9319   1.793   4.599  16.152  1.1173 -1.0960 -0.2868
  629MPD2    H3 9320   1.568   4.638  16.117  0.6861 -0.4126 -1.9722
  629MPD2     N 9321   1.427   4.280  16.358  0.0528 -0.1647 -0.2119
  629MPD2    H5 9322   1.336   4.282  16.313 -1.1433  2.4020  2.3500
  629MPD2    N1 9323   1.904   4.428  16.317 -0.2755  0.0026 -0.2065
  629MPD2    H7 9324   1.964   4.503  16.284 -0.2245 -0.0221 -0.1692
  630TMC3    C1 9325   2.117   4.316  16.368  0.1460 -0.0660  0.1334
  630TMC3    C2 9326   2.184   4.431  16.361  0.3087  0.0614  0.1999
  630TMC3    C3 9327   2.309   4.436  16.414 -0.0406 -0.3388 -0.0229
  630TMC3    C4 9328   2.174   4.205  16.432  0.4820 -0.5630  0.4664
  630TMC3    C5 9329   2.294   4.215  16.497  0.3881 -0.2711  0.6664
  630TMC3    C6 9330   2.371   4.329  16.486  0.5779 -0.8170 -0.3077
  630TMC3     C 9331   1.970   4.315  16.357  0.7419  0.3400 -0.0463
  630TMC3     O 9332   1.923   4.215  16.406 -0.2750  0.6778  0.2442
  630TMC3     H 9333   2.133   4.519  16.323  0.2102  0.2340  0.7405
  630TMC3    H1 9334   2.116   4.115  16.446  1.5584 -0.9471  2.3917
  630TMC3    H2 9335   2.464   4.342  16.539  0.7648  0.0872 -0.8684
  630TMC3    C7 9336   2.311   4.140  16.623  0.1083 -0.1826 -0.0602
  630TMC3    C8 9337   2.390   4.551  16.389 -0.8268 -0.2453  0.1422
  630TMC3    O1 9338   2.379   4.189  16.708 -0.3322  0.5964  0.3285
  630TMC3    O2 9339   2.479   4.579  16.464 -0.0340  0.4471 -0.6636
  631MPD2     C 9340   0.430   4.646  15.819  0.2732  0.5218  0.0578
  631MPD2    C1 9341   0.445   4.578  15.700  0.4475  0.2127 -0.3407
  631MPD2    C2 9342   0.418   4.442  15.696  0.3648 -0.1810  0.7592
  631MPD2    C3 9343   0.378   4.375  15.811  0.1668  0.3181 -0.7608
  631MPD2    C4 9344   0.364   4.440  15.930  0.4164  0.1074  0.1591
  631MPD2    C5 9345   0.384   4.577  15.933 -0.2980  0.0515  0.4890
  631MPD2     H 9346   0.415   4.386  15.603 -0.9223  2.2087 -0.6200
  631MPD2    H1 9347   0.333   4.390  16.021 -2.7773  1.2519 -0.3046
  631MPD2    H2 9348   0.456   0.028  15.817 -3.3570  1.4198  0.6676
  631MPD2    H3 9349   0.385   4.630  16.027  0.7494 -0.6254  0.8670
  631MPD2     N 9350   0.371   4.238  15.800 -0.5779 -0.1527  0.3790
  631MPD2    H5 9351   0.402   4.197  15.712  0.5885 -0.1339  0.7794
  631MPD2    N1 9352   0.470   4.661  15.588  0.1535 -0.2678  0.6035
  631MPD2    H7 9353   0.491   0.035  15.607  1.6385 -0.4696 -0.0152
  632TMC3    C1 9354   0.494   0.010  15.369  0.3693 -0.4667 -0.5905
  632TMC3    C2 9355   0.377   0.084  15.374  0.9111 -0.2665  0.1540
  632TMC3    C3 9356   0.300   0.113  15.265  0.0656 -0.0772  0.1697
  632TMC3    C4 9357   0.537   4.688  15.246  0.0077 -0.0858 -0.7095
  632TMC3    C5 9358   0.459   4.703  15.138 -0.8598  0.6327  0.0212
  632TMC3    C6 9359   0.342   0.053  15.145 -0.0266  0.9608  0.0858
  632TMC3     C 9360   0.487   4.621  15.457  0.3752 -0.1319  0.2348
  632TMC3     O 9361   0.485   4.512  15.405  0.4906 -0.0483  0.1198
  632TMC3     H 9362   0.341   0.117  15.470 -2.5366  0.7100 -1.4570
  632TMC3    H1 9363   0.628   4.629  15.249  0.1181  0.2506  2.4653
  632TMC3    H2 9364   0.268   0.050  15.065  0.1029  0.7761 -0.0280
  632TMC3    C7 9365   0.494   4.647  15.001 -0.1351 -0.4455  0.0491
  632TMC3    C8 9366   0.155   0.089  15.290  0.6374 -0.5827 -0.3230
  632TMC3    O1 9367   0.427   4.695  14.910  0.0764  0.0041  0.4579
  632TMC3    O2 9368   0.128   0.063  15.406  0.2878 -0.1102  0.1390
  633MPD2     C 9369   4.569   2.384  17.540  0.0871 -0.1439  0.8185
  633MPD2    C1 9370   4.660   2.320  17.458  0.6171 -0.4107  0.2584
  633MPD2    C2 9371   4.698   2.193  17.488  0.2299 -0.8314  0.4507
  633MPD2    C3 9372   4.650   2.125  17.601  0.6942 -0.4471  0.6846
  633MPD2    C4 9373   4.556   2.185  17.664 -0.1759  0.1835 -0.1787
  633MPD2    C5 9374   4.523   2.309  17.639 -0.2666  0.1714 -0.2091
  633MPD2     H 9375   0.046   2.149  17.419  1.6199 -1.1936  2.1048
  633MPD2    H1 9376   4.496   2.135   0.043  0.4458 -2.5786 -1.5001
  633MPD2    H2 9377   4.521   2.480  17.525 -0.2861 -0.5854 -0.7511
  633MPD2    H3 9378   4.440   2.351  17.695 -0.3101 -0.6291  0.3189
  633MPD2     N 9379   4.678   1.989  17.639 -0.1068 -0.1702  0.2805
  633MPD2    H5 9380   4.611   1.958   0.013  1.3741 -0.2778  1.6392
  633MPD2    N1 9381   4.698   2.375  17.331 -0.4049  0.4021  0.2244
  633MPD2    H7 9382   0.046   2.328  17.276  1.4124  1.6919  1.4802
  634TMC3    C1 9383   4.723   2.505  17.145  0.2107 -0.5732 -0.3126
  634TMC3    C2 9384   0.019   2.387  17.079  0.6760  0.1176  0.2040
  634TMC3    C3 9385   0.091   2.392  16.962 -0.4485  0.1923  0.5243
  634TMC3    C4 9386   0.027   2.626  17.092  0.0593 -0.0722 -0.1066
  634TMC3    C5 9387   0.091   2.631  16.966  0.0498  0.8835 -0.5872
  634TMC3    C6 9388   0.127   2.514  16.904  0.2816 -0.3011 -0.0474
  634TMC3     C 9389   4.648   2.492  17.274 -0.3099 -0.5060  0.1797
  634TMC3     O 9390   4.597   2.593  17.325  0.6270  0.5576  0.4767
  634TMC3     H 9391   4.707   2.291  17.113 -1.7210  0.8524 -0.2384
  634TMC3    H1 9392   4.719   2.713  17.148 -0.8166 -0.3841 -0.1261
  634TMC3    H2 9393   0.199   2.516  16.823  1.6332  0.5259  1.1627
  634TMC3    C7 9394   0.087   2.749  16.883 -0.4636 -0.2389 -0.0706
  634TMC3    C8 9395   0.130   2.267  16.902 -0.1976 -0.2364 -0.2307
  634TMC3    O1 9396   0.117   2.745  16.763  0.2714 -0.1259 -0.0798
  634TMC3    O2 9397   0.129   2.168  16.974  0.0353  0.4480 -0.9273
  635TMC3    C1 9398   1.400   3.688   0.523 -0.1539 -0.1420  0.6775
  635TMC3    C2 9399   1.381   3.576   0.449 -0.4415  0.0700 -0.0693
  635TMC3    C3 9400   1.409   3.453   0.510 -0.0025 -0.6990  0.1462
  635TMC3    C4 9401   1.463   3.686   0.647  0.3180  0.4363 -0.2899
  635TMC3    C5 9402   1.479   3.563   0.703 -0.5045 -0.8583 -0.0636
  635TMC3    C6 9403   1.452   3.446   0.638  0.2054 -0.9162 -0.2148
  635TMC3     C 9404   1.326   3.806   0.474 -0.4746  0.4014 -0.3841
  635TMC3     O 9405   1.229   3.776   0.410  0.2210  0.0013 -1.0065
  635TMC3     H 9406   1.345   3.583   0.347 -2.3416 -1.3887  0.4908
  635TMC3    H1 9407   1.465   3.774   0.711  1.9230  2.6021 -3.3059
  635TMC3    H2 9408   1.490   3.355   0.683 -0.8777 -1.6364 -0.7510
  635TMC3    C7 9409   1.533   3.565   0.832 -0.1364 -0.4376  0.5419
  635TMC3    C8 9410   1.394   3.331   0.438  0.1657  0.7193  0.1724
  635TMC3    O1 9411   1.572   3.672   0.878  0.6217  0.1967  0.1788
  635TMC3    O2 9412   1.361   3.232   0.497  0.4431  0.0285 -0.1820
  636MPD2     C 9413   1.251   2.890  15.993  0.0135  0.1012  0.1191
  636MPD2    C1 9414   1.210   2.927  16.123 -0.1813 -0.0068  0.4781
  636MPD2    C2 9415   1.228   2.842  16.233  0.8940 -0.3196 -0.4590
  636MPD2    C3 9416   1.310   2.736  16.219  0.0401  0.1947 -0.5457
  636MPD2    C4 9417   1.357   2.706  16.090  0.0182 -0.5088 -0.1712
  636MPD2    C5 9418   1.337   2.787  15.983  0.5365  1.4900 -0.5379
  636MPD2     H 9419   1.181   2.867  16.327  0.8958 -0.8225 -0.3244
  636MPD2    H1 9420   1.425   2.625  16.067  0.3815 -0.1133 -0.4876
  636MPD2    H2 9421   1.254   2.945  15.900  1.4220  1.4544  0.9570
  636MPD2    H3 9422   1.370   2.758  15.884 -0.0903 -0.8952 -0.0413
  636MPD2     N 9423   1.360   2.653  16.326  0.1240  0.0020 -0.0490
  636MPD2    H5 9424   1.326   2.672  16.420 -1.6369 -1.1918 -0.4441
  636MPD2    N1 9425   1.155   3.057  16.140  0.4135  1.2605 -0.7878
  636MPD2    H7 9426   1.130   3.084  16.234  0.0963  0.3431 -0.6125
  637TMC3    C1 9427   1.469   2.472  16.433  0.3838  0.1749 -1.0558
  637TMC3    C2 9428   1.596   2.434  16.466  0.0432 -0.2060  0.3937
  637TMC3    C3 9429   1.614   2.323  16.543 -0.0884  0.6515 -0.2919
  637TMC3    C4 9430   1.358   2.393  16.458  0.1671  0.4647  0.7158
  637TMC3    C5 9431   1.381   2.274  16.528  0.6937 -0.6215 -0.5396
  637TMC3    C6 9432   1.504   2.244  16.581 -0.3254  0.4720  0.1585
  637TMC3     C 9433   1.457   2.554  16.316 -0.5901 -0.0819  0.1025
  637TMC3     O 9434   1.545   2.539  16.227  0.2424 -0.1595 -0.6243
  637TMC3     H 9435   1.686   2.472  16.419 -0.8087 -1.3755 -2.1456
  637TMC3    H1 9436   1.263   2.424  16.418 -0.7112  0.6124  2.9491
  637TMC3    H2 9437   1.508   2.147  16.629 -2.8348  0.7229  0.8615
  637TMC3    C7 9438   1.316   2.151  16.468 -0.0272  0.5282  0.4208
  637TMC3    C8 9439   1.714   2.237  16.490  0.1311  0.4170 -0.3696
  637TMC3    O1 9440   1.377   2.044  16.487 -0.0529 -0.0036  0.0614
  637TMC3    O2 9441   1.757   2.271  16.381  0.0531  0.1832  0.1771
  638MPD2     C 9442   0.896   1.459  14.765 -0.7592 -0.3696 -0.1573
  638MPD2    C1 9443   0.885   1.345  14.687  0.4931  0.8425 -0.4724
  638MPD2    C2 9444   0.843   1.223  14.747 -0.3509  0.3070 -0.1412
  638MPD2    C3 9445   0.815   1.213  14.875  0.1993  0.0643 -0.8266
  638MPD2    C4 9446   0.824   1.326  14.956  0.0988 -0.0381  0.2767
  638MPD2    C5 9447   0.868   1.449  14.901 -0.1829  0.0327  1.0801
  638MPD2     H 9448   0.833   1.134  14.686  0.9476 -0.1966  0.3972
  638MPD2    H1 9449   0.817   1.320  15.064 -0.2303 -2.3202  0.1162
  638MPD2    H2 9450   0.925   1.554  14.722 -1.7012  0.2672  0.6240
  638MPD2    H3 9451   0.887   1.539  14.959 -0.1419 -0.1184  1.2983
  638MPD2     N 9452   0.793   1.089  14.931 -0.1724  0.0594  0.0409
  638MPD2    H5 9453   0.786   1.011  14.867 -0.9803 -0.1100  0.3342
  638MPD2    N1 9454   0.938   1.358  14.555 -0.2837  0.6600  0.5891
  638MPD2    H7 9455   0.993   1.439  14.528 -0.7617  0.2331 -1.7066
  639TMC3    C1 9456   0.802   0.914  15.080 -0.0522 -0.6313  0.0941
  639TMC3    C2 9457   0.709   0.849  15.002 -0.9495 -0.3107  0.2060
  639TMC3    C3 9458   0.694   0.714  15.019  0.1735 -0.3023 -0.4826
  639TMC3    C4 9459   0.888   0.851  15.160 -0.2393 -0.2052 -0.5259
  639TMC3    C5 9460   0.871   0.714  15.166  0.2676 -0.5310  0.0640
  639TMC3    C6 9461   0.782   0.640  15.091  0.7654  0.6834  0.8027
  639TMC3     C 9462   0.822   1.054  15.061  0.2053 -0.0077 -0.3253
  639TMC3     O 9463   0.892   1.113  15.141 -0.2719  0.1287 -0.0865
  639TMC3     H 9464   0.631   0.907  14.954 -2.3323 -0.7140  1.9585
  639TMC3    H1 9465   0.964   0.903  15.218  1.2263  1.0714 -3.6163
  639TMC3    H2 9466   0.779   0.532  15.100  1.7989  0.4381 -1.6549
  639TMC3    C7 9467   0.967   0.633  15.236  0.3308 -0.0373  0.1781
  639TMC3    C8 9468   0.625   0.635  14.922  0.1756 -0.0808  0.5210
  639TMC3    O1 9469   0.938   0.519  15.260  0.2703  0.0077  0.1155
  639TMC3    O2 9470   0.681   0.529  14.892  0.1000 -0.3990 -0.7028
  640MPD2     C 9471   1.279   0.024  10.360 -0.6577  0.2285 -0.1255
  640MPD2    C1 9472   1.336   0.126  10.294  0.2867  0.5572  0.6659
  640MPD2    C2 9473   1.261   0.237  10.257 -0.0867 -0.1488 -0.6066
  640MPD2    C3 9474   1.124   0.231  10.276 -0.0115  0.6991 -0.4711
  640MPD2    C4 9475   1.068   0.120  10.334 -0.6044 -0.4432 -0.9328
  640MPD2    C5 9476   1.145   0.025  10.380  0.2662 -1.0676  0.3125
  640MPD2     H 9477   1.306   0.327  10.214  0.3724 -0.1926 -0.2121
  640MPD2    H1 9478   0.963   0.100  10.355 -1.0065  0.7967 -1.7980
  640MPD2    H2 9479   1.341   4.668  10.400 -0.6757 -0.2089 -0.9601
  640MPD2    H3 9480   1.106   4.682  10.456 -0.8057  1.9358  2.3548
  640MPD2     N 9481   1.041   0.333  10.225  0.3662 -0.0114  0.0964
  640MPD2    H5 9482   1.096   0.392  10.164 -1.2269 -0.8564 -2.1610
  640MPD2    N1 9483   1.476   0.115  10.269  0.7696  0.6393  0.2682
  640MPD2    H7 9484   1.536   0.045  10.312 -0.0008 -0.6642 -0.7796
  641TMC3    C1 9485   1.685   0.162  10.182  0.5338 -0.1294  0.1288
  641TMC3    C2 9486   1.732   0.035  10.190  0.4224  0.9608 -1.4090
  641TMC3    C3 9487   1.866   0.014  10.162 -0.2988 -0.2019  0.0074
  641TMC3    C4 9488   1.762   0.254  10.125 -0.1621 -0.2026 -0.0425
  641TMC3    C5 9489   1.889   0.224  10.077 -0.2016  0.5410 -0.8725
  641TMC3    C6 9490   1.949   0.102  10.107  0.4082 -0.1093 -0.2000
  641TMC3     C 9491   1.547   0.203  10.197  0.8528  0.5937  0.5754
  641TMC3     O 9492   1.503   0.284  10.118  0.3103 -0.5931 -0.3445
  641TMC3     H 9493   1.676   4.677  10.233  1.8467  0.5518 -0.3400
  641TMC3    H1 9494   1.715   0.349  10.102 -1.1078 -0.4509  0.8690
  641TMC3    H2 9495   2.048   0.068  10.080 -0.6785 -2.5883 -1.0189
  641TMC3    C7 9496   1.955   0.335  10.005 -0.0891 -0.0837 -0.4558
  641TMC3    C8 9497   1.901   4.598  10.154  0.2206 -0.1247 -0.1692
  641TMC3    O1 9498   1.879   0.403   9.933  0.2464  0.1654  0.1354
  641TMC3    O2 9499   1.815   4.516  10.119 -0.5927  0.4988 -0.1368
  642TMC3    C1 9500   2.641   1.095  12.503  0.0689 -0.1909  0.3087
  642TMC3    C2 9501   2.739   1.067  12.598  0.1715 -0.4441 -1.2431
  642TMC3    C3 9502   2.722   0.948  12.658  0.0177 -0.0153 -0.4203
  642TMC3    C4 9503   2.541   1.014  12.452  0.6229  0.6150  0.1077
  642TMC3    C5 9504   2.543   0.893  12.511  0.1529  0.2045 -0.0195
  642TMC3    C6 9505   2.624   0.861  12.613 -0.0785 -0.4586  0.0976
  642TMC3     C 9506   2.621   1.236  12.481 -0.0197 -0.8549  0.1126
  642TMC3     O 9507   2.717   1.307  12.467 -0.5919  0.0571 -0.6497
  642TMC3     H 9508   2.825   1.131  12.616 -1.0770  1.1633 -0.9820
  642TMC3    H1 9509   2.478   1.043  12.369 -1.2574 -1.4775  0.8117
  642TMC3    H2 9510   2.623   0.761  12.654 -0.5133 -1.5768 -2.6678
  642TMC3    C7 9511   2.452   0.800  12.456 -0.2409  0.3461  0.9835
  642TMC3    C8 9512   2.764   0.939  12.799 -0.0306 -0.0193  0.5059
  642TMC3    O1 9513   2.421   0.807  12.338  0.4786 -0.1932 -0.3677
  642TMC3    O2 9514   2.862   1.005  12.831  0.1417 -0.1509 -0.8294
  643TMC3    C1 9515   2.017   0.371   0.666  0.9303  0.5393 -0.8492
  643TMC3    C2 9516   1.893   0.373   0.703 -0.7407 -0.5750  0.4453
  643TMC3    C3 9517   1.810   0.276   0.663  0.0490  0.8361  0.0849
  643TMC3    C4 9518   2.071   0.274   0.579  0.4424 -0.9707  0.1084
  643TMC3    C5 9519   1.973   0.187   0.518 -0.4185  0.2345  0.4343
  643TMC3    C6 9520   1.845   0.187   0.563 -0.1925 -0.3914  0.6905
  643TMC3     C 9521   2.062   0.506   0.649 -0.3196 -0.0011  0.4304
  643TMC3     O 9522   1.978   0.594   0.633 -0.3603  0.3602  0.0379
  643TMC3     H 9523   1.864   0.436   0.786 -1.4673 -1.9305  1.2290
  643TMC3    H1 9524   2.162   0.292   0.523 -0.5391  0.7777 -0.9423
  643TMC3    H2 9525   1.768   0.128   0.514 -0.5309  0.2770  0.4187
  643TMC3    C7 9526   1.977   0.235   0.381 -0.0361  0.4136 -0.5265
  643TMC3    C8 9527   1.675   0.325   0.662  0.1705 -0.3980  0.1253
  643TMC3    O1 9528   2.015   0.350   0.359 -0.0038  0.1353 -0.4501
  643TMC3    O2 9529   1.594   0.236   0.690  0.0727 -0.3483  0.1055
  644MPD2     C 9530   2.039   0.940  10.066 -0.6451 -0.1161 -0.0377
  644MPD2    C1 9531   2.057   0.808  10.083  0.1169  0.0522 -0.5975
  644MPD2    C2 9532   1.955   0.720  10.045  0.3859  0.7630  0.6937
  644MPD2    C3 9533   1.847   0.763   9.966 -0.2886 -0.5904  0.3304
  644MPD2    C4 9534   1.842   0.902   9.946  0.0743  0.5361  0.3006
  644MPD2    C5 9535   1.940   0.985   9.984  0.3244  0.8632  0.5751
  644MPD2     H 9536   1.953   0.613  10.064  3.5722  0.2564 -1.8277
  644MPD2    H1 9537   1.764   0.947   9.885  3.2509  0.1854 -4.0026
  644MPD2    H2 9538   2.111   1.013  10.103 -0.7631 -0.3805  0.7185
  644MPD2    H3 9539   1.933   1.091   9.965  1.5600  0.4126 -2.2950
  644MPD2     N 9540   1.759   0.668   9.904 -0.8801 -0.2433  0.3013
  644MPD2    H5 9541   1.786   0.571   9.916 -1.3200 -0.6058 -1.6641
  644MPD2    N1 9542   2.186   0.759  10.107 -1.0331  0.8263  0.5064
  644MPD2    H7 9543   2.270   0.816  10.116 -0.5904  0.6963 -2.9114
  645TMC3    C1 9544   1.590   0.593   9.764  0.3465 -0.3412  0.3812
  645TMC3    C2 9545   1.512   0.616   9.654 -0.6620  0.3640 -0.4326
  645TMC3    C3 9546   1.445   0.511   9.608  0.2191  0.0903  0.3678
  645TMC3    C4 9547   1.600   0.468   9.818 -0.5896  0.1051 -0.0886
  645TMC3    C5 9548   1.531   0.367   9.772  0.4630 -0.2951 -0.0566
  645TMC3    C6 9549   1.440   0.390   9.672 -0.7102  0.5235 -0.2355
  645TMC3     C 9550   1.665   0.705   9.810 -0.2426 -0.4062  0.4963
  645TMC3     O 9551   1.648   0.812   9.753 -0.2760  0.2113  0.8322
  645TMC3     H 9552   1.519   0.715   9.610 -1.5453  0.6970  0.1806
  645TMC3    H1 9553   1.657   0.455   9.909 -0.9347 -0.2229  0.0818
  645TMC3    H2 9554   1.384   0.309   9.626  1.1226 -0.9218  0.0839
  645TMC3    C7 9555   1.574   0.228   9.773 -0.3107  0.9317  0.7120
  645TMC3    C8 9556   1.321   0.542   9.542 -0.0931 -0.4138  0.0911
  645TMC3    O1 9557   1.479   0.150   9.766  0.0557  0.2042 -0.0885
  645TMC3    O2 9558   1.229   0.460   9.550  0.2870 -0.5565  0.3008
  646MPD2     C 9559   1.200   0.052  14.358  0.5636 -0.3274  0.1279
  646MPD2    C1 9560   1.124   0.070  14.478 -0.0369 -0.0522  0.7662
  646MPD2    C2 9561   0.992   0.116  14.467  0.8589  0.5263  0.0152
  646MPD2    C3 9562   0.936   0.127  14.337  0.2568 -0.0772  0.7258
  646MPD2    C4 9563   1.008   0.097  14.222  0.1684  0.3087  0.4067
  646MPD2    C5 9564   1.138   0.061  14.240 -0.8501 -0.5322  0.0297
  646MPD2     H 9565   0.931   0.135  14.555  0.9667 -0.4341  0.2927
  646MPD2    H1 9566   0.972   0.101  14.119  0.5625  2.2910  0.3588
  646MPD2    H2 9567   1.302   0.016  14.357  0.6514 -0.0938  0.7780
  646MPD2    H3 9568   1.196   0.043  14.150 -2.4713  2.1090 -1.5424
  646MPD2     N 9569   0.803   0.180  14.329 -0.5330 -0.0920 -0.3046
  646MPD2    H5 9570   0.761   0.210  14.416 -1.8744  0.2850 -1.0758
  646MPD2    N1 9571   1.188   0.052  14.603 -0.0874  0.2280 -0.2792
  646MPD2    H7 9572   1.286   0.027  14.597 -0.4981 -0.6661 -3.2220
  647TMC3    C1 9573   1.199   0.011  14.844 -0.2183 -0.6626 -0.5347
  647TMC3    C2 9574   1.137   4.663  14.945  0.1387 -0.3728 -0.0428
  647TMC3    C3 9575   1.220   4.639  15.058 -0.3939 -0.3998  0.3121
  647TMC3    C4 9576   1.330   0.054  14.849  0.2134  0.3508  0.3207
  647TMC3    C5 9577   1.401   0.036  14.972  0.3177 -0.4008  0.5320
  647TMC3    C6 9578   1.344   4.697  15.076 -0.3486 -0.1477 -0.3788
  647TMC3     C 9579   1.118   0.034  14.720 -0.1480  0.3374  0.6351
  647TMC3     O 9580   0.998   0.030  14.739 -0.0929  0.3650 -0.2252
  647TMC3     H 9581   1.032   4.641  14.930 -0.3567  0.3844  2.3705
  647TMC3    H1 9582   1.376   0.118  14.775 -0.6889  1.2822  0.5680
  647TMC3    H2 9583   1.400   4.671  15.164  1.5133 -1.9292 -2.0859
  647TMC3    C7 9584   1.548   0.030  14.973 -0.0796 -0.0222  0.6745
  647TMC3    C8 9585   1.198   4.514  15.133  0.2104  1.0909 -0.2943
  647TMC3    O1 9586   1.596   0.017  15.086  0.2029  0.2233 -0.4877
  647TMC3    O2 9587   1.279   4.487  15.222  0.1156 -0.3287 -0.2535
  648TMC3    C1 9588   0.560   2.340  16.335 -0.3098  0.4386 -0.1947
  648TMC3    C2 9589   0.620   2.223  16.313  0.1463 -0.1734 -0.8644
  648TMC3    C3 9590   0.636   2.187  16.183  0.0484  0.1797 -0.0326
  648TMC3    C4 9591   0.525   2.428  16.242 -0.2937  0.3924 -0.2665
  648TMC3    C5 9592   0.543   2.394  16.110  0.3506  0.9221  0.1089
  648TMC3    C6 9593   0.606   2.276  16.079 -0.0756  0.6105 -0.0935
  648TMC3     C 9594   0.565   2.379  16.474  0.2112 -0.2196 -0.0834
  648TMC3     O 9595   0.554   2.499  16.505  0.3363  0.5593  0.1772
  648TMC3     H 9596   0.670   2.166  16.389 -1.6089 -1.0135 -0.3247
  648TMC3    H1 9597   0.465   2.514  16.270  0.8278  1.7765 -2.1412
  648TMC3    H2 9598   0.628   2.248  15.977  2.5414 -3.2257  1.5200
  648TMC3    C7 9599   0.490   2.477  16.004 -0.2251  0.0253  0.0216
  648TMC3    C8 9600   0.697   2.058  16.154 -0.0535 -0.4256 -0.2109
  648TMC3    O1 9601   0.497   2.434  15.887 -0.4436  0.3333 -0.0769
  648TMC3    O2 9602   0.776   2.012  16.236 -0.3951  0.5080  0.2088
  649TMC3    C1 9603   4.215   3.269  12.576  0.0864  0.9792  0.0193
  649TMC3    C2 9604   4.350   3.242  12.566  0.2907  0.6533 -0.1434
  649TMC3    C3 9605   4.414   3.183  12.669 -0.5178 -1.0853  0.1749
  649TMC3    C4 9606   4.150   3.247  12.692  0.6140  0.4906  0.5996
  649TMC3    C5 9607   4.205   3.162  12.779 -0.4952  0.1372  0.0001
  649TMC3    C6 9608   4.339   3.128  12.776  0.1041  0.3812 -0.7499
  649TMC3     C 9609   4.154   3.361  12.482 -0.2428  0.9972 -0.3567
  649TMC3     O 9610   4.042   3.408  12.512 -0.0878 -0.9283  0.0199
  649TMC3     H 9611   4.412   3.293  12.493 -0.7225 -0.0332 -1.4601
  649TMC3    H1 9612   4.044   3.265  12.699  1.3404  4.4447  1.0588
  649TMC3    H2 9613   4.388   3.060  12.844 -1.3182 -0.6883 -0.7903
  649TMC3    C7 9614   4.119   3.096  12.864  0.2795  0.0856 -0.0601
  649TMC3    C8 9615   4.549   3.135  12.664  0.1295  0.0551 -0.3715
  649TMC3    O1 9616   4.008   3.144  12.881 -0.2390 -0.1612 -0.1025
  649TMC3    O2 9617   4.595   3.109  12.771  0.3333  0.0618  0.0207
  650TMC3    C1 9618   1.657   0.351  12.774 -0.2995 -0.1494  0.1701
  650TMC3    C2 9619   1.657   0.476  12.727  0.1596 -0.6334  0.3113
  650TMC3    C3 9620   1.539   0.534  12.691  0.2254 -0.1553  0.2363
  650TMC3    C4 9621   1.542   0.278  12.779 -0.3422  0.5257  0.0599
  650TMC3    C5 9622   1.421   0.336  12.741  0.0260 -0.1879  0.1729
  650TMC3    C6 9623   1.422   0.465  12.681 -0.2997 -1.1279 -0.4768
  650TMC3     C 9624   1.777   0.306  12.848  0.5943  0.4934  0.3359
  650TMC3     O 9625   1.849   0.392  12.894  0.4412  0.4790  0.6018
  650TMC3     H 9626   1.749   0.533  12.735 -0.0002 -0.3869  0.3782
  650TMC3    H1 9627   1.546   0.176  12.816  0.1139  1.2625  2.0437
  650TMC3    H2 9628   1.335   0.522  12.649 -1.2286 -2.9457 -1.1487
  650TMC3    C7 9629   1.327   0.239  12.682 -0.3480  0.0307  0.8035
  650TMC3    C8 9630   1.539   0.676  12.656 -0.0709  0.3566 -0.1922
  650TMC3    O1 9631   1.371   0.128  12.659 -0.3050 -0.1847  0.0226
  650TMC3    O2 9632   1.633   0.740  12.696  0.0286  0.5432 -0.7916
  651MPD2     C 9633   0.941   2.067  10.387  0.3408  0.2145  0.3465
  651MPD2    C1 9634   0.937   2.159  10.492 -0.7537  0.3109 -0.1980
  651MPD2    C2 9635   1.046   2.243  10.513  0.1234  0.3781  0.1007
  651MPD2    C3 9636   1.160   2.227  10.432  0.7545 -0.4359  0.2368
  651MPD2    C4 9637   1.167   2.131  10.330  0.0789  0.3967  0.3411
  651MPD2    C5 9638   1.051   2.058  10.304 -0.6060 -0.1495  0.8362
  651MPD2     H 9639   1.047   2.319  10.589 -4.4803 -0.2980  0.8768
  651MPD2    H1 9640   1.255   2.116  10.268 -1.8106 -2.3313 -1.6669
  651MPD2    H2 9641   0.856   2.011  10.349  1.0127  0.1372 -1.0785
  651MPD2    H3 9642   1.049   2.001  10.212  1.5940  0.9304  0.1287
  651MPD2     N 9643   1.260   2.316  10.466  0.2212 -0.1605 -0.6319
  651MPD2    H5 9644   1.237   2.400  10.519 -0.3032 -1.0406  0.5326
  651MPD2    N1 9645   0.824   2.182  10.577 -0.2695 -0.7374 -0.2152
  651MPD2    H7 9646   0.834   2.254  10.649 -0.9238  0.1360 -1.0034
  652TMC3    C1 9647   1.697   2.463  10.519  0.2909 -0.3696  0.5534
  652TMC3    C2 9648   1.602   2.362  10.517  0.0129  0.5968  0.6062
  652TMC3    C3 9649   1.476   2.397  10.491  0.2962  0.2664  0.2834
  652TMC3    C4 9650   1.671   2.591  10.495 -0.1014  0.5846  0.2377
  652TMC3    C5 9651   1.544   2.615  10.468  0.3928 -0.7689 -0.5876
  652TMC3    C6 9652   1.440   2.526  10.474  0.7246  0.2290  0.3599
  652TMC3     C 9653   1.821   2.419  10.569  0.8076 -0.2805 -0.4809
  652TMC3     O 9654   1.826   2.324  10.647  0.6063 -0.1683 -0.3936
  652TMC3     H 9655   1.631   2.258  10.526 -0.9822  0.1807 -0.9827
  652TMC3    H1 9656   1.748   2.667  10.498  0.6580 -0.2258  1.3650
  652TMC3    H2 9657   1.344   2.548  10.428  0.0090 -1.0102  1.2484
  652TMC3    C7 9658   1.503   2.744  10.409 -0.4314 -0.5573 -0.7289
  652TMC3    C8 9659   1.389   2.289  10.441  0.0336  0.1307 -0.4804
  652TMC3    O1 9660   1.437   2.739  10.305  0.0045  0.3251 -0.2394
  652TMC3    O2 9661   1.442   2.203  10.373  0.4630 -0.0507 -0.2082
  653MPD2     C 9662   4.190   2.503  17.533 -0.0048 -0.3195  0.1417
  653MPD2    C1 9663   4.162   2.608  17.450  0.9489  0.3959 -0.8051
  653MPD2    C2 9664   4.132   2.582  17.314 -0.2160  0.0183  0.8067
  653MPD2    C3 9665   4.139   2.458  17.258  0.4554  0.6922  0.4300
  653MPD2    C4 9666   4.185   2.365  17.336  0.9614 -0.4084  0.1134
  653MPD2    C5 9667   4.204   2.381  17.469  0.1725  0.4734 -0.2345
  653MPD2     H 9668   4.103   2.661  17.245  0.2707 -1.5649 -1.1747
  653MPD2    H1 9669   4.211   2.265  17.304 -0.1556 -0.5412 -0.3723
  653MPD2    H2 9670   4.199   2.503  17.641 -1.7896 -0.5463  0.2813
  653MPD2    H3 9671   4.235   2.291  17.521 -0.5559  0.2187 -0.2398
  653MPD2     N 9672   4.106   2.429  17.117  0.1662  0.2079  0.4697
  653MPD2    H5 9673   4.087   2.509  17.057  3.0879 -0.2845 -1.1028
  653MPD2    N1 9674   4.158   2.743  17.490  0.0345 -0.3414  0.0027
  653MPD2    H7 9675   4.137   2.797  17.407  2.3628 -1.2794 -1.1707
  654TMC3    C1 9676   4.081   2.298  16.913  0.6531  0.2956 -0.4278
  654TMC3    C2 9677   3.966   2.365  16.872 -0.7929  0.4016  0.0645
  654TMC3    C3 9678   3.901   2.313  16.766  0.2366  0.0020  0.0037
  654TMC3    C4 9679   4.130   2.194  16.838  0.0084  0.0638  0.7773
  654TMC3    C5 9680   4.070   2.156  16.718 -0.6689 -0.0374  0.5116
  654TMC3    C6 9681   3.959   2.227  16.682  0.1008 -0.1518 -0.0102
  654TMC3     C 9682   4.117   2.304  17.055 -0.1991  0.2205  0.4616
  654TMC3     O 9683   4.148   2.194  17.101  0.0531  0.0168  0.1283
  654TMC3     H 9684   3.914   2.429  16.942  1.7936  1.7172  0.7743
  654TMC3    H1 9685   4.221   2.144  16.872  0.2411 -1.3651 -1.9973
  654TMC3    H2 9686   3.902   2.199  16.594 -0.1269  2.0079 -0.5566
  654TMC3    C7 9687   4.110   2.036  16.649 -0.5326  0.3443  0.0842
  654TMC3    C8 9688   3.757   2.336  16.752  0.1671  0.0412 -0.3776
  654TMC3    O1 9689   4.097   2.041  16.527 -0.1723 -0.8512 -0.0626
  654TMC3    O2 9690   3.720   2.419  16.829  0.5278 -0.0293 -0.7211
  655MPD2     C 9691   0.874   2.304  15.794 -0.0469 -0.0662 -0.2102
  655MPD2    C1 9692   0.877   2.429  15.735 -0.6271  0.7074  0.3187
  655MPD2    C2 9693   0.854   2.444  15.601 -0.3504 -0.5443 -0.3565
  655MPD2    C3 9694   0.821   2.332  15.519  0.2281  0.2985 -0.0211
  655MPD2    C4 9695   0.817   2.210  15.578 -0.5579  0.1059  0.3981
  655MPD2    C5 9696   0.837   2.197  15.715 -0.5396  0.5968 -0.3066
  655MPD2     H 9697   0.874   2.543  15.562 -2.9885 -0.3654 -1.2305
  655MPD2    H1 9698   0.778   2.124  15.525  0.7349 -1.4046  1.8754
  655MPD2    H2 9699   0.887   2.279  15.898  1.8706  2.8786  0.2388
  655MPD2    H3 9700   0.826   2.101  15.764 -0.2836 -0.1716 -1.7575
  655MPD2     N 9701   0.810   2.342  15.373 -0.6683 -0.7977  0.2222
  655MPD2    H5 9702   0.800   2.257  15.319  0.8002 -1.5088  1.0773
  655MPD2    N1 9703   0.912   2.542  15.815 -0.2342  0.3317 -0.5872
  655MPD2    H7 9704   0.905   2.633  15.771 -0.8619  1.6673  2.2914
  656TMC3    C1 9705   0.949   2.682  16.006  0.1724  0.4763  0.0773
  656TMC3    C2 9706   0.869   2.691  16.119  0.2433  0.1045 -0.5396
  656TMC3    C3 9707   0.808   2.813  16.143 -0.5995 -0.4553  0.1767
  656TMC3    C4 9708   0.959   2.793  15.923  0.4825 -0.3112  0.1164
  656TMC3    C5 9709   0.885   2.897  15.943 -0.4416  0.4226 -0.4502
  656TMC3    C6 9710   0.813   2.918  16.060 -0.2880 -0.0234  0.1688
  656TMC3     C 9711   0.948   2.548  15.949 -0.6819 -0.7881 -0.0044
  656TMC3     O 9712   0.951   2.453  16.028 -0.1817 -0.2822  0.2597
  656TMC3     H 9713   0.864   2.602  16.181 -2.3892  0.8467  0.3325
  656TMC3    H1 9714   1.028   2.794  15.839 -1.1837  0.1112 -1.2412
  656TMC3    H2 9715   0.766   3.015  16.076 -1.9769 -0.9764  0.9740
  656TMC3    C7 9716   0.853   2.961  15.823 -0.2881  0.7234  0.1738
  656TMC3    C8 9717   0.684   2.801  16.219 -0.2779 -0.4993  0.1482
  656TMC3    O1 9718   0.932   2.940  15.733 -0.5940  0.1698  0.0828
  656TMC3    O2 9719   0.635   2.690  16.240 -0.5285 -0.1606  0.6041
  657TMC3    C1 9720   4.630   1.844  14.597  0.3399  0.1148 -0.0457
  657TMC3    C2 9721   4.570   1.844  14.720 -0.3272 -0.0833  0.4272
  657TMC3    C3 9722   4.482   1.944  14.756  0.3981 -0.7968 -0.5330
  657TMC3    C4 9723   4.588   1.935  14.502  0.2733 -0.0653  0.5067
  657TMC3    C5 9724   4.497   2.042  14.532 -0.1459  0.0544 -0.0605
  657TMC3    C6 9725   4.438   2.044  14.664 -0.2288  0.5275 -0.8173
  657TMC3     C 9726   4.709   1.736  14.544  0.3354 -0.0061  0.1700
  657TMC3     O 9727   4.699   1.703  14.430  0.6514 -0.2402  0.1874
  657TMC3     H 9728   4.605   1.782  14.801 -0.6652 -0.7555  0.0637
  657TMC3    H1 9729   4.631   1.929  14.403  0.5042 -0.2659  0.6170
  657TMC3    H2 9730   4.386   2.129  14.705  0.4541  0.4842  0.1278
  657TMC3    C7 9731   4.517   2.161  14.455  0.1022  0.6278 -0.0642
  657TMC3    C8 9732   4.379   1.908  14.852 -0.1248 -0.9411 -0.0312
  657TMC3    O1 9733   4.590   2.159  14.356  0.0412 -0.3987  0.6494
  657TMC3    O2 9734   4.404   1.807  14.919  0.0681 -0.5680  0.1506
  658MPD2     C 9735   0.829   2.937  14.811  0.1061  0.1162  0.0143
  658MPD2    C1 9736   0.811   2.807  14.767 -0.6270 -0.6594 -0.1412
  658MPD2    C2 9737   0.812   2.773  14.632 -0.7135  0.4941 -0.2325
  658MPD2    C3 9738   0.850   2.867  14.543 -0.3500  0.3619  0.0225
  658MPD2    C4 9739   0.881   2.989  14.585 -0.3526  0.1546 -0.6264
  658MPD2    C5 9740   0.875   3.031  14.717  0.6595  0.5222 -0.5268
  658MPD2     H 9741   0.761   2.684  14.594 -3.3921  1.0245  2.0844
  658MPD2    H1 9742   0.923   3.063  14.518  1.3648  0.0096  0.2855
  658MPD2    H2 9743   0.838   2.964  14.915 -1.3745  1.6936 -0.2662
  658MPD2    H3 9744   0.901   3.133  14.740  0.5631  0.1804  1.0939
  658MPD2     N 9745   0.845   2.828  14.408  0.1294  0.3325  0.1146
  658MPD2    H5 9746   0.802   2.737  14.397  0.6976  0.3436 -2.2282
  658MPD2    N1 9747   0.784   2.713  14.866  1.2473  0.4305 -0.4459
  658MPD2    H7 9748   0.756   2.740  14.960  0.8938 -1.0566 -0.1307
  659TMC3    C1 9749   0.727   2.509  14.950  0.3994 -0.3705 -0.7719
  659TMC3    C2 9750   0.787   2.528  15.073  0.2893  0.4658 -0.1741
  659TMC3    C3 9751   0.755   2.437  15.167 -0.5807 -0.5303  0.0872
  659TMC3    C4 9752   0.644   2.406  14.914 -0.2699 -0.4896 -0.1237
  659TMC3    C5 9753   0.608   2.323  15.014  0.6281  0.1094  0.4377
  659TMC3    C6 9754   0.663   2.334  15.138  0.1027 -0.4397 -1.1283
  659TMC3     C 9755   0.789   2.580  14.839  0.2129 -0.2267 -0.2949
  659TMC3     O 9756   0.808   2.513  14.738 -0.0954 -0.1535 -0.2693
  659TMC3     H 9757   0.851   2.611  15.102  4.0973 -2.1416 -1.0256
  659TMC3    H1 9758   0.619   2.397  14.809 -0.5407 -0.2172 -0.0816
  659TMC3    H2 9759   0.628   2.268  15.216 -1.0960 -0.5041 -1.7306
  659TMC3    C7 9760   0.479   2.259  15.000  0.5951 -0.9800 -0.0988
  659TMC3    C8 9761   0.793   2.457  15.299  0.0824 -0.2738 -0.3380
  659TMC3    O1 9762   0.454   2.182  15.094  0.1208  0.4132 -0.6105
  659TMC3    O2 9763   0.830   2.569  15.322 -0.6729  0.3558 -0.3817
  660MPD2     C 9764   3.712   1.203  12.687 -0.0455  0.7386  0.1707
  660MPD2    C1 9765   3.601   1.287  12.692 -0.4199 -0.1615  0.5562
  660MPD2    C2 9766   3.515   1.284  12.798  0.1723 -0.5509  0.0661
  660MPD2    C3 9767   3.538   1.189  12.903  0.3168  0.3435 -0.3264
  660MPD2    C4 9768   3.646   1.103  12.897  0.7337 -0.4139  0.1467
  660MPD2    C5 9769   3.728   1.115  12.786  0.2503 -0.5618  0.0533
  660MPD2     H 9770   3.421   1.338  12.800  1.7127  2.1402  0.7819
  660MPD2    H1 9771   3.658   1.022  12.969  1.9160  0.4249  0.9044
  660MPD2    H2 9772   3.762   1.201  12.590  1.9634 -1.3128  1.2652
  660MPD2    H3 9773   3.807   1.040  12.782  1.9489  1.2724 -0.9198
  660MPD2     N 9774   3.452   1.175  13.011  0.3801  0.1646 -0.0517
  660MPD2    H5 9775   3.499   1.133  13.091  1.3470 -0.9290 -1.2124
  660MPD2    N1 9776   3.560   1.356  12.575 -0.0932  0.3940 -0.2308
  660MPD2    H7 9777   3.615   1.328  12.494 -2.2976 -1.0624 -1.2333
  661TMC3    C1 9778   3.443   1.533  12.452 -0.4184  0.5769 -0.2452
  661TMC3    C2 9779   3.526   1.524  12.338 -0.0379 -0.5197  0.8630
  661TMC3    C3 9780   3.467   1.555  12.221  0.2450 -0.0716  0.4853
  661TMC3    C4 9781   3.316   1.578  12.446 -0.8816 -0.0023 -0.0576
  661TMC3    C5 9782   3.265   1.615  12.325 -0.0421  0.6779 -0.0158
  661TMC3    C6 9783   3.338   1.591  12.214  0.4817 -0.5124  0.2139
  661TMC3     C 9784   3.473   1.466  12.580  0.3666  0.4736 -0.5914
  661TMC3     O 9785   3.415   1.517  12.675  0.0828 -0.2615 -0.4055
  661TMC3     H 9786   3.630   1.494  12.342  0.2391  0.3787  0.2635
  661TMC3    H1 9787   3.247   1.563  12.528 -2.0120  1.5816 -0.7206
  661TMC3    H2 9788   3.299   1.623  12.118 -1.4742 -1.3689  0.7091
  661TMC3    C7 9789   3.129   1.664  12.321  0.9532 -0.0433  0.0583
  661TMC3    C8 9790   3.546   1.574  12.106 -0.1275 -0.4959  0.6306
  661TMC3    O1 9791   3.088   1.747  12.402  0.5304 -0.2906  0.5485
  661TMC3    O2 9792   3.605   1.477  12.055 -0.3276  0.1931 -0.2249
  662MPD2     C 9793   4.002   1.186  17.213  0.1266 -0.3964  0.0681
  662MPD2    C1 9794   3.945   1.178  17.339  0.5009  0.2448 -0.1784
  662MPD2    C2 9795   3.895   1.285  17.405 -0.2990  0.2562  0.2865
  662MPD2    C3 9796   3.880   1.406  17.339  0.2696 -0.6095  0.0997
  662MPD2    C4 9797   3.951   1.418  17.224  0.3205  0.2114 -0.2975
  662MPD2    C5 9798   4.010   1.312  17.158  0.0392  0.2587 -0.8133
  662MPD2     H 9799   3.852   1.269  17.503 -1.5731  1.4313 -0.0848
  662MPD2    H1 9800   3.954   1.508  17.164  0.0888 -0.4575 -1.3259
  662MPD2    H2 9801   4.038   1.101  17.156 -0.0368 -0.5435  0.1860
  662MPD2    H3 9802   4.053   1.325  17.059 -1.8076  1.3485 -1.4783
  662MPD2     N 9803   3.821   1.523  17.399 -0.1008  0.3816  0.1311
  662MPD2    H5 9804   3.797   1.594  17.331  2.8912 -0.2107 -1.5386
  662MPD2    N1 9805   3.930   1.058  17.411  0.7349  0.3935  0.4216
  662MPD2    H7 9806   3.889   1.068  17.503  1.9545  0.1555  0.9904
  663TMC3    C1 9807   3.930   0.813  17.446  0.7292  0.1186  0.0482
  663TMC3    C2 9808   3.809   0.816  17.510 -0.0275 -0.2058  0.4711
  663TMC3    C3 9809   3.742   0.693  17.535 -0.1164 -0.6027  0.1793
  663TMC3    C4 9810   3.999   0.698  17.435  0.1866 -0.8245 -0.5816
  663TMC3    C5 9811   3.932   0.584  17.461 -1.1915 -0.0608  0.4136
  663TMC3    C6 9812   3.812   0.579  17.519 -0.1816  0.1574  0.3159
  663TMC3     C 9813   3.981   0.934  17.366 -0.2427 -0.3416  0.5206
  663TMC3     O 9814   4.058   0.907  17.279 -0.4571 -0.2150  0.9651
  663TMC3     H 9815   3.743   0.902  17.503 -0.8145 -0.6610  2.2692
  663TMC3    H1 9816   4.100   0.693  17.396 -0.0378  0.4421 -1.3436
  663TMC3    H2 9817   3.757   0.486  17.514  1.5047 -0.8430  0.5327
  663TMC3    C7 9818   3.978   0.479  17.370  0.2255 -0.1539 -0.9169
  663TMC3    C8 9819   3.662   0.694  17.661  0.1256  0.7583 -0.1132
  663TMC3    O1 9820   4.040   0.517  17.271 -0.5957  0.2352  0.8566
  663TMC3    O2 9821   3.659   0.589   0.031 -0.1738 -0.4156 -0.1743
  664MPD2     C 9822   2.192   3.740   0.167  0.1032  0.1256  0.1032
  664MPD2    C1 9823   2.261   3.860   0.171 -0.0005  0.5238  0.2247
  664MPD2    C2 9824   2.299   3.922   0.289 -0.7036  0.4325 -0.2032
  664MPD2    C3 9825   2.276   3.854   0.413 -0.0314 -0.3318 -0.0765
  664MPD2    C4 9826   2.205   3.733   0.410  0.0448 -0.1503  0.4123
  664MPD2    C5 9827   2.163   3.685   0.290  0.0981 -0.7521 -0.3547
  664MPD2     H 9828   2.359   4.013   0.286  0.0905 -0.1071 -0.5417
  664MPD2    H1 9829   2.182   3.676   0.499 -3.1458  0.0819 -0.2734
  664MPD2    H2 9830   2.151   3.691   0.080 -1.0345  0.3688  0.5025
  664MPD2    H3 9831   2.092   3.604   0.293  0.5406 -1.1216  0.0965
  664MPD2     N 9832   2.339   3.908   0.532  0.0298 -0.3647 -0.1690
  664MPD2    H5 9833   2.380   4.001   0.531  0.4879 -0.5310  3.1008
  664MPD2    N1 9834   2.295   3.927   0.049 -0.3771  0.6193  0.1492
  664MPD2    H7 9835   2.330   4.022   0.058  1.7212 -0.1486  0.0438
  665TMC3    C1 9836   2.368   3.947   0.763 -0.1436 -0.3785 -0.2775
  665TMC3    C2 9837   2.333   3.910   0.894  0.8156  0.6514 -0.1361
  665TMC3    C3 9838   2.334   4.003   0.990  0.4161 -0.4254 -0.6492
  665TMC3    C4 9839   2.399   4.079   0.740  0.8316 -0.5388  0.2390
  665TMC3    C5 9840   2.398   4.170   0.836 -0.5528 -0.1719  0.5357
  665TMC3    C6 9841   2.371   4.138   0.967 -0.4526 -0.1013  0.2522
  665TMC3     C 9842   2.321   3.859   0.663  0.1727 -0.4800  0.4293
  665TMC3     O 9843   2.259   3.759   0.692  0.0174 -0.2597  0.0488
  665TMC3     H 9844   2.298   3.808   0.909  0.2978  0.6150 -1.6035
  665TMC3    H1 9845   2.419   4.108   0.638 -2.1450 -0.3474 -0.2815
  665TMC3    H2 9846   2.365   4.211   1.047 -1.0543 -0.5267  0.5937
  665TMC3    C7 9847   2.386   4.306   0.791  0.2343  0.3076  0.1973
  665TMC3    C8 9848   2.240   3.985   1.094 -0.4955 -0.3364 -0.6432
  665TMC3    O1 9849   2.380   4.327   0.670  0.2613 -0.5045 -1.0134
  665TMC3    O2 9850   2.269   4.032   1.202 -0.3471 -0.4893 -0.0633
  666TMC3    C1 9851   1.310   4.079   9.835  0.0798  0.2623  1.0821
  666TMC3    C2 9852   1.395   4.018   9.910 -0.7807  0.5430  0.2079
  666TMC3    C3 9853   1.414   4.067  10.031  0.1831 -0.4587 -0.0225
  666TMC3    C4 9854   1.244   4.195   9.870  0.5259  0.0152 -0.6072
  666TMC3    C5 9855   1.266   4.240  10.001 -0.4106  0.2170 -0.2591
  666TMC3    C6 9856   1.353   4.175  10.086  0.2419  0.0548 -0.1640
  666TMC3     C 9857   1.292   4.043   9.695 -0.1688  0.5851 -1.1486
  666TMC3     O 9858   1.281   4.132   9.611 -0.0621  0.4275 -0.2414
  666TMC3     H 9859   1.444   3.928   9.876 -2.0805 -0.6620  1.5279
  666TMC3    H1 9860   1.172   4.235   9.800  1.0960  0.3794 -0.9795
  666TMC3    H2 9861   1.364   4.192  10.192  0.0737 -0.3034 -0.0868
  666TMC3    C7 9862   1.172   4.333  10.049  0.0741  0.6252 -0.2712
  666TMC3    C8 9863   1.533   4.019  10.103  0.2979 -0.3928 -0.1785
  666TMC3    O1 9864   1.146   4.315  10.167  0.0182  0.0224 -0.2645
  666TMC3    O2 9865   1.570   3.902  10.100  0.7107  0.2237 -0.1823
  667MPD2     C 9866   2.483   3.892  14.630 -0.0343  0.4333 -0.2173
  667MPD2    C1 9867   2.362   3.939  14.681 -0.5000 -0.1458  0.4807
  667MPD2    C2 9868   2.242   3.904  14.616  0.3155  0.2375 -0.1485
  667MPD2    C3 9869   2.249   3.820  14.505 -0.1783 -0.7293  0.3383
  667MPD2    C4 9870   2.367   3.774  14.464  0.0571  0.5628  0.6807
  667MPD2    C5 9871   2.480   3.817  14.518  0.0661  1.1061  0.2770
  667MPD2     H 9872   2.150   3.938  14.661  0.2379  0.3783 -0.4115
  667MPD2    H1 9873   2.367   3.706  14.380 -1.5284  1.7950 -0.3297
  667MPD2    H2 9874   2.574   3.933  14.670  0.6149 -0.3004 -0.9323
  667MPD2    H3 9875   2.572   3.772  14.482 -0.1501  2.2661 -1.6834
  667MPD2     N 9876   2.131   3.760  14.453 -0.2373  0.3402 -0.1017
  667MPD2    H5 9877   2.129   3.669  14.410  1.1375  0.0707  0.3953
  667MPD2    N1 9878   2.355   4.011  14.800  0.4600  0.1329  0.4304
  667MPD2    H7 9879   2.263   4.042  14.830  0.5142  1.8599 -1.1397
  668TMC3    C1 9880   2.434   4.078  15.010  0.2202 -0.0599 -0.6404
  668TMC3    C2 9881   2.534   4.141  15.078 -0.0656 -0.4014 -0.4443
  668TMC3    C3 9882   2.526   4.145  15.216 -0.6974 -0.3935  0.0897
  668TMC3    C4 9883   2.354   3.995  15.072 -0.3316  0.2605 -0.7220
  668TMC3    C5 9884   2.334   4.004  15.210 -0.1339  0.1096  0.0552
  668TMC3    C6 9885   2.426   4.079  15.278 -0.3049  0.0949  0.5467
  668TMC3     C 9886   2.463   4.061  14.868  0.2051  0.7694 -0.0991
  668TMC3     O 9887   2.581   4.064  14.842 -0.3606  0.3478  0.0851
  668TMC3     H 9888   2.613   4.192  15.024 -0.0306 -0.7673 -0.7375
  668TMC3    H1 9889   2.282   3.934  15.019 -2.1167  2.6068 -0.9991
  668TMC3    H2 9890   2.405   4.095  15.384 -0.0761  1.9420  0.3069
  668TMC3    C7 9891   2.257   3.912  15.288 -0.3017 -0.6161  0.1380
  668TMC3    C8 9892   2.632   4.196  15.298  0.1587 -0.0267  0.4890
  668TMC3    O1 9893   2.239   3.940  15.408  0.1271 -0.3588 -0.3816
  668TMC3    O2 9894   2.648   4.150  15.411  0.3024  0.0403  0.0899
  669TMC3    C1 9895   0.963   4.099  14.427 -0.2868  0.0315 -0.3777
  669TMC3    C2 9896   0.840   4.103  14.356  0.0066  0.0406  0.0052
  669TMC3    C3 9897   0.827   4.202  14.263  0.5123 -0.2280  0.1216
  669TMC3    C4 9898   1.064   4.189  14.404 -0.7481 -0.7006 -0.4932
  669TMC3    C5 9899   1.044   4.285  14.314 -0.0652  0.0656 -0.2777
  669TMC3    C6 9900   0.929   4.296  14.244 -0.5302  0.3364  0.9124
  669TMC3     C 9901   0.962   4.024  14.551  0.7862 -0.1063 -0.6305
  669TMC3     O 9902   0.849   3.984  14.576  0.2924  0.4393 -0.5806
  669TMC3     H 9903   0.764   4.029  14.377  1.4309 -0.4216  3.5410
  669TMC3    H1 9904   1.146   4.186  14.474 -0.4830  0.7742 -0.7432
  669TMC3    H2 9905   0.923   4.364  14.160  0.4789 -0.9200 -0.1775
  669TMC3    C7 9906   1.166   4.360  14.278  0.2386 -0.3595 -0.8029
  669TMC3    C8 9907   0.730   4.172  14.162  0.4934  0.5925 -0.5277
  669TMC3    O1 9908   1.264   4.338  14.350 -0.7338  0.7435 -0.2452
  669TMC3    O2 9909   0.675   4.061  14.164 -0.1601 -0.2845  0.3172
  670MPD2     C 9910   3.423   1.671  13.424  0.9359  0.9239 -0.0635
  670MPD2    C1 9911   3.529   1.736  13.490 -0.1888  0.6276 -0.1522
  670MPD2    C2 9912   3.550   1.706  13.626 -0.8629 -0.2821 -1.0360
  670MPD2    C3 9913   3.477   1.607  13.685 -0.3421  0.2853  0.6618
  670MPD2    C4 9914   3.378   1.542  13.614 -0.0625 -0.4451  0.0018
  670MPD2    C5 9915   3.350   1.573  13.481  0.0097 -0.5243 -0.2853
  670MPD2     H 9916   3.633   1.757  13.676 -1.3817 -0.3329 -0.1240
  670MPD2    H1 9917   3.315   1.467  13.662  0.3015 -1.4281 -1.0548
  670MPD2    H2 9918   3.394   1.701  13.324 -1.1774  0.5560  0.4500
  670MPD2    H3 9919   3.261   1.529  13.437  0.6067  0.3073 -2.3365
  670MPD2     N 9920   3.503   1.589  13.824  0.0118 -0.1430 -0.5465
  670MPD2    H5 9921   3.578   1.649  13.858  0.3142 -0.2324 -1.0679
  670MPD2    N1 9922   3.607   1.836  13.422 -0.2966 -0.0115 -0.1161
  670MPD2    H7 9923   3.657   1.893  13.489  0.6213 -2.4208  1.2234
  671TMC3    C1 9924   3.511   1.490  14.040 -0.7700  0.7687 -0.2019
  671TMC3    C2 9925   3.635   1.546  14.052  0.0760  0.0247 -0.6338
  671TMC3    C3 9926   3.714   1.506  14.154  0.8855  0.2008  0.6362
  671TMC3    C4 9927   3.468   1.394  14.127  0.5406  0.1960  0.0187
  671TMC3    C5 9928   3.547   1.358  14.232 -0.4469 -0.0615 -0.2583
  671TMC3    C6 9929   3.673   1.408  14.242  0.4452  0.1232  1.0490
  671TMC3     C 9930   3.436   1.511  13.919 -0.1794  0.3391  0.1217
  671TMC3     O 9931   3.338   1.438  13.900  0.4966 -0.1575  0.5876
  671TMC3     H 9932   3.682   1.603  13.973  1.0998 -0.5443 -0.4296
  671TMC3    H1 9933   3.376   1.342  14.104 -0.4056  2.5559 -1.5367
  671TMC3    H2 9934   3.747   1.360  14.305 -0.1489 -0.4981  1.2719
  671TMC3    C7 9935   3.505   1.235  14.300 -0.1964 -0.3506  0.4042
  671TMC3    C8 9936   3.852   1.487  14.118  0.0960  0.3149  0.5259
  671TMC3    O1 9937   3.392   1.194  14.278  0.1771  0.1291  0.6057
  671TMC3    O2 9938   3.881   1.470  14.002  0.2599  0.1455 -0.1903
  672MPD2     C 9939   3.504   2.219   1.013  0.0564 -0.2162  0.0607
  672MPD2    C1 9940   3.621   2.148   1.020 -0.4834 -0.4342  0.6385
  672MPD2    C2 9941   3.666   2.110   1.146 -0.1803  0.4946 -0.0343
  672MPD2    C3 9942   3.588   2.142   1.256  0.5643 -0.3346 -0.4781
  672MPD2    C4 9943   3.466   2.207   1.244  0.6677 -0.2323  0.5205
  672MPD2    C5 9944   3.425   2.249   1.120  0.4816  0.2717 -0.5614
  672MPD2     H 9945   3.760   2.056   1.157 -0.5760 -0.7939 -3.0438
  672MPD2    H1 9946   3.416   2.239   1.335  0.1120  0.6723 -0.1082
  672MPD2    H2 9947   3.456   2.252   0.922  0.1978 -0.5172 -0.1248
  672MPD2    H3 9948   3.334   2.307   1.108  0.2746 -0.3040 -1.7415
  672MPD2     N 9949   3.623   2.096   1.386 -0.3240  0.2666  1.0040
  672MPD2    H5 9950   3.565   2.125   1.464  0.4780  2.6542  0.7391
  672MPD2    N1 9951   3.676   2.107   0.897  1.1682  0.4545  0.1253
  672MPD2    H7 9952   3.618   2.128   0.816  3.9038 -2.9156 -2.7401
  673TMC3    C1 9953   3.823   2.018   0.744  0.3257  0.3975 -0.2606
  673TMC3    C2 9954   3.905   1.907   0.716 -0.1389  0.8743 -0.3558
  673TMC3    C3 9955   3.980   1.900   0.605  0.2801 -0.3838 -0.6841
  673TMC3    C4 9956   3.837   2.128   0.666 -0.3181  0.0631  0.1321
  673TMC3    C5 9957   3.908   2.116   0.554 -0.6676  0.1017 -1.0862
  673TMC3    C6 9958   3.976   1.994   0.515  0.4259 -0.2773 -0.2275
  673TMC3     C 9959   3.797   2.048   0.880  0.5588  0.5911 -0.2746
  673TMC3     O 9960   3.863   1.992   0.963 -0.0613 -0.2352 -0.2115
  673TMC3     H 9961   3.902   1.826   0.788  1.8772 -0.4456 -1.7719
  673TMC3    H1 9962   3.773   2.213   0.688 -0.4239  0.8618 -3.2504
  673TMC3    H2 9963   4.052   1.995   0.437  0.4272 -0.2580 -0.2260
  673TMC3    C7 9964   3.980   2.234   0.503  0.6410  0.5146  0.2351
  673TMC3    C8 9965   4.057   1.777   0.567  0.0944  0.5620  0.1397
  673TMC3    O1 9966   4.083   2.217   0.442 -0.2407 -0.0060 -0.8411
  673TMC3    O2 9967   4.083   1.762   0.449 -0.9660  0.8739 -0.2229
  674MPD2     C 9968   3.594   2.683   0.197  0.8141 -1.2872  0.7988
  674MPD2    C1 9969   3.644   2.559   0.229 -0.1233  0.4209  0.4032
  674MPD2    C2 9970   3.563   2.470   0.294  0.0942 -0.5702  0.1332
  674MPD2    C3 9971   3.438   2.504   0.348 -0.0993  0.6889 -0.4758
  674MPD2    C4 9972   3.395   2.630   0.317  0.0346 -0.0119  1.0214
  674MPD2    C5 9973   3.470   2.722   0.244 -0.4806  0.0752 -0.2101
  674MPD2     H 9974   3.604   2.378   0.333 -2.4677 -1.6826  0.1691
  674MPD2    H1 9975   3.295   2.660   0.350 -0.0802 -1.0226  1.5868
  674MPD2    H2 9976   3.639   2.753   0.128 -1.8987 -2.7183 -2.3932
  674MPD2    H3 9977   3.433   2.822   0.225 -0.5951  0.5021  2.3720
  674MPD2     N 9978   3.361   2.400   0.417  0.3414  0.2213 -0.6653
  674MPD2    H5 9979   3.404   2.308   0.429  0.1877  0.4279  1.4490
  674MPD2    N1 9980   3.767   2.517   0.168 -0.7635  0.2795  0.1251
  674MPD2    H7 9981   3.816   2.577   0.104  0.3576 -0.2852  0.4489
  675TMC3    C1 9982   3.950   2.378   0.110 -0.8692 -0.9310 -0.6396
  675TMC3    C2 9983   3.955   2.255   0.060  1.0393 -0.0689  0.3235
  675TMC3    C3 9984   4.071   2.188   0.051 -0.2849  0.1150 -0.2034
  675TMC3    C4 9985   4.061   2.433   0.164  0.3394  0.0587  1.4304
  675TMC3    C5 9986   4.178   2.358   0.167  0.0807 -0.4909 -0.0419
  675TMC3    C6 9987   4.187   2.234   0.109 -0.3844  0.3266 -0.3233
  675TMC3     C 9988   3.829   2.396   0.187  0.9841  0.4205  0.7151
  675TMC3     O 9989   3.788   2.294   0.234 -0.7820  0.2155  0.3746
  675TMC3     H 9990   3.864   2.204   0.031  1.0826  0.6215 -1.0550
  675TMC3    H1 9991   4.044   2.523   0.223  0.2134  1.5963 -0.9468
  675TMC3    H2 9992   4.281   2.182   0.106 -0.8657 -0.5433 -0.1244
  675TMC3    C7 9993   4.305   2.413   0.214  1.2802  0.0892  0.2505
  675TMC3    C8 9994   4.076   2.044   0.040  0.3379  0.0674 -0.3190
  675TMC3    O1 9995   4.387   2.329   0.250  0.0553  0.2505  0.4113
  675TMC3    O2 9996   4.178   1.973   0.021  0.1799  0.1402 -0.8731
  676MPD2     C 9997   1.301   0.286  11.358  0.4322  0.9195 -0.0172
  676MPD2    C1 9998   1.311   0.170  11.431  0.1075 -0.3855  0.6207
  676MPD2    C2 9999   1.331   0.053  11.370 -0.7428 -0.6346 -0.5998
  676MPD2    C310000   1.371   0.051  11.232  0.6439  0.1660 -0.0652
  676MPD2    C410001   1.372   0.165  11.157 -0.6133  0.1154  0.2121
  676MPD2    C510002   1.320   0.277  11.222  0.2472 -0.1298 -0.7612
  676MPD2     H10003   1.341   4.690  11.435  0.6266  0.9689  1.3030
  676MPD2    H110004   1.401   0.165  11.053 -3.6452  0.9306 -0.6085
  676MPD2    H210005   1.253   0.376  11.395  0.7216  0.6146  1.1177
  676MPD2    H310006   1.298   0.368  11.168  0.1871 -1.0115 -2.2050
  676MPD2     N10007   1.402   4.655  11.166  0.1969 -0.7569 -0.2798
  676MPD2    H510008   1.419   4.648  11.066  0.1405  0.5737 -0.3743
  676MPD2    N110009   1.292   0.178  11.574  0.1997 -0.2990  0.2164
  676MPD2    H710010   1.277   0.089  11.621 -0.7062  0.0501  0.5844
  677TMC3    C110011   1.284   0.273  11.787 -0.8514  0.3012 -0.3826
  677TMC3    C210012   1.209   0.171  11.830 -0.2329  0.1697 -0.0575
  677TMC3    C310013   1.213   0.146  11.965  0.6993 -0.2995  0.0264
  677TMC3    C410014   1.363   0.355  11.870  0.2238  0.0993  0.2225
  677TMC3    C510015   1.339   0.342  12.006 -0.0273  0.1002 -0.3754
  677TMC3    C610016   1.262   0.237  12.054 -0.0682 -0.1288 -0.4908
  677TMC3     C10017   1.290   0.294  11.644  0.0136  0.5734 -0.4219
  677TMC3     O10018   1.342   0.398  11.615  0.1214 -0.0379 -0.2067
  677TMC3     H10019   1.157   0.094  11.773 -0.9498 -0.1823  1.0569
  677TMC3    H110020   1.429   0.424  11.819  0.6558  0.0420  0.7048
  677TMC3    H210021   1.264   0.213  12.159 -4.6255  1.6868  0.0104
  677TMC3    C710022   1.432   0.402  12.107  0.2092 -0.1956 -0.3813
  677TMC3    C810023   1.136   0.025  12.003 -0.4297 -0.1421 -0.2111
  677TMC3    O110024   1.424   0.364  12.219  0.2125  0.4680  0.2891
  677TMC3    O210025   1.023   0.004  11.954 -0.6316  0.3870 -0.0682
  678MPD2     C10026   3.523   0.904   1.524 -0.7187 -0.5469 -0.1022
  678MPD2    C110027   3.459   0.899   1.404  0.4781  0.1856 -0.0871
  678MPD2    C210028   3.324   0.872   1.401  0.4231 -0.1458 -0.6241
  678MPD2    C310029   3.255   0.880   1.516  0.4447 -0.2265  0.0016
  678MPD2    C410030   3.318   0.867   1.641 -0.5973  0.7041 -0.0534
  678MPD2    C510031   3.455   0.891   1.644 -0.2150 -0.1813  0.6425
  678MPD2     H10032   3.275   0.860   1.305  1.0567 -0.7532 -0.8719
  678MPD2    H110033   3.258   0.854   1.731  1.8094 -3.2246  0.9906
  678MPD2    H210034   3.630   0.918   1.538 -1.0986  0.0794  2.1194
  678MPD2    H310035   3.505   0.899   1.740  1.0693 -1.2344  0.0601
  678MPD2     N10036   3.115   0.892   1.501  0.1161 -0.3325 -0.4467
  678MPD2    H510037   3.075   0.875   1.409  0.2789 -2.7772 -0.0654
  678MPD2    N110038   3.533   0.917   1.287  0.1145 -0.1516 -0.6007
  678MPD2    H710039   3.485   0.921   1.198  0.8877 -0.5637 -1.0399
  679TMC3    C110040   3.745   0.821   0.936  0.3306  0.6911  0.2792
  679TMC3    C210041   3.765   0.828   1.075  0.1133 -0.2423  0.5316
  679TMC3    C310042   3.710   0.936   1.144 -0.2706 -0.2704 -0.1209
  679TMC3    C410043   3.677   0.920   0.866 -0.3804  0.0455 -0.5937
  679TMC3    C510044   3.639   1.026   0.939  0.3596  0.0127 -0.3027
  679TMC3    C610045   3.638   1.029   1.077  0.0321 -0.4505  0.0284
  679TMC3     C10046   3.767   0.697   0.873  0.5866  0.0629 -0.6623
  679TMC3     O10047   3.818   0.602   0.934 -0.0857 -0.2522 -0.1390
  679TMC3     H10048   3.826   0.755   1.127 -0.3081 -1.5816 -0.8634
  679TMC3    H110049   3.672   0.933   0.758  1.1645  0.0309 -0.6658
  679TMC3    H210050   3.618   1.124   1.126  1.2115  0.3592 -1.0582
  679TMC3    C710051   3.568   1.128   0.864 -0.2137 -0.1052  0.6671
  679TMC3    C810052   3.666   0.895   1.278  0.4339  0.0003  0.8099
  679TMC3    O110053   3.592   1.132   0.743  0.2837 -0.5602 -0.2257
  679TMC3    O210054   3.751   0.849   1.354 -0.1069  0.2132  0.6167
  680MPD2     C10055   4.142   3.736  13.527 -0.1686  0.0925  0.1168
  680MPD2    C110056   4.106   3.694  13.658  0.0543 -0.4686 -1.1416
  680MPD2    C210057   4.111   3.786  13.762  0.1542 -0.1980  0.6822
  680MPD2    C310058   4.143   3.918  13.733 -0.5625  0.5426  0.6852
  680MPD2    C410059   4.182   3.961  13.599 -0.6263  0.1000 -0.6096
  680MPD2    C510060   4.175   3.869  13.494  0.1316  0.0311  0.4257
  680MPD2     H10061   4.096   3.745  13.862 -1.9171  0.4801  0.6496
  680MPD2    H110062   4.214   4.062  13.579 -1.4726  0.2620 -1.1848
  680MPD2    H210063   4.129   3.673  13.440  0.8197  0.3838 -0.2473
  680MPD2    H310064   4.201   3.895  13.392  3.1203 -1.7904  0.7181
  680MPD2     N10065   4.158   4.015  13.830  0.6520 -0.1708  0.0670
  680MPD2    H510066   4.170   4.110  13.796 -2.1874 -0.1737 -0.9669
  680MPD2    N110067   4.051   3.566  13.685 -0.0618 -0.0853  0.0702
  680MPD2    H710068   4.011   3.550  13.776 -2.6221  0.4871 -0.9635
  681TMC3    C110069   3.993   3.332  13.649 -0.5077  0.6870 -0.3397
  681TMC3    C210070   3.989   3.305  13.781 -0.1610 -0.3511  0.7146
  681TMC3    C310071   3.946   3.184  13.824 -0.8811 -0.1587 -0.5832
  681TMC3    C410072   3.973   3.232  13.558 -0.5738 -0.1122  0.1594
  681TMC3    C510073   3.937   3.109  13.598 -0.7485 -0.2218  0.3455
  681TMC3    C610074   3.919   3.086  13.729  0.4533  0.3263  0.3256
  681TMC3     C10075   4.049   3.458  13.592 -0.1123 -0.6077 -0.4252
  681TMC3     O10076   4.096   3.450  13.478  0.4420 -0.0037 -0.2791
  681TMC3     H10077   4.023   3.380  13.852  2.6666 -1.1947  0.2821
  681TMC3    H110078   3.978   3.256  13.452 -0.0781 -3.2035 -0.5248
  681TMC3    H210079   3.914   2.981  13.757 -2.4553  1.2548  3.3258
  681TMC3    C710080   3.991   3.002  13.517  0.8120 -0.2340  0.0836
  681TMC3    C810081   3.885   3.176  13.953 -0.2956  0.2381  0.3336
  681TMC3    O110082   4.017   2.896  13.569 -0.2131 -0.0950  0.0090
  681TMC3    O210083   3.932   3.249  14.037 -0.3442 -0.5171  0.1725
  682MPD2     C10084   0.621   0.335  10.970 -0.6747  0.4357  0.4359
  682MPD2    C110085   0.636   0.197  10.960  0.1454  0.0900  0.7653
  682MPD2    C210086   0.638   0.129  11.077  0.2632 -0.1160  0.2586
  682MPD2    C310087   0.620   0.193  11.207 -0.0704  0.4731 -0.6663
  682MPD2    C410088   0.603   0.327  11.211 -0.4636 -0.3105  0.2094
  682MPD2    C510089   0.596   0.397  11.092  0.5900  1.5551  0.0855
  682MPD2     H10090   0.660   0.025  11.057  1.6881  0.1174  0.5689
  682MPD2    H110091   0.577   0.380  11.302 -0.7844 -2.3238  1.2934
  682MPD2    H210092   0.623   0.398  10.881 -0.3876  0.9964  0.8335
  682MPD2    H310093   0.601   0.504  11.106 -1.0392  2.1287 -3.6129
  682MPD2     N10094   0.612   0.119  11.332 -0.0898  0.1689 -0.0456
  682MPD2    H510095   0.599   0.161  11.423 -1.9232 -1.6787  0.5279
  682MPD2    N110096   0.652   0.130  10.841  0.4112 -0.4544  0.3784
  682MPD2    H710097   0.658   0.029  10.855  5.6116  0.0533  1.7195
  683TMC3    C110098   0.573   4.705  11.704 -0.0277  0.3783 -0.2977
  683TMC3    C210099   0.649   4.598  11.737  0.0567  0.7190  0.0117
  683TMC3    C310100   0.687   4.507  11.631  0.2547  0.3466 -0.4298
  683TMC3    C410101   0.560   0.019  11.571  0.3959 -0.4323  0.3682
  683TMC3    C510102   0.594   4.658  11.476  0.2457  0.8068 -0.0066
  683TMC3    C610103   0.666   4.542  11.501 -0.2911 -0.9405  0.4508
  683TMC3     C10104   0.569   0.089  11.796  0.4191 -0.3629 -0.7289
  683TMC3     O10105   0.506   0.188  11.757 -0.0578 -0.0254  0.3562
  683TMC3     H10106   0.645   4.556  11.837 -3.4337  1.1806  0.0826
  683TMC3    H110107   0.490   0.097  11.543  0.3201 -1.2593 -1.6918
  683TMC3    H210108   0.731   4.499  11.425 -1.6389 -2.1383 -0.0133
  683TMC3    C710109   0.611   4.706  11.342 -0.1143 -0.1343 -0.4153
  683TMC3    C810110   0.759   4.386  11.667  0.1353  0.2968  0.5277
  683TMC3    O110111   0.609   4.630  11.249 -0.0840 -0.0828  0.1681
  683TMC3    O210112   0.817   4.388  11.772  0.6468  0.3952  0.0837
  684MPD2     C10113   4.042   4.427  16.131 -0.9063  0.3425 -0.6418
  684MPD2    C110114   4.056   4.369  16.003  0.0772 -0.2641 -0.7665
  684MPD2    C210115   4.029   4.451  15.894 -0.9446 -0.0874  0.0993
  684MPD2    C310116   4.012   4.592  15.911 -0.0865 -0.2865  0.6693
  684MPD2    C410117   3.996   4.640  16.039  0.4554 -0.1404 -0.1374
  684MPD2    C510118   4.013   4.557  16.146  0.7993 -0.0796  0.2992
  684MPD2     H10119   4.030   4.408  15.795  0.0672  1.3116 -0.4948
  684MPD2    H110120   3.987   0.022  16.062  0.7306 -0.5954  2.0612
  684MPD2    H210121   4.049   4.368  16.222 -1.3513 -2.1663 -2.2148
  684MPD2    H310122   3.996   4.604  16.242 -2.0903 -0.5998  0.0355
  684MPD2     N10123   4.005   4.685  15.805  0.1116  0.1592 -0.1556
  684MPD2    H510124   3.984   0.056  15.837 -0.2496 -0.5497  1.7495
  684MPD2    N110125   4.090   4.234  15.981 -0.0629  0.7926  0.5778
  684MPD2    H710126   4.080   4.214  15.882  0.9221  2.1531  0.2209
  685TMC3    C110127   4.140   4.009  16.031  0.2265  0.0138  0.3460
  685TMC3    C210128   4.042   3.959  15.951 -0.0086  0.4560 -0.1215
  685TMC3    C310129   4.077   3.849  15.876 -0.1806  0.1753 -0.0930
  685TMC3    C410130   4.260   3.943  16.059 -0.3147  0.6045 -0.3183
  685TMC3    C510131   4.282   3.826  15.995 -0.1791 -0.1808  0.3648
  685TMC3    C610132   4.198   3.783  15.896 -0.0057  0.3307 -0.4708
  685TMC3     C10133   4.128   4.143  16.075  0.0815  0.1075 -0.0669
  685TMC3     O10134   4.148   4.163  16.198  0.1723  0.1327  0.1142
  685TMC3     H10135   3.953   4.021  15.946  0.9241  1.8291  0.0091
  685TMC3    H110136   4.330   3.988  16.128  2.0168 -0.6986 -1.8496
  685TMC3    H210137   4.211   3.683  15.854  0.0973  0.7021 -1.3143
  685TMC3    C710138   4.387   3.742  16.039 -0.3078  0.1745 -0.3888
  685TMC3    C810139   3.976   3.793  15.793 -0.0633 -0.8240  0.2822
  685TMC3    O110140   4.374   3.622  16.009  0.5062 -0.1534  0.3003
  685TMC3    O210141   3.990   3.676  15.754  0.8947 -0.5371 -1.2780
  686MPD2     C10142   0.883   3.845  15.663 -0.2286 -0.0577  0.0178
  686MPD2    C110143   0.803   3.939  15.715 -0.8295 -0.6558  0.4997
  686MPD2    C210144   0.671   3.936  15.663 -0.5792  0.0146 -0.0620
  686MPD2    C310145   0.635   3.857  15.555 -0.1051  0.2057 -0.5906
  686MPD2    C410146   0.732   3.798  15.484 -0.1122  0.1879 -0.4000
  686MPD2    C510147   0.850   3.789  15.543 -0.1373 -0.4474  0.5392
  686MPD2     H10148   0.591   3.999  15.700  0.4700  1.5070 -0.3032
  686MPD2    H110149   0.703   3.738  15.398  1.2047  1.2202 -1.5644
  686MPD2    H210150   0.986   3.826  15.694 -0.5218 -0.5493  0.6798
  686MPD2    H310151   0.914   3.714  15.498  0.8595 -0.7571  2.4814
  686MPD2     N10152   0.500   3.838  15.505 -0.1105 -1.4436  0.4220
  686MPD2    H510153   0.491   3.809  15.408  1.3800  0.6924 -0.3563
  686MPD2    N110154   0.834   4.016  15.834  0.3386 -0.0740  0.1395
  686MPD2    H710155   0.928   4.008  15.870 -0.0896 -0.6922  1.1169
  687TMC3    C110156   0.388   3.870  15.714 -0.4301  0.3869  0.9443
  687TMC3    C210157   0.327   3.986  15.746 -0.1619 -0.2174 -0.1866
  687TMC3    C310158   0.323   4.018  15.876 -1.1320  0.5948  0.2944
  687TMC3    C410159   0.449   3.787  15.806  0.2277 -0.1840  0.1391
  687TMC3    C510160   0.445   3.830  15.937 -0.2706 -0.3557 -0.5548
  687TMC3    C610161   0.372   3.940  15.974 -0.5282 -0.2684 -0.7136
  687TMC3     C10162   0.379   3.833  15.575 -0.6011 -0.1829 -0.2009
  687TMC3     O10163   0.266   3.834  15.533  0.3081 -0.5640 -0.2420
  687TMC3     H10164   0.294   4.055  15.669 -0.4371  0.8829  0.9245
  687TMC3    H110165   0.499   3.695  15.777  1.7280  0.6936 -0.0859
  687TMC3    H210166   0.375   3.985  16.072  0.8425  0.0733 -0.9099
  687TMC3    C710167   0.558   3.803  16.022  0.4944 -0.0547  0.3750
  687TMC3    C810168   0.317   4.156  15.898  0.5555  0.0339 -0.2357
  687TMC3    O110169   0.560   3.872  16.123 -0.3997 -0.1255 -0.3485
  687TMC3    O210170   0.274   4.187  16.011  0.2643  0.0787 -0.1661
  688MPD2     C10171   4.621   3.332  17.450  0.3905  0.0663 -0.2504
  688MPD2    C110172   4.604   3.196  17.455  0.2023  0.4908 -0.4949
  688MPD2    C210173   4.702   3.115  17.401  0.2804 -0.3566  0.0850
  688MPD2    C310174   0.093   3.174  17.348  0.0934  0.2710 -0.2328
  688MPD2    C410175   0.108   3.313  17.352  0.8606  0.4075 -0.4583
  688MPD2    C510176   0.013   3.393  17.397 -0.0546  0.7514  0.8608
  688MPD2     H10177   4.679   3.010  17.387 -0.5014 -0.2304  0.4580
  688MPD2    H110178   0.199   3.361  17.316  0.3104  1.8983  0.1463
  688MPD2    H210179   4.541   3.398  17.482  1.4113  1.2751 -0.1967
  688MPD2    H310180   0.020   3.501  17.391 -0.2222  0.7430  0.5004
  688MPD2     N10181   0.202   3.098  17.298  0.0692  1.0440  0.2229
  688MPD2    H510182   0.292   3.143  17.281 -0.1617  1.9205  1.3860
  688MPD2    N110183   4.493   3.132  17.521 -0.1649 -0.2507 -0.0488
  688MPD2    H710184   4.498   3.033  17.539 -0.0693 -0.0437  1.0147
  689TMC3    C110185   4.311   3.107  17.660 -0.2654  0.2404  0.0460
  689TMC3    C210186   4.252   3.147   0.078  0.5645 -0.0787  0.2538
  689TMC3    C310187   4.159   3.065   0.131  0.0453 -0.2697 -0.0962
  689TMC3    C410188   4.271   2.992  17.594 -0.4102  0.5586 -0.4709
  689TMC3    C510189   4.166   2.925  17.645  0.3439  0.5545 -0.5437
  689TMC3    C610190   4.108   2.960   0.065  0.0203  0.0134  0.0073
  689TMC3     C10191   4.391   3.203  17.584  0.5981 -0.5529 -0.1153
  689TMC3     O10192   4.389   3.315  17.628  0.0514 -0.2942  0.5178
  689TMC3     H10193   4.281   3.240   0.124  0.5228  0.1635 -0.2151
  689TMC3    H110194   4.308   2.960  17.497  0.6386  0.4029 -0.0176
  689TMC3    H210195   4.027   2.902   0.108  1.4245 -0.9408  1.3703
  689TMC3    C710196   4.164   2.782  17.621  0.5521  0.4734 -0.1657
  689TMC3    C810197   4.124   3.082   0.269 -0.0588  0.3147 -0.1897
  689TMC3    O110198   4.174   2.712   0.025 -0.0459 -0.1137  0.3614
  689TMC3    O210199   4.027   3.015   0.311 -0.4198  0.0051 -0.7313
  690MPD2     C10200   2.374   0.434  15.829 -0.1108  0.9636  0.0173
  690MPD2    C110201   2.322   0.431  15.703 -0.1467  0.1824 -0.3617
  690MPD2    C210202   2.390   0.491  15.600 -0.1941 -0.0530  0.2297
  690MPD2    C310203   2.503   0.565  15.619  0.1019  0.5835  0.1225
  690MPD2    C410204   2.561   0.566  15.743 -0.2871  0.1570 -0.4364
  690MPD2    C510205   2.486   0.509  15.844 -0.2629 -0.6029 -0.5782
  690MPD2     H10206   2.347   0.494  15.501 -0.6146  0.9915  0.4422
  690MPD2    H110207   2.650   0.623  15.764 -1.2101  1.7391 -0.8257
  690MPD2    H210208   2.333   0.392  15.919 -0.4178 -0.7388 -0.9114
  690MPD2    H310209   2.525   0.525  15.944  0.4605  1.0481 -1.1263
  690MPD2     N10210   2.548   0.620  15.498 -0.3468  0.3044  0.7829
  690MPD2    H510211   2.492   0.598  15.417 -0.1695 -0.4915  0.8795
  690MPD2    N110212   2.199   0.363  15.678  0.0962 -0.0546  0.7522
  690MPD2    H710213   2.160   0.377  15.586  1.8584 -1.9577 -0.3042
  691TMC3    C110214   2.030   0.195  15.708 -0.0979 -1.0183 -0.1464
  691TMC3    C210215   1.931   0.270  15.651  0.5746 -0.5216  0.2316
  691TMC3    C310216   1.809   0.208  15.638  0.6259 -0.9051  0.0984
  691TMC3    C410217   2.017   0.064  15.743 -0.7199  0.0271 -0.3565
  691TMC3    C510218   1.892   0.005  15.718 -0.3005 -0.0725  1.0578
  691TMC3    C610219   1.789   0.076  15.661  0.1663 -0.3431 -0.9876
  691TMC3     C10220   2.150   0.259  15.763 -0.2984 -0.1307  0.1272
  691TMC3     O10221   2.195   0.213  15.867 -0.1651 -0.3602 -0.0328
  691TMC3     H10222   1.960   0.369  15.616 -2.3982  0.7246  1.3192
  691TMC3    H110223   2.104   0.011  15.782 -2.1549 -1.4622  0.8469
  691TMC3    H210224   1.692   0.032  15.645  0.6934 -0.8853 -2.6408
  691TMC3    C710225   1.869   4.601  15.777 -0.5498  0.4517  0.1570
  691TMC3    C810226   1.697   0.295  15.644  0.7088 -0.3646  0.4528
  691TMC3    O110227   1.964   4.569  15.854 -0.1148 -0.1161  0.0541
  691TMC3    O210228   1.591   0.234  15.655  0.2913 -0.0249  0.1335
  692TMC3    C110229   3.577   1.153  16.127  0.7040 -0.1612  0.0185
  692TMC3    C210230   3.708   1.183  16.143 -0.3259 -0.7089 -0.5768
  692TMC3    C310231   3.805   1.128  16.062  0.0421 -0.3418  0.3664
  692TMC3    C410232   3.534   1.074  16.030 -0.3735 -0.4448  0.4479
  692TMC3    C510233   3.631   1.001  15.971  0.1850 -0.1630 -0.8616
  692TMC3    C610234   3.769   1.017  15.991  0.7620  0.0803 -0.2246
  692TMC3     C10235   3.478   1.246  16.176  0.1823 -1.0379  0.5151
  692TMC3     O10236   3.361   1.202  16.169  0.5947  0.4284 -0.1798
  692TMC3     H10237   3.727   1.222  16.242  0.9209 -1.1830 -0.6315
  692TMC3    H110238   3.427   1.068  16.012 -0.1759 -0.9076 -0.5792
  692TMC3    H210239   3.840   0.975  15.921 -1.5024  0.8973 -3.0204
  692TMC3    C710240   3.584   0.902  15.873  0.6793 -0.1702 -0.8666
  692TMC3    C810241   3.942   1.099  16.117  0.1717 -0.2111 -0.5176
  692TMC3    O110242   3.468   0.919  15.839 -0.1468 -0.1704  0.0994
  692TMC3    O210243   4.007   1.008  16.073  0.2702  0.1327  0.0252
  693MPD2     C10244   2.804   4.269  11.152  0.8308 -0.4702 -0.0863
  693MPD2    C110245   2.811   4.165  11.239  0.7911  0.2042  0.6026
  693MPD2    C210246   2.920   4.154  11.324  0.4387  0.5270  0.4453
  693MPD2    C310247   3.023   4.250  11.316  0.3442 -0.4162  0.0041
  693MPD2    C410248   3.016   4.354  11.227 -0.3082 -0.4734 -0.2491
  693MPD2    C510249   2.911   4.358  11.139 -0.1493  0.0680 -0.1669
  693MPD2     H10250   2.930   4.071  11.393  2.9736 -0.3744 -1.0179
  693MPD2    H110251   3.097   4.423  11.243 -0.4229  0.0246 -1.8714
  693MPD2    H210252   2.726   4.265  11.077  0.6757  0.3344  0.0325
  693MPD2    H310253   2.906   4.436  11.064 -0.8234  0.8212  0.6576
  693MPD2     N10254   3.142   4.235  11.388  0.5573  0.4521  0.5247
  693MPD2    H510255   3.223   4.291  11.362  0.3154 -0.0314 -1.2414
  693MPD2    N110256   2.729   4.050  11.230 -0.1728  0.1579 -0.1706
  693MPD2    H710257   2.765   3.967  11.274  0.8444  0.5193 -0.3160
  694TMC3    C110258   2.557   3.901  11.188  0.4009 -0.3055  0.7056
  694TMC3    C210259   2.483   3.842  11.087  0.0747  0.9383  1.1638
  694TMC3    C310260   2.443   3.708  11.110  0.5549  0.0082  0.4939
  694TMC3    C410261   2.580   3.838  11.309 -0.0099 -0.0733 -0.5099
  694TMC3    C510262   2.546   3.707  11.323 -0.1264  0.2717  0.3161
  694TMC3    C610263   2.475   3.638  11.226  0.0400  0.7833 -0.0288
  694TMC3     C10264   2.602   4.033  11.171  0.0814  0.5080 -0.2083
  694TMC3     O10265   2.544   4.111  11.094 -0.2521  0.5970  0.6613
  694TMC3     H10266   2.446   3.896  11.001 -1.8795 -2.7306 -0.3214
  694TMC3    H110267   2.636   3.880  11.391  1.4441 -0.1695 -1.4450
  694TMC3    H210268   2.445   3.535  11.244 -2.0579  1.6452  1.3877
  694TMC3    C710269   2.599   3.639  11.443 -0.2356 -0.1202 -0.8069
  694TMC3    C810270   2.386   3.626  10.998 -0.4887 -0.0583  0.3487
  694TMC3    O110271   2.656   3.713  11.523 -0.2616  0.1354  0.6224
  694TMC3    O210272   2.325   3.521  11.025 -0.3058  0.0122  0.4244
  695MPD2     C10273   3.913   0.483  13.728 -0.7026  0.6793 -0.5992
  695MPD2    C110274   3.907   0.572  13.832 -0.1123  0.2967 -0.1834
  695MPD2    C210275   3.789   0.564  13.907 -0.0534 -0.0074 -0.6088
  695MPD2    C310276   3.676   0.490  13.874  0.2536 -0.3214  1.4093
  695MPD2    C410277   3.684   0.415  13.757  0.1239 -0.0010 -0.0246
  695MPD2    C510278   3.798   0.411  13.688  0.3036  0.0651 -0.4809
  695MPD2     H10279   3.781   0.630  13.993  1.2331 -1.6806  0.8021
  695MPD2    H110280   3.604   0.355  13.716  1.2468  0.2265 -2.5056
  695MPD2    H210281   4.001   0.486  13.665 -0.7184 -1.0155 -0.7240
  695MPD2    H310282   3.801   0.379  13.584  0.8834  0.1210 -0.4802
  695MPD2     N10283   3.547   0.483  13.940 -0.1547  0.2777 -0.0026
  695MPD2    H510284   3.478   0.419  13.902  1.1268 -0.7954 -0.5345
  695MPD2    N110285   4.008   0.659  13.864  0.1662 -0.3852  0.0344
  695MPD2    H710286   3.993   0.713  13.948 -2.5491 -1.8296  0.4514
  696TMC3    C110287   3.382   0.519  14.102  0.3600  0.4751  0.0425
  696TMC3    C210288   3.363   0.538  14.237  0.3887 -0.3305 -0.1957
  696TMC3    C310289   3.256   0.612  14.279  0.3278  0.1264 -0.9520
  696TMC3    C410290   3.274   0.536  14.011  0.6870 -0.6169  0.4461
  696TMC3    C510291   3.167   0.600  14.062 -0.3983 -0.4173  0.0228
  696TMC3    C610292   3.153   0.630  14.196 -0.3383  0.1345  0.7280
  696TMC3     C10293   3.518   0.541  14.057 -0.0521  0.8165 -0.4994
  696TMC3     O10294   3.587   0.612  14.131 -0.2784 -0.0191 -0.2772
  696TMC3     H10295   3.444   0.518  14.306  1.3481 -0.1026 -1.2760
  696TMC3    H110296   3.296   0.539  13.905 -0.3481  1.7689  0.2823
  696TMC3    H210297   3.064   0.679  14.233 -0.9259 -0.2136 -0.2098
  696TMC3    C710298   3.118   0.698  13.966 -0.2710 -0.5171 -0.2224
  696TMC3    C810299   3.292   0.740  14.342 -0.1082 -0.0057  0.2433
  696TMC3    O110300   3.126   0.677  13.848  0.0065  0.1193  0.4994
  696TMC3    O210301   3.224   0.836  14.316 -0.1804 -0.1275 -0.2854
  697MPD2     C10302   2.807   2.912  15.842 -0.2257 -0.2985 -0.0581
  697MPD2    C110303   2.862   2.838  15.744 -0.4159 -0.8399  0.2776
  697MPD2    C210304   2.910   2.897  15.628 -0.2149  0.3771 -0.2532
  697MPD2    C310305   2.894   3.029  15.601  0.1494  0.5751 -0.6165
  697MPD2    C410306   2.840   3.106  15.697  0.4240 -0.3948  0.1134
  697MPD2    C510307   2.796   3.047  15.816  0.0594  0.6410 -0.5744
  697MPD2     H10308   2.970   2.834  15.564  0.4169  1.1255 -0.3854
  697MPD2    H110309   2.850   3.213  15.696  0.1356 -0.3820 -1.7870
  697MPD2    H210310   2.786   2.887  15.945 -2.0826 -0.5406 -0.4846
  697MPD2    H310311   2.762   3.118  15.891  1.1566 -0.2439  0.7734
  697MPD2     N10312   2.956   3.071  15.486  0.5843  0.1475 -0.1695
  697MPD2    H510313   3.017   3.005  15.441  0.7256  0.3077 -0.2132
  697MPD2    N110314   2.884   2.699  15.760 -0.4250 -0.8168  0.1088
  697MPD2    H710315   2.921   2.648  15.680 -0.4067  1.0313 -1.0761
  698TMC3    C110316   3.058   3.231  15.349 -0.3095 -0.4459  0.0127
  698TMC3    C210317   3.110   3.357  15.361  0.2646 -0.1630 -0.2325
  698TMC3    C310318   3.216   3.383  15.280 -0.2409 -0.2774 -0.2370
  698TMC3    C410319   3.097   3.136  15.262  0.5085  0.2218  0.6184
  698TMC3    C510320   3.199   3.169  15.177 -0.0917  0.1575  0.0603
  698TMC3    C610321   3.262   3.292  15.196 -0.2406  1.0613  0.2094
  698TMC3     C10322   2.954   3.202  15.444 -0.5573 -0.3248 -0.4622
  698TMC3     O10323   2.883   3.295  15.476 -0.0620  0.3371 -0.1989
  698TMC3     H10324   3.053   3.430  15.418  0.1109 -0.5667  0.1330
  698TMC3    H110325   3.038   3.048  15.238  0.7242  0.1855  0.2083
  698TMC3    H210326   3.331   3.323  15.117  1.2727  0.2375  1.2012
  698TMC3    C710327   3.167   3.135  15.036 -0.2052  0.2534  0.2965
  698TMC3    C810328   3.239   3.521  15.247  0.0869  0.1012 -0.3338
  698TMC3    O110329   3.063   3.074  15.014 -0.3246 -0.2430 -0.0411
  698TMC3    O210330   3.143   3.600  15.245 -0.1689  0.4194  0.5340
  699TMC3    C110331   3.276   1.236  13.165 -0.3785  0.8286  0.1595
  699TMC3    C210332   3.299   1.130  13.253  0.0080 -0.2734 -0.1771
  699TMC3    C310333   3.218   1.119  13.364  0.0677  0.4171  0.0616
  699TMC3    C410334   3.175   1.329  13.187  0.0791 -0.3665  0.1452
  699TMC3    C510335   3.092   1.305  13.293  0.8931  0.4264  0.1228
  699TMC3    C610336   3.109   1.208  13.383  1.0747 -0.3100 -0.0214
  699TMC3     C10337   3.318   1.223  13.027 -0.4307  1.0197 -0.3831
  699TMC3     O10338   3.238   1.273  12.947  0.2462  0.0677 -0.0833
  699TMC3     H10339   3.363   1.045  13.229  0.9723  0.2032  0.7250
  699TMC3    H110340   3.150   1.403  13.112  0.9002  1.6912  1.8773
  699TMC3    H210341   3.029   1.187  13.452  0.6742 -3.1114 -1.3373
  699TMC3    C710342   2.947   1.323  13.264  0.2168 -0.3146 -0.7980
  699TMC3    C810343   3.205   0.984  13.430 -0.0511  0.1334 -0.3513
  699TMC3    O110344   2.870   1.338  13.357  0.3230  0.0400  0.0946
  699TMC3    O210345   3.093   0.953  13.463  0.6855 -0.6028  0.3295
  700TMC3    C110346   2.346   3.283  17.430 -0.1912  0.4450 -0.6282
  700TMC3    C210347   2.366   3.147  17.406  0.1689 -0.0134 -0.2930
  700TMC3    C310348   2.473   3.091  17.474  0.3677 -0.0046  0.4076
  700TMC3    C410349   2.419   3.361  17.516 -0.1251  0.2137  0.8074
  700TMC3    C510350   2.517   3.296  17.584 -0.4563  0.3176  0.5809
  700TMC3    C610351   2.551   3.169  17.558  0.2015 -0.7268 -0.0254
  700TMC3     C10352   2.329   3.337  17.299  1.0070 -0.0393 -0.7937
  700TMC3     O10353   2.249   3.281  17.229  0.5396  0.2352 -0.0829
  700TMC3     H10354   2.315   3.099  17.323  0.8106 -1.1278 -0.0490
  700TMC3    H110355   2.390   3.464  17.525  0.8762  0.4626  1.2165
  700TMC3    H210356   2.635   3.116  17.600  1.5884  2.0896  0.7595
  700TMC3    C710357   2.615   3.376  17.652  0.3716  0.0075  0.7186
  700TMC3    C810358   2.530   2.973  17.418  0.7276 -0.5971  1.1187
  700TMC3    O110359   2.735   3.356  17.630 -0.2605  1.1832  0.1266
  700TMC3    O210360   2.651   2.977  17.402  0.0751  0.0051 -0.5996
  701TMC3    C110361   2.313   1.874  15.819  0.4148  0.0981  0.1112
  701TMC3    C210362   2.377   1.807  15.717  0.2205  0.4740 -1.0556
  701TMC3    C310363   2.511   1.828  15.694  0.1712 -0.0791 -1.0374
  701TMC3    C410364   2.387   1.946  15.917  0.1468  0.2993 -0.2718
  701TMC3    C510365   2.521   1.979  15.883  0.1337  0.2370  0.1107
  701TMC3    C610366   2.579   1.910  15.780  0.2587 -0.4988  0.0784
  701TMC3     C10367   2.187   1.815  15.862  0.3222  0.5462 -0.2282
  701TMC3     O10368   2.157   1.813  15.979  1.0015 -0.0768 -0.2852
  701TMC3     H10369   2.327   1.740  15.647 -0.3046  0.8816 -1.0742
  701TMC3    H110370   2.336   1.996  15.999  0.9888  0.6842  0.0130
  701TMC3    H210371   2.675   1.946  15.746  0.0112 -0.9003 -1.0459
  701TMC3    C710372   2.541   2.122  15.886  0.8119  0.3267 -0.5395
  701TMC3    C810373   2.568   1.816  15.565 -0.4462  0.5128  0.4727
  701TMC3    O110374   2.588   2.164  15.783  0.2844  0.2074  0.0081
  701TMC3    O210375   2.686   1.853  15.556  0.7300 -0.3362 -0.1824
  702MPD2     C10376   1.865   4.376  10.716  0.4979 -0.0280  0.0231
  702MPD2    C110377   1.766   4.472  10.735 -0.0315 -0.0952  0.1613
  702MPD2    C210378   1.792   4.601  10.695 -0.4110  0.7234  0.4929
  702MPD2    C310379   1.917   4.632  10.632  0.1465 -0.1662  0.2181
  702MPD2    C410380   2.013   4.530  10.613 -0.2481 -0.7016  0.3922
  702MPD2    C510381   1.987   4.407  10.669 -0.9599 -0.2751 -0.1320
  702MPD2     H10382   1.712   4.670  10.719 -0.6612  0.1835  1.1831
  702MPD2    H110383   2.114   4.549  10.579  0.4360 -0.4831  2.5699
  702MPD2    H210384   1.853   4.274  10.751  0.0554  0.2867  0.7807
  702MPD2    H310385   2.064   4.331  10.659 -0.7163 -0.1050  0.4762
  702MPD2     N10386   1.941   0.040  10.584  0.4771  0.2063 -0.3184
  702MPD2    H510387   1.882   0.115  10.620  0.4793  0.3583 -0.6258
  702MPD2    N110388   1.643   4.446  10.802 -0.3435  0.2170 -0.5766
  702MPD2    H710389   1.593   4.529  10.833  1.4898  1.3008 -0.4915
  703TMC3    C110390   2.026   0.220  10.465 -0.0022 -0.1123  0.7899
  703TMC3    C210391   1.902   0.282  10.459  0.4140 -0.5237  0.5861
  703TMC3    C310392   1.898   0.413  10.449 -1.0261  0.3482 -0.1641
  703TMC3    C410393   2.142   0.286  10.471 -0.2277 -0.7843  0.5738
  703TMC3    C510394   2.139   0.425  10.472  0.1161 -0.3892  0.1415
  703TMC3    C610395   2.016   0.487  10.462  0.7719 -0.1070  0.2610
  703TMC3     C10396   2.041   0.081  10.498  0.4449  0.1486 -0.1927
  703TMC3     O10397   2.122   0.012  10.432  0.1775 -0.1706 -0.7877
  703TMC3     H10398   1.808   0.229  10.451 -0.7422  1.6850 -0.1281
  703TMC3    H110399   2.233   0.229  10.485 -0.2697 -0.4136  2.3138
  703TMC3    H210400   2.010   0.594  10.448  1.5050 -0.3225 -1.6128
  703TMC3    C710401   2.259   0.505  10.485 -1.2563 -0.4232 -0.3885
  703TMC3    C810402   1.770   0.478  10.436 -0.6275  0.3405 -0.0952
  703TMC3    O110403   2.365   0.449  10.462 -0.1442 -0.1515  0.2128
  703TMC3    O210404   1.768   0.589  10.384  0.2455 -0.2815 -0.1261
  704TMC3    C110405   4.304   2.167  12.312 -0.2134 -0.9197 -0.3185
  704TMC3    C210406   4.440   2.181  12.299  0.4355  0.9697  0.2447
  704TMC3    C310407   4.527   2.083  12.344  0.2551  0.0797 -0.2653
  704TMC3    C410408   4.255   2.048  12.370 -0.2522  0.6418  0.4898
  704TMC3    C510409   4.350   1.956  12.410  0.0059  0.2628  0.4537
  704TMC3    C610410   4.482   1.965  12.389 -0.7714 -0.6833  0.2015
  704TMC3     C10411   4.214   2.230  12.215  0.8217 -0.3128 -0.4405
  704TMC3     O10412   4.092   2.230  12.247 -0.5210 -0.5626  0.8035
  704TMC3     H10413   4.491   2.272  12.270  0.0612  0.9522 -0.4917
  704TMC3    H110414   4.149   2.029  12.380 -0.1743 -0.2833 -0.4098
  704TMC3    H210415   4.556   1.887  12.401 -1.8217 -1.9395 -1.4003
  704TMC3    C710416   4.306   1.819  12.407  0.6424 -0.7420 -0.4564
  704TMC3    C810417   4.641   2.073  12.255  0.6751  0.6240  0.2150
  704TMC3    O110418   4.359   1.736  12.343 -1.0331  1.0912  0.0338
  704TMC3    O210419   4.605   2.058  12.140 -0.4954 -0.2305  0.5642
  705MPD2     C10420   4.101   0.218  16.335 -0.2516  0.1599  0.1763
  705MPD2    C110421   4.136   0.342  16.387 -0.2362  0.9139 -0.1903
  705MPD2    C210422   4.033   0.417  16.456 -0.2670 -0.0230  0.1044
  705MPD2    C310423   3.904   0.362  16.465  0.2116  0.0760  0.5263
  705MPD2    C410424   3.878   0.238  16.409  0.7634  0.3827  0.4925
  705MPD2    C510425   3.977   0.163  16.347  0.2824  0.2190  1.0106
  705MPD2     H10426   4.053   0.519  16.489 -1.2669  0.0073  0.5889
  705MPD2    H110427   3.777   0.200  16.400  1.3634 -0.7818 -1.1299
  705MPD2    H210428   4.169   0.155  16.279 -0.1571  1.3662 -1.0456
  705MPD2    H310429   3.938   0.075  16.297 -0.2756  0.6176  0.7383
  705MPD2     N10430   3.792   0.431  16.527 -0.2191 -0.6788 -0.0206
  705MPD2    H510431   3.696   0.399  16.525  0.3122 -2.2128 -1.1441
  705MPD2    N110432   4.262   0.411  16.361 -0.3172 -0.4801 -0.1430
  705MPD2    H710433   4.267   0.504  16.399 -0.3902 -1.2675  1.7998
  706TMC3    C110434   4.667   0.513  16.155 -0.3552 -0.7351 -0.6909
  706TMC3    C210435   4.660   0.640  16.209  1.0047  0.0990  1.4347
  706TMC3    C310436   4.542   0.684  16.267 -0.5754 -0.5943  0.7272
  706TMC3    C410437   4.569   0.428  16.182 -0.0194 -0.4135  0.1579
  706TMC3    C510438   4.459   0.468  16.246  1.0863  0.5615 -0.1848
  706TMC3    C610439   4.437   0.600  16.276  0.1977 -0.6791 -0.0357
  706TMC3     C10440   0.047   0.502  16.056 -0.1350 -0.4829  0.3519
  706TMC3     O10441   0.161   0.530  16.093  0.1471  0.0463  0.1497
  706TMC3     H10442   0.008   0.709  16.167 -1.2674  1.5284 -0.0846
  706TMC3    H110443   4.562   0.329  16.137  0.1337 -0.5477  0.4264
  706TMC3    H210444   4.352   0.649  16.322  1.9105  2.8213 -0.6763
  706TMC3    C710445   4.357   0.374  16.269 -0.5279 -0.8092 -0.3756
  706TMC3    C810446   4.500   0.818  16.223  0.2945 -0.4650 -0.4170
  706TMC3    O110447   4.379   0.257  16.233 -0.2299  0.1697 -0.3578
  706TMC3    O210448   4.400   0.821  16.148  0.0484 -0.1496 -0.0888
  707TMC3    C110449   0.953   0.041   1.411  0.0965 -0.0396 -0.1873
  707TMC3    C210450   0.983   4.639   1.455 -0.6083 -0.2711  0.9783
  707TMC3    C310451   0.882   4.550   1.479 -0.5607  0.7025 -0.6195
  707TMC3    C410452   0.825   0.075   1.382  0.1189 -0.2397 -0.1869
  707TMC3    C510453   0.729   4.711   1.425 -0.0770  0.6562  0.2989
  707TMC3    C610454   0.750   4.581   1.470 -0.0709  0.3826 -0.0392
  707TMC3     C10455   1.070   0.115   1.363 -0.1054 -0.3598  0.2676
  707TMC3     O10456   1.175   0.104   1.430  0.0258 -0.8651  0.2615
  707TMC3     H10457   1.089   4.614   1.453 -0.4916  0.2248  1.1522
  707TMC3    H110458   0.791   0.173   1.348 -1.0109 -1.2132 -1.8698
  707TMC3    H210459   0.669   4.511   1.486 -0.9426  0.8704 -2.3409
  707TMC3    C710460   0.598   0.012   1.373  0.6008 -0.2921  0.4902
  707TMC3    C810461   0.912   4.412   1.517 -0.1522  0.1868 -0.3200
  707TMC3    O110462   0.596   0.093   1.279 -0.1083 -0.2812  0.0039
  707TMC3    O210463   0.827   4.328   1.484  0.3396  0.5158  0.1132
  708MPD2     C10464   2.334   4.377  13.596 -0.1470  0.3621  0.3517
  708MPD2    C110465   2.224   4.380  13.674  0.0979 -0.0501  0.0388
  708MPD2    C210466   2.232   4.312  13.798 -0.2089  0.3800  0.4063
  708MPD2    C310467   2.338   4.230  13.830 -0.0442 -0.2454  0.8241
  708MPD2    C410468   2.447   4.230  13.749  0.1570 -0.1195 -0.4274
  708MPD2    C510469   2.438   4.297  13.626 -0.0247 -1.0652  0.4530
  708MPD2     H10470   2.148   4.318  13.866 -0.1130 -0.2630  0.5836
  708MPD2    H110471   2.543   4.185  13.771  0.6255  1.1666  0.1412
  708MPD2    H210472   2.331   4.417  13.495 -1.5404 -1.6348 -0.4102
  708MPD2    H310473   2.524   4.305  13.561 -0.1844  0.3409  0.4175
  708MPD2     N10474   2.332   4.172  13.955  0.5462 -0.0485  0.4323
  708MPD2    H510475   2.255   4.200  14.015  0.2027  0.8484 -0.4303
  708MPD2    N110476   2.108   4.458  13.641 -0.1184 -0.0849  0.0246
  708MPD2    H710477   2.096   4.502  13.551 -2.1834  0.9714  0.8116
  709TMC3    C110478   1.881   4.480  13.626 -0.4581 -0.7761 -0.5483
  709TMC3    C210479   1.873   4.394  13.524 -0.2508 -0.4206  0.0421
  709TMC3    C310480   1.762   4.320  13.501  0.2879  0.2985 -0.5863
  709TMC3    C410481   1.767   4.491  13.704 -0.1426  0.4729  0.0344
  709TMC3    C510482   1.658   4.408  13.686 -0.1742 -0.1321  0.6487
  709TMC3    C610483   1.659   4.324  13.583  0.3196 -0.7459 -0.5491
  709TMC3     C10484   1.994   4.469  13.720  0.1921 -0.6581 -0.3849
  709TMC3     O10485   1.967   4.438  13.833 -0.1380 -0.1014  0.6105
  709TMC3     H10486   1.960   4.396  13.460 -0.2215 -0.0152  0.0920
  709TMC3    H110487   1.772   4.557  13.790  0.2715  1.1945 -0.5512
  709TMC3    H210488   1.573   4.260  13.563 -1.4900  1.4204  0.3316
  709TMC3    C710489   1.605   4.344  13.806 -0.5539  0.1913 -0.0472
  709TMC3    C810490   1.777   4.192  13.433  0.1669 -0.5665 -0.2281
  709TMC3    O110491   1.506   4.272  13.801 -0.1751  0.1503  0.4341
  709TMC3    O210492   1.699   4.099  13.443  0.5722  0.0842  0.2202
  710TMC3    C110493   3.140   1.473   0.280  0.6285  0.4304 -0.3047
  710TMC3    C210494   3.192   1.378   0.197  0.4968 -0.1567 -0.3548
  710TMC3    C310495   3.326   1.368   0.192 -0.6286 -0.3302  1.0257
  710TMC3    C410496   3.226   1.539   0.367 -0.8048 -1.3311  0.1994
  710TMC3    C510497   3.363   1.519   0.372  0.2040  0.4157 -0.2420
  710TMC3    C610498   3.414   1.438   0.270  0.9900 -0.5556  0.8142
  710TMC3     C10499   2.993   1.477   0.305  0.4856  0.1162 -0.2099
  710TMC3     O10500   2.938   1.378   0.257  0.2222 -0.2350  0.2591
  710TMC3     H10501   3.132   1.316   0.132 -2.0109  1.1645  0.7071
  710TMC3    H110502   3.187   1.632   0.406 -0.9185 -1.7283  1.0233
  710TMC3    H210503   3.518   1.408   0.278  1.1252 -0.5160 -0.7122
  710TMC3    C710504   3.409   1.469   0.504 -0.2783 -0.1326 -0.5935
  710TMC3    C810505   3.389   1.242   0.159  0.4424 -0.2485 -0.2218
  710TMC3    O110506   3.504   1.393   0.505  0.3275 -0.5665  0.2587
  710TMC3    O210507   3.504   1.250   0.114  0.2024  0.3512  0.3115
  711TMC3    C110508   3.095   1.724  15.429 -0.7659  0.5088  0.5727
  711TMC3    C210509   3.075   1.617  15.507  0.9505 -0.4367  0.0351
  711TMC3    C310510   3.149   1.605  15.624  0.5172 -0.1034 -0.2669
  711TMC3    C410511   3.187   1.822  15.461 -0.3950 -0.7932 -0.1784
  711TMC3    C510512   3.246   1.826  15.584  0.2132 -0.1600 -0.2516
  711TMC3    C610513   3.222   1.714  15.667 -0.1283 -0.4147 -0.1619
  711TMC3     C10514   3.041   1.715  15.291 -0.3660  0.1731  0.2754
  711TMC3     O10515   3.039   1.606  15.235  0.4080  0.1535 -0.2559
  711TMC3     H10516   2.988   1.557  15.482  0.7965  0.3881 -1.4188
  711TMC3    H110517   3.206   1.903  15.391 -1.3356 -1.0895 -0.7823
  711TMC3    H210518   3.288   1.703  15.752  1.0602 -1.0745 -1.1636
  711TMC3    C710519   3.382   1.866  15.573 -0.1327  0.6974  0.2378
  711TMC3    C810520   3.225   1.476  15.620  0.1647  0.1419  0.2845
  711TMC3    O110521   3.429   1.915  15.672 -0.0177 -0.9763 -0.0879
  711TMC3    O210522   3.185   1.385  15.547 -0.2609 -0.0316  0.1092
  712MPD2     C10523   4.215   2.453  14.045 -0.4438  0.4210 -0.1379
  712MPD2    C110524   4.154   2.502  13.928  0.1799  0.3634 -0.6096
  712MPD2    C210525   4.237   2.566  13.838  0.5806 -1.0717  0.4636
  712MPD2    C310526   4.372   2.594  13.857  0.1997  0.4420  0.5047
  712MPD2    C410527   4.429   2.538  13.973  0.7640  0.4064 -0.2051
  712MPD2    C510528   4.351   2.472  14.067 -0.6779  0.8688  0.3137
  712MPD2     H10529   4.186   2.601  13.749  1.5679  0.1631  0.3687
  712MPD2    H110530   4.535   2.555  13.989  0.6299  1.1413 -0.0651
  712MPD2    H210531   4.164   2.384  14.111 -0.4283 -0.6467 -1.2486
  712MPD2    H310532   4.403   2.422  14.149 -0.2343  3.4438  1.6045
  712MPD2     N10533   4.453   2.669  13.767  0.9236  0.2140 -0.4175
  712MPD2    H510534   4.544   2.688  13.807  0.9806 -1.3861  0.2145
  712MPD2    N110535   4.019   2.494  13.886 -0.5475 -0.0521 -0.2261
  712MPD2    H710536   4.001   2.503  13.787 -4.4555  1.5839  0.6568
  713TMC3    C110537   4.526   2.786  13.572 -0.2723  0.3604  0.2215
  713TMC3    C210538   4.655   2.798  13.634 -0.1497  0.8537 -0.1941
  713TMC3    C310539   0.015   2.895  13.578 -0.1008 -0.0653 -0.1246
  713TMC3    C410540   4.479   2.876  13.478 -0.2254  0.6681 -0.8672
  713TMC3    C510541   4.566   2.975  13.435  0.0720 -0.0614 -0.1685
  713TMC3    C610542   4.698   2.980  13.477  0.2649  0.0983 -0.1491
  713TMC3     C10543   4.421   2.708  13.637  0.1745 -0.7421  0.5091
  713TMC3     O10544   4.315   2.701  13.579  0.0965  0.0795  0.2599
  713TMC3     H10545   4.689   2.727  13.709 -1.6247 -1.6823 -1.9285
  713TMC3    H110546   4.376   2.882  13.445 -0.7488 -0.3015  0.5696
  713TMC3    H210547   0.040   3.058  13.439  1.8627 -0.9203  0.5289
  713TMC3    C710548   4.533   3.057  13.319 -0.1852  0.6127  0.4086
  713TMC3    C810549   0.147   2.914  13.635 -0.0041  0.5620  0.2898
  713TMC3    O110550   4.615   3.055  13.227 -0.0123 -0.1684  0.1350
  713TMC3    O210551   0.235   2.965  13.569  0.5711 -0.2928 -0.0495
  714MPD2     C10552   2.009   1.189   1.325 -0.5667 -0.3885 -1.1398
  714MPD2    C110553   2.018   1.327   1.316 -0.1843  0.0287  0.1881
  714MPD2    C210554   1.909   1.393   1.259 -0.5292  0.6166 -0.4108
  714MPD2    C310555   1.793   1.325   1.215 -0.9258 -0.4049 -0.1483
  714MPD2    C410556   1.795   1.191   1.226 -0.3479 -0.1495  0.0091
  714MPD2    C510557   1.900   1.121   1.279 -0.4795  0.0356  0.6484
  714MPD2     H10558   1.915   1.500   1.243  2.8248  0.2917 -1.4642
  714MPD2    H110559   1.717   1.123   1.193 -0.4760  0.5103 -1.0556
  714MPD2    H210560   2.098   1.137   1.359  0.3906  1.7505 -0.3970
  714MPD2    H310561   1.892   1.013   1.280  1.4106 -0.1007  0.7797
  714MPD2     N10562   1.686   1.399   1.156 -0.6982  0.2372 -0.1138
  714MPD2    H510563   1.699   1.498   1.143 -3.0015  0.4954 -0.4668
  714MPD2    N110564   2.146   1.385   1.350 -0.3414  0.0075  0.2687
  714MPD2    H710565   2.216   1.329   1.398 -1.6765 -0.1239  2.0803
  715TMC3    C110566   2.315   1.527   1.368  0.4305 -0.7897  0.3731
  715TMC3    C210567   2.390   1.414   1.330 -0.9494  0.3377  0.6654
  715TMC3    C310568   2.496   1.386   1.407 -0.1640 -0.0648  1.3038
  715TMC3    C410569   2.350   1.607   1.477  0.3895 -0.0073 -0.1299
  715TMC3    C510570   2.450   1.553   1.552  0.7194 -0.1168  0.0226
  715TMC3    C610571   2.532   1.450   1.519 -0.4914 -0.0584 -0.8292
  715TMC3     C10572   2.173   1.518   1.337  0.5756 -0.5068 -0.0239
  715TMC3     O10573   2.099   1.618   1.314  0.0095  0.5138  0.3668
  715TMC3     H10574   2.364   1.349   1.248  0.5007  1.6121 -0.7935
  715TMC3    H110575   2.292   1.695   1.501  1.5284  0.4739  0.8281
  715TMC3    H210576   2.614   1.422   1.584  0.0438  3.5477  0.0376
  715TMC3    C710577   2.495   1.645   1.647 -0.0428  0.6237  0.2487
  715TMC3    C810578   2.581   1.276   1.351  0.0555 -0.3777  0.2095
  715TMC3    O110579   2.406   1.701   1.712  0.8273 -0.0741 -0.1422
  715TMC3    O210580   2.530   1.204   1.263 -0.2013  0.3786 -0.3441
  716MPD2     C10581   2.154   4.409  10.320 -0.0573 -0.1455 -0.6526
  716MPD2    C110582   2.072   4.445  10.220 -0.5938  0.2538  0.0563
  716MPD2    C210583   2.039   4.351  10.124 -0.3585  0.0670 -0.0008
  716MPD2    C310584   2.100   4.228  10.133 -0.6330  0.3239  0.3309
  716MPD2    C410585   2.186   4.195  10.237 -0.0119 -0.1549 -0.1483
  716MPD2    C510586   2.214   4.287  10.326  0.0002  1.0202 -1.1327
  716MPD2     H10587   1.989   4.379  10.033  1.2024  0.3101 -0.7830
  716MPD2    H110588   2.236   4.099  10.248  1.0221  0.2469 -1.3838
  716MPD2    H210589   2.172   4.480  10.399 -1.8675 -0.9027  0.4326
  716MPD2    H310590   2.278   4.268  10.411 -0.9433  1.3964 -0.3298
  716MPD2     N10591   2.097   4.151  10.010 -0.1501  0.1316 -0.4458
  716MPD2    H510592   2.019   4.174   9.950 -0.2712  0.2187 -0.2571
  716MPD2    N110593   2.023   4.574  10.215 -0.4701 -0.6497  0.7065
  716MPD2    H710594   2.051   4.640  10.287  2.4863 -0.1937 -0.8548
  717TMC3    C110595   2.136   3.989   9.847 -0.0686  0.3511 -0.5582
  717TMC3    C210596   2.078   4.075   9.757 -0.0390 -0.3964 -0.9217
  717TMC3    C310597   2.078   4.042   9.627  0.0286 -0.1924  0.5190
  717TMC3    C410598   2.174   3.862   9.811 -0.3381  0.2962  0.3333
  717TMC3    C510599   2.176   3.830   9.675 -0.0547  0.0494 -0.0379
  717TMC3    C610600   2.130   3.923   9.586  0.2803  0.1417  0.0785
  717TMC3     C10601   2.158   4.033   9.983 -0.0173  0.3716  0.0552
  717TMC3     O10602   2.231   3.964  10.054 -0.6128  0.0990 -0.4879
  717TMC3     H10603   2.043   4.175   9.782  1.5754  0.2091 -1.0486
  717TMC3    H110604   2.208   3.805   9.896 -2.2522  0.6617  1.3323
  717TMC3    H210605   2.125   3.888   9.483  2.7949 -0.0185  0.0048
  717TMC3    C710606   2.196   3.695   9.623  0.3331 -0.4017 -1.0853
  717TMC3    C810607   1.983   4.118   9.538  0.7265 -0.0012  0.4034
  717TMC3    O110608   2.143   3.659   9.516 -0.0210  0.0373 -0.2568
  717TMC3    O210609   1.953   4.234   9.568  0.3977  0.0597  0.1691
  718MPD2     C10610   1.108   2.876  12.846  0.1349 -0.4131  0.1268
  718MPD2    C110611   1.052   2.851  12.725  0.8632 -0.0935  0.6320
  718MPD2    C210612   0.923   2.802  12.718 -0.3075  0.1589 -0.2138
  718MPD2    C310613   0.853   2.774  12.835  0.5847  0.8153  0.1310
  718MPD2    C410614   0.905   2.798  12.959 -0.6030 -0.0584 -0.0725
  718MPD2    C510615   1.036   2.853  12.962  0.2398  1.3626 -0.6703
  718MPD2     H10616   0.876   2.799  12.621 -0.0559 -1.0758 -0.2932
  718MPD2    H110617   0.841   2.785  13.045  0.3970 -1.0852  0.5155
  718MPD2    H210618   1.210   2.913  12.858 -0.1941 -0.1905  2.3472
  718MPD2    H310619   1.078   2.876  13.059 -1.0433  2.5671 -0.3915
  718MPD2     N10620   0.723   2.714  12.811  0.3501 -0.6961 -0.0361
  718MPD2    H510621   0.694   2.695  12.716 -3.2923 -0.0597  0.9773
  718MPD2    N110622   1.124   2.869  12.604 -0.0539  0.1218 -0.0132
  718MPD2    H710623   1.216   2.913  12.604 -0.3059  0.6646  1.4248
  719TMC3    C110624   1.161   2.879  12.363  0.5787  0.4846  0.8210
  719TMC3    C210625   1.099   2.846  12.251  0.9056  0.3115 -0.0525
  719TMC3    C310626   1.093   2.942  12.155 -0.0912 -1.1359  0.9149
  719TMC3    C410627   1.230   2.997  12.384 -0.1933  0.2724  0.1941
  719TMC3    C510628   1.240   3.080  12.274  0.2544 -0.6574  0.4540
  719TMC3    C610629   1.167   3.051  12.161 -0.2813  0.3379  0.0011
  719TMC3     C10630   1.091   2.820  12.474 -0.1104  0.1201 -0.2548
  719TMC3     O10631   0.992   2.756  12.439 -0.4542  0.1909 -0.1283
  719TMC3     H10632   1.059   2.747  12.231 -1.7325  1.4360 -0.2139
  719TMC3    H110633   1.294   3.002  12.472  0.8798  0.6400 -0.6117
  719TMC3    H210634   1.157   3.145  12.109  0.7861  0.0638 -0.7200
  719TMC3    C710635   1.337   3.188  12.274  0.1009 -0.5942 -0.1909
  719TMC3    C810636   0.950   2.974  12.118  0.3424  0.2709 -0.4192
  719TMC3    O110637   1.372   3.235  12.166  0.0466 -0.4224 -0.3021
  719TMC3    O210638   0.934   3.053  12.026 -0.4834  0.1464 -0.5233
  720MPD2     C10639   4.457   4.217  13.788 -0.4455  0.2941 -0.4641
  720MPD2    C110640   4.471   4.348  13.825 -0.0143 -0.9900  0.3764
  720MPD2    C210641   4.580   4.380  13.906  0.9517 -0.0288 -0.2897
  720MPD2    C310642   4.673   4.288  13.949 -0.6873  0.4089 -0.1702
  720MPD2    C410643   4.646   4.159  13.921 -0.7286  0.5956 -0.6135
  720MPD2    C510644   4.536   4.118  13.845  0.1004  0.6370  0.1179
  720MPD2     H10645   4.595   4.481  13.940  0.6564 -0.0197 -0.1902
  720MPD2    H110646   4.719   4.085  13.951 -0.1969  1.2807 -0.2161
  720MPD2    H210647   4.385   4.187  13.713 -0.7513  0.2583 -0.1528
  720MPD2    H310648   4.523   4.015  13.814  0.0754  0.4955  0.6039
  720MPD2     N10649   0.062   4.332  14.026 -0.8235 -0.8047 -0.5882
  720MPD2    H510650   0.070   4.431  14.047 -0.1098 -1.1281  0.6637
  720MPD2    N110651   4.380   4.441  13.770  0.5557 -0.0099  0.0171
  720MPD2    H710652   4.319   4.412  13.694 -0.0874  1.8124 -0.1697
  721TMC3    C110653   0.259   4.339  14.148  0.6914  0.5798  0.6449
  721TMC3    C210654   0.334   4.286  14.251  0.2124  1.3199 -0.0126
  721TMC3    C310655   0.424   4.368  14.311  0.4280  0.3041 -0.1675
  721TMC3    C410656   0.281   4.463  14.096  0.7833  0.1317  0.3827
  721TMC3    C510657   0.369   4.545  14.162  0.2255 -0.1757 -1.1108
  721TMC3    C610658   0.441   4.497  14.267 -0.1158  0.4874 -0.5409
  721TMC3     C10659   0.156   4.255  14.090  0.9590  0.1273 -0.1870
  721TMC3     O10660   0.167   4.135  14.092 -0.6251  0.4162  0.4360
  721TMC3     H10661   0.323   4.183  14.283  1.4875  0.6710 -1.6451
  721TMC3    H110662   0.239   4.488  13.999 -0.0201  0.0142  0.6997
  721TMC3    H210663   0.525   4.551  14.310  1.2208 -1.9024 -0.2013
  721TMC3    C710664   0.447   4.640  14.085  0.5304 -0.1351 -0.3468
  721TMC3    C810665   0.490   4.324  14.435 -0.0480 -0.4266  0.5874
  721TMC3    O110666   0.558   4.679  14.122 -0.1365  0.2905 -0.4492
  721TMC3    O210667   0.514   4.205  14.438 -0.2381 -0.2799  0.1317
  722MPD2     C10668   3.509   3.447  13.650 -0.6382  0.1275 -0.2448
  722MPD2    C110669   3.472   3.452  13.513 -0.2031  0.3012 -0.0844
  722MPD2    C210670   3.354   3.379  13.475  0.0556  0.0051 -0.2429
  722MPD2    C310671   3.285   3.298  13.571 -0.1718 -0.0571  0.6521
  722MPD2    C410672   3.331   3.293  13.698  0.0873  0.2057  0.0533
  722MPD2    C510673   3.446   3.361  13.734  0.6002 -0.4133  0.4925
  722MPD2     H10674   3.341   3.374  13.367  2.9312  0.2345 -0.6103
  722MPD2    H110675   3.285   3.231  13.774 -0.8570 -0.7420 -1.2680
  722MPD2    H210676   3.593   3.497  13.697 -1.4694 -0.3561  1.7409
  722MPD2    H310677   3.472   3.345  13.838 -1.3877  1.6362  1.3137
  722MPD2     N10678   3.163   3.238  13.533  0.3367  0.8105 -0.1779
  722MPD2    H510679   3.125   3.269  13.444  1.9067  2.1693 -0.3742
  722MPD2    N110680   3.551   3.501  13.412  0.1548 -0.0372  0.0091
  722MPD2    H710681   3.504   3.489  13.323 -1.3876 -1.3322  0.9874
  723TMC3    C110682   2.982   3.084  13.545  1.0358  0.4908  0.0240
  723TMC3    C210683   2.952   2.957  13.584 -0.6921  1.0063  0.6485
  723TMC3    C310684   2.866   2.882  13.495  0.3124 -0.1133  0.6382
  723TMC3    C410685   2.932   3.146  13.433  0.0750 -0.3528  0.3350
  723TMC3    C510686   2.847   3.069  13.355 -0.3038 -0.1226  0.4062
  723TMC3    C610687   2.813   2.936  13.379 -1.0055  0.6084  0.7155
  723TMC3     C10688   3.098   3.141  13.613  0.2810  0.0756 -0.0361
  723TMC3     O10689   3.128   3.093  13.721 -0.4056 -0.1658 -0.4579
  723TMC3     H10690   3.000   2.909  13.668 -1.9932 -2.2202 -0.4544
  723TMC3    H110691   2.961   3.249  13.417 -2.8753  0.6217  1.1770
  723TMC3    H210692   2.748   2.885  13.309 -1.3070  0.7904  0.8592
  723TMC3    C710693   2.765   3.131  13.252 -0.1914  0.1793 -0.3646
  723TMC3    C810694   2.848   2.735  13.522  0.4358 -0.2204 -0.7693
  723TMC3    O110695   2.708   3.058  13.171 -0.1056  0.7970 -0.2838
  723TMC3    O210696   2.909   2.692  13.618 -0.2071 -0.3306  0.0379
  724TMC3    C110697   3.324   1.439  10.539 -0.4890  0.0393  0.6579
  724TMC3    C210698   3.362   1.421  10.406 -0.2812  0.5187  0.1288
  724TMC3    C310699   3.496   1.442  10.377  0.2416  0.0988  0.1569
  724TMC3    C410700   3.413   1.497  10.632  0.2451  0.8299  0.1841
  724TMC3    C510701   3.549   1.508  10.597  0.3146  0.0792 -0.9847
  724TMC3    C610702   3.585   1.480  10.467  0.0356  0.0849  0.3462
  724TMC3     C10703   3.223   1.347  10.603 -0.2326 -0.2931 -0.3377
  724TMC3     O10704   3.231   1.312  10.721 -0.1884 -0.1912  0.0233
  724TMC3     H10705   3.305   1.366  10.332 -0.9071  0.9475  0.3000
  724TMC3    H110706   3.389   1.521  10.734 -1.6526  0.0396 -0.0914
  724TMC3    H210707   3.689   1.498  10.444  0.0706 -1.9000 -1.0449
  724TMC3    C710708   3.630   1.614  10.652 -0.1567 -0.2083 -0.2804
  724TMC3    C810709   3.521   1.503  10.247 -0.2912 -0.1294 -0.3941
  724TMC3    O110710   3.713   1.667  10.579 -0.3593 -0.5289  0.5210
  724TMC3    O210711   3.447   1.451  10.165 -0.4861  0.0474  0.4372
  725TMC3    C110712   0.176   0.420  12.716 -0.2770 -0.1841  0.1817
  725TMC3    C210713   0.159   0.416  12.583 -0.3654 -0.2476 -0.5771
  725TMC3    C310714   0.109   0.303  12.524  0.1329  0.0593 -0.3430
  725TMC3    C410715   0.142   0.312  12.801  0.1437  0.0647  0.1046
  725TMC3    C510716   0.102   0.198  12.737 -0.2818  0.1082 -0.0525
  725TMC3    C610717   0.093   0.189  12.604  0.7156  0.5372 -0.6845
  725TMC3     C10718   0.278   0.512  12.769  0.0519  0.1634  0.8796
  725TMC3     O10719   0.339   0.567  12.683  0.9824  0.3306 -0.5749
  725TMC3     H10720   0.191   0.502  12.526  1.0985 -0.2372  0.2512
  725TMC3    H110721   0.142   0.302  12.909  1.6125 -1.0816 -0.0015
  725TMC3    H210722   0.058   0.096  12.562 -0.9452  0.5533  0.6671
  725TMC3    C710723   0.103   0.079  12.814 -0.3762  0.3348 -0.1564
  725TMC3    C810724   0.143   0.278  12.387 -0.5811 -0.2634 -0.3041
  725TMC3    O110725   0.079   0.085  12.934 -0.4332 -0.0233  0.1867
  725TMC3    O210726   0.177   0.169  12.355 -0.3363 -0.2316 -0.1502
  726MPD2     C10727   2.493   1.723  10.619 -0.7756  0.0062  0.0234
  726MPD2    C110728   2.534   1.802  10.727 -0.6617 -0.6060 -0.1950
  726MPD2    C210729   2.449   1.826  10.839  0.8816 -0.6790  1.0007
  726MPD2    C310730   2.332   1.756  10.849 -0.6340  0.1127 -0.1287
  726MPD2    C410731   2.293   1.676  10.742 -0.6773  0.0563 -0.3948
  726MPD2    C510732   2.369   1.662  10.631 -0.8492  0.5582  0.3200
  726MPD2     H10733   2.469   1.895  10.920 -0.5722  1.6905 -0.6571
  726MPD2    H110734   2.195   1.631  10.747 -0.0667 -1.1910  0.5033
  726MPD2    H210735   2.549   1.708  10.528 -0.0586  2.2291  0.0791
  726MPD2    H310736   2.335   1.606  10.545  0.7729  1.4001 -0.8726
  726MPD2     N10737   2.234   1.781  10.946 -0.4786 -0.1556  0.8849
  726MPD2    H510738   2.146   1.737  10.923  1.0163 -2.9402  0.4816
  726MPD2    N110739   2.655   1.865  10.740  0.2459 -0.7369  0.0646
  726MPD2    H710740   2.673   1.916  10.826  0.2706  0.4866 -0.6650
  727TMC3    C110741   2.872   1.931  10.697 -0.2549  0.1688 -0.2030
  727TMC3    C210742   2.898   1.923  10.838 -0.1440  0.1083 -0.3239
  727TMC3    C310743   2.995   2.004  10.879  0.0338  1.2827  0.5377
  727TMC3    C410744   2.947   2.001  10.607 -0.1828  0.4578 -0.7016
  727TMC3    C510745   3.039   2.086  10.657 -0.1866 -0.2811 -0.4563
  727TMC3    C610746   3.060   2.099  10.794  0.5871  0.0408 -0.0681
  727TMC3     C10747   2.756   1.866  10.645 -0.4751  0.0350  0.1895
  727TMC3     O10748   2.772   1.801  10.544  0.0375  0.0766  0.1766
  727TMC3     H10749   2.841   1.855  10.900 -1.7105  0.4900 -1.3541
  727TMC3    H110750   2.924   1.983  10.503 -3.1193 -0.1775  0.0326
  727TMC3    H210751   3.124   2.181  10.826 -1.1396  1.5896 -0.5592
  727TMC3    C710752   3.129   2.137  10.558  0.0025  0.9999 -0.0401
  727TMC3    C810753   3.017   2.021  11.021 -0.2443  0.3040  0.9068
  727TMC3    O110754   3.116   2.109  10.440 -0.3214  0.4936  0.2924
  727TMC3    O210755   3.075   2.123  11.049 -0.4577  0.4207 -0.2229
  728TMC3    C110756   2.699   0.765  15.384  0.0270  0.3552 -0.5054
  728TMC3    C210757   2.818   0.834  15.401  0.6695  0.6497  0.3659
  728TMC3    C310758   2.849   0.933  15.309 -0.0429 -0.4843 -0.7570
  728TMC3    C410759   2.615   0.802  15.286  0.2762  0.3013  0.4895
  728TMC3    C510760   2.654   0.893  15.195 -0.4498  0.1955 -0.3226
  728TMC3    C610761   2.763   0.961  15.203  1.1509  0.9390  0.0356
  728TMC3     C10762   2.657   0.705  15.504 -0.5260 -0.2281 -0.2260
  728TMC3     O10763   2.722   0.732  15.598 -0.2363  0.1858  0.1010
  728TMC3     H10764   2.892   0.807  15.476  0.7182  1.0170  0.4500
  728TMC3    H110765   2.517   0.755  15.284  0.2213  0.4489 -0.2711
  728TMC3    H210766   2.799   1.033  15.130 -0.8341  0.0872 -1.7643
  728TMC3    C710767   2.574   0.905  15.074  0.2014 -0.3825  0.1558
  728TMC3    C810768   2.959   1.021  15.322  0.4277  0.7058 -0.4192
  728TMC3    O110769   2.461   0.856  15.077  0.3812  0.0973 -0.1778
  728TMC3    O210770   2.953   1.138  15.278  0.6629 -0.3349  0.2340
  729MPD2     C10771   4.526   1.709  17.065  0.4356 -0.3496 -0.1258
  729MPD2    C110772   4.630   1.615  17.098 -0.1401 -0.3649  0.4270
  729MPD2    C210773   4.630   1.577  17.234 -0.3906 -0.0787 -0.4574
  729MPD2    C310774   4.539   1.621  17.324 -0.0177  0.3863  0.5488
  729MPD2    C410775   4.440   1.708  17.287 -0.0580  0.3221 -0.0181
  729MPD2    C510776   4.435   1.745  17.159  0.1510 -0.5176  0.6331
  729MPD2     H10777   4.704   1.506  17.268 -0.0149  0.6491  0.2569
  729MPD2    H110778   4.361   1.746  17.351  0.1827  0.6758  0.0660
  729MPD2    H210779   4.512   1.754  16.967 -0.9624  1.6238  0.9754
  729MPD2    H310780   4.350   1.804  17.128  0.5001  0.3345  1.3029
  729MPD2     N10781   4.550   1.595  17.465 -0.6134 -0.8688  0.0556
  729MPD2    H510782   4.487   1.648  17.525 -1.6521 -1.6675 -0.3290
  729MPD2    N110783   4.722   1.577  16.999 -0.6955 -0.1401  0.2562
  729MPD2    H710784   4.701   1.593  16.901  0.9232  0.6743  0.0411
  730TMC3    C110785   0.010   1.576  17.611  0.6637  0.0960  0.2729
  730TMC3    C210786   0.137   1.530  17.584  0.1855  0.9308 -0.3654
  730TMC3    C310787   0.240   1.629  17.601  0.2250 -0.0302  0.0310
  730TMC3    C410788   4.710   1.706  17.647  0.8484 -0.0352 -0.2024
  730TMC3    C510789   0.090   1.798  17.669  0.3867  0.0678 -0.2653
  730TMC3    C610790   0.219   1.757  17.653 -0.1653  0.0286 -0.0569
  730TMC3     C10791   4.639   1.504  17.522 -0.8737  0.3430  0.8737
  730TMC3     O10792   4.683   1.405  17.468  0.1057  0.2504  0.1128
  730TMC3     H10793   0.153   1.432  17.539  0.5654  0.2964  1.1647
  730TMC3    H110794   4.609   1.744  17.663  0.0235 -2.2767 -0.0726
  730TMC3    H210795   0.305   1.817  17.680  1.5503 -1.2184 -2.6823
  730TMC3    C710796   0.063   1.914  17.594 -0.5634  0.0968  0.1853
  730TMC3    C810797   0.327   1.633  17.482 -0.6203  0.1937  0.2460
  730TMC3    O110798   0.153   1.946  17.518 -0.3787 -0.6239 -0.0130
  730TMC3    O210799   0.354   1.523  17.434 -0.0579 -0.1734  0.0375
  731MPD2     C10800   4.375   3.738  12.290 -0.2862 -0.9012  0.4185
  731MPD2    C110801   4.482   3.658  12.267 -0.0086 -0.0630 -0.5359
  731MPD2    C210802   4.540   3.591  12.373 -0.6525  0.5802  0.4601
  731MPD2    C310803   4.493   3.601  12.503  0.1306 -0.3993  1.0427
  731MPD2    C410804   4.390   3.687  12.524 -0.1297  0.7380  0.0300
  731MPD2    C510805   4.332   3.750  12.415 -0.1236  0.5918 -0.0105
  731MPD2     H10806   4.624   3.526  12.352 -0.8519  1.3868 -2.8557
  731MPD2    H110807   4.344   3.704  12.621  0.1369 -0.1502  0.3188
  731MPD2    H210808   4.325   3.787  12.208  0.0743 -0.8594  0.2223
  731MPD2    H310809   4.238   3.802  12.427 -1.4658 -2.0714  0.9402
  731MPD2     N10810   4.569   3.541  12.605 -0.3536 -0.0669 -0.1053
  731MPD2    H510811   4.664   3.507  12.593  0.4609  2.3181 -0.4122
  731MPD2    N110812   4.532   3.655  12.137 -0.1836 -0.0194  0.1851
  731MPD2    H710813   4.503   3.733  12.077 -0.8783  0.1362  0.7170
  732TMC3    C110814   4.635   3.574  11.940  0.0861 -0.5557  0.5347
  732TMC3    C210815   4.535   3.632  11.866 -0.4599 -0.6672  0.3371
  732TMC3    C310816   4.563   3.652  11.729  0.6746 -0.2752  0.7653
  732TMC3    C410817   0.037   3.556  11.885  0.2547 -0.0708  0.7782
  732TMC3    C510818   0.060   3.579  11.753  0.0885 -0.5729 -0.3559
  732TMC3    C610819   4.680   3.620  11.671 -0.2871 -0.0287 -0.2906
  732TMC3     C10820   4.623   3.563  12.086 -0.0126 -0.0297  0.0935
  732TMC3     O10821   4.701   3.484  12.137 -0.2890 -0.2306 -0.3485
  732TMC3     H10822   4.433   3.632  11.903 -0.7657 -0.9141 -0.5003
  732TMC3    H110823   0.117   3.524  11.951  1.6443  1.7219 -0.0443
  732TMC3    H210824   4.698   3.653  11.569 -0.0128 -0.5008 -0.3949
  732TMC3    C710825   0.192   3.628  11.717  0.4003  0.3879  0.3003
  732TMC3    C810826   4.465   3.718  11.643 -0.3517  0.1383  0.6980
  732TMC3    O110827   0.237   3.616  11.603  0.1414  0.1164 -0.4251
  732TMC3    O210828   4.474   3.715  11.519 -0.1317  0.2026 -0.0498
  733TMC3    C110829   0.273   2.635  12.827 -0.1844  0.7572 -0.1848
  733TMC3    C210830   0.387   2.623  12.897 -0.7542 -0.0368  0.2848
  733TMC3    C310831   0.499   2.685  12.841  0.2458 -0.0546  0.1459
  733TMC3    C410832   0.255   2.690  12.701  0.2672  0.1374 -0.7020
  733TMC3    C510833   0.368   2.719  12.639 -0.1266  0.8041  0.6063
  733TMC3    C610834   0.485   2.737  12.714  0.3445  0.7043  0.5227
  733TMC3     C10835   0.148   2.619  12.895  0.0780  0.1926 -0.1159
  733TMC3     O10836   0.058   2.695  12.858 -0.2293  0.0794  0.3047
  733TMC3     H10837   0.394   2.588  12.999 -1.1681  0.2892  0.4270
  733TMC3    H110838   0.161   2.705  12.650 -0.0288  1.5513  0.2938
  733TMC3    H210839   0.560   2.802  12.669  0.5014 -1.0688 -1.7826
  733TMC3    C710840   0.358   2.768  12.501  0.2250 -0.0914  0.1147
  733TMC3    C810841   0.627   2.692  12.911  0.0090 -0.9432 -0.4016
  733TMC3    O110842   0.246   2.787  12.457  0.4456 -0.1377 -0.6262
  733TMC3    O210843   0.638   2.667  13.032  0.2109  0.2755  0.3853
  734MPD2     C10844   2.829   0.725  12.328  0.2247 -0.3537  0.2560
  734MPD2    C110845   2.717   0.648  12.315 -0.9374  0.0929 -0.3639
  734MPD2    C210846   2.653   0.661  12.201 -0.2745  0.5168 -0.6537
  734MPD2    C310847   2.686   0.754  12.101  0.4543 -0.3120  0.1803
  734MPD2    C410848   2.796   0.840  12.116 -0.4216 -0.6378 -1.3213
  734MPD2    C510849   2.873   0.813  12.231 -0.3299  0.8711  0.5724
  734MPD2     H10850   2.563   0.605  12.180 -0.6723  1.4800 -1.5302
  734MPD2    H110851   2.832   0.911  12.043 -0.1315  1.0796  0.4776
  734MPD2    H210852   2.894   0.697  12.411 -0.0343  0.3141  0.6833
  734MPD2    H310853   2.960   0.868  12.264  0.1723  1.1111 -1.1740
  734MPD2     N10854   2.603   0.755  11.988  0.4778  0.1522 -0.1705
  734MPD2    H510855   2.520   0.698  12.004  0.7749  0.3928  2.2043
  734MPD2    N110856   2.679   0.557  12.421  0.5973 -0.0693  1.1887
  734MPD2    H710857   2.731   0.563  12.508 -0.1696  1.1849  1.5519
  735TMC3    C110858   2.540   0.382  12.524  0.0358 -0.6891 -0.5970
  735TMC3    C210859   2.413   0.327  12.521  0.2453 -0.3214  0.3788
  735TMC3    C310860   2.395   0.194  12.512 -0.5017  0.2606  0.3051
  735TMC3    C410861   2.650   0.300  12.554  0.5722 -0.5858 -0.0448
  735TMC3    C510862   2.628   0.169  12.556 -0.1338 -0.6358 -0.8201
  735TMC3    C610863   2.505   0.115  12.530  0.6056  0.0838  0.8383
  735TMC3     C10864   2.556   0.487  12.422 -0.1032 -0.4490 -0.2603
  735TMC3     O10865   2.462   0.498  12.347 -0.0018 -0.1976  0.0175
  735TMC3     H10866   2.325   0.386  12.498  1.6456  1.5809 -0.0791
  735TMC3    H110867   2.750   0.340  12.567  0.0455  1.0382 -0.9994
  735TMC3    H210868   2.497   0.008  12.515  0.7928  0.4890 -2.1518
  735TMC3    C710869   2.731   0.096  12.506  0.6523  0.3457  0.2150
  735TMC3    C810870   2.316   0.149  12.391 -0.3643  0.1243  0.3182
  735TMC3    O110871   2.806   0.169  12.441  0.5187 -0.3914  0.2460
  735TMC3    O210872   2.299   0.030  12.364 -0.5142 -0.3428  0.4779
  736MPD2     C10873   2.826   4.468  12.591  0.9905  0.6360 -0.0040
  736MPD2    C110874   2.839   4.595  12.536 -0.0909 -0.4858 -0.3062
  736MPD2    C210875   2.953   4.614  12.458  0.7455 -0.4152 -0.4988
  736MPD2    C310876   3.062   4.532  12.451 -0.1465 -0.5030 -0.5640
  736MPD2    C410877   3.044   4.398  12.509 -0.3116  0.6401 -0.7375
  736MPD2    C510878   2.924   4.374  12.569 -0.6976  0.6565 -0.0035
  736MPD2     H10879   2.954   4.707  12.402  0.2729  2.5574  4.4619
  736MPD2    H110880   3.115   4.316  12.515 -1.0851  0.1100  1.1660
  736MPD2    H210881   2.738   4.464  12.654  0.7570  0.2857 -0.3512
  736MPD2    H310882   2.910   4.268  12.586  2.8827  0.4216  1.5280
  736MPD2     N10883   3.178   4.568  12.383  0.4800 -0.7146 -0.3929
  736MPD2    H510884   3.179   4.659  12.337 -2.6292 -0.5647 -0.1794
  736MPD2    N110885   2.737   4.693  12.555  0.2075  0.4450  0.4353
  736MPD2    H710886   2.670   4.664  12.625 -1.2684  1.8314 -0.3852
  737TMC3    C110887   3.364   4.556  12.259 -0.1115 -0.4263  0.4125
  737TMC3    C210888   3.358   4.694  12.272  0.7182 -0.8977 -0.4259
  737TMC3    C310889   3.395   0.055  12.176  0.8918 -0.4072  0.0467
  737TMC3    C410890   3.400   4.505  12.148 -0.4419 -0.1488  0.1957
  737TMC3    C510891   3.443   4.589  12.051 -0.1777  0.1676  0.9931
  737TMC3    C610892   3.436   4.723  12.059  0.5611 -0.2898 -0.2103
  737TMC3     C10893   3.277   4.480  12.348  0.0445 -0.1792  0.3164
  737TMC3     O10894   3.290   4.357  12.350 -0.2279 -0.3277  0.2103
  737TMC3     H10895   3.340   0.005  12.373  0.3947  0.3567 -0.9202
  737TMC3    H110896   3.404   4.397  12.136  2.7800 -0.2398  1.9797
  737TMC3    H210897   3.468   0.059  11.974 -1.5484 -0.7083 -1.3158
  737TMC3    C710898   3.512   4.515  11.949 -0.0877  0.3683 -0.1199
  737TMC3    C810899   3.292   0.162  12.168  0.3186 -0.7878 -0.0979
  737TMC3    O110900   3.569   4.407  11.978 -0.4335 -0.3702 -0.2724
  737TMC3    O210901   3.224   0.171  12.266 -0.3718 -0.6210  0.2515
  738MPD2     C10902   3.360   3.763  15.120  0.4192  0.3604  0.2654
  738MPD2    C110903   3.430   3.667  15.189  0.2371  0.0638  0.1784
  738MPD2    C210904   3.567   3.688  15.196 -0.6053 -0.3422 -0.5514
  738MPD2    C310905   3.627   3.801  15.137 -0.0239  0.3407  0.1825
  738MPD2    C410906   3.551   3.890  15.063  0.4050  0.0782 -0.9889
  738MPD2    C510907   3.418   3.869  15.056  0.1677 -0.5955 -0.2024
  738MPD2     H10908   3.627   3.625  15.261  1.4537 -0.2165 -2.3264
  738MPD2    H110909   3.600   3.974  15.015 -2.1287  2.3007  0.3495
  738MPD2    H210910   3.252   3.753  15.114  0.5082  0.1406 -0.9067
  738MPD2    H310911   3.360   3.938  14.995  0.1374  0.7893  1.3631
  738MPD2     N10912   3.767   3.827  15.148 -0.0268 -1.1137 -0.6738
  738MPD2    H510913   3.803   3.906  15.094 -1.8984 -1.2907 -2.1857
  738MPD2    N110914   3.382   3.542  15.246 -0.2666 -0.4409 -0.7981
  738MPD2    H710915   3.447   3.477  15.290 -0.9821 -0.5513  0.0825
  739TMC3    C110916   3.993   3.800  15.207  0.3884  0.2362 -0.2249
  739TMC3    C210917   4.015   3.848  15.084 -0.0548  0.4780  0.4349
  739TMC3    C310918   4.136   3.903  15.072  0.9740  0.0654 -0.6205
  739TMC3    C410919   4.087   3.785  15.307  0.0114 -0.1824  0.2975
  739TMC3    C510920   4.207   3.836  15.285  1.1769 -0.4353  0.3196
  739TMC3    C610921   4.236   3.897  15.167  0.2025 -0.3344  0.0342
  739TMC3     C10922   3.855   3.756  15.228  0.1972 -0.3507  0.3943
  739TMC3     O10923   3.837   3.674  15.320 -0.0041 -0.1754  0.2575
  739TMC3     H10924   3.943   3.859  15.003  0.5494 -0.1447 -0.1834
  739TMC3    H110925   4.055   3.737  15.398  0.9923 -0.5058  0.4606
  739TMC3    H210926   4.323   3.963  15.163 -0.5422  0.6064 -0.5861
  739TMC3    C710927   4.306   3.833  15.390  0.2517  1.2016 -0.3630
  739TMC3    C810928   4.175   3.956  14.943  0.1255 -0.2813 -0.1723
  739TMC3    O110929   4.256   3.799  15.497 -0.6225  0.0043 -0.0390
  739TMC3    O210930   4.081   3.964  14.867 -0.3933  0.5706  0.5981
  740TMC3    C110931   4.545   0.131  14.441  0.0756 -0.2710  0.1276
  740TMC3    C210932   4.611   0.050  14.524 -0.2094 -0.3858  0.0305
  740TMC3    C310933   4.720   4.699  14.476  0.1903  0.1703  0.0972
  740TMC3    C410934   4.595   0.141  14.304 -0.9062  0.2194  0.9311
  740TMC3    C510935   4.714   0.081  14.270 -0.2953  0.3947  0.1952
  740TMC3    C610936   0.039   4.707  14.350 -0.2795 -0.1338 -0.6641
  740TMC3     C10937   4.449   0.225  14.490 -0.7456  0.7469 -0.6973
  740TMC3     O10938   4.441   0.333  14.435 -0.5125 -0.0592 -0.0114
  740TMC3     H10939   4.593   0.043  14.631 -0.8372  0.8619  0.0072
  740TMC3    H110940   4.548   0.213  14.238 -1.9989 -0.4394  1.0016
  740TMC3    H210941   0.131   4.658  14.322  1.3224  2.5164 -0.0634
  740TMC3    C710942   0.016   0.066  14.134 -0.7689  0.6672  0.1009
  740TMC3    C810943   0.047   4.586  14.560  0.3487 -0.5766  0.6151
  740TMC3    O110944   0.088   4.692  14.109  0.2573 -0.1070  0.4049
  740TMC3    O210945   0.041   4.599  14.680  0.8656 -0.4430  0.3562
  741TMC3    C110946   4.053   4.500  14.579 -0.2406  0.4023  0.1594
  741TMC3    C210947   3.943   4.417  14.541 -0.1934  0.4398  0.2856
  741TMC3    C310948   3.923   4.303  14.609  0.4699 -0.6813 -0.1742
  741TMC3    C410949   4.133   4.463  14.685  0.1982  0.2013  0.3555
  741TMC3    C510950   4.107   4.345  14.750  0.6147  0.0486  0.4942
  741TMC3    C610951   3.996   4.272  14.724 -0.2288  0.4691  0.9509
  741TMC3     C10952   4.081   4.620  14.503 -0.2961 -0.0014 -0.1055
  741TMC3     O10953   4.196   4.665  14.498 -0.2497  0.3333  0.1875
  741TMC3     H10954   3.882   4.441  14.455  0.7631  1.7289 -0.0339
  741TMC3    H110955   4.218   4.521  14.718 -0.1227 -0.4041  2.2492
  741TMC3    H210956   3.974   4.187  14.788 -0.1845 -1.1692 -1.2064
  741TMC3    C710957   4.170   4.316  14.881 -0.4184  0.7849 -0.1902
  741TMC3    C810958   3.795   4.241  14.582 -0.5470  0.0868 -0.4358
  741TMC3    O110959   4.104   4.257  14.963 -0.0474 -0.4199  0.0586
  741TMC3    O210960   3.716   4.299  14.506  0.3603  0.1390 -0.0951
  742TMC3    C110961   3.454   2.533  15.478 -0.5843 -0.1877 -0.0674
  742TMC3    C210962   3.400   2.537  15.350 -0.0300  0.5174 -0.0371
  742TMC3    C310963   3.477   2.497  15.247  0.4405 -0.0781 -0.3077
  742TMC3    C410964   3.579   2.486  15.497  0.5722  0.1192 -0.3491
  742TMC3    C510965   3.661   2.460  15.387 -0.4044  0.6399  0.6168
  742TMC3    C610966   3.608   2.464  15.263 -0.0458 -0.6725 -0.1307
  742TMC3     C10967   3.379   2.591  15.588 -0.6343  0.6283  0.1259
  742TMC3     O10968   3.280   2.657  15.557 -0.1309 -0.4797 -0.1104
  742TMC3     H10969   3.292   2.542  15.339  0.2144  0.6189 -2.2966
  742TMC3    H110970   3.630   2.499  15.592 -1.0431 -1.4339  0.7384
  742TMC3    H210971   3.660   2.429  15.175 -1.3935 -0.5498 -0.9799
  742TMC3    C710972   3.798   2.414  15.402 -0.4003  0.2303 -0.0074
  742TMC3    C810973   3.420   2.468  15.120 -0.6256 -1.0899  0.6222
  742TMC3    O110974   3.876   2.417  15.311 -0.3478 -0.0984 -0.7737
  742TMC3    O210975   3.463   2.376  15.052 -0.3327 -0.2181  0.1558
  743MPD2     C10976   1.923   4.658   2.079 -0.3240  0.7436  0.6243
  743MPD2    C110977   1.986   4.566   1.992  0.2796  0.2596 -0.0207
  743MPD2    C210978   2.127   4.578   1.977 -0.7045 -0.1077  0.3265
  743MPD2    C310979   2.197   4.675   2.042 -0.8399 -0.1503  0.0231
  743MPD2    C410980   2.132   0.054   2.115 -0.2854  0.0322 -0.1317
  743MPD2    C510981   1.995   0.041   2.128 -0.5852  0.0956 -0.0082
  743MPD2     H10982   2.181   4.512   1.910 -1.3678 -1.2125  0.8738
  743MPD2    H110983   2.179   0.138   2.164  0.1493 -0.3524  0.1155
  743MPD2    H210984   1.819   4.650   2.108 -1.2746  2.1331 -2.3758
  743MPD2    H310985   1.946   0.118   2.188 -1.3456 -0.9960  0.7778
  743MPD2     N10986   2.337   4.659   2.035  0.7301 -0.2101 -0.4100
  743MPD2    H510987   2.373   4.589   1.972 -1.8267 -1.6691 -0.2358
  743MPD2    N110988   1.910   4.448   1.961  0.1157  0.8252 -0.2228
  743MPD2    H710989   1.811   4.449   1.981 -0.6233  2.2150 -3.8279
  744TMC3    C110990   1.866   4.243   1.829 -0.4409  0.1653  0.3122
  744TMC3    C210991   1.737   4.284   1.829  0.7021 -0.1638 -0.2835
  744TMC3    C310992   1.663   4.237   1.726 -0.1377 -0.1613 -0.3110
  744TMC3    C410993   1.925   4.166   1.737  0.2069  0.2015  0.1100
  744TMC3    C510994   1.847   4.118   1.633  0.1552 -0.1058  0.1500
  744TMC3    C610995   1.717   4.162   1.623 -0.3831  0.0526 -0.3329
  744TMC3     C10996   1.965   4.341   1.892  0.3883 -0.1654 -0.6446
  744TMC3     O10997   2.077   4.325   1.847 -0.9357 -0.2144 -0.1490
  744TMC3     H10998   1.692   4.325   1.919 -0.6466  0.3263 -1.1798
  744TMC3    H110999   2.025   4.124   1.746  0.0605 -0.3043 -0.5901
  744TMC3    H211000   1.661   4.127   1.538 -0.3016 -2.8642  0.8145
  744TMC3    C711001   1.916   4.058   1.520  0.0585  0.5129 -0.1805
  744TMC3    C811002   1.522   4.277   1.712 -0.0019  0.6424 -0.1842
  744TMC3    O111003   2.038   4.043   1.521  0.6157 -0.2962 -0.6358
  744TMC3    O211004   1.491   4.392   1.742  0.2090 -0.1812 -0.3226
  745TMC3    C111005   3.781   2.426  13.911 -0.2946 -1.2936 -0.4251
  745TMC3    C211006   3.691   2.424  14.014 -0.4588 -0.6147 -0.2400
  745TMC3    C311007   3.558   2.438  13.980 -0.0965  0.1174 -0.6263
  745TMC3    C411008   3.740   2.414  13.777  0.6187  0.4985 -1.2849
  745TMC3    C511009   3.608   2.426  13.748 -0.6231  0.2045 -0.1524
  745TMC3    C611010   3.517   2.436  13.847 -0.1593 -0.9087 -0.0289
  745TMC3     C11011   3.918   2.441  13.964 -0.2359  0.2931 -0.1665
  745TMC3     O11012   3.931   2.421  14.084 -0.1018  0.2441  0.0843
  745TMC3     H11013   3.717   2.458  14.113  1.6656  0.5830 -1.2183
  745TMC3    H111014   3.812   2.400  13.697  1.4339  0.8213 -0.6117
  745TMC3    H211015   3.411   2.451  13.828 -0.0969 -0.0922  0.2903
  745TMC3    C711016   3.572   2.517  13.638  0.5664  0.2332 -0.4545
  745TMC3    C811017   3.464   2.469  14.082  0.5126 -0.4505  0.2128
  745TMC3    O111018   3.476   2.589  13.661 -0.1330 -0.5689 -0.0351
  745TMC3    O211019   3.355   2.508  14.046 -0.0668 -0.3829  0.2029
  746TMC3    C111020   1.427   4.426  11.138  0.0106  0.1086  0.2125
  746TMC3    C211021   1.514   4.434  11.035  0.2400 -0.5515  0.2592
  746TMC3    C311022   1.515   4.324  10.950  0.1023 -0.9878 -0.1855
  746TMC3    C411023   1.362   4.313  11.173 -0.3117  0.9598  0.4555
  746TMC3    C511024   1.378   4.202  11.097  0.5010  0.6650 -0.3378
  746TMC3    C611025   1.460   4.203  10.986  0.4090 -0.1695 -1.0578
  746TMC3     C11026   1.412   4.538  11.233  0.6058  0.1924  0.0510
  746TMC3     O11027   1.408   4.507  11.353  0.3633 -0.7025  0.2920
  746TMC3     H11028   1.575   4.522  11.019 -1.5504  0.4092 -1.3597
  746TMC3    H111029   1.287   4.311  11.251 -0.3224 -0.2371  0.4127
  746TMC3    H211030   1.450   4.128  10.909  0.4201  0.9806 -2.1685
  746TMC3    C711031   1.261   4.117  11.089 -0.1405  0.0663 -0.1061
  746TMC3    C811032   1.600   4.320  10.835  0.1304  0.0709  0.2781
  746TMC3    O111033   1.223   4.079  10.977  0.4513 -0.6327 -0.0926
  746TMC3    O211034   1.635   4.210  10.797  0.3987 -0.3379 -0.0201
  747TMC3    C111035   3.813   0.251  11.037  0.4214  0.1963 -0.3128
  747TMC3    C211036   3.772   0.139  11.112 -0.8178  0.1796  0.2588
  747TMC3    C311037   3.772   0.158  11.245 -0.7564 -0.2203  0.4745
  747TMC3    C411038   3.857   0.370  11.086  0.0156  0.7622  0.3679
  747TMC3    C511039   3.866   0.380  11.220 -0.8305 -0.6350 -1.0842
  747TMC3    C611040   3.824   0.275  11.306  0.6213 -0.2068  0.0826
  747TMC3     C11041   3.783   0.256  10.898  0.1442  0.4082 -0.0509
  747TMC3     O11042   3.749   0.366  10.851 -0.6621 -0.0842  0.4052
  747TMC3     H11043   3.727   0.049  11.072 -0.6745  0.8565 -1.3932
  747TMC3    H111044   3.884   0.449  11.018 -0.7477 -0.3180 -1.1953
  747TMC3    H211045   3.830   0.280  11.414 -3.4565 -1.8328  0.4087
  747TMC3    C711046   3.943   0.488  11.282  0.0541 -0.3246 -0.0884
  747TMC3    C811047   3.779   0.038  11.320  0.1165  0.1140  0.5761
  747TMC3    O111048   3.965   0.469  11.400  0.1888 -0.9091  0.9846
  747TMC3    O211049   3.797   4.659  11.253  0.1702  0.3195 -0.0390
  748MPD2     C11050   0.637   0.277   1.606  0.4696  1.3689  0.1290
  748MPD2    C111051   0.758   0.244   1.673 -0.0983 -0.2777  0.4476
  748MPD2    C211052   0.878   0.308   1.636  0.1993  0.0298 -0.3265
  748MPD2    C311053   0.882   0.403   1.539 -0.6654  0.0049 -0.5292
  748MPD2    C411054   0.759   0.444   1.481 -0.2860  1.4190  0.4018
  748MPD2    C511055   0.642   0.375   1.512  0.5948  0.4897  0.1314
  748MPD2     H11056   0.978   0.281   1.666 -0.4130  0.2121  1.8671
  748MPD2    H111057   0.740   0.522   1.408  2.7826  2.1381  0.3607
  748MPD2    H211058   0.547   0.227   1.640  0.1434  0.8977 -1.4135
  748MPD2    H311059   0.553   0.412   1.463  0.6091  1.2068  0.6417
  748MPD2     N11060   1.012   0.447   1.507  0.2940  0.5077 -0.4417
  748MPD2    H511061   1.095   0.425   1.561  1.3543  1.6557 -1.6122
  748MPD2    N111062   0.753   0.148   1.775 -0.3343  0.1990 -0.2099
  748MPD2    H711063   0.661   0.118   1.806 -0.5317  0.1942 -0.8138
  749TMC3    C111064   1.163   0.585   1.371 -0.5179 -0.6005 -0.0667
  749TMC3    C211065   1.249   0.596   1.477  0.1731 -0.6699  0.2927
  749TMC3    C311066   1.372   0.653   1.455  0.1650  0.4152 -0.3301
  749TMC3    C411067   1.190   0.629   1.248  0.0151 -0.7166 -0.4142
  749TMC3    C511068   1.319   0.684   1.231 -0.1881  0.0658 -0.1024
  749TMC3    C611069   1.412   0.691   1.334 -0.4049 -0.6867 -0.0289
  749TMC3     C11070   1.023   0.531   1.401 -0.1481  0.2243  0.2015
  749TMC3     O11071   0.950   0.547   1.305  0.3462  0.3495 -0.1734
  749TMC3     H11072   1.240   0.532   1.565 -0.3446 -0.2466  0.5477
  749TMC3    H111073   1.124   0.608   1.165  0.6357 -2.3375 -0.4963
  749TMC3    H211074   1.500   0.753   1.321 -1.2769  0.3394 -1.0881
  749TMC3    C711075   1.360   0.758   1.112 -0.0221  0.2253  0.0219
  749TMC3    C811076   1.477   0.638   1.555  0.1247  0.8424  0.0658
  749TMC3    O111077   1.480   0.761   1.089  0.2224 -0.5231 -0.0891
  749TMC3    O211078   1.453   0.642   1.676  0.7736  0.2579  0.3919
  750MPD2     C11079   1.577   1.672  11.657  0.1182 -0.1943 -0.2517
  750MPD2    C111080   1.450   1.608  11.668  0.4408 -0.4482  0.9181
  750MPD2    C211081   1.438   1.491  11.597  0.5556  0.3790  0.6367
  750MPD2    C311082   1.540   1.438  11.524  0.5854  0.5336  0.7111
  750MPD2    C411083   1.660   1.500  11.517  0.9094 -0.0353  0.6633
  750MPD2    C511084   1.678   1.621  11.573  0.1965 -0.3848  0.6848
  750MPD2     H11085   1.344   1.438  11.596  0.1110  1.1565  1.0253
  750MPD2    H111086   1.742   1.462  11.456 -1.9108 -0.1795 -3.0413
  750MPD2    H211087   1.599   1.770  11.696 -1.3134 -1.2027  3.1093
  750MPD2    H311088   1.772   1.674  11.563 -1.1389  1.8170 -0.4648
  750MPD2     N11089   1.537   1.313  11.461  0.9221 -0.3808  0.1310
  750MPD2    H511090   1.621   1.281  11.413 -1.0025  0.0442 -3.5229
  750MPD2    N111091   1.356   1.669  11.750 -0.5615 -0.4005 -0.1799
  750MPD2    H711092   1.396   1.747  11.802 -1.1683  0.5167 -1.0769
  751TMC3    C111093   1.470   1.094  11.387 -0.3659  0.1779  0.0790
  751TMC3    C211094   1.383   0.988  11.392 -0.5166  0.0857 -0.0867
  751TMC3    C311095   1.423   0.876  11.324 -0.4446  0.2849 -0.7180
  751TMC3    C411096   1.560   1.105  11.283  0.1396  0.4529 -0.0213
  751TMC3    C511097   1.583   0.999  11.206 -0.6668 -1.1437  0.0916
  751TMC3    C611098   1.520   0.880  11.226  0.4592  0.1374  0.8444
  751TMC3     C11099   1.442   1.211  11.472 -0.0020  0.3906 -0.1452
  751TMC3     O11100   1.343   1.205  11.544  0.3098 -0.3612 -0.1054
  751TMC3     H11101   1.290   0.989  11.449 -0.1339 -2.1299  0.5878
  751TMC3    H111102   1.626   1.189  11.266 -0.3126  0.9880  0.8747
  751TMC3    H211103   1.535   0.789  11.168 -1.5212  0.5611 -0.3222
  751TMC3    C711104   1.644   1.019  11.072  0.3884  0.4182 -0.4923
  751TMC3    C811105   1.324   0.762  11.308 -0.5614 -0.7611 -0.5788
  751TMC3    O111106   1.677   1.134  11.041 -0.1333 -0.3897  0.7972
  751TMC3    O211107   1.339   0.686  11.215  0.0835  0.3875 -0.0533
  752TMC3    C111108   0.738   0.748  17.408 -0.2103 -0.5372 -0.4629
  752TMC3    C211109   0.833   0.665  17.463 -1.2603  0.5686  0.1287
  752TMC3    C311110   0.790   0.584  17.572 -0.7787  0.1509 -1.2576
  752TMC3    C411111   0.609   0.752  17.450  0.2606 -0.5606 -0.2605
  752TMC3    C511112   0.574   0.683  17.563  0.1207  0.0747  1.0387
  752TMC3    C611113   0.664   0.598  17.625 -0.3348 -0.2294  0.1068
  752TMC3     C11114   0.773   0.797  17.277  0.9166 -0.0672 -0.7357
  752TMC3     O11115   0.858   0.739  17.217  0.5775 -0.2282 -0.3823
  752TMC3     H11116   0.934   0.664  17.425 -2.1336 -3.0259 -2.1258
  752TMC3    H111117   0.531   0.796  17.389  0.8059  1.6798  0.6725
  752TMC3    H211118   0.633   0.539   0.015  0.5972 -0.3938  0.3276
  752TMC3    C711119   0.434   0.690  17.597 -0.0587 -0.3610 -0.2520
  752TMC3    C811120   0.878   0.478  17.629  0.5903  0.1067  0.5255
  752TMC3    O111121   0.375   0.791  17.557 -0.5933 -0.6175  0.5267
  752TMC3    O211122   0.840   0.436   0.040  0.2489 -0.2689  0.5465
  753TMC3    C111123   2.316   2.446  13.451 -0.1768  0.4083  1.3079
  753TMC3    C211124   2.392   2.450  13.569  0.1583  0.2788  0.6143
  753TMC3    C311125   2.386   2.347  13.664 -0.0091 -1.0768 -0.1191
  753TMC3    C411126   2.204   2.359  13.450  0.1318 -0.8699 -0.5549
  753TMC3    C511127   2.187   2.275  13.560  0.1740 -0.2822 -0.6186
  753TMC3    C611128   2.287   2.256  13.654  0.2906 -0.1801  0.3512
  753TMC3     C11129   2.336   2.554  13.352  0.3187  0.9899 -0.5104
  753TMC3     O11130   2.406   2.651  13.377 -0.0783  0.2430  0.4522
  753TMC3     H11131   2.480   2.514  13.568  0.3605  0.0264  1.8979
  753TMC3    H111132   2.131   2.352  13.370  0.0755  0.0846 -0.5843
  753TMC3    H211133   2.280   2.176  13.728 -1.1255 -1.1662 -0.8332
  753TMC3    C711134   2.053   2.225  13.590 -0.3301  0.1331 -0.2225
  753TMC3    C811135   2.479   2.328  13.772  0.6948 -0.2908 -0.1255
  753TMC3    O111136   1.965   2.223  13.503  0.3141  0.0780 -0.3978
  753TMC3    O211137   2.524   2.212  13.794  0.6465 -0.2606 -0.0173
  754MPD2     C11138   1.565   1.404  13.098 -0.3948 -0.5238  0.3551
  754MPD2    C111139   1.549   1.282  13.032  0.1213  0.2132  0.3850
  754MPD2    C211140   1.420   1.250  13.004  1.1395 -0.2287  0.3053
  754MPD2    C311141   1.313   1.323  13.046  0.2947 -0.1018 -0.2474
  754MPD2    C411142   1.328   1.443  13.107 -0.2938 -0.1228  0.1826
  754MPD2    C511143   1.454   1.489  13.134  0.4661 -0.4394  0.1703
  754MPD2     H11144   1.402   1.157  12.951 -0.8608  1.2261 -1.5598
  754MPD2    H111145   1.245   1.507  13.134 -1.3415 -2.0829  1.6595
  754MPD2    H211146   1.662   1.447  13.118 -0.8395  0.5633  0.1352
  754MPD2    H311147   1.454   1.582  13.189  1.6697  0.1815 -0.8689
  754MPD2     N11148   1.178   1.283  13.029  0.4504 -0.0209  0.0424
  754MPD2    H511149   1.111   1.348  13.067 -0.0774 -1.4345  1.4954
  754MPD2    N111150   1.664   1.203  12.997  0.3642 -0.2936 -0.2773
  754MPD2    H711151   1.747   1.259  12.980  0.2312 -0.4862 -1.5709
  755MPD2     C11152   0.495   1.794  13.088 -0.6371 -0.2532 -1.3404
  755MPD2    C111153   0.485   1.673  13.148 -0.6746  0.2422 -0.3386
  755MPD2    C211154   0.551   1.566  13.097 -0.2714 -0.4405 -0.3066
  755MPD2    C311155   0.641   1.577  12.983  0.0637 -0.5834  0.0359
  755MPD2    C411156   0.653   1.703  12.922 -0.1083  0.4190  0.3150
  755MPD2    C511157   0.577   1.806  12.971  0.2531 -0.1373 -0.8576
  755MPD2     H11158   0.539   1.476  13.156  1.3745  0.5370  1.4924
  755MPD2    H111159   0.702   1.717  12.827 -0.7920  2.5569  0.2825
  755MPD2    H211160   0.438   1.878  13.124 -3.0318 -1.7591 -1.6301
  755MPD2    H311161   0.579   1.902  12.921 -1.3167  1.0715  1.4140
  755MPD2     N11162   0.716   1.461  12.943  0.5051 -0.3834  0.7004
  755MPD2    H511163   0.796   1.474  12.882  0.8040  0.0493  1.1805
  755MPD2    N111164   0.416   1.648  13.266 -0.4662  0.1847  0.4849
  755MPD2    H711165   0.388   1.556  13.300 -0.7829 -1.5039 -4.3626
  756MPD2     C11166   1.596   1.314  10.003 -0.8877  0.1617  0.0184
  756MPD2    C111167   1.627   1.447   9.969 -0.8606  0.2869  0.1135
  756MPD2    C211168   1.715   1.472   9.862 -0.2029 -0.2683 -0.1718
  756MPD2    C311169   1.769   1.365   9.790  0.2795  0.7082  0.2307
  756MPD2    C411170   1.732   1.235   9.820 -0.6074 -0.2731 -0.2348
  756MPD2    C511171   1.656   1.212   9.924  0.2633  0.4440 -0.7643
  756MPD2     H11172   1.726   1.575   9.831 -3.2561 -0.1743 -0.9360
  756MPD2    H111173   1.759   1.155   9.752  1.2452 -1.3782  1.8064
  756MPD2    H211174   1.519   1.290  10.075 -1.9648 -1.3816 -1.6454
  756MPD2    H311175   1.627   1.108   9.940 -0.2833  0.8045  0.5879
  756MPD2     N11176   1.843   1.406   9.674  0.3105 -0.4157  0.1242
  756MPD2    H511177   1.858   1.507   9.666 -2.1005 -0.0203  0.6427
  756MPD2    N111178   1.572   1.551  10.040 -0.7152  0.4654  0.3021
  756MPD2    H711179   1.593   1.645  10.009  0.0123  0.8872  2.0896
  757MPD2     C11180   1.204   1.460   9.183  0.1263  0.4584  0.5358
  757MPD2    C111181   1.252   1.407   9.298 -0.6351  0.8829  0.5546
  757MPD2    C211182   1.386   1.426   9.329  0.2242 -0.0515  0.3680
  757MPD2    C311183   1.464   1.505   9.250 -0.1955  0.3177  0.9541
  757MPD2    C411184   1.412   1.563   9.136  0.6218  0.3709  0.4322
  757MPD2    C511185   1.282   1.542   9.103 -0.1437 -0.4968  0.1158
  757MPD2     H11186   1.432   1.396   9.422 -0.8883 -1.2399  0.5297
  757MPD2    H111187   1.480   1.622   9.076  1.6021  0.5036  1.6702
  757MPD2    H211188   1.101   1.443   9.156  0.1119 -0.8329  1.3812
  757MPD2    H311189   1.241   1.586   9.013  1.6376  1.2811  0.1866
  757MPD2     N11190   1.599   1.514   9.292 -0.5595  0.3951  0.8387
  757MPD2    H511191   1.631   1.474   9.379  2.8678 -1.8853 -1.4958
  757MPD2    N111192   1.167   1.315   9.371  0.2008  0.1015  0.8467
  757MPD2    H711193   1.073   1.293   9.339  0.1040  0.2512  1.0279
  758MPD2     C11194   1.352   0.515  16.112 -0.4103  0.4562 -0.3052
  758MPD2    C111195   1.434   0.539  16.223  0.8144  0.4015 -0.1183
  758MPD2    C211196   1.374   0.602  16.333 -1.0523  0.6127  0.0253
  758MPD2    C311197   1.238   0.606  16.347 -0.3761 -0.1103  0.0545
  758MPD2    C411198   1.164   0.593  16.235 -0.7343  0.5464  0.0104
  758MPD2    C511199   1.221   0.552  16.115 -0.7938 -0.2904  0.1153
  758MPD2     H11200   1.431   0.617  16.424 -1.8111  0.7467  0.4837
  758MPD2    H111201   1.057   0.604  16.245 -0.8395 -0.7817  0.3841
  758MPD2    H211202   1.396   0.484  16.018 -0.5848  0.6520 -0.4514
  758MPD2    H311203   1.163   0.551  16.023  1.1693  0.3363 -1.1224
  758MPD2     N11204   1.177   0.651  16.468 -0.3752  0.1351 -0.1174
  758MPD2    H511205   1.080   0.680  16.454 -0.8724 -1.8802 -0.7948
  758MPD2    N111206   1.571   0.504  16.219 -0.4471  0.5477  0.0662
  758MPD2    H711207   1.606   0.474  16.129 -2.0144  0.0627 -0.3675
  759MPD2     C11208   0.983   3.566   9.867  0.2682 -0.3824  0.0766
  759MPD2    C111209   0.912   3.597   9.982 -0.1258  0.6212 -0.4719
  759MPD2    C211210   0.859   3.721   9.993  0.1186 -0.4463  0.3530
  759MPD2    C311211   0.873   3.816   9.903 -0.2506  0.6449 -0.4439
  759MPD2    C411212   0.936   3.785   9.784  0.3695  0.0548  0.3922
  759MPD2    C511213   0.991   3.661   9.774  0.2348 -0.4584  0.0289
  759MPD2     H11214   0.803   3.743  10.083 -0.5174  1.7818 -0.5835
  759MPD2    H111215   0.953   3.855   9.702  2.1759  0.1118  0.8156
  759MPD2    H211216   1.027   3.467   9.854 -1.9584 -1.1855 -1.3299
  759MPD2    H311217   1.032   3.634   9.677 -0.0941  1.1214 -0.5494
  759MPD2     N11218   0.823   3.942   9.934  0.1300 -0.1911 -0.2261
  759MPD2    H511219   0.769   3.947  10.019 -1.3828 -1.3216 -1.1263
  759MPD2    N111220   0.887   3.496  10.079 -0.4085  0.6563 -0.2047
  759MPD2    H711221   0.809   3.499  10.144  0.9185 -0.7265  1.4545
  760MPD2     C11222   0.314   1.543  12.012  0.4284 -0.2708 -0.1389
  760MPD2    C111223   0.377   1.485  11.907 -0.2370 -0.5040 -0.1306
  760MPD2    C211224   0.312   1.369  11.864 -0.2000  0.6817 -0.2863
  760MPD2    C311225   0.195   1.322  11.919  0.7485  0.0437  0.1699
  760MPD2    C411226   0.133   1.385  12.024  0.2113 -0.7776  0.2734
  760MPD2    C511227   0.200   1.496  12.067 -0.2439  0.3185  0.0510
  760MPD2     H11228   0.355   1.323  11.775 -0.7691  2.1354 -1.3064
  760MPD2    H111229   0.043   1.348  12.071  0.8470 -2.4309  0.2085
  760MPD2    H211230   0.346   1.637  12.054 -1.7217  0.1285  0.6374
  760MPD2    H311231   0.156   1.542  12.154 -0.5785  0.4056 -0.1629
  760MPD2     N11232   0.122   1.209  11.864 -0.2518 -0.2003 -0.3927
  760MPD2    H511233   0.030   1.196  11.903  1.6300 -2.1294  3.4178
  760MPD2    N111234   0.497   1.527  11.845 -0.0704  0.4304 -0.5620
  760MPD2    H711235   0.538   1.468  11.773  1.0971 -0.1556  0.5780
  761MPD2     C11236   0.901   0.490  11.398  0.4668 -0.8495  0.5614
  761MPD2    C111237   0.974   0.506  11.287  0.6415 -0.9042 -0.3724
  761MPD2    C211238   1.078   0.602  11.283  0.3108  0.4340 -0.3785
  761MPD2    C311239   1.109   0.675  11.394 -0.7350 -0.5807 -0.2405
  761MPD2    C411240   1.030   0.658  11.502  0.0155 -0.4153 -0.0450
  761MPD2    C511241   0.925   0.575  11.497 -0.0625 -0.0731 -0.1107
  761MPD2     H11242   1.137   0.618  11.193 -0.1541 -2.3735 -1.1820
  761MPD2    H111243   1.046   0.716  11.593  0.5152 -3.8606  2.0449
  761MPD2    H211244   0.816   0.422  11.404  0.1588 -0.3920  1.3336
  761MPD2    H311245   0.870   0.576  11.590 -0.4448  4.1993 -0.4022
  761MPD2     N11246   1.223   0.769  11.396  0.0913 -0.3978 -0.3427
  761MPD2    H511247   1.230   0.844  11.465  0.2894 -1.4361  0.7626
  761MPD2    N111248   0.945   0.418  11.181 -0.1564 -0.4774  0.6027
  761MPD2    H711249   0.864   0.357  11.181 -1.4709  1.2665 -2.9930
  762MPD2     C11250   1.258   0.483  10.456  0.2237 -0.3989  0.2167
  762MPD2    C111251   1.302   0.389  10.548  0.1959 -0.1535 -0.1634
  762MPD2    C211252   1.429   0.361  10.551 -0.7177 -0.4803 -0.7644
  762MPD2    C311253   1.522   0.434  10.477 -0.2671  0.3664  0.3382
  762MPD2    C411254   1.485   0.532  10.389 -0.0078  0.2506  0.4962
  762MPD2    C511255   1.348   0.561  10.378  0.4144  0.5777 -0.3813
  762MPD2     H11256   1.469   0.288  10.620 -3.7014 -1.4551 -0.0505
  762MPD2    H111257   1.547   0.588  10.320  0.1602 -0.6759 -0.1113
  762MPD2    H211258   1.152   0.504  10.451  0.3359  0.3430  0.8452
  762MPD2    H311259   1.302   0.632  10.311  0.4225  0.6823 -0.2763
  762MPD2     N11260   1.663   0.403  10.485  0.4470  0.8413 -0.5614
  762MPD2    H511261   1.679   0.322  10.544 -2.3212  0.8077  0.1611
  762MPD2    N111262   1.203   0.327  10.629  0.0931 -1.1339 -0.0086
  762MPD2    H711263   1.107   0.348  10.602  0.1983 -0.3034  0.2815
  763MPD2     C11264   3.749   0.712  16.238 -0.2938 -0.6169 -0.6695
  763MPD2    C111265   3.620   0.752  16.250  0.1614 -0.1506 -0.0247
  763MPD2    C211266   3.604   0.858  16.333 -0.0890 -0.8177  0.3877
  763MPD2    C311267   3.718   0.922  16.392  0.5681  0.1434 -0.4264
  763MPD2    C411268   3.844   0.863  16.386 -0.0947  0.2273  0.4142
  763MPD2    C511269   3.856   0.750  16.320 -0.0542  0.4271  0.0605
  763MPD2     H11270   3.507   0.905  16.330  1.0194  1.5715  1.8727
  763MPD2    H111271   3.917   0.893  16.460  0.0338  0.5275  0.1624
  763MPD2    H211272   3.781   0.636  16.167  0.1773 -1.0583  0.0079
  763MPD2    H311273   3.948   0.695  16.304 -0.0736  0.7329 -1.0845
  763MPD2     N11274   3.712   1.032  16.479 -0.1135  0.0138 -0.5135
  763MPD2    H511275   3.796   1.066  16.525  0.1617 -0.6448 -0.5448
  763MPD2    N111276   3.512   0.704  16.175 -0.2581  0.1230 -0.1518
  763MPD2    H711277   3.425   0.757  16.174 -0.8692 -0.8873 -0.2378
  764MPD2     C11278   1.655   2.619  17.368  0.4299 -0.3512 -0.7254
  764MPD2    C111279   1.517   2.618  17.371  0.4578 -0.5007  0.4650
  764MPD2    C211280   1.452   2.608  17.495  0.1489  0.2352  0.4178
  764MPD2    C311281   1.524   2.571  17.609 -0.2775 -0.1795 -0.8547
  764MPD2    C411282   1.661   2.567  17.603 -0.2461 -0.4366  0.7342
  764MPD2    C511283   1.729   2.600  17.483 -0.4095 -0.6321  0.1086
  764MPD2     H11284   1.344   2.599  17.496  0.1514  0.3482  2.0409
  764MPD2    H111285   1.725   2.552  17.689  0.9199  2.1142  0.3321
  764MPD2    H211286   1.722   2.639  17.285 -1.5794  0.4384 -2.1383
  764MPD2    H311287   1.837   2.596  17.489 -0.3820  1.6942  1.1039
  764MPD2     N11288   1.440   2.548   0.026 -0.8012 -0.8662 -0.0181
  764MPD2    H511289   1.342   2.546  17.695 -0.7237 -0.1337 -0.3682
  764MPD2    N111290   1.437   2.633  17.253  0.0311  0.0590 -0.1352
  764MPD2    H711291   1.340   2.606  17.263 -0.0504  0.5955  0.5938
  765MPD2     C11292   1.476   0.714  15.850 -0.1161 -0.2538 -0.2068
  765MPD2    C111293   1.424   0.606  15.792 -0.5895  0.0112 -0.2990
  765MPD2    C211294   1.502   0.512  15.725  0.0129 -0.1084  0.3293
  765MPD2    C311295   1.647   0.525  15.728 -0.1502  0.4832  0.0755
  765MPD2    C411296   1.696   0.635  15.786  0.3179  0.0927  0.0710
  765MPD2    C511297   1.616   0.729  15.849 -0.2480  0.0526 -0.2885
  765MPD2     H11298   1.461   0.427  15.672  0.5656 -0.2548  0.1439
  765MPD2    H111299   1.804   0.645  15.776  0.3097  1.7859  1.5449
  765MPD2    H211300   1.421   0.796  15.895  1.7496  0.8259  0.1170
  765MPD2    H311301   1.660   0.810  15.907 -1.9657  2.8477 -2.9038
  765MPD2     N11302   1.734   0.421  15.689 -0.8108  0.0882  0.7475
  765MPD2    H511303   1.832   0.448  15.687 -0.9382  0.5239  0.5420
  765MPD2    N111304   1.285   0.612  15.777 -0.0408 -0.6111  0.1859
  765MPD2    H711305   1.249   0.693  15.826  0.9549  0.0616 -0.2009
  766MPD2     C11306   0.478   0.547  15.335  0.1057  1.0550 -0.5398
  766MPD2    C111307   0.588   0.471  15.370 -0.8962  0.1377 -0.5391
  766MPD2    C211308   0.634   0.363  15.293 -0.2992 -0.3086 -0.2313
  766MPD2    C311309   0.573   0.342  15.171 -0.3091  0.0804  0.4143
  766MPD2    C411310   0.463   0.420  15.135 -0.0698 -0.6366 -0.3984
  766MPD2    C511311   0.413   0.520  15.215  0.0087  0.1333  0.2799
  766MPD2     H11312   0.714   0.296  15.324 -0.8548 -0.6967  0.3696
  766MPD2    H111313   0.418   0.403  15.038 -1.3470 -0.2844  0.1409
  766MPD2    H211314   0.442   0.627  15.399 -4.0514 -1.8353  0.6929
  766MPD2    H311315   0.338   0.585  15.172 -1.1790 -0.2586  1.7637
  766MPD2     N11316   0.646   0.283  15.062 -0.2079  0.4795 -0.4070
  766MPD2    H511317   0.621   0.328  14.974 -0.2081  1.9927  0.3575
  766MPD2    N111318   0.651   0.512  15.487  0.1669  0.3709  0.7770
  766MPD2    H711319   0.606   0.589  15.537 -0.3100  0.0895  0.7846
  767MPD2     C11320   0.276   0.654  14.821 -0.1487  0.0978  0.0108
  767MPD2    C111321   0.407   0.613  14.820  0.5399  0.2594  0.1242
  767MPD2    C211322   0.443   0.514  14.732 -0.2837  0.2265 -0.1535
  767MPD2    C311323   0.351   0.472  14.634  0.0035 -0.3192  0.3015
  767MPD2    C411324   0.229   0.527  14.632 -0.5077 -0.2009  0.1019
  767MPD2    C511325   0.182   0.621  14.723  0.0265 -0.1265 -0.4173
  767MPD2     H11326   0.544   0.477  14.723 -0.7770 -1.1668  0.0858
  767MPD2    H111327   0.146   0.494  14.571 -1.2039  1.1498  0.3141
  767MPD2    H211328   0.256   0.743  14.880 -1.0048 -1.3100  1.8283
  767MPD2    H311329   0.088   0.674  14.719 -0.1945 -0.5463 -0.7469
  767MPD2     N11330   0.393   0.373  14.536  0.6432 -0.2507 -0.2221
  767MPD2    H511331   0.492   0.353  14.532  0.7598  0.6574 -1.8725
  767MPD2    N111332   0.493   0.680  14.906  0.4640  0.3388  0.0664
  767MPD2    H711333   0.452   0.751  14.965 -2.2009 -0.7973 -0.4082
  768MPD2     C11334   1.302   3.814  10.549  0.4421  0.2519  0.0397
  768MPD2    C111335   1.248   3.793  10.673 -0.6569  0.0607  0.0550
  768MPD2    C211336   1.333   3.819  10.783 -0.0295  0.2888 -0.0263
  768MPD2    C311337   1.462   3.861  10.766 -0.1741 -0.1161 -0.1909
  768MPD2    C411338   1.507   3.900  10.642 -0.0953 -0.2082 -0.1238
  768MPD2    C511339   1.426   3.876  10.532  0.1191  0.5203 -0.0817
  768MPD2     H11340   1.290   3.814  10.883 -0.5454  1.6742 -0.1774
  768MPD2    H111341   1.607   3.940  10.634  0.2135 -1.0000 -0.1503
  768MPD2    H211342   1.243   3.774  10.467  0.1632  2.1607 -0.6859
  768MPD2    H311343   1.460   3.896  10.431 -0.2230 -0.5474 -0.4049
  768MPD2     N11344   1.544   3.874  10.881 -0.4322  0.1315  0.2136
  768MPD2    H511345   1.633   3.921  10.869  0.6755 -1.6181  1.4368
  768MPD2    N111346   1.121   3.738  10.700 -0.2462 -0.4417 -0.0680
  768MPD2    H711347   1.093   3.722  10.797 -0.6003  1.2773  0.1107
  769MPD2     C11348   2.489   1.813  15.063  0.1011 -0.1654 -0.2537
  769MPD2    C111349   2.369   1.813  15.125 -0.0316  0.9211 -0.0638
  769MPD2    C211350   2.364   1.827  15.264  0.3107  0.3205  0.8391
  769MPD2    C311351   2.482   1.819  15.341 -0.7286  0.0614 -0.0665
  769MPD2    C411352   2.606   1.808  15.279  0.4118 -0.5619  0.0753
  769MPD2    C511353   2.603   1.818  15.138 -0.5998 -0.8278  0.2425
  769MPD2     H11354   2.265   1.830  15.309 -0.3628 -1.5105 -0.4902
  769MPD2    H111355   2.689   1.784  15.344  1.3240 -0.8649 -1.2003
  769MPD2    H211356   2.503   1.806  14.956 -1.1356  0.0471 -0.4335
  769MPD2    H311357   2.696   1.817  15.082 -0.9595  1.3222 -0.3784
  769MPD2     N11358   2.466   1.828  15.476 -0.8246  0.2868  0.2285
  769MPD2    H511359   2.373   1.842  15.514 -1.4484  0.2358 -1.3190
  769MPD2    N111360   2.261   1.811  15.036  0.2628  0.6802 -0.8619
  769MPD2    H711361   2.281   1.816  14.936  0.8271  0.0777 -0.7731
  770MPD2     C11362   1.599   1.409  15.412 -0.2499  0.3945 -0.2246
  770MPD2    C111363   1.674   1.355  15.315  0.6934 -0.4548  1.2021
  770MPD2    C211364   1.705   1.426  15.198 -0.2022  1.4134  0.2906
  770MPD2    C311365   1.652   1.549  15.177 -0.2705  0.2049  0.0558
  770MPD2    C411366   1.567   1.603  15.278  0.5588  0.1803 -1.6983
  770MPD2    C511367   1.541   1.529  15.386  0.7243  0.3328  0.0306
  770MPD2     H11368   1.774   1.395  15.121  0.5012  2.2220  0.5975
  770MPD2    H111369   1.517   1.699  15.271 -0.0927 -0.0884 -0.5950
  770MPD2    H211370   1.590   1.352  15.504 -2.7367  0.4209 -0.4528
  770MPD2    H311371   1.472   1.564  15.463 -0.0718  1.0419 -1.0069
  770MPD2     N11372   1.697   1.626  15.069  0.3459 -0.1131  0.7185
  770MPD2    H511373   1.761   1.576  15.007  0.5872 -0.3789  1.1837
  770MPD2    N111374   1.718   1.227  15.336 -0.0976 -0.1849  0.3450
  770MPD2    H711375   1.683   1.178  15.418 -0.7103 -2.1424 -1.0831
  771MPD2     C11376   2.870   4.404  13.808 -1.0702 -0.1163  0.3681
  771MPD2    C111377   2.910   4.482  13.700  0.5488  0.6099 -0.5781
  771MPD2    C211378   2.907   4.417  13.577  0.2841  0.6366  0.0344
  771MPD2    C311379   2.875   4.286  13.569  0.5359 -0.5239 -0.2616
  771MPD2    C411380   2.846   4.212  13.680  0.0310 -0.2304 -0.2403
  771MPD2    C511381   2.840   4.272  13.801 -0.1587 -0.3278  0.4477
  771MPD2     H11382   2.922   4.470  13.484 -1.1328  0.5755 -0.2255
  771MPD2    H111383   2.812   4.110  13.669 -2.4004  0.6143 -0.6849
  771MPD2    H211384   2.872   4.451  13.906 -2.6372  1.3518 -0.3005
  771MPD2    H311385   2.810   4.212  13.886  1.5970  0.4524  1.6169
  771MPD2     N11386   2.865   4.225  13.440  0.4207  0.2011  0.9116
  771MPD2    H511387   2.892   4.286  13.363 -1.5444 -0.4544 -0.2900
  771MPD2    N111388   2.928   4.618  13.698  0.3412 -0.4768  0.1165
  771MPD2    H711389   2.964   4.660  13.613 -1.7831  2.0204  0.4822
  772MPD2     C11390   2.589   0.558  14.130  0.2316 -0.4957  0.4389
  772MPD2    C111391   2.559   0.463  14.039 -0.0860 -0.0176  0.1807
  772MPD2    C211392   2.431   0.443  13.995  0.2883 -0.0950 -0.1362
  772MPD2    C311393   2.327   0.506  14.055  0.0621  0.7219  0.0986
  772MPD2    C411394   2.350   0.609  14.145 -0.4670 -0.7987  0.0142
  772MPD2    C511395   2.483   0.635  14.181 -0.6906  0.3264  0.0638
  772MPD2     H11396   2.412   0.379  13.909  2.1518 -1.6907  0.6629
  772MPD2    H111397   2.274   0.666  14.198  0.6067 -0.2544  0.9737
  772MPD2    H211398   2.692   0.574  14.158  0.7035 -0.1741 -1.5283
  772MPD2    H311399   2.503   0.704  14.263 -1.9882 -0.8809  1.4013
  772MPD2     N11400   2.185   0.488  14.029 -0.4598 -0.0907 -0.5420
  772MPD2    H511401   2.122   0.542  14.087 -2.0236 -1.5348 -0.8793
  772MPD2    N111402   2.649   0.396  13.952 -0.2333 -0.7137  0.3479
  772MPD2    H711403   2.603   0.326  13.895 -0.3301  0.7943 -1.4422
  773MPD2     C11404   1.831   0.969  17.477 -0.4473  0.3950 -1.0653
  773MPD2    C111405   1.805   0.905  17.602 -0.0046 -0.5463 -0.2290
  773MPD2    C211406   1.905   0.843  17.672 -0.1322  0.0922 -0.2353
  773MPD2    C311407   2.033   0.851  17.629 -0.4998 -0.9458 -0.7324
  773MPD2    C411408   2.062   0.921  17.517  0.7191  0.5469  0.1727
  773MPD2    C511409   1.967   0.987  17.443 -0.2679 -0.2436 -0.2975
  773MPD2     H11410   1.883   0.797   0.072 -0.4435 -1.5057 -1.0868
  773MPD2    H111411   2.166   0.922  17.487  0.5647 -0.5648 -0.4135
  773MPD2    H211412   1.759   1.017  17.412  1.5321 -1.7750 -4.8064
  773MPD2    H311413   2.001   1.038  17.354  0.1432  3.2486  1.8889
  773MPD2     N11414   2.134   0.791   0.018  0.0177  0.1219 -0.6137
  773MPD2    H511415   2.100   0.728   0.089  0.2755  1.0384  0.3265
  773MPD2    N111416   1.671   0.900  17.661 -0.0543 -0.2766 -0.1028
  773MPD2    H711417   1.672   0.867   0.061  1.1026  3.1798  1.0753
  774MPD2     C11418   1.409   0.117  13.115  0.1677  0.0359 -0.3291
  774MPD2    C111419   1.296   0.196  13.127  0.2328 -0.4438 -0.6837
  774MPD2    C211420   1.301   0.331  13.109  0.1770 -0.5598  0.0882
  774MPD2    C311421   1.423   0.395  13.095 -0.0501 -0.3552 -0.5735
  774MPD2    C411422   1.538   0.317  13.101 -1.3025  0.5050 -0.2066
  774MPD2    C511423   1.530   0.177  13.093 -0.1537 -0.0193  0.1843
  774MPD2     H11424   1.218   0.399  13.126  0.6475  0.4794 -1.7029
  774MPD2    H111425   1.636   0.363  13.106 -0.8629 -0.4741  0.2117
  774MPD2    H211426   1.405   0.010  13.131 -0.8689  0.0479 -0.4918
  774MPD2    H311427   1.619   0.118  13.077 -0.9615 -1.0894 -0.3236
  774MPD2     N11428   1.418   0.537  13.091 -0.3344  0.0304  0.4872
  774MPD2    H511429   1.331   0.585  13.110 -1.2482 -2.2123  2.0270
  774MPD2    N111430   1.176   0.128  13.156  0.3321 -0.2111  0.1539
  774MPD2    H711431   1.182   0.029  13.176  0.0791 -0.3010 -0.2044
  775MPD2     C11432   2.702   1.720  16.132  0.5159  0.1120 -0.3194
  775MPD2    C111433   2.649   1.841  16.173  0.1304 -0.0536  0.5784
  775MPD2    C211434   2.718   1.954  16.143 -0.0676 -0.0127  0.8750
  775MPD2    C311435   2.834   1.951  16.065 -0.5022  0.5251  0.0027
  775MPD2    C411436   2.880   1.826  16.017 -0.1827  0.1898  0.5946
  775MPD2    C511437   2.807   1.715  16.041 -1.0136 -0.0597  0.7365
  775MPD2     H11438   2.681   2.046  16.188 -0.3539 -0.6977  2.0365
  775MPD2    H111439   2.970   1.824  15.955 -0.0943 -3.5521  0.8077
  775MPD2    H211440   2.667   1.620  16.157 -0.4944  0.2497 -1.1997
  775MPD2    H311441   2.825   1.623  15.988 -0.6373  0.7079 -0.4785
  775MPD2     N11442   2.906   2.070  16.034  0.0348 -0.1010 -0.2242
  775MPD2    H511443   2.967   2.062  15.953 -0.7607  0.0458 -0.8475
  775MPD2    N111444   2.526   1.836  16.246 -0.5182 -0.3740 -0.5770
  775MPD2    H711445   2.491   1.743  16.267  0.7315 -0.6622  0.2573
  776MPD2     C11446   1.697   1.669  11.996  0.1472  0.4493  0.7355
  776MPD2    C111447   1.626   1.781  12.010 -0.7713 -0.4180 -0.1267
  776MPD2    C211448   1.686   1.902  12.007 -0.7566  0.2579 -0.2496
  776MPD2    C311449   1.823   1.912  11.991 -0.1513  0.0692  0.5577
  776MPD2    C411450   1.905   1.798  11.979  0.4128  0.0752 -0.0203
  776MPD2    C511451   1.840   1.678  11.980 -0.0511  0.4275 -0.1182
  776MPD2     H11452   1.642   1.997  12.031  0.8882  1.1102 -0.5860
  776MPD2    H111453   2.012   1.811  11.964  0.7219 -2.0452  0.3466
  776MPD2    H211454   1.651   1.571  12.001 -0.5660  0.7084 -0.6355
  776MPD2    H311455   1.901   1.592  11.958 -0.5673  0.0401 -0.0456
  776MPD2     N11456   1.888   2.031  11.964 -0.2212  0.5609  0.0730
  776MPD2    H511457   1.989   2.034  11.951 -0.5424  0.5396 -2.3828
  776MPD2    N111458   1.482   1.780  12.029 -0.2132 -0.2305  0.6139
  776MPD2    H711459   1.443   1.687  12.033 -0.2115 -0.2583 -0.0588
  777MPD2     C11460   2.205   0.056   0.872 -0.1014  0.5297  0.2490
  777MPD2    C111461   2.274   0.018   0.982  0.2838 -0.7225 -0.1203
  777MPD2    C211462   2.349   4.622   0.987  0.5457  0.2952  0.0561
  777MPD2    C311463   2.336   4.536   0.871  0.5872 -0.2355  0.5009
  777MPD2    C411464   2.253   4.570   0.765  0.4541 -0.6965  0.6002
  777MPD2    C511465   2.177   4.690   0.770 -0.7289  0.0083  0.0255
  777MPD2     H11466   2.409   4.591   1.072  1.4827 -0.1293 -0.7570
  777MPD2    H111467   2.233   4.498   0.686  1.0960 -0.2639  0.0433
  777MPD2    H211468   2.143   0.144   0.869  0.3504  0.8962  1.6797
  777MPD2    H311469   2.108   4.721   0.692  0.0117 -1.8828 -1.3816
  777MPD2     N11470   2.382   4.398   0.890  0.2115  0.2575 -0.1483
  777MPD2    H511471   2.418   4.363   0.979 -0.4914  0.8683  0.3820
  777MPD2    N111472   2.284   0.117   1.085 -0.0735 -0.6036  0.0107
  777MPD2    H711473   2.236   0.203   1.060 -0.4398 -0.5239  0.9822
  778MPD2     C11474   2.901   4.280  15.375 -0.0430  0.0540  0.4904
  778MPD2    C111475   2.845   4.307  15.252 -0.5458  0.1661  0.0260
  778MPD2    C211476   2.915   4.383  15.158 -0.8896 -0.0470 -0.0194
  778MPD2    C311477   3.041   4.429  15.191 -0.1953  0.1284  0.0429
  778MPD2    C411478   3.084   4.421  15.319 -0.2775 -0.2204  0.0765
  778MPD2    C511479   3.022   4.337  15.407 -0.1318 -0.0346  0.3917
  778MPD2     H11480   2.875   4.392  15.058  0.2245  0.2601 -0.4309
  778MPD2    H111481   3.174   4.465  15.358 -1.2236 -0.6069  2.6833
  778MPD2    H211482   2.857   4.225  15.457 -0.5969  0.4405  0.4579
  778MPD2    H311483   3.071   4.305  15.499 -0.3128  1.4405  1.0048
  778MPD2     N11484   3.122   4.490  15.088  0.5922  0.0990  0.4077
  778MPD2    H511485   3.078   4.505  14.998 -0.0292  0.2395  0.7321
  778MPD2    N111486   2.717   4.263  15.216  0.2700 -0.0356  0.4087
  778MPD2    H711487   2.673   4.308  15.136 -0.0241 -0.3489  0.3924
  779MPD2     C11488   2.589   3.513  14.231 -0.5161 -0.2368  0.5999
  779MPD2    C111489   2.709   3.492  14.294 -0.5643  0.2052 -0.3030
  779MPD2    C211490   2.800   3.594  14.312 -0.0041 -0.3082  0.4779
  779MPD2    C311491   2.771   3.721  14.264  0.2346  0.6055 -0.4596
  779MPD2    C411492   2.643   3.746  14.207 -0.0206 -0.4200 -0.0172
  779MPD2    C511493   2.559   3.636  14.185 -0.0484 -0.5252 -0.5306
  779MPD2     H11494   2.893   3.570  14.364 -1.1461 -1.5720  1.9245
  779MPD2    H111495   2.618   3.847  14.176 -1.8133 -0.4275  1.4423
  779MPD2    H211496   2.522   3.433  14.204  0.0992 -0.8625  0.9138
  779MPD2    H311497   2.467   3.652  14.130 -2.3967 -0.0237  3.5433
  779MPD2     N11498   2.872   3.816  14.271  0.7676 -0.6095 -0.0627
  779MPD2    H511499   2.965   3.783  14.294  0.9078 -0.5256 -0.5200
  779MPD2    N111500   2.739   3.363  14.337 -0.1893  0.5401  0.0385
  779MPD2    H711501   2.838   3.342  14.351 -0.0623  1.5363  0.6463
  780MPD2     C11502   2.470   3.710   1.145  0.4795 -0.0200  0.7500
  780MPD2    C111503   2.388   3.620   1.070  0.1305 -0.0870 -0.2482
  780MPD2    C211504   2.427   3.586   0.940 -0.3910  0.2042  0.1664
  780MPD2    C311505   2.544   3.636   0.892 -0.4563  0.0388 -0.6143
  780MPD2    C411506   2.618   3.730   0.955 -0.5394 -0.1312 -0.1279
  780MPD2    C511507   2.582   3.763   1.084  0.0030  0.0988 -0.4168
  780MPD2     H11508   2.359   3.526   0.881 -0.6069 -1.1487  1.8008
  780MPD2    H111509   2.698   3.777   0.900 -0.9924 -0.6509 -1.2352
  780MPD2    H211510   2.451   3.739   1.248 -1.1133  3.0239 -0.3983
  780MPD2    H311511   2.638   3.837   1.139 -1.8992  0.7188  0.6713
  780MPD2     N11512   2.594   3.595   0.759 -0.1232  0.1058  0.0890
  780MPD2    H511513   2.658   3.663   0.717 -0.8839 -0.5509 -2.1066
  780MPD2    N111514   2.273   3.584   1.140 -0.3241  0.6936  0.4019
  780MPD2    H711515   2.266   3.616   1.236  1.7706  1.1749  0.4020
  781MPD2     C11516   3.787   0.596  12.205 -0.8762 -0.0667 -0.2845
  781MPD2    C111517   3.915   0.565  12.251 -0.8057 -0.2022 -1.1395
  781MPD2    C211518   4.023   0.585  12.169  0.8223  0.0908 -0.2973
  781MPD2    C311519   4.009   0.661  12.056 -0.2844 -0.5207  0.4583
  781MPD2    C411520   3.881   0.702  12.020 -0.4532 -0.7200 -0.3983
  781MPD2    C511521   3.773   0.668  12.095  0.4486 -0.1737  0.7251
  781MPD2     H11522   4.121   0.547  12.197 -0.1196 -1.3397  1.0435
  781MPD2    H111523   3.869   0.773  11.939 -1.4059  0.4798  0.7915
  781MPD2    H211524   3.693   0.575  12.256 -0.7801  1.1764  0.4094
  781MPD2    H311525   3.674   0.703  12.067 -0.1373 -1.2820  1.4311
  781MPD2     N11526   4.117   0.700  11.966 -0.6481 -0.1573 -0.0144
  781MPD2    H511527   4.092   0.762  11.890  0.0594  0.7214  0.4766
  781MPD2    N111528   3.941   0.492  12.369  0.0759 -0.3782  0.1819
  781MPD2    H711529   4.037   0.464  12.388  0.3026 -1.1066 -2.0772
  782MPD2     C11530   1.446   1.618  10.749 -0.7900  0.0010  0.0399
  782MPD2    C111531   1.574   1.597  10.701 -0.2944 -0.5873  0.8883
  782MPD2    C211532   1.684   1.630  10.777  0.2880  0.9311  0.4071
  782MPD2    C311533   1.668   1.676  10.905  0.0277 -0.3912 -0.5788
  782MPD2    C411534   1.537   1.692  10.954  0.2246  0.2359  0.5554
  782MPD2    C511535   1.426   1.664  10.874 -0.7790 -0.6913 -0.5567
  782MPD2     H11536   1.784   1.608  10.742  0.0432  1.7948 -0.8441
  782MPD2    H111537   1.513   1.729  11.053  0.9615 -3.2482  2.0039
  782MPD2    H211538   1.360   1.599  10.684 -0.3065  1.9572 -1.1867
  782MPD2    H311539   1.326   1.673  10.914 -0.6260 -1.9402  0.1014
  782MPD2     N11540   1.779   1.706  10.985 -0.2052  0.0100  0.1333
  782MPD2    H511541   1.866   1.704  10.934 -0.5649 -0.0511 -0.4845
  782MPD2    N111542   1.586   1.544  10.573  0.1316 -0.1175  0.9384
  782MPD2    H711543   1.500   1.510  10.530  1.6443 -1.5300 -0.9561
  783MPD2     C11544   1.656   0.770  10.790 -0.3094  0.0294  0.2644
  783MPD2    C111545   1.658   0.898  10.846 -0.6929  0.1390 -0.6980
  783MPD2    C211546   1.658   1.008  10.763  0.5060 -0.4632  0.7093
  783MPD2    C311547   1.667   1.003  10.625 -0.2577  0.5023 -0.0460
  783MPD2    C411548   1.671   0.873  10.573 -0.1099 -0.5933 -0.4317
  783MPD2    C511549   1.659   0.762  10.652 -0.1964  0.2864 -0.4372
  783MPD2     H11550   1.646   1.107  10.806  0.1856  0.9588 -2.6158
  783MPD2    H111551   1.663   0.847  10.469  0.5651 -2.3596 -0.0418
  783MPD2    H211552   1.659   0.677  10.847  1.0757  1.4959  2.6058
  783MPD2    H311553   1.652   0.666  10.602 -1.2004 -0.5572  1.3193
  783MPD2     N11554   1.663   1.116  10.536 -0.6093 -0.3396  0.2874
  783MPD2    H511555   1.659   1.212  10.569  0.7815  0.4703 -1.9449
  783MPD2    N111556   1.644   0.908  10.990  0.0602 -0.5544 -0.0411
  783MPD2    H711557   1.647   0.822  11.044  0.7425 -0.7500 -0.3883
  784MPD2     C11558   4.230   1.308   0.670  0.1550 -0.1644  0.1953
  784MPD2    C111559   4.217   1.377   0.789 -0.6383  0.0395 -0.2855
  784MPD2    C211560   4.167   1.503   0.785 -0.6154  0.4850  0.2100
  784MPD2    C311561   4.130   1.565   0.666  0.1750 -0.5923 -0.1718
  784MPD2    C411562   4.136   1.490   0.550 -0.6204  0.8190 -0.1951
  784MPD2    C511563   4.187   1.362   0.553  0.1760  0.3845  0.2328
  784MPD2     H11564   4.150   1.551   0.881  1.0476  0.0879  0.7062
  784MPD2    H111565   4.105   1.523   0.452  1.3054  2.7142 -0.1572
  784MPD2    H211566   4.284   1.214   0.674  0.0513 -0.2265  0.1366
  784MPD2    H311567   4.188   1.310   0.458 -0.2487  0.0638  0.4021
  784MPD2     N11568   4.066   1.695   0.675  0.0660 -0.0564  0.1648
  784MPD2    H511569   4.056   1.737   0.767  0.1633  0.2588  0.0302
  784MPD2    N111570   4.250   1.328   0.920  0.2831 -0.2387  0.3406
  784MPD2    H711571   4.211   1.373   1.001  0.7202  1.4773 -0.4019
  785MPD2     C11572   4.620   0.028  10.821 -0.5967  0.3058 -1.1491
  785MPD2    C111573   4.645   0.157  10.852 -0.1284  0.2874  0.2089
  785MPD2    C211574   4.539   0.244  10.873 -0.3303  0.1691  0.3627
  785MPD2    C311575   4.404   0.203  10.868  0.0505 -0.7230 -0.3268
  785MPD2    C411576   4.382   0.069  10.837  0.7118  0.2778 -0.7267
  785MPD2    C511577   4.485   4.712  10.819 -0.4460  0.2088 -0.2031
  785MPD2     H11578   4.547   0.351  10.888  0.0286  0.2915 -0.6684
  785MPD2    H111579   4.284   0.025  10.851 -0.3435  3.2756  1.2093
  785MPD2    H211580   4.690   4.672  10.799 -0.9716 -1.4900  4.0185
  785MPD2    H311581   4.457   4.608  10.803  1.5445 -0.3521 -0.0785
  785MPD2     N11582   4.301   0.301  10.879 -0.0742  0.1327  0.1260
  785MPD2    H511583   4.334   0.392  10.910 -0.4295 -0.6966  2.9915
  785MPD2    N111584   0.050   0.214  10.862 -0.1813 -0.1707  0.4310
  785MPD2    H711585   0.052   0.311  10.890 -2.6974 -0.3865  1.3494
  786MPD2     C11586   3.156   2.667  14.714 -0.6746  0.2328 -0.8508
  786MPD2    C111587   3.242   2.554  14.722 -0.4545 -0.2920  0.0073
  786MPD2    C211588   3.303   2.527  14.844  0.2867  0.2545  0.5202
  786MPD2    C311589   3.283   2.608  14.958  0.7275 -0.2040  0.3132
  786MPD2    C411590   3.200   2.716  14.946 -0.4237 -1.4819 -0.0827
  786MPD2    C511591   3.135   2.749  14.824  0.0750 -0.3317 -0.1105
  786MPD2     H11592   3.356   2.433  14.855 -3.4039 -1.5753  2.9698
  786MPD2    H111593   3.185   2.787  15.026 -0.2124 -2.1780  0.5698
  786MPD2    H211594   3.111   2.703  14.622 -1.4980 -1.8940 -1.2751
  786MPD2    H311595   3.083   2.844  14.819 -1.1885 -0.8509  3.1011
  786MPD2     N11596   3.342   2.576  15.083  0.4175  0.4493  0.4765
  786MPD2    H511597   3.346   2.650  15.152  0.8937 -0.2812  1.2266
  786MPD2    N111598   3.257   2.461  14.620  0.2832 -0.0248 -0.3956
  786MPD2    H711599   3.321   2.383  14.633  0.9660  0.4824 -0.7039
  787MPD2     C11600   3.308   1.837  14.724 -0.3263  0.0564 -0.5002
  787MPD2    C111601   3.410   1.891  14.647 -0.3488 -0.0275 -0.2068
  787MPD2    C211602   3.542   1.874  14.696  0.3645 -0.1556  0.3605
  787MPD2    C311603   3.570   1.812  14.812 -0.3213  0.6254  0.0968
  787MPD2    C411604   3.460   1.768  14.891 -0.3813  0.3785 -0.3461
  787MPD2    C511605   3.333   1.769  14.842 -0.2784 -0.1797  0.2148
  787MPD2     H11606   3.625   1.916  14.640 -0.7226 -0.3648 -1.4171
  787MPD2    H111607   3.470   1.731  14.993  1.1968  0.5687 -0.4432
  787MPD2    H211608   3.204   1.844  14.693 -0.3796 -0.1181 -0.3627
  787MPD2    H311609   3.249   1.735  14.902  1.1038 -4.9150 -0.5568
  787MPD2     N11610   3.709   1.804  14.852 -0.5232  0.2199 -0.2915
  787MPD2    H511611   3.775   1.836  14.782  0.5827 -1.0364  0.1694
  787MPD2    N111612   3.372   1.958  14.526 -0.1609 -0.5038  0.2505
  787MPD2    H711613   3.272   1.958  14.509 -0.2433  1.0989  0.7630
  788MPD2     C11614   4.617   0.463   1.200  0.3514  0.3988 -0.2028
  788MPD2    C111615   4.614   0.421   1.069  0.7381 -0.1956  0.5423
  788MPD2    C211616   4.663   0.505   0.968  0.2580  0.0880 -0.5763
  788MPD2    C311617   0.003   0.624   1.005  0.5564  0.1528 -0.2982
  788MPD2    C411618   0.018   0.661   1.136 -0.0434 -0.1253 -0.0294
  788MPD2    C511619   4.675   0.584   1.232 -0.0762 -0.3941 -0.4756
  788MPD2     H11620   4.644   0.474   0.866  0.9294 -0.4976 -0.5226
  788MPD2    H111621   0.070   0.752   1.162 -0.9363  0.6600 -0.9955
  788MPD2    H211622   4.580   0.401   1.281  1.1753 -1.3344 -1.1333
  788MPD2    H311623   4.691   0.611   1.336 -0.7437  0.9252 -0.7162
  788MPD2     N11624   0.086   0.693   0.918 -0.0488  0.3489 -0.3289
  788MPD2    H511625   0.153   0.750   0.969 -0.7438  1.5163 -0.7096
  788MPD2    N111626   4.564   0.297   1.030  0.0590 -0.7243  0.0712
  788MPD2    H711627   4.555   0.278   0.930 -3.5736 -0.7155  0.3885
  789MPD2     C11628   1.292   0.382  17.076 -0.1848 -0.2822  0.2660
  789MPD2    C111629   1.216   0.328  16.972  0.1384  0.2694 -0.4823
  789MPD2    C211630   1.088   0.378  16.950  0.1918  0.0596  0.2616
  789MPD2    C311631   1.027   0.468  17.039 -0.3439 -1.1031  0.6414
  789MPD2    C411632   1.104   0.521  17.141 -0.0091 -0.0543 -0.3978
  789MPD2    C511633   1.230   0.473  17.164  0.5331  0.2642 -0.0794
  789MPD2     H11634   1.028   0.339  16.869 -0.4361  2.3590 -0.3871
  789MPD2    H111635   1.058   0.578  17.222 -1.5517  0.7228 -1.8180
  789MPD2    H211636   1.395   0.356  17.095  0.0126  0.0321 -0.3885
  789MPD2    H311637   1.289   0.515  17.245 -2.0757 -0.6211  2.3185
  789MPD2     N11638   0.888   0.508  17.021 -0.0125  0.1810 -0.3585
  789MPD2    H511639   0.854   0.573  17.091 -0.3162 -0.2403 -0.1144
  789MPD2    N111640   1.267   0.243  16.875 -0.6225 -0.0303  0.3253
  789MPD2    H711641   1.195   0.223  16.805  0.1634 -0.7535 -0.2825
  790MPD2     C11642   2.058   2.656  13.616 -0.8023  0.4729  0.3581
  790MPD2    C111643   1.974   2.581  13.700  0.5281  0.0193 -0.3315
  790MPD2    C211644   1.855   2.538  13.643 -0.5356 -0.5761  0.4877
  790MPD2    C311645   1.838   2.538  13.507  0.3070 -0.5284  0.0571
  790MPD2    C411646   1.932   2.596  13.416 -0.2911 -0.1195  0.1541
  790MPD2    C511647   2.036   2.661  13.473 -0.1254  0.0770  0.4571
  790MPD2     H11648   1.787   2.489  13.713  1.3423 -2.5517  0.9303
  790MPD2    H111649   1.913   2.595  13.310  0.0020 -0.0518  0.0993
  790MPD2    H211650   2.152   2.696  13.650 -0.7883 -0.1425  1.0274
  790MPD2    H311651   2.105   2.715  13.410  0.6695 -2.4104 -0.7824
  790MPD2     N11652   1.713   2.473  13.474  0.2954  0.2193  0.1191
  790MPD2    H511653   1.663   2.419  13.544  0.6953  2.1195  1.8768
  790MPD2    N111654   1.996   2.569  13.839  0.6896 -0.0159  0.0518
  790MPD2    H711655   1.917   2.544  13.896 -0.8248 -0.1367 -2.1190
  791MPD2     C11656   1.127   2.441  12.948  0.8417  0.8848  0.1488
  791MPD2    C111657   1.155   2.313  12.975  0.2189  0.6387  0.5043
  791MPD2    C211658   1.084   2.217  12.911 -0.1615  0.2877  0.1051
  791MPD2    C311659   0.981   2.252  12.826  0.6109 -0.2032  0.1046
  791MPD2    C411660   0.945   2.383  12.806  0.7481 -0.4521 -0.5771
  791MPD2    C511661   1.024   2.476  12.863  0.0024 -0.2203 -0.3661
  791MPD2     H11662   1.114   2.117  12.940  2.5396  0.8135 -0.9266
  791MPD2    H111663   0.864   2.405  12.738  1.1443 -0.4515 -1.0522
  791MPD2    H211664   1.174   2.521  13.005  2.8378 -0.2989  0.1651
  791MPD2    H311665   1.014   2.583  12.847  0.5469 -0.0225  0.5602
  791MPD2     N11666   0.899   2.143  12.789  0.5725 -0.2322 -0.1768
  791MPD2    H511667   0.937   2.055  12.823  0.6941  0.8812  2.5512
  791MPD2    N111668   1.260   2.297  13.069  0.0058  0.3102 -0.1599
  791MPD2    H711669   1.293   2.381  13.116  0.8942 -1.0899  1.7206
  792MPD2     C11670   2.087   2.035  11.571  0.8139  0.0904 -0.0921
  792MPD2    C111671   2.054   2.091  11.452 -0.0685  0.2268 -0.1206
  792MPD2    C211672   1.921   2.078  11.410 -0.1368 -0.1297  0.2044
  792MPD2    C311673   1.822   2.010  11.485  0.0630  0.3656 -0.1446
  792MPD2    C411674   1.862   1.955  11.604  0.4689  0.4918  0.3061
  792MPD2    C511675   1.989   1.964  11.642 -0.7019 -0.2661 -0.0545
  792MPD2     H11676   1.890   2.122  11.316 -0.5031  0.7915  0.7658
  792MPD2    H111677   1.792   1.905  11.669 -0.0776  0.3185 -0.4113
  792MPD2    H211678   2.189   2.034  11.608  0.5635 -1.1411  0.5588
  792MPD2    H311679   2.013   1.914  11.735 -1.3270 -1.9200 -0.7837
  792MPD2     N11680   1.688   1.987  11.441  0.2925  0.0975 -0.1219
  792MPD2    H511681   1.629   1.936  11.507 -0.3411  0.6049 -0.2907
  792MPD2    N111682   2.152   2.172  11.387 -0.2148 -0.4390 -0.3426
  792MPD2    H711683   2.244   2.181  11.428 -0.7646  3.6687  0.0118
  793MPD2     C11684   1.094   1.915  10.673  0.0154 -0.3659  0.7134
  793MPD2    C111685   1.234   1.918  10.690  0.3401  0.6341  0.7534
  793MPD2    C211686   1.288   1.976  10.803 -0.1789  0.4726 -0.2887
  793MPD2    C311687   1.202   2.013  10.906 -0.3365  0.9966  0.2738
  793MPD2    C411688   1.068   2.009  10.887  0.7575 -0.3351 -0.2745
  793MPD2    C511689   1.010   1.960  10.771  0.4381 -0.2891 -0.4264
  793MPD2     H11690   1.396   1.985  10.808 -0.3197  1.5725  0.7245
  793MPD2    H111691   0.991   2.035  10.959  1.6977 -1.2630  1.0795
  793MPD2    H211692   1.053   1.889  10.577  0.2962 -0.3115  0.5775
  793MPD2    H311693   0.902   1.959  10.756 -0.0131 -2.2453  2.9093
  793MPD2     N11694   1.262   2.051  11.023  0.2365  0.3472  0.4482
  793MPD2    H511695   1.363   2.049  11.028  0.2115  0.1089  0.8345
  793MPD2    N111696   1.327   1.891  10.586 -0.0322  0.0796 -0.3458
  793MPD2    H711697   1.423   1.919  10.600  0.1896  0.1717 -2.0187
  794MPD2     C11698   1.154   1.477  17.644 -0.8026 -0.2687 -0.3977
  794MPD2    C111699   1.206   1.382  17.561  0.1391 -0.7638 -0.5754
  794MPD2    C211700   1.237   1.414  17.431 -0.3424  0.0596  0.0984
  794MPD2    C311701   1.218   1.542  17.385  0.2285  0.0835 -0.0746
  794MPD2    C411702   1.173   1.638  17.471  0.1480  0.3464 -0.1246
  794MPD2    C511703   1.137   1.605  17.595  0.3981  0.4929 -0.0375
  794MPD2     H11704   1.267   1.345  17.353  0.5369  0.2628  0.2577
  794MPD2    H111705   1.149   1.741  17.446  0.3006  1.1545  3.1621
  794MPD2    H211706   1.121   1.462   0.050 -1.0364 -1.0664 -0.5901
  794MPD2    H311707   1.091   1.686  17.650  1.0823  0.3030  0.8154
  794MPD2     N11708   1.235   1.587  17.249 -0.2195  0.2756 -0.0764
  794MPD2    H511709   1.207   1.682  17.232 -2.3571 -0.8524 -2.7876
  794MPD2    N111710   1.207   1.242  17.594 -0.2622  0.0643 -0.0228
  794MPD2    H711711   1.244   1.184  17.519 -0.5623  1.7755 -1.4893
  795MPD2     C11712   4.257   3.389  13.033 -0.4915 -0.3629 -0.1302
  795MPD2    C111713   4.193   3.376  13.152 -0.4932 -0.0571  0.4208
  795MPD2    C211714   4.249   3.293  13.249 -0.2369 -0.1538  0.2437
  795MPD2    C311715   4.367   3.221  13.220 -0.7243  0.1325 -1.1779
  795MPD2    C411716   4.436   3.246  13.106 -0.5746 -0.0376  0.6253
  795MPD2    C511717   4.385   3.331  13.015  0.1148  0.7479  0.8384
  795MPD2     H11718   4.204   3.279  13.347 -0.8447 -2.1029 -0.3148
  795MPD2    H111719   4.525   3.190  13.078 -0.0685  3.1835 -4.3010
  795MPD2    H211720   4.217   3.448  12.952  3.2821 -1.3443 -2.7175
  795MPD2    H311721   4.441   3.349  12.924  0.5428  1.9687  1.3458
  795MPD2     N11722   4.416   3.137  13.328 -0.3806 -0.2921 -0.1451
  795MPD2    H511723   4.354   3.131  13.407  1.1491 -0.1794  1.0708
  795MPD2    N111724   4.069   3.435  13.171  0.6402  0.6988  0.3943
  795MPD2    H711725   4.011   3.400  13.246  0.1370  1.0477  0.1730
  796MPD2     C11726   3.664   0.534  15.545  0.0365  0.1270  0.3092
  796MPD2    C111727   3.764   0.519  15.639 -0.0175  0.2690 -0.4534
  796MPD2    C211728   3.768   0.608  15.742 -0.4324  0.4431 -0.4878
  796MPD2    C311729   3.677   0.717  15.746  0.3374 -0.3120  0.1394
  796MPD2    C411730   3.578   0.724  15.647 -0.0346  0.0247  0.1445
  796MPD2    C511731   3.571   0.637  15.544  0.4587 -0.4889 -0.2413
  796MPD2     H11732   3.850   0.601  15.812  0.2037 -1.5655 -1.4384
  796MPD2    H111733   3.515   0.813  15.646 -0.0723  0.0084  1.3819
  796MPD2    H211734   3.667   0.465  15.461 -1.9506  0.0662  0.2927
  796MPD2    H311735   3.511   0.655  15.456  1.0735  0.3650 -0.4916
  796MPD2     N11736   3.676   0.804  15.855 -0.6108  0.0180  0.4940
  796MPD2    H511737   3.757   0.803  15.917 -0.3705  0.8541  0.1817
  796MPD2    N111738   3.862   0.413  15.627 -0.0481 -0.0361  0.2900
  796MPD2    H711739   3.850   0.367  15.538  0.2287  0.2371  0.1115
  797MPD2     C11740   4.688   4.594  17.077  0.4271  0.0588  0.5763
  797MPD2    C111741   0.033   4.710  17.060  0.2275 -0.3517  0.4107
  797MPD2    C211742   4.716   0.078  16.967 -0.0949 -0.2492 -0.2788
  797MPD2    C311743   4.625   0.041  16.869 -0.3125  0.2094 -0.2207
  797MPD2    C411744   4.561   4.642  16.882  0.5306 -0.4119 -0.4860
  797MPD2    C511745   4.590   4.564  16.986  0.4101 -0.0878 -0.1883
  797MPD2     H11746   0.043   0.171  16.942 -0.6436  0.1857  0.2368
  797MPD2    H111747   4.478   4.602  16.825 -0.9991  1.9404  0.0832
  797MPD2    H211748   4.707   4.525  17.159 -0.4090  1.7731  2.2225
  797MPD2    H311749   4.536   4.473  17.009 -0.7792  0.8176  0.6214
  797MPD2     N11750   4.609   0.125  16.758 -0.4021  0.7625 -0.5120
  797MPD2    H511751   4.671   0.205  16.757 -0.2319  0.6154 -2.0746
  797MPD2    N111752   0.147   0.026  17.142  0.1984  0.2372 -0.0620
  797MPD2    H711753   0.200   0.109  17.118  0.7113 -0.4033 -1.1432
  798MPD2     C11754   0.479   0.369  16.613 -0.7011  0.5852  0.3295
  798MPD2    C111755   0.359   0.375  16.680  0.0571 -0.3812 -0.6025
  798MPD2    C211756   0.351   0.330  16.808  0.1454 -0.2246 -0.3940
  798MPD2    C311757   0.463   0.287  16.879  0.1528  0.1135  0.1355
  798MPD2    C411758   0.581   0.290  16.812 -0.3116  0.2929 -0.0591
  798MPD2    C511759   0.587   0.322  16.682  0.9190  0.4315 -0.0132
  798MPD2     H11760   0.261   0.342  16.867 -0.2080  2.0838 -1.3967
  798MPD2    H111761   0.675   0.265  16.861  0.2334  0.1946 -1.1488
  798MPD2    H211762   0.488   0.408  16.513 -0.4342 -0.8715 -0.2185
  798MPD2    H311763   0.687   0.317  16.642  1.1994 -0.3463  0.7925
  798MPD2     N11764   0.449   0.242  17.010  0.2662 -0.1361 -0.4894
  798MPD2    H511765   0.354   0.251  17.044  1.3134 -0.4462  2.4792
  798MPD2    N111766   0.253   0.414  16.604 -0.1567 -0.2074 -0.2434
  798MPD2    H711767   0.264   0.443  16.507 -1.8486 -0.3586 -0.4766
  799MPD2     C11768   3.860   1.563  14.561 -0.1349  0.3160  0.6827
  799MPD2    C111769   3.787   1.479  14.643  0.5035 -0.5824 -0.2710
  799MPD2    C211770   3.651   1.476  14.623  0.0706  0.2255  0.6012
  799MPD2    C311771   3.593   1.563  14.537 -0.8156  0.7184 -0.2977
  799MPD2    C411772   3.664   1.663  14.475 -0.6307  0.0379  0.4790
  799MPD2    C511773   3.804   1.656  14.473 -0.1188  0.5900  0.4389
  799MPD2     H11774   3.591   1.410  14.683  2.2322 -1.1303  1.2641
  799MPD2    H111775   3.614   1.739  14.417  1.6817  1.3411  0.2050
  799MPD2    H211776   3.968   1.564  14.567  0.0813 -0.7783 -2.9346
  799MPD2    H311777   3.864   1.721  14.410 -1.3207  0.9898 -0.2780
  799MPD2     N11778   3.451   1.572  14.512  0.2113 -0.0542 -0.7057
  799MPD2    H511779   3.421   1.646  14.449  2.1607  1.1056 -0.2786
  799MPD2    N111780   3.847   1.392  14.740  0.4726 -0.8759  0.2394
  799MPD2    H711781   3.781   1.348  14.804 -2.4978  2.5362 -0.4616
  800MPD2     C11782   3.442   2.726  14.520  0.1522  0.0599 -0.1558
  800MPD2    C111783   3.536   2.630  14.539  1.0831 -0.4633  0.0318
  800MPD2    C211784   3.545   2.531  14.439 -0.2626  0.0567  0.7846
  800MPD2    C311785   3.481   2.548  14.318 -0.4347 -0.1099 -0.3636
  800MPD2    C411786   3.386   2.648  14.298 -0.0591  0.2454 -0.9117
  800MPD2    C511787   3.368   2.735  14.408 -0.0634  1.1477  0.2638
  800MPD2     H11788   3.613   2.446  14.446 -2.6584 -1.9442 -0.1497
  800MPD2    H111789   3.339   2.681  14.206  0.4428  0.4877 -1.0770
  800MPD2    H211790   3.434   2.802  14.597  0.1354  0.2792 -0.3737
  800MPD2    H311791   3.312   2.825  14.383  0.8705  1.8476  0.6801
  800MPD2     N11792   3.514   2.462  14.212  0.2199  0.0727 -0.4697
  800MPD2    H511793   3.590   2.398  14.230 -0.9893 -1.9148 -2.3578
  800MPD2    N111794   3.604   2.626  14.662  0.2425 -0.3894  0.2758
  800MPD2    H711795   3.589   2.711  14.715  1.0173  0.2637 -0.5459
  801MPD2     C11796   3.652   3.080  15.194  0.8792  0.0752  0.2979
  801MPD2    C111797   3.660   3.038  15.062  0.8794  0.8255  0.1490
  801MPD2    C211798   3.665   3.137  14.967 -0.0352 -0.2564 -0.0912
  801MPD2    C311799   3.650   3.272  15.000  0.3001  0.3812  0.1616
  801MPD2    C411800   3.644   3.311  15.127  0.3615 -0.1186  0.1015
  801MPD2    C511801   3.642   3.210  15.220 -1.3120 -0.1617  0.4906
  801MPD2     H11802   3.666   3.104  14.864 -0.2879  0.6409 -0.3766
  801MPD2    H111803   3.655   3.412  15.166  1.7623  0.0131 -0.6268
  801MPD2    H211804   3.661   3.013  15.279 -1.4291 -0.6388 -0.0228
  801MPD2    H311805   3.632   3.239  15.324  0.7953  1.4273  0.2534
  801MPD2     N11806   3.650   3.381  14.905  0.5819 -0.5110 -0.3861
  801MPD2    H511807   3.620   3.473  14.936 -1.1047 -0.3551 -2.4892
  801MPD2    N111808   3.674   2.902  15.022  0.2483  0.1042  0.0774
  801MPD2    H711809   3.681   2.886  14.922 -0.0931 -1.0825  0.2487
  802MPD2     C11810   3.702   2.834  17.301 -0.2906 -0.1855 -0.3809
  802MPD2    C111811   3.759   2.954  17.268 -0.6075 -0.1436  0.1425
  802MPD2    C211812   3.848   2.951  17.165 -0.4450 -0.1736 -0.3509
  802MPD2    C311813   3.890   2.840  17.094  0.2807 -0.3792  0.9654
  802MPD2    C411814   3.839   2.721  17.136  0.3165  0.0267  0.0057
  802MPD2    C511815   3.741   2.725  17.233 -0.1138 -0.2233 -0.1509
  802MPD2     H11816   3.888   3.043  17.125  0.5905 -0.2640  0.4600
  802MPD2    H111817   3.864   2.625  17.091  0.1377  0.2504 -0.5788
  802MPD2    H211818   3.626   2.823  17.377 -0.0121 -0.2398 -0.1116
  802MPD2    H311819   3.707   2.627  17.264 -1.0982  0.7295  1.7435
  802MPD2     N11820   3.970   2.853  16.979  0.2698 -0.1623 -0.8056
  802MPD2    H511821   3.990   2.948  16.949  1.8532 -0.6637 -1.3455
  802MPD2    N111822   3.720   3.084  17.318  0.1819 -0.1367 -0.3666
  802MPD2    H711823   3.769   3.163  17.276  1.6030 -0.4418  0.6981
  803MPD2     C11824   0.002   1.480  11.537  1.4480  0.2885 -0.6775
  803MPD2    C111825   0.027   1.571  11.646  0.2270 -0.1010  0.0648
  803MPD2    C211826   4.675   1.549  11.759 -0.5817  0.4341  0.9475
  803MPD2    C311827   4.582   1.447  11.777 -0.3797  0.5658  0.3741
  803MPD2    C411828   4.560   1.367  11.670  0.1028 -0.8035 -0.3318
  803MPD2    C511829   4.634   1.379  11.556  0.3246  0.8778 -0.5074
  803MPD2     H11830   4.704   1.603  11.848  0.0007  0.7512  0.5639
  803MPD2    H111831   4.497   1.279  11.677  0.0252 -0.6410  0.9738
  803MPD2    H211832   0.056   1.474  11.443 -0.3999  2.0160 -1.8391
  803MPD2    H311833   4.612   1.312  11.475  2.8832 -0.3532 -0.1776
  803MPD2     N11834   4.522   1.416  11.905 -0.0597  0.1622  0.5886
  803MPD2    H511835   4.479   1.324  11.909 -1.3538  0.7531  0.2441
  803MPD2    N111836   0.128   1.669  11.649  0.0346  0.1607 -0.4453
  803MPD2    H711837   0.135   1.729  11.731 -0.1932  0.9951 -1.0409
  804MPD2     C11838   4.586   3.620  17.040  0.3625 -0.0803  0.5038
  804MPD2    C111839   4.533   3.620  17.171  0.0455  0.0663  0.2665
  804MPD2    C211840   4.574   3.709  17.263 -0.5309 -0.4086 -0.0315
  804MPD2    C311841   4.672   3.800  17.220  0.0552  0.4128  0.1028
  804MPD2    C411842   4.724   3.800  17.097 -0.1340 -0.2343  0.2022
  804MPD2    C511843   4.693   3.700  17.008  0.7126  0.0469 -0.2727
  804MPD2     H11844   4.534   3.704  17.363  1.9559 -1.8247  0.8757
  804MPD2    H111845   0.080   3.869  17.070 -0.0910 -0.4276 -0.1657
  804MPD2    H211846   4.562   3.540  16.971 -1.0737  0.3530  0.5125
  804MPD2    H311847   0.019   3.703  16.911  1.0809 -0.1856 -0.0949
  804MPD2     N11848   0.010   3.880  17.322  0.3028 -0.1610  0.3358
  804MPD2    H511849   0.087   3.936  17.287  1.1325 -2.8302 -2.1303
  804MPD2    N111850   4.442   3.527  17.217  0.3385  0.0078  0.0860
  804MPD2    H711851   4.392   3.550  17.303 -0.6068 -2.3387  0.1550
  805MPD2     C11852   3.441   1.251  15.644  0.4639 -0.0883  0.2925
  805MPD2    C111853   3.450   1.387  15.682 -0.3344 -0.6330  0.3097
  805MPD2    C211854   3.571   1.433  15.739  0.6993 -0.0322  0.8875
  805MPD2    C311855   3.683   1.354  15.740  0.1389  0.0452  0.0704
  805MPD2    C411856   3.668   1.222  15.697  0.2221  0.2002  0.2318
  805MPD2    C511857   3.547   1.168  15.666 -0.1821  0.6545 -0.8377
  805MPD2     H11858   3.585   1.538  15.762 -1.0478 -0.1556  2.4988
  805MPD2    H111859   3.748   1.150  15.686 -0.5992 -0.4091 -1.7080
  805MPD2    H211860   3.349   1.199  15.618  0.2739  0.2329  0.3211
  805MPD2    H311861   3.538   1.064  15.637 -1.4851  0.5555 -0.0378
  805MPD2     N11862   3.799   1.416  15.779 -0.3464 -0.3116  0.9317
  805MPD2    H511863   3.786   1.516  15.794 -0.4609 -0.4585  1.8072
  805MPD2    N111864   3.347   1.484  15.678  0.0620  0.7482  0.2553
  805MPD2    H711865   3.371   1.580  15.701 -1.2023  0.4125  2.9779
  806MPD2     C11866   3.855   1.620   0.196  0.1965  0.1245  0.1194
  806MPD2    C111867   3.812   1.726   0.273 -0.1165 -0.6479  0.5577
  806MPD2    C211868   3.851   1.849   0.241 -0.3779 -0.4411 -0.8561
  806MPD2    C311869   3.928   1.875   0.128  0.2185  0.7731  0.8740
  806MPD2    C411870   3.966   1.769   0.049  0.3459 -0.2899 -0.6540
  806MPD2    C511871   3.921   1.641   0.075  0.6537  0.0001 -0.2639
  806MPD2     H11872   3.824   1.941   0.293  1.6514  0.1111 -0.7989
  806MPD2    H111873   4.030   1.786  17.658  0.8891  0.0129 -0.1980
  806MPD2    H211874   3.834   1.518   0.228  1.6717 -0.4376 -0.6771
  806MPD2    H311875   3.944   1.556   0.012  3.0686  0.5460 -0.1444
  806MPD2     N11876   3.967   2.004   0.106 -0.8487 -0.1090 -0.3708
  806MPD2    H511877   3.915   2.071   0.163 -0.8103  0.7131 -1.3070
  806MPD2    N111878   3.741   1.696   0.397 -0.6410  0.3381  0.8696
  806MPD2    H711879   3.712   1.602   0.419  1.9962 -0.2935  1.7252
  807MPD2     C11880   3.169   1.781   1.048  0.0447 -0.0557 -0.1612
  807MPD2    C111881   3.301   1.791   1.094  0.4103  0.5342 -0.2417
  807MPD2    C211882   3.331   1.763   1.225 -0.4856  0.3003 -0.0838
  807MPD2    C311883   3.233   1.713   1.309 -0.2246  0.2229  0.0303
  807MPD2    C411884   3.104   1.706   1.260  0.1450 -0.4157 -0.3514
  807MPD2    C511885   3.070   1.751   1.132  0.5242 -0.4204 -0.3669
  807MPD2     H11886   3.435   1.762   1.258 -0.3120 -0.3992 -0.6492
  807MPD2    H111887   3.020   1.671   1.319 -0.4004  2.2552  0.4499
  807MPD2    H211888   3.142   1.796   0.945 -0.2860  2.6793  0.3197
  807MPD2    H311889   2.969   1.755   1.094 -0.0347 -0.4642  1.1000
  807MPD2     N11890   3.267   1.662   1.436  0.0340  0.8091 -0.1236
  807MPD2    H511891   3.366   1.655   1.457  0.2185  0.1993 -1.1925
  807MPD2    N111892   3.413   1.803   1.005  0.1166  0.3087 -0.3137
  807MPD2    H711893   3.507   1.810   1.043  0.9118 -2.2954 -1.8342
  808MPD2     C11894   4.129   2.445   9.585  0.0607 -0.6177  0.0910
  808MPD2    C111895   4.201   2.459   9.703  0.2361  0.2548 -0.0904
  808MPD2    C211896   4.325   2.524   9.705  0.4935 -0.3107 -0.4181
  808MPD2    C311897   4.374   2.575   9.580  0.5034  0.3751  0.2947
  808MPD2    C411898   4.307   2.559   9.465 -0.3337  0.3542 -0.5715
  808MPD2    C511899   4.184   2.494   9.471  0.7514  1.5263  0.7650
  808MPD2     H11900   4.365   2.532   9.806 -0.7211  0.0250  0.0426
  808MPD2    H111901   4.344   2.599   9.372  0.8120  1.2081  0.2572
  808MPD2    H211902   4.026   2.412   9.585 -0.3105  0.5187 -2.0409
  808MPD2    H311903   4.122   2.488   9.382 -0.2282 -1.5852  1.6790
  808MPD2     N11904   4.488   2.662   9.572  0.5383  0.4785  0.0546
  808MPD2    H511905   4.516   2.700   9.482  0.8324 -1.0334 -0.4907
  808MPD2    N111906   4.149   2.415   9.828 -0.1239 -0.2995 -0.2781
  808MPD2    H711907   4.191   2.450   9.913  1.1226 -3.1988  0.3039
  809MPD2     C11908   4.696   3.363   9.058 -1.0263 -0.4331 -0.5835
  809MPD2    C111909   0.061   3.260   9.057 -0.0142 -0.3731 -0.2015
  809MPD2    C211910   0.066   3.170   9.162  0.3487  0.6158 -0.2576
  809MPD2    C311911   4.699   3.179   9.266  0.1446 -0.9998 -0.1002
  809MPD2    C411912   4.602   3.282   9.258 -0.2518  0.1978  0.0747
  809MPD2    C511913   4.597   3.378   9.154  0.6726 -0.4934  0.0335
  809MPD2     H11914   0.139   3.090   9.160  0.4879  0.7291  0.4476
  809MPD2    H111915   4.527   3.287   9.336 -1.6445 -2.1020 -1.1043
  809MPD2    H211916   4.690   3.438   8.980 -0.0308  1.5313  1.2123
  809MPD2    H311917   4.526   3.459   9.164  1.4589  0.2192 -0.1321
  809MPD2     N11918   4.696   3.090   9.380 -0.1398 -0.5147 -0.2290
  809MPD2    H511919   4.614   3.092   9.439  0.1929  1.6948  0.1662
  809MPD2    N111920   0.161   3.253   8.956 -0.9308 -0.2200  0.0900
  809MPD2    H711921   0.235   3.184   8.966  1.2883  1.9518 -1.3592
  810MPD2     C11922   3.790   2.292  10.624 -0.3314 -0.3330  0.0501
  810MPD2    C111923   3.702   2.196  10.660  0.2050 -0.2449  0.3497
  810MPD2    C211924   3.678   2.177  10.794  0.1241  0.2645  0.6590
  810MPD2    C311925   3.734   2.261  10.897  0.0054 -0.1159 -0.2068
  810MPD2    C411926   3.821   2.358  10.852 -0.3495  0.0439 -0.6357
  810MPD2    C511927   3.852   2.371  10.719  0.6650  0.3754 -0.7837
  810MPD2     H11928   3.615   2.092  10.818  2.1389 -1.5906 -0.5823
  810MPD2    H111929   3.879   2.424  10.916  0.6453 -0.9484 -0.5074
  810MPD2    H211930   3.810   2.318  10.521 -0.3525  1.7168  0.5573
  810MPD2    H311931   3.908   2.459  10.690  0.0508  0.7107 -0.9587
  810MPD2     N11932   3.716   2.244  11.032  0.0892  0.8044  0.5188
  810MPD2    H511933   3.790   2.285  11.087  1.4632  0.5230 -1.1123
  810MPD2    N111934   3.653   2.107  10.560 -0.2210 -0.1294  0.7856
  810MPD2    H711935   3.688   2.099  10.465 -0.0154  0.0730  0.8458
  811MPD2     C11936   3.252   2.010   9.816 -0.2676  0.3282  0.3987
  811MPD2    C111937   3.292   2.087   9.919  0.0398  0.1724  0.4719
  811MPD2    C211938   3.322   2.221   9.895 -0.6682  0.6368 -0.0933
  811MPD2    C311939   3.321   2.270   9.765  0.0367  0.0289 -0.0105
  811MPD2    C411940   3.284   2.186   9.666 -0.8957 -0.2800  0.2111
  811MPD2    C511941   3.252   2.052   9.692  0.0601 -0.3224  0.3090
  811MPD2     H11942   3.332   2.291   9.977 -0.7212  0.7519 -0.1846
  811MPD2    H111943   3.272   2.220   9.564  1.2739  2.6970  0.9536
  811MPD2    H211944   3.226   1.905   9.828 -1.2609  0.3456 -1.5507
  811MPD2    H311945   3.233   1.975   9.618  0.8714  0.5130 -0.7775
  811MPD2     N11946   3.377   2.401   9.739  0.0614  0.1070 -0.1202
  811MPD2    H511947   3.396   2.456   9.822 -0.1532 -0.1939  0.1309
  811MPD2    N111948   3.297   2.027  10.043 -0.4488  1.0352  0.7544
  811MPD2    H711949   3.257   1.935  10.062 -0.7221  1.1336  0.6547
  812MPD2     C11950   1.724   2.349  12.932 -0.0071  0.2145  0.1605
  812MPD2    C111951   1.851   2.296  12.917 -0.0127  0.9991  0.0947
  812MPD2    C211952   1.873   2.162  12.947 -0.1881 -0.0132 -0.4275
  812MPD2    C311953   1.770   2.083  12.992  0.7354  0.3186 -0.1775
  812MPD2    C411954   1.640   2.130  12.973 -0.7300  0.1255  0.6951
  812MPD2    C511955   1.617   2.263  12.941 -0.7735  0.0341  0.6714
  812MPD2     H11956   1.966   2.112  12.923  0.6569  0.3362  2.1328
  812MPD2    H111957   1.551   2.071  12.996 -1.0217  0.1858 -0.2827
  812MPD2    H211958   1.703   2.455  12.923 -2.7630 -0.2327  1.3760
  812MPD2    H311959   1.515   2.299  12.943 -0.4656  1.0846 -2.1535
  812MPD2     N11960   1.799   1.949  13.042  0.1709  0.2394 -0.4628
  812MPD2    H511961   1.895   1.918  13.042  0.4755  1.1817  1.1584
  812MPD2    N111962   1.947   2.381  12.859 -0.1376  0.4382  0.1936
  812MPD2    H711963   1.925   2.478  12.841 -0.2590  0.3942  0.1089
  813MPD2     C11964   1.968   3.633  12.950 -0.1075 -0.2596 -0.1443
  813MPD2    C111965   1.902   3.754  12.913  0.1866 -0.1956  0.1236
  813MPD2    C211966   1.791   3.793  12.990 -0.1356 -0.6585  0.6047
  813MPD2    C311967   1.764   3.715  13.099  0.0325  0.0283  0.2953
  813MPD2    C411968   1.824   3.596  13.135  0.3345 -0.0086 -0.0034
  813MPD2    C511969   1.930   3.555  13.059  0.2001  0.9753 -0.5133
  813MPD2     H11970   1.746   3.890  12.975  0.5461 -0.6163 -1.2784
  813MPD2    H111971   1.810   3.549  13.232  0.2677 -1.4339 -0.6989
  813MPD2    H211972   2.059   3.613  12.894 -0.3896 -1.0613 -0.3299
  813MPD2    H311973   1.998   3.476  13.090  0.0042  0.9253 -0.2181
  813MPD2     N11974   1.663   3.774  13.182 -0.4321  0.0780 -0.3125
  813MPD2    H511975   1.613   3.855  13.149 -0.3922  0.6345  1.0119
  813MPD2    N111976   1.967   3.834  12.819 -0.0642 -1.0090 -0.1229
  813MPD2    H711977   2.059   3.798  12.798 -0.3184 -1.3422 -0.6576
  814MPD2     C11978   2.031   0.514  12.548 -0.7523  0.2822 -0.3109
  814MPD2    C111979   2.083   0.553  12.428  0.2837 -0.0495  0.3212
  814MPD2    C211980   2.191   0.643  12.426  0.3977  0.0570 -0.1164
  814MPD2    C311981   2.262   0.673  12.546 -0.4971  0.6028 -0.0719
  814MPD2    C411982   2.207   0.630  12.661 -0.0989  0.5827  0.2604
  814MPD2    C511983   2.090   0.553  12.666 -0.4806  0.2116 -0.2180
  814MPD2     H11984   2.226   0.680  12.330 -0.4386  0.2487 -0.3494
  814MPD2    H111985   2.246   0.661  12.757  4.1303 -1.3631 -0.8356
  814MPD2    H211986   1.935   0.465  12.556 -1.4212  1.7999  0.7747
  814MPD2    H311987   2.058   0.526  12.766 -2.1064 -1.2416 -1.1353
  814MPD2     N11988   2.382   0.744  12.565  0.1672 -0.2761 -0.0237
  814MPD2    H511989   2.396   0.777  12.660  1.1428  0.7149 -0.5121
  814MPD2    N111990   2.030   0.506  12.307  0.0810  0.1162  0.7191
  814MPD2    H711991   2.062   0.552  12.223 -0.6947 -0.8838 -0.1282
  815MPD2     C11992   2.787   3.839  12.022 -0.5125 -0.0252  0.4041
  815MPD2    C111993   2.742   3.795  11.898 -0.0780  0.3094  0.5619
  815MPD2    C211994   2.612   3.749  11.888  0.3162  0.7681  0.4977
  815MPD2    C311995   2.533   3.738  12.008  0.1095  0.1887 -0.2758
  815MPD2    C411996   2.590   3.774  12.127 -0.0206 -0.4386  0.4333
  815MPD2    C511997   2.717   3.813  12.139 -0.0180 -0.3883 -0.2097
  815MPD2     H11998   2.568   3.725  11.791 -0.2352  0.9708  0.6960
  815MPD2    H111999   2.534   3.774  12.220 -0.6092 -0.6242  0.0840
  815MPD2    H212000   2.889   3.871  12.039  0.1070 -0.7372 -1.9620
  815MPD2    H312001   2.753   3.852  12.233  0.0630 -1.2825  0.1290
  815MPD2     N12002   2.410   3.661  12.005 -0.9696 -0.0794 -0.2012
  815MPD2    H512003   2.379   3.628  11.914  2.0809 -0.4021 -1.1037
  815MPD2    N112004   2.818   3.783  11.779 -0.2671  0.1178  0.1500
  815MPD2    H712005   2.765   3.751  11.699 -0.1095 -0.0548  0.1157
  816MPD2     C12006   2.364   2.635  17.378  0.1505 -0.7921 -0.3874
  816MPD2    C112007   2.463   2.732  17.373 -0.0970 -0.5623 -0.1616
  816MPD2    C212008   2.577   2.704  17.305  0.5300  0.2318 -0.6201
  816MPD2    C312009   2.592   2.579  17.254 -0.0534 -0.8436 -0.1820
  816MPD2    C412010   2.499   2.478  17.260 -0.4357  0.1369 -0.2233
  816MPD2    C512011   2.381   2.512  17.320 -0.0618 -0.1997 -0.1280
  816MPD2     H12012   2.648   2.783  17.284 -0.9705  2.2941  2.1634
  816MPD2    H112013   2.501   2.379  17.214 -2.6692 -0.5908  1.2161
  816MPD2    H212014   2.274   2.660  17.433  0.2937 -1.3631  0.1065
  816MPD2    H312015   2.293   2.448  17.317 -1.0419  1.1870 -0.7487
  816MPD2     N12016   2.703   2.559  17.173 -0.2301 -0.1845 -0.6727
  816MPD2    H512017   2.750   2.642  17.138 -1.4066  0.5446 -0.4940
  816MPD2    N112018   2.437   2.865  17.421  0.0418 -0.2355 -0.7547
  816MPD2    H712019   2.350   2.887  17.467  0.6133  4.0056 -1.6946
  817MPD2     C12020   2.509   4.608  10.484  0.5864 -0.2361  0.5599
  817MPD2    C112021   2.546   4.619  10.353 -0.2095 -0.0257 -0.3417
  817MPD2    C212022   2.543   0.016  10.286 -0.0555  0.6200 -0.0375
  817MPD2    C312023   2.511   0.128  10.369  0.3629 -0.5559 -0.9496
  817MPD2    C412024   2.470   0.118  10.500 -0.0890 -0.5700 -0.2215
  817MPD2    C512025   2.490   4.722  10.564 -0.5329  0.0307  0.4338
  817MPD2     H12026   2.560   0.018  10.179  0.4341 -0.8681  0.0103
  817MPD2    H112027   2.433   0.205  10.554  0.6746 -0.3681 -0.0287
  817MPD2    H212028   2.506   4.512  10.534  1.0234 -0.2713  0.5254
  817MPD2    H312029   2.468   4.716  10.670  0.2250  2.0280  0.7038
  817MPD2     N12030   2.498   0.258  10.321 -0.1546 -0.1444 -0.0511
  817MPD2    H512031   2.461   0.320  10.392 -1.5227 -0.5460 -0.3996
  817MPD2    N112032   2.569   4.511  10.270  0.3373  0.3756 -0.3421
  817MPD2    H712033   2.572   4.537  10.172 -0.7839  2.4027  0.1630
  818MPD2     C12034   0.856   0.006  10.022  0.0022  0.7522  0.1510
  818MPD2    C112035   0.863   4.624  10.111 -0.1137  0.5593  0.6372
  818MPD2    C212036   0.950   4.522  10.093 -0.2047  0.1615 -0.8737
  818MPD2    C312037   1.032   4.523   9.984  0.2451 -0.5404 -0.3956
  818MPD2    C412038   1.017   4.625   9.893 -0.3429 -0.0004  0.0728
  818MPD2    C512039   0.929   0.001   9.905  0.0983  0.3652  0.0766
  818MPD2     H12040   0.953   4.452  10.176  0.0770 -1.0048 -1.8614
  818MPD2    H112041   1.075   4.626   9.801 -1.8917 -1.4805 -0.9254
  818MPD2    H212042   0.787   0.090  10.021 -2.6074 -1.4292 -0.2903
  818MPD2    H312043   0.914   0.077   9.830  0.2504 -0.2106 -0.5370
  818MPD2     N12044   1.127   4.425   9.958  0.0077 -0.0463  0.2699
  818MPD2    H512045   1.180   4.427   9.872 -1.3344 -0.1842 -0.5565
  818MPD2    N112046   0.783   4.621  10.229  0.3434 -0.4290  0.6198
  818MPD2    H712047   0.800   4.538  10.284 -0.9555 -0.6057  0.7693
  819MPD2     C12048   4.381   1.462  15.657 -0.4766 -0.2183 -0.6549
  819MPD2    C112049   4.352   1.324  15.639 -0.5288 -0.2559 -0.2551
  819MPD2    C212050   4.427   1.231  15.705  0.2276 -0.5582 -0.0966
  819MPD2    C312051   4.524   1.264  15.794  0.5591 -0.0702  0.2585
  819MPD2    C412052   4.556   1.400  15.807 -0.4834  0.3293  0.1390
  819MPD2    C512053   4.485   1.497  15.744  0.0980  0.2814 -0.0385
  819MPD2     H12054   4.391   1.129  15.710  1.8052 -1.0913  0.3201
  819MPD2    H112055   4.639   1.428  15.872  0.0666  1.3376 -1.0034
  819MPD2    H212056   4.316   1.537  15.614  0.2445  1.2347  0.7747
  819MPD2    H312057   4.513   1.599  15.768 -0.7737  0.6448 -0.5880
  819MPD2     N12058   4.583   1.154  15.861  0.4372  0.3226  0.4996
  819MPD2    H512059   4.554   1.059  15.841  2.3412 -0.5311  1.8105
  819MPD2    N112060   4.242   1.298  15.555 -0.0210 -0.1110 -0.0817
  819MPD2    H712061   4.194   1.369  15.500 -0.1701  0.8863  1.3325
  820MPD2     C12062   3.662   1.899  15.481 -0.6526 -0.1442  0.0773
  820MPD2    C112063   3.584   1.783  15.464  0.0175  0.3566 -0.2733
  820MPD2    C212064   3.638   1.666  15.432 -1.0897 -0.0780  0.4571
  820MPD2    C312065   3.771   1.650  15.407 -0.0133 -0.0943 -0.6602
  820MPD2    C412066   3.855   1.761  15.414  0.1077 -0.0252  0.0526
  820MPD2    C512067   3.799   1.877  15.464  0.0525  0.7949 -0.2597
  820MPD2     H12068   3.579   1.576  15.442 -1.8207  0.4081  0.4982
  820MPD2    H112069   3.957   1.750  15.379 -0.0555 -2.9674  0.5144
  820MPD2    H212070   3.630   1.997  15.513  0.7402  0.2121  0.3712
  820MPD2    H312071   3.864   1.963  15.463 -1.4750  1.9784  2.4681
  820MPD2     N12072   3.835   1.527  15.392  0.6448 -0.1843 -0.0596
  820MPD2    H512073   3.935   1.530  15.379  0.4624 -2.9366 -2.1124
  820MPD2    N112074   3.443   1.783  15.480 -0.7543 -1.0171  0.2960
  820MPD2    H712075   3.390   1.713  15.431 -1.0123 -0.3506 -0.3738
  821MPD2     C12076   3.579   2.730  13.426 -0.7299 -1.0960  0.2472
  821MPD2    C112077   3.661   2.622  13.432 -0.1329 -1.0905  0.1885
  821MPD2    C212078   3.758   2.608  13.336 -0.1108 -0.2086  0.1548
  821MPD2    C312079   3.772   2.700  13.238 -0.4266  0.5572 -0.3955
  821MPD2    C412080   3.691   2.810  13.237  0.0780  0.2246 -0.2162
  821MPD2    C512081   3.592   2.831  13.335 -0.5138  0.1025  0.0793
  821MPD2     H12082   3.816   2.517  13.339  4.2320  2.5586  1.3141
  821MPD2    H112083   3.699   2.877  13.153  2.1013  0.5049  0.2088
  821MPD2    H212084   3.498   2.751  13.495  0.2037  1.3341  0.6357
  821MPD2    H312085   3.529   2.919  13.339  0.2506  0.6906 -0.7329
  821MPD2     N12086   3.865   2.692  13.127 -0.3759  0.5503  0.1523
  821MPD2    H512087   3.871   2.773  13.067 -1.5100  0.5405  0.0293
  821MPD2    N112088   3.661   2.517  13.533 -0.2825  0.1722  0.0477
  821MPD2    H712089   3.728   2.442  13.516 -0.8292 -0.2838 -0.1110
  822MPD2     C12090   0.321   2.677  15.854 -0.1119 -0.1827 -0.6968
  822MPD2    C112091   0.385   2.706  15.970 -0.3226  0.2754  0.5885
  822MPD2    C212092   0.373   2.837  16.016 -0.7909  0.1719  0.3164
  822MPD2    C312093   0.283   2.921  15.961  0.0312  0.6439  0.0398
  822MPD2    C412094   0.205   2.887  15.858 -0.0881 -0.7911  0.3737
  822MPD2    C512095   0.219   2.762  15.811 -0.7483 -0.3061  0.4338
  822MPD2     H12096   0.430   2.862  16.105  1.9757  0.5878 -1.6075
  822MPD2    H112097   0.132   2.957  15.822 -0.0813 -0.7947  0.3530
  822MPD2    H212098   0.314   2.579  15.808  0.6027  0.0327 -1.2652
  822MPD2    H312099   0.170   2.745  15.716 -0.4942  0.3217  0.1866
  822MPD2     N12100   0.267   3.049  16.018 -0.2873  0.2490  0.0914
  822MPD2    H512101   0.177   3.093  15.999 -0.7294 -0.3714  0.7319
  822MPD2    N112102   0.463   2.609  16.043  0.2808 -0.2974 -0.2440
  822MPD2    H712103   0.507   2.646  16.127 -2.3090 -1.8404  1.7740
  823MPD2     C12104   4.704   3.266  16.819  0.7864  1.3039 -0.2748
  823MPD2    C112105   0.005   3.171  16.722  0.8518 -0.1016  0.2669
  823MPD2    C212106   0.018   3.035  16.764 -0.1175 -0.8628  0.4605
  823MPD2    C312107   0.029   3.001  16.899 -0.2004 -0.2004  0.1211
  823MPD2    C412108   0.002   3.103  16.993  0.3867  0.0913  0.1937
  823MPD2    C512109   4.696   3.233  16.952 -0.5386 -0.6262  0.0992
  823MPD2     H12110   0.032   2.953  16.694 -1.4755  0.7477 -1.6963
  823MPD2    H112111   0.001   3.086  17.100  1.7634  1.9418  0.4822
  823MPD2    H212112   4.687   3.371  16.798 -0.4093  1.1472 -0.1193
  823MPD2    H312113   4.666   3.308  17.023  0.0138  1.2556 -1.6446
  823MPD2     N12114   0.059   2.865  16.949  0.8863 -0.2749  1.0599
  823MPD2    H512115   0.056   2.863  17.051 -0.8056 -2.8084  0.9585
  823MPD2    N112116   0.032   3.212  16.589 -0.2484 -0.2604 -0.2484
  823MPD2    H712117   0.043   3.312  16.580  2.0550 -0.5745 -0.9678
  824MPD2     C12118   0.801   1.818  16.013 -0.0469 -0.3681 -0.1842
  824MPD2    C112119   0.708   1.903  15.961 -0.0375  0.8657  0.5014
  824MPD2    C212120   0.668   1.882  15.830 -0.0129 -0.2161  0.0422
  824MPD2    C312121   0.711   1.767  15.760  0.2041 -0.1656  0.0821
  824MPD2    C412122   0.792   1.682  15.823  0.6169 -0.6518 -0.4375
  824MPD2    C512123   0.849   1.710  15.943  0.2173 -0.3710 -0.2277
  824MPD2     H12124   0.596   1.940  15.774 -0.9894  0.6619  2.2022
  824MPD2    H112125   0.837   1.596  15.774  2.2614  0.5597 -1.0508
  824MPD2    H212126   0.849   1.842  16.108 -2.6235  2.7938  0.3245
  824MPD2    H312127   0.928   1.645  15.980  1.3027  1.2731  0.3499
  824MPD2     N12128   0.666   1.753  15.625  0.4293 -0.2261 -0.4228
  824MPD2    H512129   0.615   1.830  15.584  1.0937 -0.5814 -1.9393
  824MPD2    N112130   0.655   2.013  16.032 -0.6450  0.0297 -0.4251
  824MPD2    H712131   0.586   2.070  15.984 -1.9606  0.0354  1.4939
  825MPD2     C12132   0.941   2.091  14.891  1.1087 -0.7419  0.2441
  825MPD2    C112133   0.961   2.074  15.024 -0.2966 -0.4348 -0.3897
  825MPD2    C212134   1.021   2.169  15.104 -0.5096 -0.1040 -0.6598
  825MPD2    C312135   1.051   2.292  15.049  0.1044  0.0003 -0.5133
  825MPD2    C412136   1.034   2.305  14.913 -0.3874  0.1760  0.0888
  825MPD2    C512137   0.984   2.203  14.828 -0.0906  0.3056 -0.5433
  825MPD2     H12138   1.041   2.146  15.208 -0.1284 -0.6432 -0.8554
  825MPD2    H112139   1.065   2.398  14.869 -0.4550 -0.0989 -0.5412
  825MPD2    H212140   0.896   2.015  14.828 -1.4146  1.2152 -0.2677
  825MPD2    H312141   0.986   2.224  14.722 -0.9534  2.4468 -0.1238
  825MPD2     N12142   1.103   2.407  15.114  0.1277  0.6904  0.5218
  825MPD2    H512143   1.086   2.494  15.064  2.0888  0.6938 -0.1067
  825MPD2    N112144   0.895   1.957  15.080 -0.7907 -0.0133 -0.0314
  825MPD2    H712145   0.846   1.891  15.020 -1.6833  0.6677 -0.0514
  826MPD2     C12146   0.636   1.736  13.827  0.0902 -0.1506  0.3944
  826MPD2    C112147   0.625   1.811  13.709 -0.0158  1.0263  0.0473
  826MPD2    C212148   0.526   1.905  13.705 -0.1008 -0.5869 -0.3982
  826MPD2    C312149   0.456   1.940  13.817  0.4847 -0.5713 -0.5062
  826MPD2    C412150   0.488   1.878  13.936  0.7657 -1.0171  0.4035
  826MPD2    C512151   0.576   1.772  13.943 -0.1793  0.0659  0.4046
  826MPD2     H12152   0.506   1.960  13.614 -0.1073 -0.5197 -0.3572
  826MPD2    H112153   0.434   1.896  14.028 -0.9787 -3.6449 -0.1011
  826MPD2    H212154   0.702   1.650  13.818 -0.8436 -0.9751  1.5656
  826MPD2    H312155   0.590   1.723  14.039  0.2314  0.5363  0.5862
  826MPD2     N12156   0.361   2.036  13.817 -0.2083 -0.9102 -0.2078
  826MPD2    H512157   0.322   2.043  13.910 -0.8334  0.8403 -0.5948
  826MPD2    N112158   0.707   1.784  13.600  0.2186  0.1215 -0.5708
  826MPD2    H712159   0.770   1.706  13.617  0.0432 -0.0959 -0.9094
  827MPD2     C12160   1.786   3.339  10.122 -0.1492 -0.0681  0.0814
  827MPD2    C112161   1.817   3.208  10.138  0.0797  0.1499  0.2658
  827MPD2    C212162   1.798   3.124  10.031 -0.9752 -0.6122  0.0879
  827MPD2    C312163   1.743   3.161   9.907  0.3025  0.8375 -0.3917
  827MPD2    C412164   1.719   3.297   9.897 -0.6538  0.3179 -0.1809
  827MPD2    C512165   1.733   3.384   9.999  0.6173  1.2446 -0.1763
  827MPD2     H12166   1.823   3.019  10.040 -2.5920 -1.1252 -1.3855
  827MPD2    H112167   1.687   3.340   9.802 -0.1000 -0.7095 -0.8425
  827MPD2    H212168   1.796   3.412  10.201  1.0704 -2.2204  1.8936
  827MPD2    H312169   1.714   3.489   9.981  0.3222  1.3329  0.6720
  827MPD2     N12170   1.724   3.059   9.803 -0.4216  0.0347 -0.3383
  827MPD2    H512171   1.744   2.962   9.825 -2.4784  0.3389  3.0004
  827MPD2    N112172   1.878   3.169  10.261 -0.2832  0.3582 -0.1089
  827MPD2    H712173   1.876   3.240  10.334 -1.8661  1.1325 -0.9306
  828MPD2     C12174   4.684   2.435  12.574  0.1662  0.0711 -0.2022
  828MPD2    C112175   4.669   2.461  12.440  0.1624  0.6117  0.1087
  828MPD2    C212176   0.054   2.462  12.359 -0.3361  0.4493 -0.2126
  828MPD2    C312177   0.178   2.437  12.411  0.3270  0.4297 -0.4730
  828MPD2    C412178   0.194   2.422  12.540 -0.2353 -0.3586  0.0559
  828MPD2    C512179   0.082   2.417  12.627  0.2491 -0.4359 -0.5441
  828MPD2     H12180   0.034   2.487  12.255 -1.2671  0.6226  0.0092
  828MPD2    H112181   0.290   2.408  12.588 -0.1504 -1.0514 -0.3179
  828MPD2    H212182   4.604   2.456  12.644  1.7893 -0.2542  1.7595
  828MPD2    H312183   0.088   2.397  12.733  0.3688 -1.8346 -0.8089
  828MPD2     N12184   0.294   2.421  12.343 -0.1395  0.6313 -0.1322
  828MPD2    H512185   0.381   2.389  12.386  0.3776  1.2287 -0.7323
  828MPD2    N112186   4.545   2.501  12.378 -0.1919 -0.2836 -0.9950
  828MPD2    H712187   4.558   2.530  12.282 -1.5915 -1.5656 -1.5696
  829MPD2     C12188   4.511   2.985  11.665 -0.5167 -0.3734  0.2853
  829MPD2    C112189   4.377   2.964  11.689  0.2171 -0.0875 -0.2383
  829MPD2    C212190   4.339   2.892  11.799  0.2766  0.1322 -0.0873
  829MPD2    C312191   4.433   2.828  11.876  0.0415  0.2108 -0.4793
  829MPD2    C412192   4.567   2.856  11.853 -0.5341 -0.4896 -0.2487
  829MPD2    C512193   4.608   2.931  11.750  0.2938  0.6433 -0.1128
  829MPD2     H12194   4.233   2.877  11.817  0.3186 -0.9618 -0.7436
  829MPD2    H112195   4.644   2.813  11.916  0.3884  1.7864  0.1585
  829MPD2    H212196   4.545   3.047  11.582  0.1361 -0.6247  0.3625
  829MPD2    H312197   4.713   2.951  11.737  0.5492 -0.1981  0.7518
  829MPD2     N12198   4.394   2.761  11.989  0.0361 -0.7076 -0.9270
  829MPD2    H512199   4.468   2.716  12.043  0.6133 -1.4677 -2.3495
  829MPD2    N112200   4.280   3.024  11.602 -0.0357  0.1118  0.7939
  829MPD2    H712201   4.332   3.064  11.525 -1.0328 -0.3408 -0.1086
  830MPD2     C12202   0.039   0.701  15.435 -0.4692  0.0642  0.4050
  830MPD2    C112203   0.122   0.776  15.520 -0.2984  0.0521 -0.5090
  830MPD2    C212204   0.228   0.857  15.471 -0.0771  0.4820  0.0023
  830MPD2    C312205   0.256   0.861  15.337  0.5673 -0.3828  0.0316
  830MPD2    C412206   0.183   0.778  15.253 -0.3348  0.0402 -0.4337
  830MPD2    C512207   0.080   0.701  15.309  0.4272 -0.6683  0.0690
  830MPD2     H12208   0.290   0.909  15.543  0.4300 -0.6657  0.3970
  830MPD2    H112209   0.189   0.765  15.146 -0.5370 -1.0244 -0.3178
  830MPD2    H212210   4.678   0.641  15.468 -0.2209  0.4033  1.6395
  830MPD2    H312211   0.016   0.645  15.241 -1.1722 -1.4906  2.2629
  830MPD2     N12212   0.360   0.952  15.301  0.2293  0.1631  0.2855
  830MPD2    H512213   0.378   1.027  15.368 -0.5558 -1.1889  2.0285
  830MPD2    N112214   0.096   0.774  15.658  0.6215  0.1099 -0.5014
  830MPD2    H712215   0.014   0.718  15.679  0.3844  1.1445  1.3459
  831MPD2     C12216   0.541   3.028  16.463  0.2344 -0.0499  0.9289
  831MPD2    C112217   0.546   2.922  16.381 -0.5643 -0.4839 -0.4927
  831MPD2    C212218   0.437   2.841  16.388 -1.1508 -0.1737  0.1014
  831MPD2    C312219   0.335   2.854  16.480  0.5500 -0.2971 -0.1820
  831MPD2    C412220   0.336   2.959  16.569 -0.0722 -0.1458 -0.5534
  831MPD2    C512221   0.441   3.041  16.561  0.3320 -0.6910  0.1284
  831MPD2     H12222   0.434   2.753  16.325 -1.4178 -0.8272  1.0236
  831MPD2    H112223   0.273   2.976  16.656  2.3201  1.7553  0.7982
  831MPD2    H212224   0.617   3.105  16.473 -1.4407  1.7910 -0.4280
  831MPD2    H312225   0.448   3.116  16.640  0.6366 -0.0997 -0.4606
  831MPD2     N12226   0.233   2.757  16.476 -0.2735  0.2406  0.1742
  831MPD2    H512227   0.181   2.748  16.563  1.0579 -0.9591  0.8464
  831MPD2    N112228   0.655   2.911  16.292  0.1389  0.5057  0.3987
  831MPD2    H712229   0.724   2.984  16.301 -0.2205  0.7041  1.5576
  832MPD2     C12230   3.605   3.876  17.132  0.1904 -0.1037  0.0764
  832MPD2    C112231   3.551   3.999  17.163 -1.0161  0.2234 -0.2664
  832MPD2    C212232   3.429   4.023  17.103  0.0998  0.2136  0.0946
  832MPD2    C312233   3.368   3.936  17.015  0.3250 -0.6173  0.1454
  832MPD2    C412234   3.436   3.822  16.978 -0.1899 -0.0131  0.5059
  832MPD2    C512235   3.553   3.795  17.037  0.4775  0.0067 -0.3265
  832MPD2     H12236   3.377   4.108  17.146 -3.6750 -1.0045 -2.0604
  832MPD2    H112237   3.395   3.752  16.906  1.6808 -1.7569  1.1134
  832MPD2    H212238   3.683   3.826  17.186 -1.4122 -1.8705  0.7458
  832MPD2    H312239   3.595   3.695  17.027 -1.9711 -0.9661 -1.0090
  832MPD2     N12240   3.235   3.943  16.967 -0.2620 -0.0273  0.0702
  832MPD2    H512241   3.210   3.852  16.931  2.7342 -1.2399  0.9993
  832MPD2    N112242   3.613   4.081  17.252  0.3977 -0.2262 -0.0852
  832MPD2    H712243   3.692   4.034  17.296  0.5211  1.5851  1.6056
  833MPD2     C12244   0.313   0.993  12.816 -0.0684  0.1857 -0.5400
  833MPD2    C112245   0.380   1.062  12.721  0.2008  0.2331  0.7104
  833MPD2    C212246   0.368   1.032  12.588 -0.5470 -0.2053 -0.4399
  833MPD2    C312247   0.299   0.924  12.549 -0.9361  0.8640 -0.7463
  833MPD2    C412248   0.232   0.856  12.648 -0.0906  0.3112  0.3409
  833MPD2    C512249   0.244   0.882  12.782 -0.2328  0.0804 -0.6611
  833MPD2     H12250   0.417   1.080  12.504  0.3093  1.0711  0.7628
  833MPD2    H112251   0.180   0.765  12.619  0.6174 -0.9945  3.2129
  833MPD2    H212252   0.323   1.014  12.922 -0.2232  0.4696 -0.5821
  833MPD2    H312253   0.195   0.816  12.853 -3.3197  2.5848 -0.4512
  833MPD2     N12254   0.300   0.887  12.409  0.4752  0.2241  0.1382
  833MPD2    H512255   0.353   0.950  12.350 -1.5942  0.9206 -0.9876
  833MPD2    N112256   0.461   1.166  12.763  0.3540  0.2330 -0.2325
  833MPD2    H712257   0.453   1.197  12.860 -0.0295  0.0782 -0.2167
  834MPD2     C12258   0.646   0.078  12.154 -0.0026  0.6392 -0.1858
  834MPD2    C112259   0.609   0.140  12.037 -0.3377 -0.1430 -0.4306
  834MPD2    C212260   0.572   0.270  12.042  0.3110  0.5014 -0.1756
  834MPD2    C312261   0.576   0.347  12.161 -0.2611  0.2044 -0.2371
  834MPD2    C412262   0.612   0.281  12.274  0.0232  0.0031 -1.1040
  834MPD2    C512263   0.642   0.143  12.270  0.0244  0.2152  0.0848
  834MPD2     H12264   0.537   0.314  11.949 -1.5876 -0.2499  0.1929
  834MPD2    H112265   0.622   0.337  12.366  2.3275 -0.4669 -1.0561
  834MPD2    H212266   0.660   4.695  12.164 -1.8501  0.5976  2.0591
  834MPD2    H312267   0.656   0.098  12.368 -1.1579 -2.7385 -1.1047
  834MPD2     N12268   0.522   0.479  12.172  0.0769  0.2182  0.0065
  834MPD2    H512269   0.499   0.510  12.265 -1.6058  3.6280 -1.5279
  834MPD2    N112270   0.610   0.058  11.922 -0.8681 -0.1355  0.0597
  834MPD2    H712271   0.642   4.687  11.941  0.1425  0.2446  0.2514
  835MPD2     C12272   0.496   3.361  10.881  0.1607 -0.5148 -0.2936
  835MPD2    C112273   0.362   3.336  10.850  0.7131 -0.2012  0.0992
  835MPD2    C212274   0.273   3.326  10.956  0.0590  0.5621 -0.3631
  835MPD2    C312275   0.311   3.365  11.086 -0.9313 -0.5089 -0.6547
  835MPD2    C412276   0.446   3.402  11.108  0.1593  0.7091 -0.5714
  835MPD2    C512277   0.536   3.394  11.008 -0.2517 -0.8072  0.2256
  835MPD2     H12278   0.171   3.290  10.945  0.6359 -1.2082  0.0872
  835MPD2    H112279   0.489   3.424  11.205 -0.0056 -0.4297 -0.2414
  835MPD2    H212280   0.574   3.353  10.807 -1.0333 -1.6013 -1.4174
  835MPD2    H312281   0.642   3.389  11.029 -0.5564  1.1304  2.2801
  835MPD2     N12282   0.221   3.366  11.196  0.2359 -0.4841  0.0816
  835MPD2    H512283   0.262   3.375  11.288  0.0250  0.6037  0.0706
  835MPD2    N112284   0.321   3.299  10.711  0.6695 -0.2444 -0.1010
  835MPD2    H712285   0.233   3.254  10.688  0.4027  1.0191 -1.5680
  836MPD2     C12286   4.206   3.496  11.388 -0.0440  0.2939  0.0799
  836MPD2    C112287   4.275   3.447  11.495  0.0202  0.1166 -0.0259
  836MPD2    C212288   4.202   3.417  11.611  0.0342 -0.0502 -0.2868
  836MPD2    C312289   4.060   3.439  11.614  0.1491  0.7835 -0.8069
  836MPD2    C412290   4.005   3.507  11.507 -0.1939  0.6817 -0.2936
  836MPD2    C512291   4.073   3.535  11.391  0.1255 -0.0058  0.2446
  836MPD2     H12292   4.255   3.374  11.695 -2.0149  0.8385  1.4572
  836MPD2    H112293   3.904   3.545  11.511 -1.3246 -2.5417  1.6258
  836MPD2    H212294   4.254   3.526  11.296  0.2933  0.8193  0.4251
  836MPD2    H312295   4.021   3.583  11.309  2.4712  0.8582 -0.7377
  836MPD2     N12296   3.973   3.400  11.719  0.0915 -0.0135  0.0822
  836MPD2    H512297   3.879   3.436  11.721  0.1778  0.2799 -1.9253
  836MPD2    N112298   4.410   3.426  11.480 -1.4622 -0.0040 -0.3416
  836MPD2    H712299   4.458   3.453  11.394  0.1846  1.8724  1.1654
  837MPD2     C12300   3.750   2.905  10.133 -0.3819 -0.2841 -0.5992
  837MPD2    C112301   3.631   2.939  10.068 -0.2812 -0.0591  0.2464
  837MPD2    C212302   3.566   3.049  10.104  0.4170 -0.2966 -0.4146
  837MPD2    C312303   3.609   3.137  10.197 -0.3177 -0.0324 -0.1399
  837MPD2    C412304   3.729   3.110  10.257  0.2914  0.1148  0.0778
  837MPD2    C512305   3.796   2.990  10.222 -0.5328  0.5398 -0.0317
  837MPD2     H12306   3.466   3.059  10.062  0.7711  0.7595 -1.0169
  837MPD2    H112307   3.779   3.168  10.334 -2.5317  0.8658  1.3528
  837MPD2    H212308   3.798   2.810  10.110  1.2690  0.6260 -0.9726
  837MPD2    H312309   3.878   2.956  10.284  0.7508  1.3219 -1.2873
  837MPD2     N12310   3.523   3.249  10.224 -0.5414  0.0745  0.1658
  837MPD2    H512311   3.432   3.229  10.184  0.0223 -0.0350 -1.0715
  837MPD2    N112312   3.571   2.864   9.967  0.4798 -0.4738 -0.2687
  837MPD2    H712313   3.473   2.885   9.952 -0.0823 -2.7406  0.1818
  838MPD2     C12314   1.498   0.852  11.708 -0.1434  0.3245 -0.4573
  838MPD2    C112315   1.441   0.958  11.774 -0.3120 -0.4001  0.0477
  838MPD2    C212316   1.320   0.937  11.831 -0.2532  0.2490  0.0221
  838MPD2    C312317   1.256   0.812  11.817  0.1002  0.1064 -0.1610
  838MPD2    C412318   1.304   0.717  11.735 -0.2165  0.3114  0.0159
  838MPD2    C512319   1.431   0.737  11.680 -0.2981  0.9592  1.4404
  838MPD2     H12320   1.261   1.004  11.892 -0.9172  0.9444 -1.3925
  838MPD2    H112321   1.250   0.627  11.704 -1.0650  0.4719  1.0397
  838MPD2    H212322   1.600   0.855  11.672  0.1857 -0.6539  0.3809
  838MPD2    H312323   1.480   0.663  11.618 -3.1048 -0.6096  1.0689
  838MPD2     N12324   1.136   0.792  11.888  0.3783  0.3541 -0.2770
  838MPD2    H512325   1.105   0.869  11.946  1.0080  0.5453 -0.1978
  838MPD2    N112326   1.526   1.069  11.807 -0.8856 -0.1213 -0.6714
  838MPD2    H712327   1.623   1.062  11.778 -0.4751 -2.5365  1.2818
  839MPD2     C12328   1.622   0.562  12.264 -0.2127  0.1866  0.2672
  839MPD2    C112329   1.560   0.599  12.148  0.1720  0.0896 -0.1726
  839MPD2    C212330   1.589   0.723  12.097  0.0514 -0.9913 -0.7409
  839MPD2    C312331   1.666   0.823  12.162  0.4356  0.3650  0.4284
  839MPD2    C412332   1.727   0.780  12.279 -0.3410 -0.0416 -0.1683
  839MPD2    C512333   1.707   0.652  12.325  0.0643 -0.5679 -0.1532
  839MPD2     H12334   1.557   0.746  11.996  0.2964  3.8191  0.3025
  839MPD2    H112335   1.796   0.837  12.340 -0.5919 -0.7306  0.7552
  839MPD2    H212336   1.611   0.464  12.309 -0.7845  0.6555  1.1433
  839MPD2    H312337   1.766   0.624  12.412 -1.8849 -0.1193  1.3151
  839MPD2     N12338   1.682   0.948  12.111  0.0340 -0.0315 -0.5062
  839MPD2    H512339   1.620   0.975  12.035 -0.0996  1.7354  0.2382
  839MPD2    N112340   1.502   0.508  12.056  0.0694 -0.6682 -0.1324
  839MPD2    H712341   1.488   0.539  11.961 -1.9686  0.1702  0.4341
  840MPD2     C12342   2.313   3.548  10.502 -0.2802 -0.2078  0.3097
  840MPD2    C112343   2.253   3.487  10.608 -0.2908  0.5917 -0.1708
  840MPD2    C212344   2.282   3.529  10.737 -1.0885 -0.2623 -0.0485
  840MPD2    C312345   2.370   3.632  10.755  0.0531  0.0047 -0.6072
  840MPD2    C412346   2.424   3.698  10.648 -0.9511  0.5686  0.0706
  840MPD2    C512347   2.391   3.662  10.518  0.1375 -0.2839 -0.8101
  840MPD2     H12348   2.228   3.500  10.826 -3.3855 -0.7076 -1.5753
  840MPD2    H112349   2.487   3.786  10.657  2.1935 -1.6846  0.2195
  840MPD2    H212350   2.299   3.516  10.399  0.1352  0.0997  0.1569
  840MPD2    H312351   2.422   3.723  10.434 -1.9075  3.0607  0.8506
  840MPD2     N12352   2.404   3.687  10.882  0.0858 -0.4503  0.3868
  840MPD2    H512353   2.465   3.769  10.886  1.5661 -1.5830  1.0335
  840MPD2    N112354   2.172   3.379  10.576  0.3971  0.5999 -0.5705
  840MPD2    H712355   2.154   3.350  10.480 -0.0585 -0.7258 -0.0855
  841MPD2     C12356   1.214   3.414  14.495  0.4871  0.1666 -0.6094
  841MPD2    C112357   1.289   3.337  14.409 -0.0135 -0.3918 -0.2288
  841MPD2    C212358   1.375   3.411  14.321  0.1308  0.2229  1.2209
  841MPD2    C312359   1.397   3.543  14.328 -0.5485  0.1558 -0.2288
  841MPD2    C412360   1.327   3.611  14.429 -0.1891 -0.4479  0.2734
  841MPD2    C512361   1.233   3.550  14.501 -0.5419  0.8213 -0.4806
  841MPD2     H12362   1.432   3.355  14.248  1.7470  1.2268  1.7148
  841MPD2    H112363   1.346   3.717  14.443 -1.0987 -0.3509  0.8218
  841MPD2    H212364   1.145   3.371  14.567  1.2851  1.1619  0.7465
  841MPD2    H312365   1.173   3.614  14.565  0.4660 -0.1513  1.4087
  841MPD2     N12366   1.503   3.599  14.248  0.1679 -0.2598 -0.1974
  841MPD2    H512367   1.547   3.534  14.183  2.8560 -0.5723  1.9499
  841MPD2    N112368   1.287   3.194  14.411 -0.6868 -0.0021 -0.0325
  841MPD2    H712369   1.344   3.145  14.343  2.5895  1.4609  1.6581
  842MPD2     C12370   2.116   3.836  16.716  0.1887 -0.5598 -0.0786
  842MPD2    C112371   2.212   3.935  16.738 -0.0231 -0.3613 -0.4160
  842MPD2    C212372   2.264   3.942  16.865  0.6944 -0.4989  0.3346
  842MPD2    C312373   2.210   3.871  16.975 -0.4115  0.1167  0.3840
  842MPD2    C412374   2.104   3.783  16.951  0.0904 -0.7087  0.7504
  842MPD2    C512375   2.063   3.769  16.823 -0.0856  0.0338 -0.1038
  842MPD2     H12376   2.330   4.026  16.885  0.6634 -0.4382  0.1807
  842MPD2    H112377   2.060   3.724  17.031  0.9539  0.1162  1.8448
  842MPD2    H212378   2.080   3.822  16.614 -0.6444  3.2949 -0.3114
  842MPD2    H312379   1.986   3.694  16.811  1.2525 -1.4577  0.6969
  842MPD2     N12380   2.257   3.895  17.107 -0.0717  0.1154 -0.0089
  842MPD2    H512381   2.194   3.854  17.175 -0.3646  0.1186 -0.2747
  842MPD2    N112382   2.234   4.021  16.628 -0.4223 -0.2720 -0.6726
  842MPD2    H712383   2.184   3.987  16.546 -0.6869 -1.5826  0.0332
  843MPD2     C12384   4.313   0.038  17.057  0.0804 -0.1618  0.6339
  843MPD2    C112385   4.286   0.014  17.185  0.2119  0.6680 -0.1812
  843MPD2    C212386   4.302   0.119  17.270  0.3540  0.7429  0.1263
  843MPD2    C312387   4.329   0.249  17.221  0.0808 -0.4610 -1.3467
  843MPD2    C412388   4.350   0.270  17.087 -0.3959  0.3377 -0.6622
  843MPD2    C512389   4.348   0.158  17.008 -0.5790  0.3134 -0.5041
  843MPD2     H12390   4.277   0.111  17.375 -0.3576 -0.1718 -0.1066
  843MPD2    H112391   4.379   0.359  17.032  1.4422  1.0121  1.3904
  843MPD2    H212392   4.318   4.676  16.990  0.5678  0.7466 -0.4688
  843MPD2    H312393   4.369   0.156  16.902  1.1302 -0.5249 -0.1513
  843MPD2     N12394   4.329   0.349  17.318  1.0666 -0.2890 -0.2700
  843MPD2    H512395   4.305   0.310  17.409 -1.2832 -1.7503 -1.4975
  843MPD2    N112396   4.253   4.606  17.232 -0.0786  0.3380 -0.0265
  843MPD2    H712397   4.240   4.531  17.165 -1.9441  0.0619  0.6436
  844MPD2     C12398   2.977   3.742  16.576  0.0398 -0.9537  0.1094
  844MPD2    C112399   3.069   3.658  16.499 -0.2579  0.6619 -0.3085
  844MPD2    C212400   3.205   3.673  16.497  0.0410 -0.0631 -0.4065
  844MPD2    C312401   3.262   3.774  16.575 -0.4482 -0.0380 -0.6153
  844MPD2    C412402   3.176   3.860  16.640  0.0538 -0.2458  0.8052
  844MPD2    C512403   3.043   3.843  16.644  0.7959  0.3698  0.5865
  844MPD2     H12404   3.271   3.606  16.444 -0.0304  0.0146 -0.5950
  844MPD2    H112405   3.218   3.939  16.701 -0.3529 -1.0198  2.0759
  844MPD2    H212406   2.869   3.732  16.570  0.1457 -3.5412  3.1397
  844MPD2    H312407   2.978   3.913  16.695  1.4702  1.5955 -0.2310
  844MPD2     N12408   3.404   3.785  16.576  0.9655  0.2070  0.7271
  844MPD2    H512409   3.458   3.706  16.542  0.2778 -0.0158  0.1507
  844MPD2    N112410   3.019   3.554  16.420 -0.0052  0.6732 -0.5048
  844MPD2    H712411   3.083   3.511  16.354 -1.0819 -0.2081 -0.9761
  845MPD2     C12412   3.889   4.634  16.602  0.8215 -0.6517  0.0870
  845MPD2    C112413   3.813   4.584  16.701  0.3450  0.0584  0.3218
  845MPD2    C212414   3.787   4.449  16.708 -0.6946 -0.5337 -0.3068
  845MPD2    C312415   3.854   4.362  16.622 -0.3117 -0.5899  0.3242
  845MPD2    C412416   3.950   4.412  16.534 -0.1244 -0.5010 -0.2138
  845MPD2    C512417   3.966   4.553  16.526 -0.2138  0.2985 -0.1309
  845MPD2     H12418   3.723   4.405  16.785  0.0183 -0.9695  0.0358
  845MPD2    H112419   4.016   4.351  16.473  0.4131  0.6004 -0.7359
  845MPD2    H212420   3.901   0.018  16.601 -0.9502 -0.4877 -2.3921
  845MPD2    H312421   4.042   4.585  16.456  0.0262 -2.0909 -0.9733
  845MPD2     N12422   3.832   4.226  16.628  0.4803  0.8754  0.3617
  845MPD2    H512423   3.759   4.191  16.688 -0.0017  2.3294  0.6109
  845MPD2    N112424   3.758   4.679  16.793  0.1749 -0.3718 -0.0200
  845MPD2    H712425   3.807   0.043  16.804  0.0591 -0.3243  0.1236
  846MPD2     C12426   0.006   0.087  13.637  0.2799  0.9549  0.2307
  846MPD2    C112427   4.719   0.220  13.680 -0.6442 -0.1946 -0.0803
  846MPD2    C212428   4.715   0.248  13.817  0.1304  0.5614 -0.4316
  846MPD2    C312429   4.708   0.141  13.905 -0.3573  0.1901 -0.5417
  846MPD2    C412430   4.709   0.011  13.857  0.2254 -0.4582 -0.4127
  846MPD2    C512431   4.712   4.709  13.724  0.7747  0.4318  0.4404
  846MPD2     H12432   4.722   0.354  13.838  1.3593  0.8487 -2.2742
  846MPD2    H112433   4.704   4.647  13.920  0.2928  0.7494  1.2693
  846MPD2    H212434   0.038   0.065  13.536 -0.1620 -1.1588  0.5642
  846MPD2    H312435   4.723   4.609  13.683  0.1506  0.9082 -0.8934
  846MPD2     N12436   4.701   0.162  14.042 -0.1270  0.2730  0.4018
  846MPD2    H512437   4.681   0.256  14.074  0.4540 -0.2077  2.1681
  846MPD2    N112438   0.006   0.331  13.587 -0.4354 -0.1397 -0.3647
  846MPD2    H712439   0.009   0.427  13.622  0.1797 -0.3934  0.2778
  847MPD2     C12440   4.672   0.962  14.165 -0.0022  0.8339  0.2259
  847MPD2    C112441   0.056   1.040  14.124  0.2456  0.1715  0.1004
  847MPD2    C212442   0.186   0.986  14.129 -0.6250  0.2288  0.0844
  847MPD2    C312443   0.213   0.860  14.178  0.2466  0.2555  0.5542
  847MPD2    C412444   0.097   0.788  14.205 -0.0612  0.2065  0.2295
  847MPD2    C512445   4.694   0.833  14.196  0.4300 -0.0835 -1.1548
  847MPD2     H12446   0.266   1.048  14.091  0.8443 -1.4658  0.3859
  847MPD2    H112447   0.100   0.683  14.229 -1.6439  0.5424  1.9141
  847MPD2    H212448   4.569   0.996  14.159 -0.9681 -2.1123  0.5000
  847MPD2    H312449   4.606   0.777  14.227  0.2068  0.3605 -0.9946
  847MPD2     N12450   0.340   0.808  14.193 -0.5712 -0.6244  0.0001
  847MPD2    H512451   0.411   0.877  14.169  0.1642 -0.4892  2.5882
  847MPD2    N112452   0.050   1.179  14.106  0.0303 -0.4827 -0.1330
  847MPD2    H712453   0.143   1.217  14.088 -0.5769 -0.1204 -2.4316
  848MPD2     C12454   2.744   4.348  16.471 -0.4038 -0.1858  0.7868
  848MPD2    C112455   2.807   4.388  16.587  0.5071  0.6473 -0.2470
  848MPD2    C212456   2.865   4.510  16.579  0.5219  0.6110  0.0068
  848MPD2    C312457   2.858   4.597  16.468 -0.7193 -0.0534  0.1832
  848MPD2    C412458   2.812   4.537  16.353 -0.1013  0.3106 -0.4938
  848MPD2    C512459   2.752   4.415  16.356 -0.1732  0.6531 -0.0698
  848MPD2     H12460   2.918   4.541  16.669  1.0883 -1.3927  0.3656
  848MPD2    H112461   2.831   4.584  16.257  0.4434  0.2334 -0.4228
  848MPD2    H212462   2.693   4.252  16.466 -1.0853  0.0682  2.6030
  848MPD2    H312463   2.719   4.364  16.266 -3.1168 -0.4971  1.6968
  848MPD2     N12464   2.898   0.008  16.455  0.1659  0.8632  0.1101
  848MPD2    H512465   2.876   0.048  16.365  0.3127  1.8780  0.5200
  848MPD2    N112466   2.820   4.302  16.705  0.1220  0.2236 -0.0487
  848MPD2    H712467   2.888   4.347  16.766 -1.1380  2.3078 -0.1754
  849MPD2     C12468   1.569   4.246  14.096 -0.7098 -0.6187  0.3875
  849MPD2    C112469   1.686   4.294  14.033 -0.0062 -0.2413  0.4159
  849MPD2    C212470   1.806   4.282  14.101  0.3953  0.3908 -0.4599
  849MPD2    C312471   1.820   4.197  14.213  0.3528 -0.2940 -0.1061
  849MPD2    C412472   1.700   4.144  14.264 -0.1261  0.2993 -0.4252
  849MPD2    C512473   1.574   4.177  14.215  0.2516  0.9344 -0.9415
  849MPD2     H12474   1.886   4.330  14.046  1.0506 -0.2848 -0.0978
  849MPD2    H112475   1.697   4.099  14.362  1.0007 -0.2975 -0.6701
  849MPD2    H212476   1.474   4.263  14.048 -2.0625 -0.7869  3.0147
  849MPD2    H312477   1.486   4.133  14.259 -0.2344  2.3028 -0.5485
  849MPD2     N12478   1.948   4.153  14.258  0.0932 -0.1512  0.1449
  849MPD2    H512479   1.939   4.086  14.334 -0.6138 -1.9662 -1.5271
  849MPD2    N112480   1.691   4.363  13.910 -0.2605 -0.2796  0.2167
  849MPD2    H712481   1.783   4.392  13.877 -0.9823  1.3532 -0.3695
  850MPD2     C12482   4.707   2.320  14.871  0.4254  0.3836 -0.1602
  850MPD2    C112483   0.039   2.229  14.959 -0.2339  0.5870  0.3742
  850MPD2    C212484   0.179   2.227  14.973 -0.3875  0.2236  0.4689
  850MPD2    C312485   0.260   2.309  14.893  0.4720 -0.3595 -0.1797
  850MPD2    C412486   0.194   2.397  14.803  0.3231  0.1051  0.0608
  850MPD2    C512487   0.056   2.400  14.784  0.1320  0.2364  0.3416
  850MPD2     H12488   0.225   2.161  15.045 -0.7101 -3.6615 -2.8310
  850MPD2    H112489   0.256   2.470  14.753 -1.5912  1.1268 -0.8075
  850MPD2    H212490   4.599   2.322  14.855  0.4459 -2.3755 -0.6680
  850MPD2    H312491   0.021   2.471  14.710  2.0846  0.8511 -0.0117
  850MPD2     N12492   0.400   2.318  14.903  0.0909  0.0054  0.8155
  850MPD2    H512493   0.442   2.380  14.835  0.3753 -1.8532 -0.7240
  850MPD2    N112494   4.692   2.142  15.040 -0.3960 -0.0547  0.1487
  850MPD2    H712495   0.023   2.083  15.102  1.5186  1.0769 -0.4523
  851MPD2     C12496   0.150   1.679  15.597 -0.0346  0.2051  0.0757
  851MPD2    C112497   0.118   1.662  15.463 -1.2538 -0.4771  0.0973
  851MPD2    C212498   0.202   1.581  15.382 -0.4843 -0.4654 -0.2596
  851MPD2    C312499   0.302   1.507  15.439 -0.4815 -0.5828 -0.1351
  851MPD2    C412500   0.339   1.536  15.570 -0.0265 -0.4790 -0.3932
  851MPD2    C512501   0.267   1.620  15.648 -0.9692 -0.1392  0.0776
  851MPD2     H12502   0.170   1.564  15.280  0.0144 -1.3290 -0.2704
  851MPD2    H112503   0.422   1.484  15.616  2.0157  1.6928 -1.6097
  851MPD2    H212504   0.091   1.741  15.664 -1.6000 -0.4377 -0.7102
  851MPD2    H312505   0.308   1.645  15.745 -1.2780 -2.8677  0.9109
  851MPD2     N12506   0.372   1.412  15.357  0.2946  0.3415 -0.5571
  851MPD2    H512507   0.330   1.385  15.268 -0.7136  0.9391 -0.2700
  851MPD2    N112508   4.716   1.717  15.417  0.5768 -0.0169 -0.0431
  851MPD2    H712509   4.661   1.759  15.491  0.6458 -0.5068  0.2832
  852MPD2     C12510   4.018   0.607  10.231 -0.7259  0.2616  0.6732
  852MPD2    C112511   4.133   0.593  10.305 -0.7317 -0.0964  0.7078
  852MPD2    C212512   4.250   0.635  10.245  0.3484 -0.9305  0.0751
  852MPD2    C312513   4.252   0.684  10.116 -0.5291  0.3583 -0.9809
  852MPD2    C412514   4.134   0.687  10.044 -0.0691  0.9591  0.1113
  852MPD2    C512515   4.017   0.662  10.102 -0.4062 -0.8611 -0.6356
  852MPD2     H12516   4.345   0.636  10.297  0.9225  1.4321 -1.0023
  852MPD2    H112517   4.140   0.712   9.939  0.7566  3.9336  0.8678
  852MPD2    H212518   3.919   0.578  10.266  0.1034 -0.7939  2.1438
  852MPD2    H312519   3.922   0.673  10.049 -0.5790  2.1978  0.3293
  852MPD2     N12520   4.384   0.713  10.062  0.1823  0.0788 -0.7086
  852MPD2    H512521   4.461   0.677  10.117  0.1598  3.6647  1.6306
  852MPD2    N112522   4.143   0.547  10.435 -0.0854  0.7067  0.1321
  852MPD2    H712523   4.234   0.552  10.480 -0.9666  0.9781  1.8920
  853MPD2     C12524   1.386   4.177  12.559  0.7311 -1.2982  0.0293
  853MPD2    C112525   1.280   4.246  12.508  0.1195 -0.3544  0.3030
  853MPD2    C212526   1.284   4.266  12.369  0.5588  0.1601 -0.1855
  853MPD2    C312527   1.388   4.216  12.283 -0.5312 -0.1987  0.4948
  853MPD2    C412528   1.489   4.142  12.340 -0.0394  0.0800  0.7620
  853MPD2    C512529   1.486   4.126  12.478  1.3881  0.1779 -0.5884
  853MPD2     H12530   1.206   4.330  12.328 -0.4527  0.9571  3.0092
  853MPD2    H112531   1.571   4.102  12.283 -0.8120  0.4791 -0.6376
  853MPD2    H212532   1.398   4.172  12.667 -0.3622 -0.9415  0.1707
  853MPD2    H312533   1.570   4.076  12.525  0.2639 -1.3709 -0.2121
  853MPD2     N12534   1.393   4.242  12.147 -0.8932  0.3420  0.0532
  853MPD2    H512535   1.475   4.211  12.095 -0.7665 -1.2615  1.2331
  853MPD2    N112536   1.195   4.311  12.596 -0.5097 -0.2881 -0.2826
  853MPD2    H712537   1.207   4.300  12.696  0.8176 -0.0467 -0.4182
  854MPD2     C12538   3.149   0.003  12.897 -0.4554 -0.1047  0.2132
  854MPD2    C112539   3.240   0.097  12.930 -0.1602 -1.0738  0.0998
  854MPD2    C212540   3.361   0.057  12.986 -0.8462  0.2437 -0.0463
  854MPD2    C312541   3.394   4.646  13.001  0.5956 -0.1122 -0.2677
  854MPD2    C412542   3.304   4.546  12.956 -0.1145 -0.0959 -0.2304
  854MPD2    C512543   3.177   4.584  12.910  0.3760  0.0370  0.5187
  854MPD2     H12544   3.441   0.127  13.009 -1.1102  0.0311  1.4721
  854MPD2    H112545   3.330   4.441  12.966 -0.4980 -0.2408 -0.7060
  854MPD2    H212546   3.053   0.028  12.853 -0.7848 -0.2299  0.8547
  854MPD2    H312547   3.097   4.513  12.892 -0.6973  1.5890 -0.8747
  854MPD2     N12548   3.519   4.603  13.063  0.0180 -0.0570  0.8168
  854MPD2    H512549   3.537   4.503  13.073  0.8174  0.2450  2.3096
  854MPD2    N112550   3.195   0.227  12.895 -0.5145 -0.9988 -0.1861
  854MPD2    H712551   3.103   0.239  12.854 -1.2226  0.9127  2.0105
  855MPD2     C12552   4.016   0.001  13.924  0.6036 -0.4600 -0.1644
  855MPD2    C112553   4.000   4.590  13.883 -0.4685 -0.3758 -0.1502
  855MPD2    C212554   3.937   4.569  13.768  0.3620 -0.3996  0.4750
  855MPD2    C312555   3.899   4.673  13.682  0.1663 -0.1485 -0.2049
  855MPD2    C412556   3.909   0.080  13.730  0.1311 -0.5681  0.7013
  855MPD2    C512557   3.969   0.105  13.849 -0.0244  0.3584  0.1728
  855MPD2     H12558   3.917   4.466  13.740 -0.5510  0.2162 -1.1392
  855MPD2    H112559   3.889   0.169  13.672  0.7546 -0.4513  0.6652
  855MPD2    H212560   4.069   0.032  14.012 -2.3488 -0.8643  1.7663
  855MPD2    H312561   3.966   0.204  13.892 -0.3159  0.7180 -0.6724
  855MPD2     N12562   3.862   4.645  13.552  0.3271 -0.7632  0.3007
  855MPD2    H512563   3.816   4.719  13.501  1.7521 -0.2288 -0.2210
  855MPD2    N112564   4.060   4.476  13.938 -0.1629  0.4009 -0.3322
  855MPD2    H712565   4.023   4.386  13.910  1.7623 -0.0345 -1.4489
  856MPD2     C12566   1.403   0.391  13.449  0.1996  0.6399 -0.0101
  856MPD2    C112567   1.459   0.493  13.521 -0.2156 -0.3895 -0.9255
  856MPD2    C212568   1.373   0.587  13.568 -0.1830 -0.0302 -0.4072
  856MPD2    C312569   1.240   0.579  13.559 -0.0354  0.1764  0.5263
  856MPD2    C412570   1.191   0.468  13.493  0.1373  0.1799 -0.5808
  856MPD2    C512571   1.275   0.384  13.432 -0.7362  0.0588 -0.0121
  856MPD2     H12572   1.420   0.677  13.608 -1.4402 -0.2392  1.5353
  856MPD2    H112573   1.084   0.451  13.492 -0.0222  1.0842  1.3116
  856MPD2    H212574   1.462   0.310  13.407  1.5501  2.2435 -1.2021
  856MPD2    H312575   1.216   0.307  13.383 -0.8749  0.0862  0.1116
  856MPD2     N12576   1.154   0.673  13.617 -0.2691  0.9971  0.4078
  856MPD2    H512577   1.054   0.660  13.601  0.1688 -1.0867 -0.6668
  856MPD2    N112578   1.605   0.511  13.546  0.5781  0.5629 -0.5269
  856MPD2    H712579   1.616   0.588  13.612 -1.4710 -2.4472  3.3638
  857MPD2     C12580   2.673   2.250  13.453 -0.5960 -0.4839  0.0754
  857MPD2    C112581   2.661   2.318  13.334 -0.2693  0.4907 -0.5099
  857MPD2    C212582   2.722   2.448  13.325 -0.1425 -0.4789 -0.8136
  857MPD2    C312583   2.763   2.519  13.437  0.1385  0.1708 -0.2593
  857MPD2    C412584   2.751   2.451  13.557  0.3675 -1.0572  1.0188
  857MPD2    C512585   2.712   2.319  13.569 -0.3284 -0.0108  0.2797
  857MPD2     H12586   2.712   2.495  13.228 -0.1730  1.1273 -0.0294
  857MPD2    H112587   2.781   2.497  13.650  0.0397 -0.3225  0.7591
  857MPD2    H212588   2.652   2.144  13.456 -1.8368 -0.1816  1.8702
  857MPD2    H312589   2.723   2.272  13.665 -1.3131  0.0816  0.4433
  857MPD2     N12590   2.805   2.656  13.419  0.2122 -0.5523 -0.2062
  857MPD2    H512591   2.789   2.698  13.328 -0.4442 -1.0606 -0.3293
  857MPD2    N112592   2.603   2.243  13.228 -0.1901  0.0752  0.5945
  857MPD2    H712593   2.585   2.146  13.252 -0.5934  0.5856  2.3402
  858MPD2     C12594   3.281   1.662  16.798 -0.5727  0.2425 -0.8073
  858MPD2    C112595   3.413   1.673  16.773  0.1170  0.2645  0.9867
  858MPD2    C212596   3.498   1.777  16.817  0.2533  0.2308 -0.3545
  858MPD2    C312597   3.438   1.884  16.883  0.7082 -0.2605 -0.6334
  858MPD2    C412598   3.297   1.883  16.894 -0.5686 -0.0435  0.5104
  858MPD2    C512599   3.229   1.765  16.864 -0.4851 -0.1121 -0.5267
  858MPD2     H12600   3.606   1.768  16.809  0.1918 -0.4560 -0.3950
  858MPD2    H112601   3.238   1.957  16.947 -1.4612  0.0969 -0.6805
  858MPD2    H212602   3.220   1.576  16.773 -0.5055 -0.2068  0.5752
  858MPD2    H312603   3.122   1.759  16.880  0.0032 -2.0243  1.9732
  858MPD2     N12604   3.515   1.987  16.946  0.4231 -0.3524  0.0872
  858MPD2    H512605   3.458   2.051  16.999 -0.5979  1.8797 -3.7599
  858MPD2    N112606   3.458   1.567  16.689  0.0879  0.4326 -0.1276
  858MPD2    H712607   3.398   1.486  16.677  1.9020 -0.5680 -2.4192
  859MPD2     C12608   2.012   4.163  15.596  0.2788 -0.6216  0.2257
  859MPD2    C112609   2.001   4.146  15.458 -0.0047 -0.8447  0.4692
  859MPD2    C212610   1.924   4.040  15.400  0.9081 -0.3382 -0.0958
  859MPD2    C312611   1.866   3.958  15.495  0.0940  0.6516  0.0197
  859MPD2    C412612   1.884   3.971  15.630  0.0437  0.4362  0.1070
  859MPD2    C512613   1.954   4.075  15.683  0.3052  0.5053 -0.3212
  859MPD2     H12614   1.926   4.025  15.293  0.8673 -0.3818 -0.0902
  859MPD2    H112615   1.829   3.907  15.698  0.9860  0.9850  1.3742
  859MPD2    H212616   2.052   4.253  15.640 -0.6865 -0.2086  0.2731
  859MPD2    H312617   1.960   4.102  15.788  1.6651 -0.3152 -0.1928
  859MPD2     N12618   1.810   3.834  15.453 -0.0569 -0.4594  0.3029
  859MPD2    H512619   1.779   3.770  15.526 -1.7166  2.1173  1.8552
  859MPD2    N112620   2.080   4.246  15.395 -0.0183  0.0481  0.0642
  859MPD2    H712621   2.123   4.313  15.458 -1.6181  0.9808  0.1748
  860MPD2     C12622   4.224   3.898  11.577 -0.3660 -0.4606 -0.8171
  860MPD2    C112623   4.273   3.874  11.702 -0.7893 -0.0512 -0.5296
  860MPD2    C212624   4.225   3.943  11.807  0.2081  0.2446  0.7088
  860MPD2    C312625   4.110   4.016  11.798  0.1867 -0.4166 -0.6870
  860MPD2    C412626   4.054   4.033  11.670 -0.3913  0.5138  0.1489
  860MPD2    C512627   4.115   3.973  11.559 -0.2382 -0.0610  0.5120
  860MPD2     H12628   4.273   3.937  11.904 -3.2840 -0.9920  2.3601
  860MPD2    H112629   3.967   4.094  11.651  0.9972  1.8691 -1.8582
  860MPD2    H212630   4.272   3.857  11.489  0.1183  0.3054 -0.9163
  860MPD2    H312631   4.084   3.994  11.458 -0.9566  0.3600  0.8247
  860MPD2     N12632   4.068   4.091  11.910 -0.7813 -0.3421 -0.0956
  860MPD2    H512633   4.133   4.089  11.988  0.9519  0.2552 -1.5159
  860MPD2    N112634   4.384   3.794  11.729  0.0770 -0.2465  0.2617
  860MPD2    H712635   4.403   3.796  11.828 -3.5798 -2.6360  0.9625
  861MPD2     C12636   3.388   2.591  11.044  0.4335  0.6888  0.5566
  861MPD2    C112637   3.282   2.620  11.130  0.3465  0.3872 -0.4269
  861MPD2    C212638   3.158   2.662  11.077 -0.1770 -0.6339  1.1178
  861MPD2    C312639   3.141   2.661  10.936 -0.0270 -0.4401  0.0482
  861MPD2    C412640   3.243   2.614  10.851  0.6338  0.3805 -0.1012
  861MPD2    C512641   3.369   2.592  10.912 -0.3484 -0.3927  1.0621
  861MPD2     H12642   3.085   2.698  11.149  1.0700  1.3368  1.3888
  861MPD2    H112643   3.240   2.626  10.744  5.4669 -1.5804 -0.4735
  861MPD2    H212644   3.487   2.557  11.073  0.1738  1.1162  1.9264
  861MPD2    H312645   3.452   2.571  10.846 -2.2576 -1.7207 -0.9165
  861MPD2     N12646   3.033   2.714  10.867 -0.2004  0.8841 -0.7935
  861MPD2    H512647   3.042   2.716  10.766 -1.3941 -0.7860 -0.9463
  861MPD2    N112648   3.285   2.600  11.270  0.4141 -0.1703 -0.3575
  861MPD2    H712649   3.204   2.618  11.328 -1.2159 -0.4149 -2.5638
  862MPD2     C12650   2.687   2.946  10.241  0.7835 -0.3260  0.4518
  862MPD2    C112651   2.732   2.845  10.323  0.4138 -0.6112  0.0701
  862MPD2    C212652   2.718   2.716  10.283  0.2930  0.2714  0.5200
  862MPD2    C312653   2.668   2.679  10.154  0.4366 -0.2788 -0.9061
  862MPD2    C412654   2.624   2.784  10.077  0.2865  0.0269  0.5039
  862MPD2    C512655   2.635   2.912  10.122 -0.0887  0.3038 -0.1750
  862MPD2     H12656   2.736   2.639  10.357  0.4758  0.6910  0.9146
  862MPD2    H112657   2.576   2.764   9.981  1.5970 -1.0578  0.0681
  862MPD2    H212658   2.682   3.052  10.265  0.8615 -0.7526  2.3434
  862MPD2    H312659   2.583   2.990  10.067 -0.0129 -0.4591 -1.3263
  862MPD2     N12660   2.629   2.546  10.120  0.0530  0.0669  0.3366
  862MPD2    H512661   2.569   2.532  10.040  1.7166  0.8874 -1.0495
  862MPD2    N112662   2.765   2.867  10.455  0.1195 -0.1203 -0.8503
  862MPD2    H712663   2.752   2.786  10.516 -4.1775  0.2501 -1.3020
  863MPD2     C12664   1.627   0.518  16.771  0.2421  0.5104 -0.0746
  863MPD2    C112665   1.597   0.605  16.876  0.3605 -0.6113  0.2273
  863MPD2    C212666   1.690   0.639  16.971  0.1673  0.6839  0.0607
  863MPD2    C312667   1.818   0.594  16.952  0.0077 -0.6060 -0.8212
  863MPD2    C412668   1.849   0.514  16.837 -0.4889  0.2330 -0.0058
  863MPD2    C512669   1.749   0.471  16.749 -0.4664 -0.0644  0.3009
  863MPD2     H12670   1.661   0.701  17.055 -1.3113 -1.2768  1.0024
  863MPD2    H112671   1.952   0.495  16.809 -0.4381  0.7491 -0.1634
  863MPD2    H212672   1.556   0.479  16.699 -0.1534  0.6608  0.2362
  863MPD2    H312673   1.764   0.405  16.664 -0.4717  0.8002 -0.3795
  863MPD2     N12674   1.922   0.624  17.037 -0.5092  0.3399 -0.2796
  863MPD2    H512675   2.016   0.593  17.012 -0.4957 -0.7252  1.1216
  863MPD2    N112676   1.463   0.646  16.884  0.2379  0.7912 -0.4885
  863MPD2    H712677   1.401   0.587  16.830 -2.6156  2.0565  1.3984
  864MPD2     C12678   1.990   2.063  17.607  0.6735 -0.0061  0.2141
  864MPD2    C112679   2.054   1.985  17.514  0.3793  0.3535  0.2349
  864MPD2    C212680   2.112   2.045  17.405 -0.4077 -0.2292 -0.3983
  864MPD2    C312681   2.079   2.176  17.376 -0.1090  0.8970  0.1888
  864MPD2    C412682   2.005   2.254  17.463  0.1118 -0.3091  0.1778
  864MPD2    C512683   1.959   2.190  17.578 -0.0965 -0.1487  0.7460
  864MPD2     H12684   2.178   1.999  17.331  1.8466  1.6162  0.4640
  864MPD2    H112685   1.981   2.357  17.439 -0.8462 -0.0511  2.1954
  864MPD2    H212686   1.938   2.025  17.694 -0.1341 -1.3304 -0.8484
  864MPD2    H312687   1.910   2.243  17.658  0.3245  1.4697 -0.0717
  864MPD2     N12688   2.132   2.233  17.260  0.0260 -0.4408  0.2616
  864MPD2    H512689   2.097   2.324  17.233  0.8840  0.0475  0.8093
  864MPD2    N112690   2.059   1.846  17.537 -0.7892  0.4394 -0.1082
  864MPD2    H712691   2.025   1.801  17.621  0.6849  0.5451  0.5500
  865MPD2     C12692   2.153   2.474  16.405  0.1596 -0.5913  0.7689
  865MPD2    C112693   2.114   2.386  16.506 -0.2623  0.0390  0.5119
  865MPD2    C212694   2.082   2.430  16.623 -0.0851 -0.2096  0.0061
  865MPD2    C312695   2.085   2.565  16.651  0.2109  0.1203 -0.1188
  865MPD2    C412696   2.102   2.656  16.553  0.3798 -0.7332 -0.1040
  865MPD2    C512697   2.134   2.613  16.426  0.0384  0.4658  0.4136
  865MPD2     H12698   2.026   2.365  16.689 -0.5454  0.8721  0.6797
  865MPD2    H112699   2.097   2.762  16.576 -0.9275 -0.2975 -2.4118
  865MPD2    H212700   2.175   2.438  16.305  0.0039 -0.8301  0.8209
  865MPD2    H312701   2.159   2.688  16.352 -1.9843 -0.3043 -1.0509
  865MPD2     N12702   2.062   2.616  16.780 -0.7828 -0.0727 -0.4277
  865MPD2    H512703   2.038   2.715  16.777 -4.7265 -0.9793  0.0697
  865MPD2    N112704   2.146   2.250  16.488  0.0484 -0.5421  0.0299
  865MPD2    H712705   2.182   2.223  16.397  1.7699  0.8002  0.3213
  866MPD2     C12706   3.906   2.744  11.544 -1.3059  0.8905  0.1534
  866MPD2    C112707   3.920   2.783  11.413  0.2012  0.2540 -1.0151
  866MPD2    C212708   3.807   2.820  11.342  0.1002 -1.0982  0.0384
  866MPD2    C312709   3.693   2.839  11.410  0.6287  0.3226 -0.2082
  866MPD2    C412710   3.681   2.802  11.545 -0.4127 -0.3288 -0.7885
  866MPD2    C512711   3.791   2.764  11.612  0.1673 -0.5135 -0.4362
  866MPD2     H12712   3.812   2.853  11.239  0.5633 -1.9430 -0.2069
  866MPD2    H112713   3.589   2.812  11.601 -0.1886  0.6962 -0.5922
  866MPD2    H212714   3.984   2.698  11.604 -3.3332 -0.4491  1.7740
  866MPD2    H312715   3.781   2.740  11.717  0.7998  2.7832  0.3945
  866MPD2     N12716   3.576   2.886  11.353 -0.2452 -0.1616  0.5298
  866MPD2    H512717   3.505   2.901  11.424 -0.6974 -0.2491  0.0955
  866MPD2    N112718   4.049   2.770  11.358  0.0465 -0.3316  0.1079
  866MPD2    H712719   4.124   2.739  11.419  0.4780  2.2908  0.9170
  867MPD2     C12720   0.987   2.027  16.590 -0.1029  0.2223 -0.0315
  867MPD2    C112721   1.074   2.019  16.690  0.5852  0.0097 -0.1265
  867MPD2    C212722   1.118   2.134  16.758 -0.5297  0.5169 -0.5337
  867MPD2    C312723   1.071   2.261  16.715  0.4509  0.0842 -0.6595
  867MPD2    C412724   0.989   2.266  16.602  0.0063  0.2938 -0.0380
  867MPD2    C512725   0.948   2.147  16.547  0.2844 -0.8774  0.4193
  867MPD2     H12726   1.191   2.131  16.838 -1.2670 -0.8735  0.0770
  867MPD2    H112727   0.940   2.354  16.563  3.2542  2.7523  1.4537
  867MPD2    H212728   0.951   1.935  16.546 -2.0383  0.0865  1.8279
  867MPD2    H312729   0.870   2.152  16.472  1.5958 -1.1788 -0.9891
  867MPD2     N12730   1.117   2.387  16.768  0.3932  0.4374  0.2021
  867MPD2    H512731   1.089   2.467  16.712 -0.6516 -0.8153 -1.0499
  867MPD2    N112732   1.120   1.890  16.735  0.0330 -0.1070  0.7012
  867MPD2    H712733   1.089   1.810  16.680 -1.4984 -0.1959  1.7014
  868MPD2     C12734   2.795   1.293  12.929 -0.0185  0.1607  0.1636
  868MPD2    C112735   2.798   1.292  13.067 -0.0178  0.0727 -0.2183
  868MPD2    C212736   2.676   1.291  13.126 -0.5524 -0.6625  0.3777
  868MPD2    C312737   2.566   1.249  13.059 -0.1600  0.0826  0.4196
  868MPD2    C412738   2.556   1.249  12.925 -0.1091  0.4318 -0.1623
  868MPD2    C512739   2.677   1.285  12.863 -0.0579 -0.0800 -0.4294
  868MPD2     H12740   2.661   1.301  13.233 -0.2277 -0.0340  0.3658
  868MPD2    H112741   2.467   1.234  12.865 -0.2422  0.8080 -0.0603
  868MPD2    H212742   2.887   1.294  12.873  0.0073  0.0492  0.2048
  868MPD2    H312743   2.667   1.296  12.756  1.4696 -0.4507 -0.6093
  868MPD2     N12744   2.451   1.227  13.139 -0.4615 -0.0475  0.7355
  868MPD2    H512745   2.462   1.256  13.236  0.9227  3.7760 -0.5618
  868MPD2    N112746   2.923   1.299  13.129  0.1744 -0.4932 -0.0635
  868MPD2    H712747   3.008   1.293  13.074 -0.4410 -2.6290 -0.7671
  869MPD2     C12748   3.931   4.237   1.356  0.1353 -0.5620 -0.1284
  869MPD2    C112749   3.966   4.172   1.236  0.4071 -0.0491 -0.2968
  869MPD2    C212750   3.934   4.227   1.111 -0.3474 -0.3241  0.5938
  869MPD2    C312751   3.864   4.349   1.102 -0.0448 -0.9169 -0.0344
  869MPD2    C412752   3.817   4.402   1.223  0.2505  0.6225  0.9039
  869MPD2    C512753   3.850   4.344   1.341  0.4914 -0.5474 -0.1284
  869MPD2     H12754   3.956   4.174   1.019  0.7479 -0.4002  0.8968
  869MPD2    H112755   3.748   4.485   1.233  0.2677  0.8403 -0.7923
  869MPD2    H212756   3.962   4.209   1.456 -2.0847 -1.2685  0.3573
  869MPD2    H312757   3.824   4.402   1.429 -1.6766  1.5048 -2.1241
  869MPD2     N12758   3.841   4.407   0.972 -1.2223 -0.1524 -0.0391
  869MPD2    H512759   3.867   4.359   0.886  1.5642  1.6248 -0.1959
  869MPD2    N112760   4.043   4.047   1.245 -0.0798 -0.4038  0.7664
  869MPD2    H712761   4.069   4.006   1.334  0.9703 -1.2303  0.0860
  870MPD2     C12762   2.814   3.512   1.606 -0.2941  0.7325 -0.5651
  870MPD2    C112763   2.905   3.423   1.546 -0.2079  0.2455 -0.1182
  870MPD2    C212764   2.890   3.382   1.417  0.0532 -0.3588  0.5679
  870MPD2    C312765   2.787   3.442   1.340 -0.0440  0.1101  0.7567
  870MPD2    C412766   2.707   3.530   1.411  0.5027  0.2647  0.0423
  870MPD2    C512767   2.727   3.583   1.532  0.3646  0.0651  0.8908
  870MPD2     H12768   2.960   3.312   1.373 -1.0398 -2.0641  1.5051
  870MPD2    H112769   2.622   3.565   1.355  0.2673  2.5449  1.8742
  870MPD2    H212770   2.823   3.536   1.712  1.4293 -3.0006  0.1487
  870MPD2    H312771   2.666   3.663   1.572  1.2153  1.1119  0.0716
  870MPD2     N12772   2.775   3.386   1.213 -0.5905 -0.1009  0.1383
  870MPD2    H512773   2.866   3.367   1.172 -1.4537 -0.5778 -1.5371
  870MPD2    N112774   3.002   3.371   1.630  0.5068  0.3920  0.0055
  870MPD2    H712775   3.011   3.403   1.726  0.1271  0.0357  0.1568
  871MPD2     C12776   0.224   2.208  16.558  0.0298 -0.3648  0.0028
  871MPD2    C112777   0.185   2.179  16.682 -0.1661  0.6759 -0.7770
  871MPD2    C212778   0.197   2.046  16.722  0.6806 -0.3081 -0.2820
  871MPD2    C312779   0.236   1.949  16.636  0.2359  0.8812 -0.0522
  871MPD2    C412780   0.260   1.978  16.506  0.1557 -0.3247 -0.0405
  871MPD2    C512781   0.256   2.111  16.470  0.4130 -0.1862 -1.1325
  871MPD2     H12782   0.187   2.015  16.825  0.5800  1.0127  0.1117
  871MPD2    H112783   0.281   1.902  16.432 -0.0844  0.0189 -0.4595
  871MPD2    H212784   0.213   2.310  16.520 -1.5362 -0.5996 -0.1772
  871MPD2    H312785   0.271   2.147  16.369  1.2629  0.8726 -0.6235
  871MPD2     N12786   0.262   1.828  16.699  0.0831 -0.6761  0.2092
  871MPD2    H512787   0.237   1.830  16.797  0.7815  1.6843  0.3407
  871MPD2    N112788   0.152   2.282  16.763 -0.6139 -0.2082 -0.6183
  871MPD2    H712789   0.138   2.375  16.725 -0.9711 -0.8712 -2.1161
  872MPD2     C12790   0.485   0.195  13.662  0.1638  0.1659  0.2527
  872MPD2    C112791   0.579   0.117  13.721  0.1685  0.1690 -0.0769
  872MPD2    C212792   0.547   0.038  13.832  0.1273  0.0002  0.4623
  872MPD2    C312793   0.415   0.047  13.880 -0.6785  0.0777  0.1277
  872MPD2    C412794   0.318   0.114  13.805 -0.1930  0.1902  0.1488
  872MPD2    C512795   0.356   0.190  13.697  0.2129 -0.0443 -0.1788
  872MPD2     H12796   0.617   4.697  13.883 -1.4927 -1.4854  0.7975
  872MPD2    H112797   0.216   0.120  13.842  1.1038 -0.8070  3.8448
  872MPD2    H212798   0.493   0.252  13.570 -0.4748  0.7237  0.5427
  872MPD2    H312799   0.275   0.242  13.645 -1.0362 -0.5345  1.2848
  872MPD2     N12800   0.365   4.700  13.990 -0.1360 -0.0058  0.1649
  872MPD2    H512801   0.264   4.694  13.991 -0.1177 -0.3606 -0.6764
  872MPD2    N112802   0.702   0.107  13.664  0.6275 -0.8120  0.5418
  872MPD2    H712803   0.756   0.027  13.698  0.3890 -1.2318 -0.0678
  873MPD2     C12804   2.353   0.668   1.154  0.0836 -0.0306 -0.5576
  873MPD2    C112805   2.486   0.645   1.189  0.0149 -0.4195 -0.1807
  873MPD2    C212806   2.555   0.549   1.121 -1.0812 -0.2024  0.7335
  873MPD2    C312807   2.487   0.464   1.030 -0.1994 -0.2132 -0.3080
  873MPD2    C412808   2.357   0.494   0.993 -0.6916 -0.6483  0.0267
  873MPD2    C512809   2.294   0.593   1.055  0.2955  0.5832 -0.7078
  873MPD2     H12810   2.660   0.527   1.136 -1.5903 -0.8920  3.1976
  873MPD2    H112811   2.296   0.433   0.927  2.6629 -0.1991 -3.4689
  873MPD2    H212812   2.292   0.747   1.196  0.9244  0.5446 -0.4151
  873MPD2    H312813   2.189   0.610   1.034  0.1316  1.0514  0.5195
  873MPD2     N12814   2.546   0.350   0.978 -0.2896 -0.1151  0.2413
  873MPD2    H512815   2.489   0.297   0.914  1.1268 -0.9659 -0.3210
  873MPD2    N112816   2.541   0.732   1.286  0.1366  0.3824 -0.4418
  873MPD2    H712817   2.480   0.807   1.316 -1.4502 -1.0833 -0.0489
  874MPD2     C12818   2.386   0.058  16.095 -0.1556 -0.2213  0.1679
  874MPD2    C112819   2.413   0.010  16.224  0.1327  0.0096 -0.9420
  874MPD2    C212820   2.507   0.088  16.292  0.0418 -0.9758  0.4722
  874MPD2    C312821   2.553   0.210  16.241  0.1173  0.1141 -0.3369
  874MPD2    C412822   2.539   0.242  16.108  0.4415 -0.1526 -0.5290
  874MPD2    C512823   2.451   0.165  16.037 -0.4855  0.7407  0.4025
  874MPD2     H12824   2.521   0.063  16.397 -1.9236 -0.9859  0.7320
  874MPD2    H112825   2.585   0.332  16.071  2.4013 -0.5218  0.9546
  874MPD2    H212826   2.319   0.004  16.029  0.2005  0.8171 -1.0571
  874MPD2    H312827   2.431   0.196  15.935  1.8198 -0.5892 -0.4670
  874MPD2     N12828   2.643   0.280  16.330  0.2852  0.3890  0.1442
  874MPD2    H512829   2.663   0.236  16.419 -0.3757 -1.4950 -0.6383
  874MPD2    N112830   2.348   4.624  16.280 -0.1483 -0.0420 -0.0421
  874MPD2    H712831   2.278   4.585  16.218  1.0842 -2.0936 -0.1507
  875MPD2     C12832   3.290   3.070  14.551 -0.3198 -0.2987 -0.0558
  875MPD2    C112833   3.167   3.069  14.614 -0.4090  0.6036 -0.7723
  875MPD2    C212834   3.164   3.111  14.744  0.4870  0.7465 -0.6193
  875MPD2    C312835   3.273   3.123  14.817  0.7098 -0.2155 -1.0307
  875MPD2    C412836   3.395   3.132  14.756 -0.0373 -0.4181 -0.7245
  875MPD2    C512837   3.404   3.107  14.623  0.3140  0.1054 -0.5651
  875MPD2     H12838   3.070   3.131  14.794 -1.0630 -2.0158 -2.3489
  875MPD2    H112839   3.487   3.131  14.813 -0.5755 -2.0053  0.0961
  875MPD2    H212840   3.309   3.044  14.447  0.8184  0.9865 -0.1792
  875MPD2    H312841   3.496   3.073  14.577  0.8554 -0.0818  0.6687
  875MPD2     N12842   3.276   3.151  14.954 -0.1028 -0.9083  0.3249
  875MPD2    H512843   3.359   3.187  15.000  0.8154 -2.7546  0.0886
  875MPD2    N112844   3.052   3.048  14.542 -0.0028 -0.1197  0.2996
  875MPD2    H712845   2.964   3.070  14.586  0.0218  0.9717 -0.1974
  876MPD2     C12846   2.140   4.279  15.997 -0.2393  0.4340  0.4189
  876MPD2    C112847   2.277   4.305  16.017  1.0465 -0.3863 -0.0456
  876MPD2    C212848   2.358   4.213  16.071  0.1155  0.0824  0.6290
  876MPD2    C312849   2.306   4.100  16.134 -0.2132  0.3011  0.3350
  876MPD2    C412850   2.170   4.084  16.123  0.4283 -0.1116  0.8586
  876MPD2    C512851   2.086   4.167  16.050  0.2988  0.3368  0.7430
  876MPD2     H12852   2.465   4.225  16.081  0.3321 -1.3098 -0.0642
  876MPD2    H112853   2.117   4.002  16.170 -0.7424 -0.0337 -0.3311
  876MPD2    H212854   2.078   4.349  15.941  3.6156  2.6316 -1.1065
  876MPD2    H312855   1.978   4.161  16.048  0.3218  0.0078  0.3330
  876MPD2     N12856   2.396   3.997  16.172 -0.2966 -0.2721  0.8451
  876MPD2    H512857   2.494   4.007  16.148 -1.0810  0.2727 -2.0788
  876MPD2    N112858   2.332   4.418  15.953  0.7264 -0.0318 -0.0315
  876MPD2    H712859   2.271   4.463  15.885  1.7312  0.9701 -0.2800
  877MPD2     C12860   2.262   0.124  15.351 -0.3353 -0.4862  0.0690
  877MPD2    C112861   2.392   0.145  15.386 -0.4275  0.8119 -0.8414
  877MPD2    C212862   2.485   0.177  15.289  1.0362  0.2097 -0.4062
  877MPD2    C312863   2.431   0.193  15.155 -0.2486 -0.8767 -0.0382
  877MPD2    C412864   2.298   0.188  15.130  0.1469  0.0725  0.0246
  877MPD2    C512865   2.214   0.147  15.230  0.1961 -0.3335 -0.5034
  877MPD2     H12866   2.591   0.163  15.303  0.4245 -2.3614  1.5233
  877MPD2    H112867   2.261   0.202  15.029 -0.3380  2.7981  0.5660
  877MPD2    H212868   2.189   0.085  15.421 -0.2407  0.4898  0.7121
  877MPD2    H312869   2.109   0.146  15.204 -0.4556  4.8054  1.8612
  877MPD2     N12870   2.513   0.228  15.041  0.8870  0.3136  0.6297
  877MPD2    H512871   2.470   0.234  14.949  2.0608 -1.9165 -0.0476
  877MPD2    N112872   2.445   0.114  15.516 -0.0605  0.1560  0.3146
  877MPD2    H712873   2.545   0.132  15.522 -0.1903  0.5090  1.3652
  878MPD2     C12874   2.082   3.885  13.161  0.8982 -0.7228 -0.5264
  878MPD2    C112875   2.110   4.009  13.120 -1.0460 -0.6134 -0.8293
  878MPD2    C212876   2.038   4.117  13.181 -0.2675  0.6362  0.2692
  878MPD2    C312877   1.947   4.098  13.280 -0.4777 -1.1354 -0.8219
  878MPD2    C412878   1.923   3.966  13.324  0.0533  0.8619  0.3598
  878MPD2    C512879   1.997   3.868  13.266  0.0246  0.5191  0.5672
  878MPD2     H12880   2.047   4.220  13.149  0.0380  0.9036  1.2014
  878MPD2    H112881   1.870   3.931  13.412  1.1116  2.6034  1.6980
  878MPD2    H212882   2.133   3.797  13.123 -0.0725 -1.3711 -0.3351
  878MPD2    H312883   1.992   3.769  13.311  2.0171 -0.1036 -0.5872
  878MPD2     N12884   1.879   4.203  13.341 -0.4816  0.0138  0.0689
  878MPD2    H512885   1.906   4.295  13.309  1.2381 -0.7405 -0.6647
  878MPD2    N112886   2.209   4.031  13.020 -0.2916  0.4878  0.5819
  878MPD2    H712887   2.256   3.948  12.985 -1.6197 -0.0082  0.0121
  879MPD2     C12888   3.168   0.202  17.140  1.0094  0.4672  0.5364
  879MPD2    C112889   3.112   0.226  17.258 -0.2104  0.0163  0.0338
  879MPD2    C212890   2.971   0.241  17.263  0.1519  0.2409 -0.4243
  879MPD2    C312891   2.890   0.240  17.149 -0.6911  0.2323  0.1364
  879MPD2    C412892   2.957   0.221  17.029 -0.1597 -0.2799 -0.4149
  879MPD2    C512893   3.093   0.196  17.030 -0.5531 -0.1404 -0.2579
  879MPD2     H12894   2.924   0.257  17.359 -1.4772 -1.8585 -0.8609
  879MPD2    H112895   2.902   0.224  16.936  0.3328  0.1264 -0.6884
  879MPD2    H212896   3.275   0.183  17.138  1.3088  2.2622 -0.3318
  879MPD2    H312897   3.141   0.180  16.935 -0.2445  0.3956 -0.1908
  879MPD2     N12898   2.747   0.259  17.153 -0.7674  0.1864 -0.3039
  879MPD2    H512899   2.698   0.258  17.064  0.4780  0.0186 -0.9796
  879MPD2    N112900   3.186   0.238  17.377 -0.2885  0.2440  0.4164
  879MPD2    H712901   3.287   0.252  17.367 -0.5329 -0.1034 -2.5534
  880MPD2     C12902   4.074   2.722   0.441 -0.1325 -0.6563  0.6194
  880MPD2    C112903   3.936   2.711   0.462 -0.7061  0.2450  0.2211
  880MPD2    C212904   3.881   2.587   0.487  0.1496  0.3011  0.5383
  880MPD2    C312905   3.971   2.478   0.500 -0.0250 -0.2579  0.5495
  880MPD2    C412906   4.109   2.495   0.494 -0.1383  0.2006 -0.5894
  880MPD2    C512907   4.153   2.615   0.464 -0.0416  0.0532  0.3407
  880MPD2     H12908   3.773   2.576   0.487  0.1058  0.7332 -0.8807
  880MPD2    H112909   4.187   2.423   0.515 -0.2481  0.2792  0.1072
  880MPD2    H212910   4.118   2.812   0.401 -0.7690 -1.1053 -1.1024
  880MPD2    H312911   4.259   2.638   0.458  0.6584 -2.6822  2.2098
  880MPD2     N12912   3.910   2.354   0.519 -0.1751  0.1849 -0.4860
  880MPD2    H512913   3.810   2.349   0.532 -0.5687  3.2269 -2.2100
  880MPD2    N112914   3.859   2.826   0.441 -0.1153  0.2541  0.1835
  880MPD2    H712915   3.905   2.901   0.390  1.8536 -0.8521  0.3200
  881MPD2     C12916   3.998   3.579  17.649  0.5363  0.4929  0.6490
  881MPD2    C112917   3.969   3.459  17.601 -0.4391  0.4618 -0.2567
  881MPD2    C212918   3.894   3.378  17.679  0.3473 -1.1870  0.0653
  881MPD2    C312919   3.824   3.432   0.092  0.0430 -0.3412 -0.2011
  881MPD2    C412920   3.835   3.565   0.126 -0.1927  0.6300  0.2648
  881MPD2    C512921   3.928   3.639   0.054 -0.0258 -0.7536  0.7593
  881MPD2     H12922   3.895   3.273  17.653 -1.6020 -1.1089 -0.3239
  881MPD2    H112923   3.765   3.610   0.196 -0.3474 -0.5430  0.8560
  881MPD2    H212924   4.057   3.645  17.586 -1.2568  1.0402 -0.4423
  881MPD2    H312925   3.950   3.740   0.084 -0.4899  0.5648 -3.3818
  881MPD2     N12926   3.739   3.349   0.175  0.1029  0.1262  0.1698
  881MPD2    H512927   3.713   3.400   0.259  1.7154  0.2689  0.5837
  881MPD2    N112928   4.050   3.413  17.495 -0.3097  0.3056  0.0888
  881MPD2    H712929   4.118   3.481  17.461  0.7806 -1.4333 -1.1550
  882MPD2     C12930   2.561   0.113  14.240 -0.0485  0.6002  0.7564
  882MPD2    C112931   2.498   0.164  14.349 -0.5101 -0.3450 -0.3928
  882MPD2    C212932   2.367   0.197  14.341  0.9521 -0.2396 -0.1675
  882MPD2    C312933   2.292   0.171  14.223  0.0860 -0.3683  0.2062
  882MPD2    C412934   2.359   0.116  14.119 -0.0388 -0.7499 -0.2756
  882MPD2    C512935   2.491   0.092  14.131  0.1136  0.0107  0.1784
  882MPD2     H12936   2.317   0.223  14.433 -1.4729 -0.3045 -1.4707
  882MPD2    H112937   2.301   0.097  14.029 -0.8732 -0.8500  0.2768
  882MPD2    H212938   2.665   0.085  14.247 -0.1814 -0.4041 -1.1468
  882MPD2    H312939   2.534   0.038  14.048 -1.2580 -0.9986  0.1183
  882MPD2     N12940   2.146   0.173  14.221  0.1296  0.4759 -0.1031
  882MPD2    H512941   2.101   0.129  14.141 -2.2874 -1.8832  2.6015
  882MPD2    N112942   2.571   0.183  14.466 -0.3532 -0.2962  0.5222
  882MPD2    H712943   2.665   0.146  14.457  0.2273  1.4405 -0.7483
  883MPD2     C12944   4.424   4.414  16.137 -1.0318  0.5079 -0.2407
  883MPD2    C112945   4.540   4.431  16.062  0.7225 -0.3530 -0.5339
  883MPD2    C212946   4.653   4.485  16.116  0.1121 -0.2552  0.1664
  883MPD2    C312947   4.649   4.516  16.249  0.3128  0.6461  0.0266
  883MPD2    C412948   4.536   4.500  16.326  0.0093  0.2733  0.3876
  883MPD2    C512949   4.422   4.453  16.268  0.9415  0.5303  0.2529
  883MPD2     H12950   0.019   4.491  16.056 -1.0180 -0.3014 -1.5279
  883MPD2    H112951   4.538   4.539  16.427  3.6492  0.9381  0.0616
  883MPD2    H212952   4.335   4.372  16.092 -1.0564 -1.6903  1.8748
  883MPD2    H312953   4.347   4.430  16.343 -0.3776  1.8254 -0.6480
  883MPD2     N12954   0.046   4.564  16.304  0.4061  0.3852  0.6460
  883MPD2    H512955   0.127   4.596  16.252 -0.5124 -1.7930 -2.0885
  883MPD2    N112956   4.540   4.391  15.927  0.5118 -0.5161 -0.3408
  883MPD2    H712957   4.614   4.423  15.866 -0.0468 -0.7315 -1.1211
  884MPD2     C12958   1.441   0.547  15.372 -0.2971  0.8740  0.1983
  884MPD2    C112959   1.437   0.676  15.341  0.7713  0.1459  0.1886
  884MPD2    C212960   1.319   0.724  15.298  0.3467  0.8876  0.1073
  884MPD2    C312961   1.205   0.649  15.296 -0.7960 -0.2818 -0.4824
  884MPD2    C412962   1.206   0.523  15.350 -0.4045 -0.3229 -0.2798
  884MPD2    C512963   1.325   0.473  15.394 -0.2053  0.3632  0.5964
  884MPD2     H12964   1.317   0.822  15.252  2.1414  0.2770 -1.2469
  884MPD2    H112965   1.117   0.464  15.367 -2.2189  2.3377 -0.7267
  884MPD2    H212966   1.530   0.495  15.406  0.9408  3.0291  0.2487
  884MPD2    H312967   1.322   0.368  15.424  2.1650  0.6340  1.7463
  884MPD2     N12968   1.086   0.702  15.251  0.6776  0.0040  0.4144
  884MPD2    H512969   1.085   0.799  15.219  2.4315 -0.6022 -1.4517
  884MPD2    N112970   1.553   0.758  15.328 -0.3013 -0.4271  0.3052
  884MPD2    H712971   1.538   0.854  15.300 -0.7254 -0.7624 -0.5983
  885MPD2     C12972   4.113   1.306   0.136 -0.1312 -0.4273 -0.6792
  885MPD2    C112973   4.119   1.173   0.079  0.5893  0.6066  0.9497
  885MPD2    C212974   4.162   1.158  17.642 -0.0075 -0.0812  0.0437
  885MPD2    C312975   4.212   1.263  17.569  0.8768  0.2702 -0.5877
  885MPD2    C412976   4.205   1.392  17.629 -0.9338 -0.3414 -0.6946
  885MPD2    C512977   4.157   1.406   0.056  0.7211 -0.2285 -0.4132
  885MPD2     H12978   4.152   1.067  17.583 -0.0835 -1.2678  1.8643
  885MPD2    H112979   4.248   1.478  17.578  0.5225 -2.3000 -2.7622
  885MPD2    H212980   4.088   1.325   0.240 -4.5347  2.7463 -2.3158
  885MPD2    H312981   4.167   1.503   0.103 -1.2775 -0.1941 -0.0579
  885MPD2     N12982   4.265   1.237  17.439  0.2711 -0.3251 -0.6149
  885MPD2    H512983   4.290   1.145  17.404  1.6370  0.6702 -2.2990
  885MPD2    N112984   4.091   1.067   0.169 -0.4232  0.1427  0.0758
  885MPD2    H712985   4.084   1.094   0.266 -0.6637  3.1565 -0.7786
  886MPD2     C12986   1.052   4.017  15.134 -0.3973  1.2873 -0.1002
  886MPD2    C112987   1.130   4.084  15.224  0.2228  0.5751  0.5916
  886MPD2    C212988   1.141   4.219  15.213 -0.7657  0.7259  0.2526
  886MPD2    C312989   1.081   4.291  15.102 -0.0417  0.0990  0.1633
  886MPD2    C412990   1.000   4.217  15.014  0.0242 -0.6632 -0.1716
  886MPD2    C512991   0.986   4.081  15.035 -0.1581  0.0571 -0.5140
  886MPD2     H12992   1.202   4.278  15.281 -1.6589 -0.8557  2.4085
  886MPD2    H112993   0.951   4.259  14.927 -1.1453 -0.5386  0.5569
  886MPD2    H212994   1.030   3.912  15.151  1.6647  0.3661 -3.1252
  886MPD2    H312995   0.911   4.025  14.980 -0.7913  1.2018 -0.8108
  886MPD2     N12996   1.108   4.432  15.072 -0.2944 -0.2639 -0.3281
  886MPD2    H512997   1.068   4.465  14.985  0.5331 -0.9717 -0.9786
  886MPD2    N112998   1.197   4.017  15.333  0.2507  0.3999  0.4428
  886MPD2    H712999   1.250   4.068  15.403  0.3225  0.5065  0.3107
  887MPD2     C13000   1.614   4.180  15.890  0.1052  0.8153 -0.9606
  887MPD2    C113001   1.588   4.206  15.754 -0.1190  0.7611  0.2299
  887MPD2    C213002   1.632   4.325  15.705 -0.1633 -0.7971  0.3803
  887MPD2    C313003   1.724   4.405  15.777 -0.1783  0.7120 -0.1412
  887MPD2    C413004   1.761   4.366  15.901  0.5164  1.0819 -0.0826
  887MPD2    C513005   1.704   4.257  15.958  0.5716 -0.6069 -0.4150
  887MPD2     H13006   1.601   4.355  15.606 -2.5502 -0.5578  1.2065
  887MPD2    H113007   1.823   4.426  15.967  0.2964 -1.4766  2.4512
  887MPD2    H213008   1.575   4.096  15.946  0.2607 -0.1954 -2.3807
  887MPD2    H313009   1.715   4.247  16.065 -0.7086 -0.2370 -0.2493
  887MPD2     N13010   1.765   4.531  15.730  0.1482  0.1379 -0.0956
  887MPD2    H513011   1.711   4.555  15.647 -0.7895 -1.3572  0.0781
  887MPD2    N113012   1.524   4.107  15.667 -0.4687  0.1480 -0.0460
  887MPD2    H713013   1.462   4.128  15.590  2.0141  2.2700 -1.4727
  888MPD2     C13014   3.264   4.199  14.881 -0.2707 -0.9505  0.0487
  888MPD2    C113015   3.278   4.203  15.022 -0.2734 -0.2573 -0.2693
  888MPD2    C213016   3.400   4.259  15.063  0.6778 -0.3432 -0.1052
  888MPD2    C313017   3.487   4.326  14.975 -0.6804 -0.5180  0.3422
  888MPD2    C413018   3.460   4.326  14.840 -0.2663 -0.3268  0.2577
  888MPD2    C513019   3.348   4.264  14.794 -0.0504  0.1567  0.1953
  888MPD2     H13020   3.421   4.262  15.170  0.9980 -1.1916 -0.1485
  888MPD2    H113021   3.518   4.388  14.771 -0.6364 -0.0103  0.2343
  888MPD2    H213022   3.177   4.158  14.831  0.5186  1.6865 -3.4230
  888MPD2    H313023   3.323   4.269  14.688 -1.4434  0.2113  0.5233
  888MPD2     N13024   3.600   4.385  15.036  0.0140  0.8481  0.2913
  888MPD2    H513025   3.609   4.385  15.137 -0.2326 -0.8094  0.3180
  888MPD2    N113026   3.203   4.132  15.115 -0.1228 -0.3417 -0.2963
  888MPD2    H713027   3.246   4.115  15.206  0.3686  0.1206 -0.4470
  889MPD2     C13028   2.697   3.309  13.020 -0.3563  0.3870 -0.5337
  889MPD2    C113029   2.726   3.354  13.148 -0.3275  0.0227 -0.3979
  889MPD2    C213030   2.757   3.488  13.157 -0.9797 -0.0913  0.0012
  889MPD2    C313031   2.721   3.586  13.063  0.2254 -0.4012 -0.7272
  889MPD2    C413032   2.680   3.535  12.943 -1.1524  0.2229 -0.4430
  889MPD2    C513033   2.657   3.399  12.926  0.0465  0.5657 -0.3505
  889MPD2     H13034   2.775   3.524  13.258 -2.7926 -1.1406  0.6803
  889MPD2    H113035   2.652   3.603  12.863  1.0680 -0.4575 -1.7925
  889MPD2    H213036   2.683   3.202  13.007 -2.0316  0.3447  1.5663
  889MPD2    H313037   2.618   3.365  12.831  1.6807 -0.8273 -0.5301
  889MPD2     N13038   2.729   3.723  13.102  0.7249  1.1038 -0.0642
  889MPD2    H513039   2.772   3.746  13.191  0.4054  0.1063  0.3405
  889MPD2    N113040   2.785   3.268  13.243  0.2945  0.0872 -0.5306
  889MPD2    H713041   2.817   3.313  13.328  1.3817 -0.9851 -0.3727
  890MPD2     C13042   2.469   1.146  14.643 -0.2459  0.0346 -0.7715
  890MPD2    C113043   2.609   1.163  14.669  0.6353 -0.2500 -0.8940
  890MPD2    C213044   2.666   1.097  14.777  0.3445  0.4869 -0.3164
  890MPD2    C313045   2.583   1.023  14.856  0.0171 -0.6531 -0.2134
  890MPD2    C413046   2.455   0.995  14.822  0.1913  0.4876  0.1397
  890MPD2    C513047   2.393   1.061  14.718 -0.1077 -0.1509 -0.2727
  890MPD2     H13048   2.765   1.125  14.813 -0.1712  2.1683 -0.2292
  890MPD2    H113049   2.391   0.924  14.873  0.5094  0.0613 -0.0521
  890MPD2    H213050   2.414   1.196  14.564 -1.7560  1.2362  1.0414
  890MPD2    H313051   2.285   1.065  14.709 -0.1036 -0.2980 -0.3817
  890MPD2     N13052   2.636   0.982  14.982 -0.1258  0.4879 -0.0133
  890MPD2    H513053   2.733   0.999  15.007 -0.1079  0.9432 -0.3923
  890MPD2    N113054   2.673   1.252  14.584 -0.0386 -0.3606  0.1792
  890MPD2    H713055   2.614   1.287  14.509  0.7579  2.9413  1.0695
  891MPD2     C13056   0.546   3.494  16.905 -0.1218 -0.5678 -1.1548
  891MPD2    C113057   0.538   3.624  16.944 -0.8346 -0.0359 -0.7820
  891MPD2    C213058   0.636   3.671  17.033  0.2021 -0.1919  0.6240
  891MPD2    C313059   0.730   3.588  17.093  0.5673  0.2198  0.2565
  891MPD2    C413060   0.733   3.456  17.055  0.3823  0.1630  0.3855
  891MPD2    C513061   0.640   3.409  16.962 -0.1100  0.3305  0.0171
  891MPD2     H13062   0.641   3.777  17.054 -1.3789  0.2733 -1.2891
  891MPD2    H113063   0.810   3.382  17.070 -1.0367 -1.8032 -2.0330
  891MPD2    H213064   0.474   3.454  16.834 -1.5611 -1.9569  1.0788
  891MPD2    H313065   0.653   3.322  16.900 -1.0304 -1.4400  2.3191
  891MPD2     N13066   0.840   3.644  17.173  0.0134 -0.5983 -0.2082
  891MPD2    H513067   0.842   3.744  17.191 -0.4781 -0.3426 -1.5652
  891MPD2    N113068   0.431   3.689  16.877 -0.6170  0.0107  0.2785
  891MPD2    H713069   0.372   3.640  16.811  0.0058  1.2000 -1.1814
  892MPD2     C13070   1.469   0.471  14.928 -0.1226  0.5594 -0.1754
  892MPD2    C113071   1.400   0.404  14.827 -0.9603  0.5573 -0.8181
  892MPD2    C213072   1.468   0.365  14.713 -0.2878 -0.1112 -0.3011
  892MPD2    C313073   1.600   0.397  14.695 -0.0940 -0.2626 -0.4786
  892MPD2    C413074   1.663   0.474  14.789  0.5737 -0.3679 -0.3861
  892MPD2    C513075   1.602   0.502  14.910  0.0081 -0.3465  0.0161
  892MPD2     H13076   1.408   0.328  14.631  0.7394 -4.0425  0.7305
  892MPD2    H113077   1.768   0.499  14.779 -0.0961  3.6531  2.7901
  892MPD2    H213078   1.426   0.499  15.023  0.1218 -2.3914  0.7958
  892MPD2    H313079   1.656   0.555  14.987 -0.1440 -1.1002  0.6433
  892MPD2     N13080   1.673   0.357  14.579 -0.2328 -0.2447  0.0815
  892MPD2    H513081   1.772   0.380  14.580  0.2304 -2.2508  0.0220
  892MPD2    N113082   1.263   0.380  14.833 -0.5819  0.5097  0.6113
  892MPD2    H713083   1.218   0.358  14.746 -0.6168  2.5362  0.1104
  893MPD2     C13084   2.920   3.994   1.041 -0.1432  0.8373  0.0867
  893MPD2    C113085   2.914   3.947   1.168  0.2342 -0.0480  0.7365
  893MPD2    C213086   2.827   3.998   1.265 -0.2101  0.4276 -0.0230
  893MPD2    C313087   2.741   4.102   1.235 -0.2369 -0.1878  0.4537
  893MPD2    C413088   2.739   4.144   1.104  0.4465 -0.3637 -0.0499
  893MPD2    C513089   2.823   4.094   1.010 -0.5038 -0.5542  0.2351
  893MPD2     H13090   2.825   3.951   1.362  1.8206  3.0605  1.2704
  893MPD2    H113091   2.658   4.207   1.069  0.2449 -0.4366  0.2814
  893MPD2    H213092   2.982   3.948   0.964  0.5146  1.5270  0.2078
  893MPD2    H313093   2.821   4.127   0.907 -1.5031 -0.6176  0.2392
  893MPD2     N13094   2.643   4.161   1.323  0.3561  0.2286  0.3622
  893MPD2    H513095   2.587   4.232   1.279  1.0502  1.2406  1.1204
  893MPD2    N113096   3.003   3.843   1.209 -0.7074 -0.1551 -0.5618
  893MPD2    H713097   3.051   3.792   1.137 -2.3212 -1.5531 -0.6428
  894MPD2     C13098   0.830   1.021   0.889  0.1761  0.6132 -0.0017
  894MPD2    C113099   0.886   1.056   1.008 -0.5439 -0.4783 -0.4427
  894MPD2    C213100   1.008   1.128   1.005 -0.1329  0.2487  0.1212
  894MPD2    C313101   1.056   1.190   0.893 -0.1245  0.3329 -0.1804
  894MPD2    C413102   0.987   1.166   0.774  0.0631  0.5827 -0.3105
  894MPD2    C513103   0.881   1.078   0.776 -0.2463  0.8080 -0.1307
  894MPD2     H13104   1.055   1.150   1.100  0.5209 -0.2169 -0.0937
  894MPD2    H113105   1.012   1.208   0.678 -0.3638  3.7260  0.9366
  894MPD2    H213106   0.742   0.958   0.881  1.2627 -0.9117  0.2153
  894MPD2    H313107   0.833   1.058   0.681  0.1357 -0.4114 -0.0607
  894MPD2     N13108   1.177   1.265   0.899  0.2392  0.4618  0.7385
  894MPD2    H513109   1.216   1.273   0.993  2.6213 -1.7916 -0.0838
  894MPD2    N113110   0.837   1.017   1.133  1.0340 -0.4529 -0.4122
  894MPD2    H713111   0.906   1.036   1.205 -1.3073 -0.3564  1.7815
  895MPD2     C13112   0.766   4.099  13.700  0.1059 -0.1689 -0.3077
  895MPD2    C113113   0.704   4.018  13.606 -0.6570 -0.6853 -0.3843
  895MPD2    C213114   0.709   3.884  13.610 -0.5449 -0.2074  0.3961
  895MPD2    C313115   0.795   3.821  13.696 -0.2262 -0.2850  0.1020
  895MPD2    C413116   0.860   3.894  13.795 -0.1303  0.5797  0.2451
  895MPD2    C513117   0.837   4.033  13.799 -0.1898  0.0772 -0.5791
  895MPD2     H13118   0.669   3.827  13.527 -1.2651 -0.4596  0.9158
  895MPD2    H113119   0.916   3.842  13.872 -1.1058  1.7383  1.7373
  895MPD2    H213120   0.768   4.207  13.690 -0.8136 -0.1777 -0.6893
  895MPD2    H313121   0.876   4.095  13.879 -2.2629 -0.8986  1.2140
  895MPD2     N13122   0.798   3.678  13.690  0.1015  0.1879  0.2641
  895MPD2    H513123   0.759   3.643  13.603  0.0239  3.4501 -1.0076
  895MPD2    N113124   0.649   4.072  13.489  0.2313 -0.2010  0.1862
  895MPD2    H713125   0.618   3.998  13.426  0.6995  0.2810 -0.6014
  896MPD2     C13126   1.890   2.640   1.539 -0.2822 -0.2121  0.6642
  896MPD2    C113127   1.938   2.628   1.412  0.1312 -0.8202 -0.0117
  896MPD2    C213128   1.866   2.553   1.323 -0.3934  0.0009  0.4483
  896MPD2    C313129   1.739   2.493   1.359  0.4773  0.9324 -0.1538
  896MPD2    C413130   1.700   2.508   1.493 -0.1375  0.5432  0.4382
  896MPD2    C513131   1.778   2.577   1.585  0.3104  0.1274  0.0232
  896MPD2     H13132   1.906   2.523   1.227  0.1933  0.5779  0.5123
  896MPD2    H113133   1.612   2.457   1.531  0.0850  0.0539  0.2913
  896MPD2    H213134   1.943   2.695   1.616  1.3497 -0.0208 -0.6047
  896MPD2    H313135   1.759   2.584   1.692  2.3383  0.5243  0.3638
  896MPD2     N13136   1.656   2.430   1.263 -0.4197  0.6092  0.4032
  896MPD2    H513137   1.697   2.403   1.175  1.0387  4.3451 -0.0775
  896MPD2    N113138   2.055   2.686   1.387 -0.1421 -0.1736  0.3423
  896MPD2    H713139   2.110   2.726   1.463  0.2571 -1.1336  0.5579
  897MPD2     C13140   3.530   3.745  10.760  0.0560  0.3773 -0.5815
  897MPD2    C113141   3.521   3.878  10.784 -0.0405  0.1205 -0.5690
  897MPD2    C213142   3.506   3.927  10.913  0.1502  0.1647 -0.0958
  897MPD2    C313143   3.515   3.831  11.024  0.6651 -0.8150  0.3461
  897MPD2    C413144   3.510   3.697  10.992 -0.5262 -0.2611 -0.4471
  897MPD2    C513145   3.514   3.655  10.866  0.1976 -0.7131 -0.2611
  897MPD2     H13146   3.499   4.035  10.923  0.2796  0.0954  0.7644
  897MPD2    H113147   3.503   3.623  11.071 -0.5438  1.1756  0.8769
  897MPD2    H213148   3.531   3.704  10.660 -1.8655  0.2282 -0.5445
  897MPD2    H313149   3.512   3.548  10.844  2.0669 -1.4097  2.9477
  897MPD2     N13150   3.502   3.866  11.157 -0.1806  0.2937  0.3497
  897MPD2    H513151   3.480   3.792  11.222 -1.9912  0.4889 -0.0514
  897MPD2    N113152   3.537   3.957  10.670 -0.2706  0.8987 -0.6089
  897MPD2    H713153   3.546   3.907  10.583 -1.8797  0.0563 -0.2999
  898MPD2     C13154   0.788   4.459   0.661  0.0178 -0.2969  0.2970
  898MPD2    C113155   0.920   4.496   0.663 -0.0941  0.4188 -0.2694
  898MPD2    C213156   0.952   4.624   0.635 -0.0982  0.5813  0.3773
  898MPD2    C313157   0.862   0.000   0.602 -0.4251 -0.0945 -0.5201
  898MPD2    C413158   0.728   4.685   0.604  0.4933 -0.7094  0.3136
  898MPD2    C513159   0.696   4.553   0.632  0.5918 -0.1760 -0.4680
  898MPD2     H13160   1.059   4.643   0.640  0.1132  0.0172 -1.8192
  898MPD2    H113161   0.651   0.037   0.601  1.5559  0.2555 -2.8259
  898MPD2    H213162   0.752   4.363   0.696 -1.0911 -0.1035 -0.3133
  898MPD2    H313163   0.591   4.529   0.628 -0.0642  1.8271  4.2155
  898MPD2     N13164   0.908   0.129   0.559  0.0499 -0.1446 -0.3431
  898MPD2    H513165   1.005   0.154   0.573 -0.5927  2.3407 -0.2744
  898MPD2    N113166   1.025   4.415   0.707 -0.3329 -0.2204  0.4607
  898MPD2    H713167   1.112   4.460   0.736  1.1629 -3.4147  0.9528
  899MPD2     C13168   1.795   0.180  17.606  0.1088 -0.0654  0.2172
  899MPD2    C113169   1.889   0.267  17.658 -0.0254  0.3428  0.7228
  899MPD2    C213170   1.930   0.253   0.086  0.8955  0.9931  0.3747
  899MPD2    C313171   1.873   0.160   0.170  0.1701  0.5877 -0.5416
  899MPD2    C413172   1.779   0.080   0.117 -0.2666 -0.1623  0.1215
  899MPD2    C513173   1.738   0.089  17.691 -0.1134 -0.2904  0.3060
  899MPD2     H13174   2.009   0.315   0.127  3.3196 -1.9352  0.1646
  899MPD2    H113175   1.738   4.723   0.177  0.0369  2.1657  3.4734
  899MPD2    H213176   1.756   0.197  17.506 -1.4811  0.1137  0.8667
  899MPD2    H313177   1.662   0.018  17.659 -1.0389  1.3154 -1.0848
  899MPD2     N13178   1.902   0.148   0.308 -0.1730 -0.1639  0.3602
  899MPD2    H513179   1.877   0.060   0.351 -1.8358  0.2911  0.3249
  899MPD2    N113180   1.942   0.352  17.564 -0.0051  0.5490  0.2820
  899MPD2    H713181   1.900   0.346  17.472 -0.3414  1.0983  0.3968
  900MPD2     C13182   1.742   2.078  12.583  0.7032  0.7472 -0.5633
  900MPD2    C113183   1.702   2.003  12.477  0.8568 -0.8090  0.0336
  900MPD2    C213184   1.654   2.066  12.362 -0.2684  0.4857  0.1649
  900MPD2    C313185   1.648   2.208  12.349  0.6537  0.7013 -0.2616
  900MPD2    C413186   1.699   2.280  12.454  0.5065  0.4666 -0.0504
  900MPD2    C513187   1.744   2.216  12.564  0.4363  0.0429 -0.4484
  900MPD2     H13188   1.618   2.012  12.276 -1.5547 -2.8998  2.8201
  900MPD2    H113189   1.714   2.387  12.444 -1.4030  0.8020  0.6718
  900MPD2    H213190   1.782   2.034  12.674 -2.9013 -0.6706  0.3256
  900MPD2    H313191   1.791   2.277  12.640  1.6093 -1.0990 -0.2659
  900MPD2     N13192   1.623   2.255  12.215  0.6085 -0.0837  0.2121
  900MPD2    H513193   1.592   2.186  12.148  0.2341  0.5757 -0.3035
  900MPD2    N113194   1.713   1.861  12.488  0.1300  0.5509 -0.0281
  900MPD2    H713195   1.766   1.826  12.567  1.4789  1.5572 -0.4869
  901MPD2     C13196   1.331   0.838  12.397 -0.1712  0.0450 -0.2452
  901MPD2    C113197   1.426   0.835  12.498  0.6878 -0.0282 -0.1447
  901MPD2    C213198   1.497   0.951  12.527 -0.1263 -0.2781 -0.0574
  901MPD2    C313199   1.490   1.067  12.446 -0.0849  0.4870  0.2507
  901MPD2    C413200   1.399   1.066  12.347  0.6043 -0.2355  0.0307
  901MPD2    C513201   1.325   0.954  12.320  0.5051  0.0717 -0.1782
  901MPD2     H13202   1.561   0.947  12.615  1.2501  1.0544 -0.9914
  901MPD2    H113203   1.378   1.150  12.281 -0.9614 -0.3890  0.3246
  901MPD2    H213204   1.268   0.756  12.368 -2.3424  0.3675  3.4774
  901MPD2    H313205   1.246   0.951  12.246  0.5525  0.5884 -0.2558
  901MPD2     N13206   1.568   1.182  12.476  0.3802  0.1135  0.1812
  901MPD2    H513207   1.639   1.183  12.548  1.8316  2.1659 -1.2506
  901MPD2    N113208   1.438   0.712  12.564  0.5388  0.0162  0.1283
  901MPD2    H713209   1.382   0.638  12.523 -0.1977  1.0561 -0.7322
  902MPD2     C13210   0.049   4.515  12.874  0.5522 -0.3079 -0.5584
  902MPD2    C113211   0.134   4.559  12.772  0.1392 -0.5606 -0.4309
  902MPD2    C213212   0.196   4.469  12.684 -0.0750  1.0789 -0.9442
  902MPD2    C313213   0.194   4.334  12.718 -0.3092  1.1049  0.1738
  902MPD2    C413214   0.124   4.292  12.828  0.0885  0.8357 -0.7855
  902MPD2    C513215   0.053   4.384  12.906 -0.1024  0.2264 -0.1764
  902MPD2     H13216   0.261   4.500  12.604  0.5211  1.7880 -0.1758
  902MPD2    H113217   0.106   4.186  12.847  0.0242  0.8975 -0.4920
  902MPD2    H213218   4.689   4.574  12.911  0.0841 -1.4607  0.2184
  902MPD2    H313219   4.715   4.345  12.986 -1.3933  0.8240 -0.8768
  902MPD2     N13220   0.266   4.238  12.647  0.1457  0.1432 -0.1566
  902MPD2    H513221   0.256   4.143  12.682  2.5327 -0.9149 -2.3738
  902MPD2    N113222   0.139   4.696  12.738 -0.2922  0.1733  0.0770
  902MPD2    H713223   0.173   4.719  12.645 -3.5736  1.4723 -0.7910
  903MPD2     C13224   0.628   3.832  11.881  0.5558 -0.0971 -0.3223
  903MPD2    C113225   0.522   3.875  11.961  0.0204  0.4904  0.0286
  903MPD2    C213226   0.393   3.829  11.941 -0.6354  0.2299 -0.1700
  903MPD2    C313227   0.370   3.744  11.840 -0.2764  0.6175 -0.1773
  903MPD2    C413228   0.478   3.705  11.760 -0.0388  0.6856  0.1998
  903MPD2    C513229   0.602   3.756  11.773 -0.4861 -0.5799  0.1448
  903MPD2     H13230   0.306   3.840  12.006  0.0256 -2.6791  1.1944
  903MPD2    H113231   0.470   3.634  11.679 -0.2252  0.2579  0.5879
  903MPD2    H213232   0.727   3.866  11.907 -0.3723  0.3741  2.5595
  903MPD2    H313233   0.676   3.718  11.703  1.5359  1.4646  1.1906
  903MPD2     N13234   0.239   3.697  11.822  0.0739 -0.2538 -0.7355
  903MPD2    H513235   0.168   3.734  11.884 -0.5635 -2.8595  0.1293
  903MPD2    N113236   0.555   3.945  12.079  0.3042  0.1913  0.3224
  903MPD2    H713237   0.653   3.951  12.105  0.0945  3.5163  0.3341
  904MPD2     C13238   0.179   3.482  14.099  0.4097 -0.0017  0.1429
  904MPD2    C113239   0.260   3.591  14.061 -0.2135 -0.0524  0.8839
  904MPD2    C213240   0.390   3.599  14.109 -1.4622 -0.3003  0.0083
  904MPD2    C313241   0.442   3.496  14.179  0.2971  0.2129  0.3560
  904MPD2    C413242   0.358   3.391  14.221 -0.3743  0.1411 -0.4016
  904MPD2    C513243   0.233   3.383  14.172  0.3724  0.0764 -1.0311
  904MPD2     H13244   0.453   3.684  14.085 -1.6251  0.0020  0.6553
  904MPD2    H113245   0.393   3.304  14.275  2.5607 -0.5258 -3.4161
  904MPD2    H213246   0.077   3.462  14.069  0.3143  0.8935 -0.1242
  904MPD2    H313247   0.164   3.304  14.200  0.8193  0.8359  2.2263
  904MPD2     N13248   0.579   3.500  14.203  0.3245  0.7174 -0.6062
  904MPD2    H513249   0.632   3.580  14.168  1.4938  1.4953  2.9911
  904MPD2    N113250   0.216   3.700  13.983  0.0087  0.5737  0.3943
  904MPD2    H713251   0.285   3.775  13.979  0.5929  0.0091 -0.1280
  905MPD2     C13252   0.094   3.418  13.354 -0.8106  0.0135 -0.1144
  905MPD2    C113253   0.171   3.517  13.413 -0.4883  0.4405 -0.9512
  905MPD2    C213254   0.310   3.502  13.432  0.6941  0.0709 -0.4122
  905MPD2    C313255   0.364   3.383  13.397  0.8224  0.0891 -0.8749
  905MPD2    C413256   0.286   3.284  13.332  0.6795 -0.3858 -0.6215
  905MPD2    C513257   0.150   3.303  13.306  0.4734  0.1825 -0.0487
  905MPD2     H13258   0.371   3.576  13.481 -0.1007  0.7194 -0.3984
  905MPD2    H113259   0.326   3.184  13.317  2.0324  0.1317 -0.4380
  905MPD2    H213260   4.710   3.429  13.361 -0.9224  0.0553 -1.9755
  905MPD2    H313261   0.096   3.216  13.273 -0.7035  1.3319 -1.1247
  905MPD2     N13262   0.494   3.348  13.433 -0.1538  0.2448  0.2554
  905MPD2    H513263   0.520   3.250  13.433 -0.3454  0.1926  0.9363
  905MPD2    N113264   0.098   3.633  13.440  0.8136 -0.0920 -1.0371
  905MPD2    H713265   4.720   3.630  13.440  0.7804  0.9643  1.1402
  906MPD2     C13266   2.727   3.456  11.634  0.2088 -0.6410 -0.1821
  906MPD2    C113267   2.628   3.413  11.545 -0.4352  0.6274  1.0198
  906MPD2    C213268   2.578   3.281  11.551 -0.4530 -0.6098  0.4189
  906MPD2    C313269   2.620   3.196  11.652  0.1399  0.3200  0.4786
  906MPD2    C413270   2.715   3.243  11.740  0.2664 -0.1263 -0.0642
  906MPD2    C513271   2.770   3.368  11.729  0.2410  0.1657  0.1596
  906MPD2     H13272   2.505   3.253  11.475  0.0631  1.4120 -0.8284
  906MPD2    H113273   2.769   3.183  11.813  0.9485 -0.7270 -1.0573
  906MPD2    H213274   2.777   3.552  11.632 -1.3324  0.2004  1.1429
  906MPD2    H313275   2.852   3.404  11.790 -1.0202  2.4509  0.5217
  906MPD2     N13276   2.571   3.063  11.665 -0.3491 -0.4465 -0.1152
  906MPD2    H513277   2.593   3.011  11.749 -1.9228  0.5310  0.9159
  906MPD2    N113278   2.579   3.503  11.446 -0.3827  0.8022  0.6115
  906MPD2    H713279   2.515   3.470  11.375  0.7385  0.7814 -0.3814
  907MPD2     C13280   1.544   2.583  15.818  0.1299 -0.6443 -0.5464
  907MPD2    C113281   1.481   2.490  15.745 -0.4470 -0.3673  0.1994
  907MPD2    C213282   1.507   2.358  15.766 -0.5745 -0.0076  0.1113
  907MPD2    C313283   1.601   2.314  15.856  0.4257 -0.7845 -0.1950
  907MPD2    C413284   1.675   2.413  15.926  0.1543  0.3299 -0.6368
  907MPD2    C513285   1.642   2.544  15.907  0.4953 -0.3442 -0.1116
  907MPD2     H13286   1.452   2.292  15.700  0.0201  0.7225 -1.1287
  907MPD2    H113287   1.750   2.379  15.996 -1.1106 -1.7794 -0.3020
  907MPD2    H213288   1.543   2.690  15.799  2.4432 -0.3010  1.2453
  907MPD2    H313289   1.700   2.617  15.962  0.9335 -0.5389 -0.3136
  907MPD2     N13290   1.646   2.182  15.869  0.6433 -0.5119  0.4355
  907MPD2    H513291   1.705   2.150  15.944  2.4265  1.2365 -0.2386
  907MPD2    N113292   1.391   2.529  15.639 -0.1286  0.3127  0.8444
  907MPD2    H713293   1.331   2.457  15.600 -0.0530  0.5797  0.2336
  908MPD2     C13294   3.479   3.615   9.944 -0.3901  0.0861  0.2888
  908MPD2    C113295   3.603   3.618  10.007  0.3804  0.2573  0.0545
  908MPD2    C213296   3.632   3.726  10.083 -0.5158  0.8412  0.1721
  908MPD2    C313297   3.547   3.838  10.089  0.8237 -0.0166  0.5313
  908MPD2    C413298   3.429   3.828  10.028  0.3631 -0.2387 -0.2147
  908MPD2    C513299   3.384   3.715   9.959  0.0284 -0.1378 -0.1345
  908MPD2     H13300   3.730   3.730  10.130 -0.0431  1.3738 -0.8468
  908MPD2    H113301   3.358   3.910  10.025  0.7290  0.1029  0.5973
  908MPD2    H213302   3.452   3.531   9.882 -0.6355  0.5331 -0.2138
  908MPD2    H313303   3.294   3.715   9.900 -0.0399 -1.0500 -0.0314
  908MPD2     N13304   3.583   3.936  10.178 -0.3003 -0.1836  0.1309
  908MPD2    H513305   3.656   3.918  10.246 -2.3665 -3.0017  1.6002
  908MPD2    N113306   3.700   3.524   9.989 -0.2698  0.0483 -0.2367
  908MPD2    H713307   3.789   3.541  10.034 -0.3189 -0.4278  0.0483
  909MPD2     C13308   4.188   1.267  11.578  0.3917  0.4872 -0.1841
  909MPD2    C113309   4.237   1.393  11.559  0.2045 -0.0817 -0.4074
  909MPD2    C213310   4.229   1.486  11.658  0.3935  0.7644 -0.2847
  909MPD2    C313311   4.155   1.457  11.773  0.3207  0.0865  0.5197
  909MPD2    C413312   4.101   1.330  11.788 -0.0713  0.8363  0.5042
  909MPD2    C513313   4.117   1.242  11.689  0.8449  0.6700  0.3797
  909MPD2     H13314   4.253   1.589  11.637  1.0074  0.9703  1.4116
  909MPD2    H113315   4.035   1.303  11.869 -2.4294  0.5021 -1.5296
  909MPD2    H213316   4.189   1.188  11.504 -0.8550  0.4204 -0.1255
  909MPD2    H313317   4.075   1.143  11.700 -0.4818  1.4313  2.0066
  909MPD2     N13318   4.143   1.564  11.869 -0.0669  0.7909 -0.0963
  909MPD2    H513319   4.189   1.650  11.840 -1.3337  1.6313  0.3603
  909MPD2    N113320   4.310   1.431  11.441 -0.1353  0.4056 -0.2598
  909MPD2    H713321   4.351   1.522  11.456  2.9456 -0.8255 -1.1462
  910MPD2     C13322   0.478   3.394  15.817  0.3738 -0.2864  0.1358
  910MPD2    C113323   0.605   3.380  15.770 -0.3314 -0.2048  0.4681
  910MPD2    C213324   0.626   3.405  15.632  0.3301  0.8129 -0.4448
  910MPD2    C313325   0.518   3.429  15.546  0.1964  0.4511  0.7713
  910MPD2    C413326   0.390   3.435  15.603 -0.4132 -0.0746 -0.5497
  910MPD2    C513327   0.371   3.421  15.739  0.2988 -0.0214  0.0927
  910MPD2     H13328   0.727   3.382  15.602 -0.4061 -0.8283 -1.6276
  910MPD2    H113329   0.305   3.448  15.536 -1.7470 -1.3823  0.8665
  910MPD2    H213330   0.461   3.363  15.920 -3.1111 -1.2841 -0.7554
  910MPD2    H313331   0.273   3.424  15.785 -0.2212 -2.9467 -0.8628
  910MPD2     N13332   0.535   3.451  15.408 -0.1984 -0.3625 -0.1616
  910MPD2    H513333   0.448   3.460  15.357 -0.5689  0.0579  0.5420
  910MPD2    N113334   0.715   3.368  15.861 -0.2411  0.3402 -0.4827
  910MPD2    H713335   0.811   3.367  15.827 -0.1126 -0.3751 -0.0916
  911MPD2     C13336   3.519   3.700  16.260  0.4520  1.0102  0.0894
  911MPD2    C113337   3.603   3.807  16.251  0.2074  0.1584 -0.6515
  911MPD2    C213338   3.553   3.925  16.194  0.5110  0.2992  0.0905
  911MPD2    C313339   3.417   3.938  16.160 -0.2241  1.0839  0.1394
  911MPD2    C413340   3.340   3.821  16.166 -0.6350  0.4155 -0.1599
  911MPD2    C513341   3.390   3.704  16.214 -0.2591 -0.3475  0.5177
  911MPD2     H13342   3.624   4.004  16.172  0.8022 -0.5421 -1.9523
  911MPD2    H113343   3.237   3.810  16.134 -1.0304  1.6980  0.6502
  911MPD2    H213344   3.554   3.605  16.297 -4.0675  0.0349  1.7625
  911MPD2    H313345   3.327   3.617  16.226  0.2276 -0.2867  3.5116
  911MPD2     N13346   3.357   4.056  16.116  0.0922 -0.0954 -0.3521
  911MPD2    H513347   3.260   4.049  16.087  0.6204 -1.2817 -1.8029
  911MPD2    N113348   3.745   3.776  16.277 -0.1382 -0.3398  0.4628
  911MPD2    H713349   3.761   3.680  16.305 -0.2682 -0.2303  0.9108
  912MPD2     C13350   2.823   3.882  15.706 -0.5034 -0.0477 -0.0597
  912MPD2    C113351   2.912   3.894  15.814 -0.4543 -0.1974 -0.6609
  912MPD2    C213352   2.919   3.796  15.904  0.6436 -0.5078 -0.2270
  912MPD2    C313353   2.841   3.678  15.898 -0.3470  0.2630 -0.6368
  912MPD2    C413354   2.760   3.662  15.783 -0.6808 -0.1987 -0.0037
  912MPD2    C513355   2.756   3.760  15.688  0.3855 -0.0629  0.7718
  912MPD2     H13356   2.977   3.805  15.996  0.8103  0.1651 -0.3978
  912MPD2    H113357   2.701   3.571  15.781 -1.7251  0.4986 -1.2091
  912MPD2    H213358   2.817   3.958  15.628 -0.4175  2.3488  2.2747
  912MPD2    H313359   2.684   3.740  15.609 -1.0095  0.6687  1.8725
  912MPD2     N13360   2.851   3.581  16.002 -1.0121  0.4655  0.1831
  912MPD2    H513361   2.877   3.617  16.094 -3.6532 -0.6886  1.3900
  912MPD2    N113362   2.994   4.002  15.819  1.2879 -0.2350  0.2847
  912MPD2    H713363   2.985   4.072  15.746  0.0583 -1.6498 -0.9099
  913MPD2     C13364   3.086   0.587  10.140 -0.0770  0.5461 -0.4978
  913MPD2    C113365   3.211   0.636  10.151 -0.3911  0.4925  0.7440
  913MPD2    C213366   3.263   0.729  10.063 -0.4057  0.0760  0.0013
  913MPD2    C313367   3.203   0.738   9.944 -0.6802  0.0198  0.5087
  913MPD2    C413368   3.079   0.680   9.921 -0.2818  0.8545 -0.0458
  913MPD2    C513369   3.019   0.604  10.025  0.2259 -0.1820  0.1329
  913MPD2     H13370   3.356   0.782  10.079 -0.4242 -0.0122  0.4031
  913MPD2    H113371   3.019   0.703   9.834 -0.8192  1.8886  0.6026
  913MPD2    H213372   3.046   0.532  10.224 -0.0805  2.0744  0.4829
  913MPD2    H313373   2.919   0.563  10.031 -1.0559  2.9544  0.1227
  913MPD2     N13374   3.241   0.823   9.837  0.0949  0.4024  0.2141
  913MPD2    H513375   3.183   0.811   9.755 -1.1309  0.0603  1.1240
  913MPD2    N113376   3.292   0.608  10.269  0.1087  0.0333  0.3774
  913MPD2    H713377   3.247   0.557  10.345 -0.3353 -0.0863  0.0362
  914MPD2     C13378   0.995   0.178  12.311  0.1198 -0.1538 -0.6735
  914MPD2    C113379   0.997   0.307  12.360  0.1500 -0.7447 -0.3350
  914MPD2    C213380   1.045   0.332  12.486 -0.3452 -0.0117 -0.2584
  914MPD2    C313381   1.116   0.235  12.556 -0.1489  0.2160  0.1202
  914MPD2    C413382   1.128   0.107  12.507  0.1529 -0.0872  0.5811
  914MPD2    C513383   1.042   0.082  12.399 -0.0267 -0.2062 -0.7878
  914MPD2     H13384   1.038   0.432  12.530 -1.4525 -0.3212  0.2868
  914MPD2    H113385   1.189   0.034  12.559 -1.2780 -1.3649  0.4649
  914MPD2    H213386   0.950   0.149  12.217 -0.9788  0.1004 -0.2268
  914MPD2    H313387   1.043   4.701  12.370  1.6354 -0.0462 -1.2985
  914MPD2     N13388   1.205   0.289  12.653 -0.0756 -0.4104  0.0103
  914MPD2    H513389   1.194   0.388  12.673  1.8428 -0.2618  0.3240
  914MPD2    N113390   0.941   0.410  12.278  0.2454  0.0534  1.0062
  914MPD2    H713391   0.916   0.387  12.182 -2.4459  1.9762  1.2319
  915MPD2     C13392   0.214   0.394  15.578 -0.5800  1.2797  0.2324
  915MPD2    C113393   0.076   0.378  15.581  0.3234  0.3681  0.1661
  915MPD2    C213394   0.006   0.393  15.702  0.3266 -0.6684 -0.2360
  915MPD2    C313395   0.073   0.434  15.817 -0.7632 -0.2795 -0.2659
  915MPD2    C413396   0.209   0.464  15.807 -0.3100 -0.8313 -0.0029
  915MPD2    C513397   0.277   0.444  15.689 -0.3845 -0.3703 -0.3219
  915MPD2     H13398   4.624   0.379  15.722  0.2397  0.0183 -0.1905
  915MPD2    H113399   0.264   0.512  15.887  0.0545 -1.0806 -0.1050
  915MPD2    H213400   0.270   0.369  15.489  1.3521  1.8155  1.3033
  915MPD2    H313401   0.384   0.459  15.692 -0.5749  1.1825 -1.1365
  915MPD2     N13402   4.719   0.447  15.935  0.2836  0.0254  0.1438
  915MPD2    H513403   4.624   0.411  15.940  0.0346  0.5010 -1.3295
  915MPD2    N113404   0.005   0.346  15.455  0.4347  0.7510  0.2334
  915MPD2    H713405   0.061   0.333  15.371 -0.6906  2.5303 -0.7836
  916MPD2     C13406   2.419   3.625  15.649  0.3111  0.1200 -0.0730
  916MPD2    C113407   2.445   3.539  15.753 -0.9393 -0.7868 -0.0260
  916MPD2    C213408   2.467   3.407  15.723 -0.5154 -0.0676 -0.1833
  916MPD2    C313409   2.456   3.361  15.595 -0.4399 -0.8986 -0.0184
  916MPD2    C413410   2.435   3.445  15.489  0.0312  0.1434  0.2781
  916MPD2    C513411   2.411   3.572  15.521 -0.7526  0.3381  0.2959
  916MPD2     H13412   2.476   3.337  15.805  3.7326  0.9183  0.2081
  916MPD2    H113413   2.428   3.408  15.388 -2.1667  0.0565  0.4651
  916MPD2    H213414   2.413   3.733  15.655  0.5414  0.2242 -1.7704
  916MPD2    H313415   2.391   3.639  15.438  2.2987  1.5072  0.5056
  916MPD2     N13416   2.474   3.217  15.591  0.4137  0.2289 -0.3286
  916MPD2    H513417   2.487   3.169  15.679 -1.5655 -2.1414 -1.3448
  916MPD2    N113418   2.454   3.596  15.885  0.2651 -0.7460 -0.0315
  916MPD2    H713419   2.436   3.695  15.892  0.3442 -0.8710  1.7551
  917MPD2     C13420   2.372   1.335  11.280 -0.4794 -0.2693 -0.0756
  917MPD2    C113421   2.449   1.378  11.389 -0.0513 -0.3920  0.4869
  917MPD2    C213422   2.511   1.499  11.383  0.5936 -0.4857 -0.1022
  917MPD2    C313423   2.492   1.588  11.276 -0.2212 -0.3710 -0.1280
  917MPD2    C413424   2.413   1.540  11.165  0.5696 -0.2651 -1.1139
  917MPD2    C513425   2.359   1.413  11.168 -0.3338 -0.1723 -0.0751
  917MPD2     H13426   2.565   1.540  11.468 -0.2639 -0.2992  0.3544
  917MPD2    H113427   2.384   1.608  11.086 -0.7918  0.7838  0.3042
  917MPD2    H213428   2.314   1.243  11.272 -2.0147  0.9277 -2.5267
  917MPD2    H313429   2.295   1.378  11.088  1.0862 -2.6442 -0.1214
  917MPD2     N13430   2.536   1.720  11.272  0.6713 -0.3609  0.1922
  917MPD2    H513431   2.489   1.774  11.200 -0.8105  2.6285  3.3863
  917MPD2    N113432   2.457   1.295  11.505  0.5772 -0.0366  1.0829
  917MPD2    H713433   2.416   1.202  11.503  1.7674 -0.4702 -2.3678
  918MPD2     C13434   2.835   1.658  12.306 -0.3593  0.5208  0.0609
  918MPD2    C113435   2.918   1.576  12.233  0.4880  0.1519 -0.0695
  918MPD2    C213436   2.859   1.485  12.143 -0.6531 -0.2127 -0.0129
  918MPD2    C313437   2.724   1.467  12.148  0.1450  0.2494 -0.0861
  918MPD2    C413438   2.638   1.538  12.231  0.8156 -0.0995  0.2117
  918MPD2    C513439   2.697   1.648  12.294  0.2271  0.4565 -1.0506
  918MPD2     H13440   2.918   1.420  12.079  1.7494 -0.7877  2.8238
  918MPD2    H113441   2.530   1.521  12.233  0.7038  0.6326  0.4339
  918MPD2    H213442   2.857   1.739  12.375 -0.4162  0.9183 -0.3863
  918MPD2    H313443   2.629   1.720  12.339 -0.9291 -1.0501 -0.3722
  918MPD2     N13444   2.672   1.361  12.071  0.1786 -0.3036 -0.6679
  918MPD2    H513445   2.740   1.315  12.012  0.5971 -1.0117  0.3727
  918MPD2    N113446   3.061   1.581  12.238  0.2972  0.0193 -0.6275
  918MPD2    H713447   3.118   1.524  12.176 -0.8297  0.1987 -1.8243
  919MPD2     C13448   3.104   0.390  12.121 -0.3142 -0.0182 -0.0179
  919MPD2    C113449   3.189   0.332  12.023  0.1037  0.2091 -0.0481
  919MPD2    C213450   3.168   0.377  11.895  0.3871  0.2256  0.5707
  919MPD2    C313451   3.083   0.475  11.865 -0.3725 -0.1905 -1.0532
  919MPD2    C413452   3.008   0.540  11.962 -1.1126 -0.4762 -0.0075
  919MPD2    C513453   3.012   0.485  12.089  0.9600  0.0297 -0.3345
  919MPD2     H13454   3.235   0.340  11.819  1.5075  3.1295  0.1590
  919MPD2    H113455   2.932   0.614  11.937  0.4475  1.3592  0.6669
  919MPD2    H213456   3.095   0.371  12.228 -2.2576 -0.9424 -0.3372
  919MPD2    H313457   2.964   0.537  12.170  1.8862 -0.0705  0.2846
  919MPD2     N13458   3.075   0.523  11.728  0.2998  0.0787  0.1422
  919MPD2    H513459   3.013   0.601  11.711 -0.0198  0.0188  1.0023
  919MPD2    N113460   3.276   0.227  12.050  0.4587 -0.3916  0.0773
  919MPD2    H713461   3.336   0.205  11.972  0.5476  0.1215 -0.0045
  920MPD2     C13462   3.392   0.846  10.717  0.2561 -0.5642  0.1069
  920MPD2    C113463   3.263   0.793  10.716  0.4920 -0.2598  0.1755
  920MPD2    C213464   3.212   0.736  10.833 -0.0389  0.3427 -0.7350
  920MPD2    C313465   3.284   0.729  10.947 -0.5579  0.2282 -0.0849
  920MPD2    C413466   3.416   0.773  10.943 -0.4977 -0.0369  0.2790
  920MPD2    C513467   3.468   0.836  10.835  0.3530 -0.4202  0.1565
  920MPD2     H13468   3.109   0.704  10.827  0.0247 -0.6003  3.1406
  920MPD2    H113469   3.486   0.755  11.024 -2.7379 -0.3110  2.1965
  920MPD2    H213470   3.426   0.900  10.630 -2.5378  0.7772 -0.1379
  920MPD2    H313471   3.569   0.872  10.822 -0.2793  1.0293 -0.8244
  920MPD2     N13472   3.228   0.655  11.052  0.0303  0.0683 -0.2996
  920MPD2    H513473   3.139   0.610  11.035  0.1408 -0.7560  1.3159
  920MPD2    N113474   3.174   0.796  10.611 -0.2404 -0.6073 -1.2800
  920MPD2    H713475   3.082   0.761  10.633 -0.5077  0.5984 -0.4925
  921MPD2     C13476   4.519   4.310  16.652  0.2336  0.4626  0.3367
  921MPD2    C113477   4.564   4.176  16.652 -0.4349 -0.5544  0.4361
  921MPD2    C213478   4.477   4.076  16.612  0.3257  0.4744 -0.3866
  921MPD2    C313479   4.356   4.112  16.544 -0.8482 -0.2596 -0.2361
  921MPD2    C413480   4.320   4.244  16.547  0.4573  0.2410 -0.1671
  921MPD2    C513481   4.401   4.339  16.598  0.3238 -0.1323 -0.0887
  921MPD2     H13482   4.515   3.974  16.610 -0.7184  0.0572  1.6936
  921MPD2    H113483   4.233   4.281  16.495  1.1640  1.9641 -0.1112
  921MPD2    H213484   4.585   4.391  16.680 -0.0408  0.6110  0.5494
  921MPD2    H313485   4.359   4.437  16.583  2.0121  0.4049 -1.2908
  921MPD2     N13486   4.273   4.022  16.468  0.7288 -0.2145  0.4056
  921MPD2    H513487   4.187   4.066  16.438  0.1632 -1.0779  0.7564
  921MPD2    N113488   4.694   4.159  16.701  0.3213  0.3591 -0.0196
  921MPD2    H713489   0.032   4.240  16.697  1.1507 -0.4013 -3.0371
  922MPD2     C13490   0.612   1.881  17.135 -0.5560 -0.2916 -0.1858
  922MPD2    C113491   0.569   1.965  17.230 -0.8946 -0.9000 -0.1117
  922MPD2    C213492   0.473   1.927  17.325 -0.0884  0.3300  0.2479
  922MPD2    C313493   0.428   1.798  17.331 -0.0404  0.0693  0.3794
  922MPD2    C413494   0.468   1.715  17.233 -0.3310  0.5061 -0.1249
  922MPD2    C513495   0.552   1.757  17.136 -0.3072  0.1533  0.8004
  922MPD2     H13496   0.450   2.005  17.397 -0.4966 -1.1217  1.7077
  922MPD2    H113497   0.424   1.616  17.235  0.1411  0.3276  1.4056
  922MPD2    H213498   0.663   1.912  17.044 -2.1799  1.1162 -0.6222
  922MPD2    H313499   0.579   1.690  17.055  2.1551 -0.5999  2.2385
  922MPD2     N13500   0.352   1.754  17.444  0.6067 -0.0024 -0.1488
  922MPD2    H513501   0.312   1.827  17.503 -0.5957  0.5264 -1.6267
  922MPD2    N113502   0.617   2.096  17.245  0.0581  0.0658 -0.1515
  922MPD2    H713503   0.577   2.151  17.321 -1.0144 -1.5059  0.4172
  923MPD2     C13504   1.693   4.130   9.112  0.6764 -0.2141 -0.1973
  923MPD2    C113505   1.710   4.223   9.209  0.2705  0.7260 -0.4896
  923MPD2    C213506   1.793   4.204   9.317  0.2514 -0.0655  0.5097
  923MPD2    C313507   1.859   4.078   9.328  0.4924 -0.3792 -0.0337
  923MPD2    C413508   1.836   3.983   9.228  0.1752 -0.0049  0.7361
  923MPD2    C513509   1.757   4.012   9.118 -0.1274 -0.5528  0.3483
  923MPD2     H13510   1.801   4.274   9.399 -2.6092  0.1273  0.6040
  923MPD2    H113511   1.883   3.885   9.221  0.8014  0.4283 -1.2529
  923MPD2    H213512   1.630   4.149   9.026  0.2410 -4.7359 -0.8650
  923MPD2    H313513   1.746   3.934   9.044  1.2275  0.2554 -0.7114
  923MPD2     N13514   1.945   4.038   9.430  0.3492  0.5324  0.0134
  923MPD2    H513515   1.975   3.941   9.434  3.1701  1.4034 -0.6154
  923MPD2    N113516   1.631   4.346   9.205  0.0610  0.3575  0.4238
  923MPD2    H713517   1.556   4.349   9.137  0.7050  0.3074 -0.2844
  924MPD2     C13518   1.071   2.124  16.197  0.4393 -0.4613 -0.9665
  924MPD2    C113519   1.191   2.098  16.263 -0.2435  0.4864  0.3035
  924MPD2    C213520   1.277   1.996  16.222 -0.4995  0.1055  0.2702
  924MPD2    C313521   1.246   1.932  16.107  0.1865  0.2803 -0.5699
  924MPD2    C413522   1.146   1.974  16.026 -0.0395  0.5053  0.5635
  924MPD2    C513523   1.058   2.068  16.073 -0.6556 -0.1794  0.2193
  924MPD2     H13524   1.369   1.968  16.273  0.4067  0.4536 -1.1595
  924MPD2    H113525   1.136   1.941  15.923 -0.2051  1.1391  0.3815
  924MPD2    H213526   0.996   2.198  16.225 -0.2118 -1.3211 -0.4385
  924MPD2    H313527   0.978   2.099  16.006 -1.3506 -1.9690  0.2338
  924MPD2     N13528   1.332   1.844  16.041  0.2454  0.4677  0.3391
  924MPD2    H513529   1.317   1.838  15.941  0.0484 -0.4760  0.4250
  924MPD2    N113530   1.217   2.176  16.377 -0.0985  0.6091  0.3669
  924MPD2    H713531   1.163   2.260  16.392  1.0623  1.6898 -1.5681
  925MPD2     C13532   0.626   4.267  14.692  0.4362 -0.0212 -0.8357
  925MPD2    C113533   0.552   4.379  14.666 -0.5543 -0.2906 -0.1268
  925MPD2    C213534   0.538   4.476  14.769  0.2657 -0.1975  0.1716
  925MPD2    C313535   0.588   4.452  14.895  0.9325 -0.3417  0.3263
  925MPD2    C413536   0.659   4.336  14.915  0.0504 -0.0340  0.2616
  925MPD2    C513537   0.677   4.245  14.817  0.1568  1.0359 -0.1403
  925MPD2     H13538   0.492   4.565  14.727 -0.7562  0.0542  1.8247
  925MPD2    H113539   0.696   4.317  15.015 -0.4498  0.4183  0.5325
  925MPD2    H213540   0.658   4.193  14.619  1.4661  0.1933 -0.5954
  925MPD2    H313541   0.741   4.158  14.824 -1.3646 -0.2266 -1.8973
  925MPD2     N13542   0.584   4.543  15.004  0.3814  0.5469 -0.4096
  925MPD2    H513543   0.644   4.528  15.085 -0.5028  0.0011  0.1456
  925MPD2    N113544   0.500   4.414  14.538  0.3783  0.1116  0.3959
  925MPD2    H713545   0.454   4.501  14.513  1.6095  0.3929 -0.8977
  926MPD2     C13546   4.164   2.868  13.314 -0.4465 -0.1323 -0.5522
  926MPD2    C113547   4.067   2.963  13.282 -0.1787  0.4917 -0.5621
  926MPD2    C213548   4.062   3.005  13.147 -0.1492 -0.0990  0.3895
  926MPD2    C313549   4.152   2.941  13.051 -0.3515  0.0026 -0.4686
  926MPD2    C413550   4.235   2.838  13.092 -1.0984 -0.2120 -0.2644
  926MPD2    C513551   4.232   2.803  13.223 -0.1963  0.0122  0.0600
  926MPD2     H13552   3.999   3.089  13.120  0.3354  0.6244  1.4663
  926MPD2    H113553   4.298   2.783  13.023 -0.1455 -0.1913  0.5795
  926MPD2    H213554   4.176   2.827  13.414 -0.9275  3.0093  0.7716
  926MPD2    H313555   4.295   2.723  13.260 -1.1475 -0.1500  1.2941
  926MPD2     N13556   4.164   2.981  12.916  0.5427 -0.2477 -0.0907
  926MPD2    H513557   4.242   2.939  12.866  0.8137  1.1060 -0.7996
  926MPD2    N113558   3.992   3.032  13.381 -0.2419 -0.0661 -0.7697
  926MPD2    H713559   3.932   3.109  13.355  0.3525  0.6482 -0.0331
  927MPD2     C13560   3.328   0.911   0.288 -0.2387  0.4030 -0.0606
  927MPD2    C113561   3.369   1.009   0.198 -0.0063 -1.2732  0.4181
  927MPD2    C213562   3.463   0.973   0.102  0.4126  0.6967  0.0785
  927MPD2    C313563   3.504   0.838   0.092 -0.7416  0.2115 -0.1149
  927MPD2    C413564   3.460   0.746   0.180 -0.8324  0.8044  0.0188
  927MPD2    C513565   3.365   0.783   0.272  0.6850 -0.3732 -0.2402
  927MPD2     H13566   3.513   1.046   0.039  0.0949  0.8572  0.0149
  927MPD2    H113567   3.484   0.642   0.167  2.2403  1.2624  2.0820
  927MPD2    H213568   3.259   0.937   0.367 -2.0899  0.1617 -1.5935
  927MPD2    H313569   3.324   0.711   0.341  1.3307 -0.6611 -0.1559
  927MPD2     N13570   3.602   0.818  17.687  0.1025 -0.4043  0.1343
  927MPD2    H513571   3.617   0.899  17.627 -0.9329  0.4306  1.0061
  927MPD2    N113572   3.321   1.140   0.211 -0.0112 -0.2867 -0.1943
  927MPD2    H713573   3.245   1.169   0.271  0.6058 -1.0189  0.9523
  928MPD2     C13574   1.767   3.874   1.240 -0.3172  0.3707  0.3387
  928MPD2    C113575   1.862   3.945   1.301  0.3464  0.0343  0.0681
  928MPD2    C213576   1.991   3.949   1.255 -0.5398  0.5569  0.6671
  928MPD2    C313577   2.015   3.893   1.127  0.5070 -1.1651  0.5315
  928MPD2    C413578   1.915   3.831   1.059  0.9149  0.3059 -0.1252
  928MPD2    C513579   1.789   3.822   1.116  0.3378 -0.0910 -0.7072
  928MPD2     H13580   2.065   4.015   1.300 -0.0220  1.7985 -2.0175
  928MPD2    H113581   1.929   3.795   0.958  0.5395 -0.6358  0.1652
  928MPD2    H213582   1.667   3.861   1.279 -0.3128 -0.5750  0.0483
  928MPD2    H313583   1.711   3.776   1.057 -0.7827 -4.8098  4.4491
  928MPD2     N13584   2.131   3.920   1.049  0.1328  0.2374 -0.1505
  928MPD2    H513585   2.122   3.901   0.950 -2.3785 -0.8193  0.2783
  928MPD2    N113586   1.826   4.006   1.422  0.0890  0.1044  0.0695
  928MPD2    H713587   1.727   4.006   1.442  0.0132  1.6078 -0.3000
  929MPD2     C13588   1.878   4.124  10.475  0.8132  0.7688 -0.0125
  929MPD2    C113589   1.828   4.006  10.434 -0.0037 -0.1546 -0.1381
  929MPD2    C213590   1.737   4.006  10.328 -0.5385  0.5011 -0.2386
  929MPD2    C313591   1.703   4.122  10.255 -0.4099  0.1507  0.4442
  929MPD2    C413592   1.760   4.237  10.295 -0.3591  0.1387 -0.0157
  929MPD2    C513593   1.844   4.236  10.402  0.4911 -0.4113 -0.4701
  929MPD2     H13594   1.665   3.927  10.310 -0.6119  0.2102  1.3072
  929MPD2    H113595   1.732   4.333  10.253  2.7952  0.7288 -0.7674
  929MPD2    H213596   1.939   4.134  10.564 -1.4168 -2.4301  1.8933
  929MPD2    H313597   1.885   4.329  10.441  0.8020  0.2733 -2.4163
  929MPD2     N13598   1.601   4.128  10.157  0.4017 -0.8432 -0.3473
  929MPD2    H513599   1.564   4.216  10.121 -3.4961 -1.7245  1.5258
  929MPD2    N113600   1.839   3.895  10.526  0.7909  1.0102  0.0974
  929MPD2    H713601   1.880   3.903  10.618 -1.1489 -1.0097  1.1544
  930MPD2     C13602   3.711   1.006  14.498  0.1214 -1.0828 -0.0474
  930MPD2    C113603   3.600   1.046  14.424 -0.5444 -0.3652  0.0132
  930MPD2    C213604   3.494   0.954  14.399 -0.3116  0.1475 -0.2750
  930MPD2    C313605   3.496   0.828  14.453  0.2660  0.1544 -0.4183
  930MPD2    C413606   3.600   0.788  14.529  0.3283 -0.5433 -0.3499
  930MPD2    C513607   3.700   0.879  14.549 -0.0768 -0.6220 -0.8828
  930MPD2     H13608   3.411   0.977  14.333  1.0638 -0.3575 -2.1819
  930MPD2    H113609   3.607   0.687  14.566 -1.2981 -1.3217 -2.1588
  930MPD2    H213610   3.797   1.069  14.517 -0.5452 -0.6036  1.3875
  930MPD2    H313611   3.794   0.860  14.599 -0.1706 -0.9955 -0.8476
  930MPD2     N13612   3.405   0.731  14.421  0.2171 -0.8898  0.3554
  930MPD2    H513613   3.429   0.634  14.435  1.0818 -0.7009  0.1616
  930MPD2    N113614   3.600   1.179  14.379  0.4215 -0.0294 -0.3577
  930MPD2    H713615   3.687   1.230  14.393  0.2015  0.1837  0.2678
  931MPD2     C13616   3.222   1.495   0.822  0.0830 -0.2019 -0.1244
  931MPD2    C113617   3.312   1.448   0.732  0.1451  0.5204  0.1169
  931MPD2    C213618   3.399   1.347   0.773 -0.5237 -0.6688  0.4770
  931MPD2    C313619   3.400   1.300   0.903  0.1330  0.8094 -0.0988
  931MPD2    C413620   3.311   1.358   0.994  0.0101  0.4230  0.3899
  931MPD2    C513621   3.224   1.445   0.947  0.5073  0.3435 -0.0021
  931MPD2     H13622   3.472   1.305   0.705  1.3180 -0.2162  2.1728
  931MPD2    H113623   3.317   1.339   1.100  1.1129 -2.7001 -0.2317
  931MPD2    H213624   3.156   1.578   0.801  1.5435  0.4306 -2.3255
  931MPD2    H313625   3.161   1.495   1.020 -1.8197 -1.4089 -0.7938
  931MPD2     N13626   3.485   1.197   0.949  0.4283 -0.1860 -0.1250
  931MPD2    H513627   3.472   1.179   1.048 -3.1571  2.8880 -0.0138
  931MPD2    N113628   3.324   1.505   0.601  0.6433 -0.0591  0.0242
  931MPD2    H713629   3.253   1.574   0.578  2.2612  0.9307 -2.0723
  932MPD2     C13630   0.696   4.051  11.514  0.1675  0.1955  0.5106
  932MPD2    C113631   0.768   4.157  11.584 -0.0016  0.2889 -0.9644
  932MPD2    C213632   0.891   4.127  11.634  0.7811 -0.1742  0.3620
  932MPD2    C313633   0.936   3.994  11.640  0.6428  0.2818  0.5859
  932MPD2    C413634   0.860   3.893  11.590  1.2615  0.3317  0.3953
  932MPD2    C513635   0.747   3.926  11.524 -0.1328 -0.5436  0.8510
  932MPD2     H13636   0.960   4.203  11.668 -1.2603  2.5332 -1.5763
  932MPD2    H113637   0.884   3.788  11.604 -0.1088  0.0757  0.8107
  932MPD2    H213638   0.599   4.064  11.468  0.1853 -1.5834 -0.0166
  932MPD2    H313639   0.684   3.846  11.487 -1.9528 -0.1188  2.9754
  932MPD2     N13640   1.058   3.958  11.703  0.3092 -0.2397  0.2758
  932MPD2    H513641   1.086   3.861  11.706 -1.7971 -0.8140  1.0312
  932MPD2    N113642   0.720   4.287  11.583  0.6510  0.5316 -0.1120
  932MPD2    H713643   0.648   4.307  11.515  0.9349  1.4371 -0.1534
  933MPD2     C13644   1.254   4.045   1.619 -0.2061  0.2902 -0.3030
  933MPD2    C113645   1.313   4.165   1.642  0.4200 -0.1334  0.3959
  933MPD2    C213646   1.233   4.279   1.633  0.2487 -0.2829 -0.0112
  933MPD2    C313647   1.099   4.274   1.590  0.3985  0.1532  0.3017
  933MPD2    C413648   1.046   4.153   1.562  0.9179 -0.0786 -0.1399
  933MPD2    C513649   1.125   4.040   1.581 -0.2573  0.3495  0.5639
  933MPD2     H13650   1.280   4.375   1.651 -1.0672  0.5883 -1.2759
  933MPD2    H113651   0.947   4.136   1.522  1.4774 -0.7489 -1.2297
  933MPD2    H213652   1.317   3.957   1.623  0.0837  0.3186 -3.5995
  933MPD2    H313653   1.080   3.942   1.567  0.8941 -0.2145  0.8218
  933MPD2     N13654   1.031   4.399   1.572  0.0142  0.7258  0.1581
  933MPD2    H513655   1.085   4.484   1.587  1.0092  0.5287 -2.3601
  933MPD2    N113656   1.451   4.174   1.662 -0.0373  0.0694  0.1319
  933MPD2    H713657   1.499   4.086   1.646 -0.2516  0.0303 -0.3096
  934MPD2     C13658   2.836   1.986   1.832 -0.3111  0.0422 -0.3385
  934MPD2    C113659   2.695   1.989   1.828 -0.0859 -0.4448  0.0192
  934MPD2    C213660   2.625   1.890   1.758  0.3821 -0.7103 -0.1073
  934MPD2    C313661   2.689   1.779   1.711  0.1091 -0.4682  0.2478
  934MPD2    C413662   2.823   1.773   1.728  0.0116  0.5688  0.7214
  934MPD2    C513663   2.892   1.869   1.783  0.3413  0.3036  1.2954
  934MPD2     H13664   2.517   1.901   1.756  0.5936  1.2499 -0.3730
  934MPD2    H113665   2.876   1.683   1.699  0.1509  1.1408 -0.7837
  934MPD2    H213666   2.882   2.062   1.895  1.2956  0.2762 -1.8277
  934MPD2    H313667   2.998   1.850   1.793  0.1351 -0.5547  1.9303
  934MPD2     N13668   2.627   1.668   1.640 -0.3546 -0.1541 -0.5800
  934MPD2    H513669   2.683   1.604   1.584 -0.1738 -1.0704  0.6256
  934MPD2    N113670   2.620   2.106   1.861 -0.1009  0.4176 -0.0140
  934MPD2    H713671   2.520   2.100   1.842 -0.1517  0.9033  0.0817
  935MPD2     C13672   3.048   1.071   1.250  0.1659  0.9880  0.0400
  935MPD2    C113673   2.914   1.035   1.211 -0.8379  0.0280 -0.0580
  935MPD2    C213674   2.805   1.107   1.252  0.0682  0.3846 -0.4362
  935MPD2    C313675   2.822   1.213   1.335 -0.4708  0.4299 -0.0473
  935MPD2    C413676   2.950   1.243   1.377  0.5675 -0.3353 -0.0395
  935MPD2    C513677   3.062   1.183   1.328  0.2291 -0.1995 -0.0094
  935MPD2     H13678   2.709   1.066   1.222  0.1558 -0.5375  0.5538
  935MPD2    H113679   2.960   1.320   1.452  0.2187 -0.3124 -0.0163
  935MPD2    H213680   3.132   1.012   1.212 -1.1536 -1.5208  1.0257
  935MPD2    H313681   3.160   1.218   1.358  0.1845  1.0765 -1.3316
  935MPD2     N13682   2.714   1.286   1.388  0.0588 -0.0533 -0.1550
  935MPD2    H513683   2.734   1.356   1.458  1.4071 -0.2477 -0.3445
  935MPD2    N113684   2.891   0.919   1.128 -0.8445 -0.5499 -0.3563
  935MPD2    H713685   2.794   0.914   1.100 -0.7419  1.0317 -1.0202
  936MPD2     C13686   0.458   2.931  12.263 -0.0118 -1.0169  0.4689
  936MPD2    C113687   0.536   2.843  12.336 -0.0264  0.1886  0.6745
  936MPD2    C213688   0.669   2.850  12.318 -0.5728  0.6496  0.0385
  936MPD2    C313689   0.719   2.924  12.211  0.7338 -0.6585 -0.2292
  936MPD2    C413690   0.640   3.003  12.130 -0.0037  0.1414 -0.4227
  936MPD2    C513691   0.507   3.016  12.167 -0.6340 -0.0096 -0.1869
  936MPD2     H13692   0.731   2.797  12.389  0.0678  2.3383  0.7534
  936MPD2    H113693   0.682   3.071  12.056 -0.9043 -0.4699 -1.5050
  936MPD2    H213694   0.350   2.925  12.274 -0.0258 -1.3697  0.1509
  936MPD2    H313695   0.438   3.079  12.114 -0.8508 -0.8161 -0.8596
  936MPD2     N13696   0.863   2.918  12.205  0.9371  0.3047  0.2820
  936MPD2    H513697   0.904   2.851  12.269 -1.5080 -0.8318  0.6697
  936MPD2    N113698   0.482   2.776  12.447  0.8690  0.1991 -0.0512
  936MPD2    H713699   0.548   2.714  12.494  1.2131  1.6040  1.3128
  937MPD2     C13700   3.709   4.480  11.735 -0.3086  0.4853  0.4515
  937MPD2    C113701   3.618   4.582  11.735  0.1672  0.4635  0.4470
  937MPD2    C213702   3.623   4.688  11.653  0.2744 -0.1016 -0.5282
  937MPD2    C313703   3.707   4.672  11.550  0.2427 -0.1630 -0.1076
  937MPD2    C413704   3.792   4.562  11.536 -0.4672  0.3342  0.1386
  937MPD2    C513705   3.792   4.464  11.633  0.3389 -0.3014 -0.0037
  937MPD2     H13706   3.573   0.057  11.678 -0.5751 -0.9257  0.7953
  937MPD2    H113707   3.869   4.553  11.460 -0.8643 -1.1194 -0.0942
  937MPD2    H213708   3.724   4.405  11.812  3.5768  0.1775 -0.6016
  937MPD2    H313709   3.867   4.385  11.636  1.7504  1.0050 -0.8998
  937MPD2     N13710   3.724   0.050  11.450  0.1161 -0.2638  0.6798
  937MPD2    H513711   3.681   0.140  11.469  1.4417  0.1717  1.5768
  937MPD2    N113712   3.523   4.594  11.837 -0.1910  0.4047 -0.2926
  937MPD2    H713713   3.458   4.672  11.837  0.2339  0.7535 -0.3318
  938MPD2     C13714   1.326   1.017   0.665  0.2462  0.5347  0.3060
  938MPD2    C113715   1.422   1.009   0.765  0.7049 -0.5935 -0.2405
  938MPD2    C213716   1.395   0.938   0.881 -0.6070  0.7730 -0.1647
  938MPD2    C313717   1.277   0.872   0.902 -0.0628 -0.1794  0.0303
  938MPD2    C413718   1.187   0.877   0.799  0.2110 -0.2237  0.5831
  938MPD2    C513719   1.208   0.948   0.682  0.2835 -0.2323  0.2553
  938MPD2     H13720   1.473   0.949   0.955  0.0034  0.5878 -0.7746
  938MPD2    H113721   1.094   0.825   0.814 -0.9119  1.0898 -1.8589
  938MPD2    H213722   1.328   1.077   0.575  2.8559  0.6028  0.3882
  938MPD2    H313723   1.132   0.955   0.606 -0.2624  0.9691  0.9084
  938MPD2     N13724   1.258   0.789   1.021 -0.2252  0.0397 -0.5612
  938MPD2    H513725   1.160   0.766   1.035 -0.3530  0.5567 -0.5805
  938MPD2    N113726   1.544   1.080   0.765 -0.0811  0.1630  0.1193
  938MPD2    H713727   1.603   1.062   0.846  0.9627 -0.6637 -0.8299
  939MPD2     C13728   2.704   2.764   0.606  0.0733 -0.3096 -0.1815
  939MPD2    C113729   2.832   2.733   0.639 -0.4660 -0.5697 -0.3410
  939MPD2    C213730   2.924   2.703   0.547 -0.7003 -0.3552  0.0036
  939MPD2    C313731   2.882   2.710   0.413 -1.1488  0.1146 -0.1231
  939MPD2    C413732   2.755   2.737   0.379 -0.0160  0.1514 -0.1744
  939MPD2    C513733   2.660   2.759   0.475 -0.3961  0.4144  1.1424
  939MPD2     H13734   3.026   2.668   0.564 -1.0124 -1.8456 -1.1903
  939MPD2    H113735   2.721   2.730   0.277 -0.6268 -2.8888  0.2428
  939MPD2    H213736   2.636   2.784   0.688 -1.3248 -0.2809 -1.3552
  939MPD2    H313737   2.559   2.791   0.453 -0.5491 -0.8864 -0.0798
  939MPD2     N13738   2.987   2.681   0.320  0.3759  0.1416  0.0110
  939MPD2    H513739   3.079   2.649   0.350  0.2837  0.5785  0.7633
  939MPD2    N113740   2.856   2.742   0.780  0.2213 -0.4813  0.2049
  939MPD2    H713741   2.778   2.755   0.844 -0.8363  1.7010 -1.5215
  940MPD2     C13742   1.795   2.920  12.961 -0.2079  0.0559 -0.1536
  940MPD2    C113743   1.725   2.815  13.026 -0.2064  0.1394 -0.0492
  940MPD2    C213744   1.662   2.718  12.950 -0.4900  0.3880  0.3936
  940MPD2    C313745   1.661   2.717  12.812  0.2939 -0.0757  0.2989
  940MPD2    C413746   1.722   2.822  12.753  0.2138 -0.2272 -0.7572
  940MPD2    C513747   1.787   2.922  12.826  0.3993 -0.0033 -0.7152
  940MPD2     H13748   1.609   2.645  13.010 -0.4802 -0.3328 -0.4895
  940MPD2    H113749   1.718   2.841  12.647  2.0879  1.8209 -0.4573
  940MPD2    H213750   1.838   3.006  13.010  0.9870 -0.2424 -0.6938
  940MPD2    H313751   1.820   3.011  12.776 -0.0701 -0.1768 -1.3335
  940MPD2     N13752   1.588   2.633  12.727 -0.0171 -0.3522 -0.7574
  940MPD2    H513753   1.609   2.636  12.628  0.6699 -1.5317 -0.6378
  940MPD2    N113754   1.708   2.799  13.166  0.6684 -0.0829 -0.0467
  940MPD2    H713755   1.660   2.715  13.198 -1.2271  1.1957  0.5325
  941MPD2     C13756   1.461   1.985   9.314 -0.2835 -0.0568 -0.1757
  941MPD2    C113757   1.448   1.958   9.450 -0.5899  0.3775  0.2805
  941MPD2    C213758   1.338   1.877   9.495  0.1558  0.3876  0.5879
  941MPD2    C313759   1.256   1.823   9.397 -0.4609  0.6168  0.6011
  941MPD2    C413760   1.275   1.859   9.264 -0.0358 -0.0563 -0.2888
  941MPD2    C513761   1.373   1.938   9.222 -0.0115  0.1935  0.1435
  941MPD2     H13762   1.326   1.864   9.602  0.7877 -0.3426  0.5678
  941MPD2    H113763   1.217   1.812   9.185 -2.1293  0.0158  1.2265
  941MPD2    H213764   1.545   2.039   9.273 -0.4020  0.9126  0.8492
  941MPD2    H313765   1.398   1.947   9.117 -1.1323  2.9187  0.1038
  941MPD2     N13766   1.152   1.738   9.434 -0.4036 -0.0487 -0.0514
  941MPD2    H513767   1.080   1.722   9.365 -1.6617  0.8083  1.0492
  941MPD2    N113768   1.543   2.010   9.544 -0.4392  0.4336 -0.6667
  941MPD2    H713769   1.531   1.979   9.640  0.0078 -1.8511 -1.3558
  942MPD2     C13770   1.360   3.339   8.841 -0.1149  0.4464  0.3558
  942MPD2    C113771   1.274   3.446   8.846  0.2942  0.1426 -0.0824
  942MPD2    C213772   1.293   3.549   8.940 -0.1065 -0.2787  0.4071
  942MPD2    C313773   1.395   3.549   9.030  0.0439  0.1343 -0.2269
  942MPD2    C413774   1.491   3.450   9.014  0.4662  0.2568  0.5489
  942MPD2    C513775   1.458   3.346   8.925  0.5076 -0.0717  0.3693
  942MPD2     H13776   1.212   3.620   8.948  1.0502  1.0032  0.7660
  942MPD2    H113777   1.588   3.452   9.062  0.4716  2.3794  0.4287
  942MPD2    H213778   1.349   3.256   8.772  0.1690  0.6607  0.0479
  942MPD2    H313779   1.543   3.279   8.915  0.1735 -0.3261 -0.8091
  942MPD2     N13780   1.412   3.661   9.123 -0.2212  0.8562 -0.7500
  942MPD2    H513781   1.334   3.726   9.122  0.8892  2.1878 -0.3872
  942MPD2    N113782   1.156   3.446   8.773  0.0183  0.3324  0.0047
  942MPD2    H713783   1.099   3.529   8.787  1.9290  1.6611 -0.2559
  943MPD2     C13784   4.529   2.184  10.033  0.0711  0.2454 -0.1259
  943MPD2    C113785   4.402   2.138  10.058  0.2996  0.1784  0.7516
  943MPD2    C213786   4.357   2.144  10.184  0.1298 -0.0116  0.2835
  943MPD2    C313787   4.424   2.203  10.292  1.0748  0.3200  0.3979
  943MPD2    C413788   4.551   2.248  10.263 -0.0015 -0.0081  0.2254
  943MPD2    C513789   4.604   2.234  10.134 -0.1497 -0.0051 -0.1083
  943MPD2     H13790   4.262   2.096  10.206 -0.2067  0.9096  0.8248
  943MPD2    H113791   4.612   2.287  10.344 -0.0074  0.4518  0.0075
  943MPD2    H213792   4.578   2.172   9.937  2.5539  0.1211  1.1526
  943MPD2    H313793   4.708   2.261  10.121 -0.3114  0.4635 -0.4246
  943MPD2     N13794   4.380   2.206  10.426 -0.1903  0.3214 -0.5611
  943MPD2    H513795   4.434   2.260  10.493  0.4693 -1.7021  0.5190
  943MPD2    N113796   4.324   2.078   9.952  0.4705  0.1713 -0.5222
  943MPD2    H713797   4.379   2.063   9.868  0.2665  1.5759 -0.9197
  944MPD2     C13798   3.573   1.195  10.748  0.4797 -0.3688  0.5960
  944MPD2    C113799   3.702   1.244  10.736 -0.6990 -0.7850 -0.6953
  944MPD2    C213800   3.766   1.298  10.845 -0.1108  0.2731 -0.1978
  944MPD2    C313801   3.698   1.294  10.967 -0.2706 -0.2022 -0.9721
  944MPD2    C413802   3.577   1.236  10.975  0.2895  0.7207  0.7335
  944MPD2    C513803   3.510   1.192  10.866 -0.5152  0.4412 -0.5442
  944MPD2     H13804   3.861   1.351  10.838 -1.2019  2.5351  1.8792
  944MPD2    H113805   3.530   1.236  11.073 -2.6661 -1.6438 -0.6817
  944MPD2    H213806   3.532   1.143  10.662  0.5175 -1.5990  1.3197
  944MPD2    H313807   3.407   1.160  10.873 -0.1069 -0.5070  0.9653
  944MPD2     N13808   3.765   1.352  11.075 -0.1338  0.3072 -0.6341
  944MPD2    H513809   3.852   1.402  11.058  0.6044 -0.4146  1.0045
  944MPD2    N113810   3.761   1.236  10.611  0.7817 -0.0552 -0.0033
  944MPD2    H713811   3.707   1.184  10.542  0.5204  0.6482 -0.3355
    1TCq1    O113812   2.051   2.056  15.619 -0.2041 -0.0082  0.1638
    1TCq1    C113813   2.136   2.023  15.519 -0.4436  0.2837  0.5384
    1TCq1    O213814   2.229   1.945  15.526  0.0108  0.5150  0.4664
    1TCq1    C213815   2.107   2.114  15.407  0.0641 -0.6341 -0.2124
    1TCq1    C313816   2.220   2.144  15.335  0.0031  0.0285 -0.4106
    1TCq1    C413817   2.199   2.214  15.219  0.5760  0.1505 -0.1095
    1TCq1    C513818   2.075   2.247  15.177  0.5096 -0.2385 -0.8088
    1TCq1    C613819   1.965   2.198  15.247 -0.8099 -0.1832  0.0664
    1TCq1    C713820   1.978   2.135  15.368  0.9948 -0.2818 -0.0008
    1TCq1    C813821   1.828   2.228  15.210  0.5992 -0.1123 -0.2582
    1TCq1    O413822   1.738   2.170  15.267 -0.2174 -0.3602 -0.4108
    1TCq1    C913823   2.312   2.254  15.145 -0.6040  0.9040 -1.3029
    1TCq1    O513824   2.286   2.329  15.046  1.0735  0.2821  0.9105
    1TCq1    O613825   2.427   2.232  15.192  0.4000 -0.0458 -0.0208
    1TCq1    H113826   1.992   2.133  15.604 -0.5474 -0.2967  0.0420
    1TCq1    H213827   2.321   2.107  15.349 -0.7405 -1.3385  1.2779
    1TCq1    H313828   2.063   2.312  15.090 -2.4089 -0.3320 -0.4740
    1TCq1    H413829   1.896   2.092  15.424 -0.0146  0.6754 -0.7314
    2MPD2     C13830   1.511   2.573  15.018  0.6324  0.4565  0.1089
    2MPD2    C113831   1.635   2.622  15.009 -0.1049 -0.1676  0.5658
    2MPD2    C213832   1.744   2.545  15.041 -0.2591 -0.2581 -1.0615
    2MPD2    C313833   1.717   2.420  15.095  0.4911 -0.1694  0.4508
    2MPD2    C413834   1.589   2.369  15.093  0.6001  0.5324  0.2139
    2MPD2    C513835   1.486   2.446  15.072 -0.3826 -0.1593 -0.2838
    2MPD2     H13836   1.846   2.582  15.038 -0.5333  0.5717 -0.1847
    2MPD2    H113837   1.574   2.270  15.133  1.6371  0.2597 -0.0897
    2MPD2    H213838   1.429   2.641  15.001 -2.4033 -3.5439 -1.1091
    2MPD2    H313839   1.386   2.405  15.081 -0.6760  0.2020 -1.8940
    2MPD2     N13840   1.826   2.344  15.135  0.0988 -0.2515  0.3736
    2MPD2    H513841   1.915   2.386  15.109  0.2407 -1.1364 -0.6076
    2MPD2    N113842   1.642   2.751  14.952  0.0849 -0.1361 -0.1410
    2MPD2    H713843   1.553   2.800  14.948 -0.3603 -0.7244  2.4682
    3TMC2    C113844   1.730   2.966  14.888  0.0581 -0.4159  0.0381
    3TMC2    C213845   1.632   3.029  14.964  0.8804  0.0593 -0.2021
    3TMC2    C313846   1.660   3.154  15.004  0.3028 -0.0227  0.1940
    3TMC2    C413847   1.840   3.035  14.836 -0.0358  0.5932 -0.0395
    3TMC2    C513848   1.852   3.170  14.868  0.1895 -0.0458  0.2414
    3TMC2    C613849   1.766   3.229  14.955 -0.3842  0.1464 -0.0167
    3TMC2     C13850   1.752   2.821  14.906  0.0290 -0.1648  0.4103
    3TMC2     O13851   1.866   2.777  14.880  0.5614  0.9216  0.2787
    3TMC2     H13852   1.548   2.970  14.999  2.1150 -1.6048 -0.1000
    3TMC2    H113853   1.917   2.986  14.779 -2.1813 -0.8326 -1.7323
    3TMC2    H213854   1.775   3.336  14.972  1.0086  0.1953 -1.0862
    3TMC2    C713855   1.948   3.262  14.802  0.5798  0.0178  0.1259
    3TMC2    C813856   1.580   3.202  15.111  0.2748  0.6497  0.2140
    3TMC2    O113857   1.975   3.376  14.846 -0.2071  0.2694 -0.1393
    3TMC2    O213858   1.493   3.125  15.152 -0.4424 -0.2709 -0.4249
    3TMC2    O513859   1.676   3.265  15.187  0.3809 -0.1083 -0.4118
    3TMC2    H513860   1.657   3.265  15.283  3.3259 -1.4862  0.1699
    4MPD2     C13861   1.341   3.041  13.629 -0.2466  0.0941 -0.3159
    4MPD2    C113862   1.429   3.121  13.553 -0.2704 -0.4140 -0.2809
    4MPD2    C213863   1.541   3.186  13.601  0.6076  0.1419 -0.1461
    4MPD2    C313864   1.581   3.153  13.733 -0.6258  0.0012 -0.7312
    4MPD2    C413865   1.502   3.060  13.807  0.3081 -0.3208 -0.1812
    4MPD2    C513866   1.379   3.016  13.762 -0.3109 -0.3440  0.2234
    4MPD2     H13867   1.599   3.252  13.539  1.4059  0.0649  0.5201
    4MPD2    H113868   1.530   3.032  13.908  0.9599  0.4488 -0.1531
    4MPD2    H213869   1.253   2.997  13.584 -0.4740 -0.6122  0.8390
    4MPD2    H313870   1.311   2.956  13.822  1.3996 -1.1807  1.3309
    4MPD2     N13871   1.703   3.193  13.797 -1.1407 -0.0124  0.4420
    4MPD2    H513872   1.716   3.169  13.895 -2.1127 -0.6075  0.4354
    4MPD2    N113873   1.387   3.133  13.420  0.4780  0.1843  0.2382
    4MPD2    H713874   1.301   3.085  13.399  1.5507 -1.0804 -1.3477
    5TCq2    C113875   1.807   3.265  13.733  0.0330  0.6934  0.0641
    5TCq2    O213876   1.795   3.328  13.630  0.5951  0.3976 -0.4126
    5TCq2    C213877   1.921   3.304  13.823 -0.5061 -0.5470  0.3071
    5TCq2    C313878   2.010   3.402  13.784 -0.5475  0.6872  0.3049
    5TCq2    C413879   2.127   3.420  13.856 -0.4254 -0.1318 -0.0613
    5TCq2    C513880   2.153   3.352  13.974 -0.3194  0.3589 -0.5684
    5TCq2    C613881   2.050   3.272  14.021 -0.0147 -0.2695  0.5258
    5TCq2    C713882   1.937   3.248  13.947  0.1154  0.0779 -0.3646
    5TCq2    C813883   2.028   3.264  14.163 -0.2550  0.8447 -0.4856
    5TCq2    O413884   1.932   3.210  14.214  0.0660  0.3109  0.4130
    5TCq2    C913885   2.220   3.522  13.818 -0.0887 -0.1194  0.1240
    5TCq2    O513886   2.184   3.593  13.718 -0.3764  0.1716 -0.0704
    5TCq2    O613887   2.302   3.555  13.907 -0.5823  0.2835 -0.0448
    5TCq2    H213888   1.994   3.458  13.693  1.2684  0.7604  0.0402
    5TCq2    H313889   2.246   3.376  14.023 -0.3406  1.7950 -1.2540
    5TCq2    H413890   1.867   3.177  13.989  1.9228 -1.4763  0.0643
    6MPD1     C13891   0.473   0.032  13.297 -0.1564  0.6838 -0.4424
    6MPD1    C113892   0.536   0.018  13.174 -0.8284 -0.0123  0.6797
    6MPD1    C213893   0.645   4.654  13.168 -0.0987  0.0678 -0.8730
    6MPD1    C313894   0.697   4.588  13.282 -0.0277 -0.2244  0.3415
    6MPD1    C413895   0.641   4.614  13.409  0.7874 -0.0807 -0.6842
    6MPD1    C513896   0.527   4.696  13.411 -0.2970  0.4864 -0.6122
    6MPD1     H13897   0.689   4.626  13.073  1.0858  1.1530 -0.6394
    6MPD1    H113898   0.682   4.572  13.500  1.7546  2.7394  0.1548
    6MPD1    H213899   0.379   0.086  13.303 -0.1893  0.4076  1.5384
    6MPD1    H313900   0.477   4.720  13.504 -0.0760  1.6331 -0.7841
    6MPD1     N13901   0.803   4.494  13.275 -0.0122  0.3072  0.0421
    6MPD1    H513902   0.846   4.468  13.364  1.5043 -0.1195 -0.8194
    6MPD1    N113903   0.477   0.072  13.057 -0.1045 -0.7744  0.0538
    6MPD1    H613904   0.545   0.123  13.001  0.7392  0.3317  2.0532
    6MPD1    H713905   0.393   0.129  13.071  0.0347 -0.1390 -1.7492
    7MPD2     C13906   1.083   3.780  13.536 -0.3334  0.0949 -0.1335
    7MPD2    C113907   1.027   3.788  13.405 -0.3159  0.6725  0.7004
    7MPD2    C213908   1.033   3.669  13.325 -0.7437  1.4204 -0.1852
    7MPD2    C313909   1.099   3.554  13.371  0.0590  0.0294  0.6475
    7MPD2    C413910   1.148   3.548  13.500 -0.0190  0.2519 -0.2824
    7MPD2    C513911   1.136   3.662  13.580 -0.5882  0.0612  0.0069
    7MPD2     H13912   0.986   3.661  13.227 -0.0320  1.2115 -0.5073
    7MPD2    H113913   1.190   3.458  13.544 -2.7248 -1.1482 -0.5905
    7MPD2    H213914   1.087   3.862  13.607 -1.9501  0.9322 -1.0133
    7MPD2    H313915   1.164   3.667  13.684 -1.9651 -1.7822  0.4651
    7MPD2     N13916   1.132   3.445  13.285 -0.4093 -0.2901  0.3702
    7MPD2    H513917   1.194   3.375  13.325  1.8015 -0.1918 -2.9204
    7MPD2    N113918   0.992   3.907  13.346 -0.5661 -0.5872  0.8167
    7MPD2    H713919   0.961   3.901  13.249  2.5612 -0.8262 -0.1537
    8TMC3    C113920   1.153   3.299  13.104  0.2393 -0.5267  0.2719
    8TMC3    C213921   1.220   3.223  13.201 -0.0607  0.5078 -0.6818
    8TMC3    C313922   1.352   3.204  13.186 -0.0869 -0.9974  0.3394
    8TMC3    C413923   1.207   3.325  12.987 -0.0491  0.3766  0.9460
    8TMC3    C513924   1.344   3.319  12.977 -1.0862  0.2818 -0.2300
    8TMC3    C613925   1.416   3.269  13.083 -0.0458 -0.3387 -0.1194
    8TMC3     C13926   1.096   3.425  13.155  0.6382  0.1716  0.3703
    8TMC3     O13927   1.068   3.514  13.074  0.2373  0.7064 -0.0374
    8TMC3     H13928   1.167   3.180  13.286 -2.8661  0.8139 -2.2605
    8TMC3    H113929   1.151   3.380  12.912 -0.5733 -0.0697  1.0049
    8TMC3    H213930   1.524   3.275  13.076  0.0102  0.2742  1.3756
    8TMC3    C713931   1.404   3.440  12.913  0.5690  0.0031  0.9548
    8TMC3    C813932   1.438   3.199  13.313 -0.2722  0.9800 -0.2812
    8TMC3    O113933   1.522   3.439  12.890 -0.0461  0.6905  0.1562
    8TMC3    O213934   1.546   3.256  13.314 -0.0486 -0.3396  0.0853
    9TMC3    C113935   0.958   4.335  13.187 -0.0481 -0.2252 -0.3544
    9TMC3    C213936   1.038   4.303  13.075  0.6719 -0.1656 -0.6165
    9TMC3    C313937   1.087   4.177  13.074 -0.0707  0.5962  0.1900
    9TMC3    C413938   0.945   4.264  13.300  0.3273  0.6595 -0.2939
    9TMC3    C513939   0.996   4.139  13.286  0.5380  0.1879  0.3238
    9TMC3    C613940   1.069   4.091  13.181  0.9065  0.0312 -0.5034
    9TMC3     C13941   0.869   4.446  13.165 -1.2014 -0.3863 -0.2600
    9TMC3     O13942   0.866   4.487  13.050  0.7037  0.0733  0.5713
    9TMC3     H13943   1.025   4.344  12.975  0.5208  2.1213  0.3464
    9TMC3    H113944   0.883   4.293  13.384  1.5312  2.5914 -0.0752
    9TMC3    H213945   1.136   4.007  13.201 -1.9229 -1.7308  1.4603
    9TMC3    C713946   0.997   4.035  13.396 -0.0340 -1.1940 -0.3891
    9TMC3    C813947   1.185   4.140  12.972  0.4011 -0.2969  0.2763
    9TMC3    O113948   1.051   4.077  13.501 -0.0063  0.0478 -0.2476
    9TMC3    O213949   1.225   4.221  12.894 -1.0645 -0.3104 -0.3054
   10MPD2     C13950   1.485   3.724  12.844  0.4130  0.0441  0.5086
   10MPD2    C113951   1.367   3.683  12.906 -0.1911 -0.0957  0.4614
   10MPD2    C213952   1.280   3.785  12.943  0.0937  0.5436  0.1453
   10MPD2    C313953   1.306   3.920  12.931 -0.2851 -0.2380  0.3777
   10MPD2    C413954   1.428   3.961  12.867 -0.2941  0.3176  0.2012
   10MPD2    C513955   1.508   3.861  12.820 -0.6591 -0.0892 -0.2000
   10MPD2     H13956   1.189   3.758  12.996 -0.0099 -1.9695 -1.3232
   10MPD2    H113957   1.455   4.065  12.854 -1.0822  0.3709 -0.9586
   10MPD2    H213958   1.556   3.656  12.799 -1.6366 -0.5171 -1.8459
   10MPD2    H313959   1.595   3.890  12.762 -0.1421  0.0108  0.6168
   10MPD2     N13960   1.199   4.000  12.976  0.2307  0.2259 -0.8644
   10MPD2    H513961   1.129   3.951  13.032 -0.4629  0.5631 -1.4366
   10MPD2    N113962   1.326   3.553  12.938  0.3114 -0.4133  0.6509
   10MPD2    H713963   1.231   3.538  12.972 -0.7099 -0.6598 -2.3306
   11MPD2     C13964   2.178   3.358  14.650 -0.2371 -0.8493  0.0334
   11MPD2    C113965   2.077   3.282  14.595 -0.3987 -0.2243  0.7462
   11MPD2    C213966   2.060   3.259  14.462 -0.2125 -0.3508  0.6477
   11MPD2    C313967   2.137   3.329  14.372 -0.1718  0.2586  0.3264
   11MPD2    C413968   2.238   3.403  14.421 -0.2077  0.2846  0.3570
   11MPD2    C513969   2.260   3.413  14.558  0.0603  0.7985  0.2710
   11MPD2     H13970   1.980   3.191  14.436 -0.0569 -1.0341  1.9388
   11MPD2    H113971   2.313   3.451  14.360  0.7806 -0.3774  1.0440
   11MPD2    H213972   2.198   3.355  14.756 -0.1703 -2.3931 -0.0150
   11MPD2    H313973   2.347   3.460  14.602  0.0061 -0.3807  1.6660
   11MPD2     N13974   2.130   3.328  14.231  0.6652 -0.5062 -0.2899
   11MPD2    H513975   2.209   3.372  14.186  0.0837  0.7329 -0.1200
   11MPD2    N113976   1.987   3.213  14.680 -0.1683  0.5085  0.2233
   11MPD2    H713977   1.932   3.138  14.638  2.2705 -0.3253 -1.4443
    1MPD1     C13978   4.434   4.226  17.361  0.0088  0.2591 -0.1840
    1MPD1    C113979   4.477   4.152  17.253  1.2123 -1.2583 -0.0934
    1MPD1    C213980   4.610   4.166  17.226  0.8079 -0.5096  0.6972
    1MPD1    C313981   4.686   4.266  17.281 -0.2149 -0.2509 -0.4185
    1MPD1    C413982   4.638   4.357  17.376 -0.6808 -0.5801 -0.0798
    1MPD1    C513983   4.509   4.332  17.412  0.0650  0.7821 -0.2284
    1MPD1     H13984   4.645   4.097  17.150  1.6046  0.7424 -0.0698
    1MPD1    H113985   4.701   4.441  17.404 -0.3467 -1.5170  1.9484
    1MPD1    H213986   4.337   4.214  17.408  0.1445 -2.1007 -0.5252
    1MPD1    H313987   4.460   4.390  17.489 -0.0168 -2.6388  2.3100
    1MPD1     N13988   0.093   4.298  17.234 -0.0371  0.5939 -0.3826
    1MPD1    H513989   0.134   4.376  17.284  0.7039 -1.2532  1.9128
    1MPD1    N113990   4.397   4.038  17.212  0.3672  0.3135  0.2099
    1MPD1    H613991   4.298   4.056  17.197 -0.0737 -2.6055 -0.3468
    1MPD1    H713992   4.437   3.988  17.133 -1.3683 -1.2405  0.3011
    2MPD1     C13993   0.944   0.082  17.412 -0.3490 -0.7657  0.2242
    2MPD1    C113994   0.967   4.722  17.304  0.4869 -0.0996  0.3641
    2MPD1    C213995   0.870   4.639  17.251  0.1249 -0.5848 -0.1549
    2MPD1    C313996   0.751   4.622  17.311  0.8451 -0.2806  0.0023
    2MPD1    C413997   0.730   4.691  17.427 -0.2537 -0.0528  0.2364
    2MPD1    C513998   0.822   0.061  17.475  0.3447  0.1313  0.5289
    2MPD1     H13999   0.911   4.578  17.171 -0.5567 -0.3212 -0.6957
    2MPD1    H114000   0.634   4.680  17.477  0.5758  0.2995  1.9128
    2MPD1    H214001   1.023   0.145  17.452 -0.2298 -2.3301  2.4161
    2MPD1    H314002   0.791   0.134  17.550 -0.6387  1.6245 -1.3303
    2MPD1     N14003   0.671   4.531  17.245 -0.2445 -0.1671 -0.0658
    2MPD1    H514004   0.705   4.501  17.155 -1.1223 -0.4581 -0.3071
    2MPD1    N114005   1.076   0.025  17.219  0.1608  0.4153  0.7994
    2MPD1    H614006   1.157   0.057  17.271 -1.7181  1.5345  3.0420
    2MPD1    H714007   1.099   4.674  17.153 -0.0805  0.9831  0.0717
    3TMC3    C114008   0.472   4.427  17.183  0.4861 -0.1140  0.5897
    3TMC3    C214009   0.513   4.445  17.057  0.1031 -0.0939 -0.9054
    3TMC3    C314010   0.430   4.384  16.964  0.2675  0.2568 -0.6474
    3TMC3    C414011   0.365   4.349  17.223  0.2198  0.0848 -0.0163
    3TMC3    C514012   0.299   4.274  17.127 -0.0569 -0.7924 -0.2654
    3TMC3    C614013   0.333   4.289  16.997 -0.1854 -0.3042 -0.1795
    3TMC3     C14014   0.552   4.484  17.287 -0.3300 -0.2367  1.0243
    3TMC3     O14015   0.484   4.501  17.387 -0.3887  0.2359  0.3058
    3TMC3     H14016   0.588   4.516  17.024  1.6465 -1.1202  0.4481
    3TMC3    H114017   0.347   4.337  17.329 -1.1487  1.0173 -0.1358
    3TMC3    H214018   0.302   4.219  16.920  1.1509 -0.6151 -0.4458
    3TMC3    C714019   0.169   4.220  17.152  0.2923 -0.8929 -0.4964
    3TMC3    C814020   0.488   4.378  16.833 -0.7652 -0.0949 -1.2843
    3TMC3    O114021   0.143   4.121  17.090 -0.2336  0.2336 -0.7422
    3TMC3    O214022   0.608   4.400  16.821 -0.5809 -0.6434  0.0226
    4MPD1     C14023   0.487   4.313  16.325  0.4840  0.4123  0.1814
    4MPD1    C114024   0.363   4.303  16.371  0.4912  0.0308 -0.3477
    4MPD1    C214025   0.340   4.303  16.509  0.4641  0.3217  0.0594
    4MPD1    C314026   0.440   4.345  16.593  0.1531 -0.4529  0.7042
    4MPD1    C414027   0.566   4.374  16.546 -0.7938 -0.4987  0.1205
    4MPD1    C514028   0.591   4.350  16.412 -0.8873  0.2632  0.5920
    4MPD1     H14029   0.243   4.287  16.554 -0.0184  0.8360 -0.8140
    4MPD1    H114030   0.656   4.378  16.606 -0.8373 -0.2432  0.1669
    4MPD1    H214031   0.499   4.316  16.217 -0.7138  0.4125  0.0474
    4MPD1    H314032   0.690   4.368  16.372 -1.2402  0.0392 -0.3946
    4MPD1     N14033   0.400   4.349  16.731 -0.3985 -0.1166 -0.0634
    4MPD1    H514034   0.301   4.332  16.741 -0.7997  1.2999 -1.6702
    4MPD1    N114035   0.251   4.296  16.284 -0.8089 -0.3042 -0.3411
    4MPD1    H614036   0.166   4.252  16.318  0.1875 -2.7557 -1.0520
    4MPD1    H714037   0.272   4.250  16.196 -2.4973  1.4365 -1.6453
    1TCq1    O114038   1.960   3.234  11.025  0.5193 -0.0739  0.1441
    1TCq1    C114039   1.863   3.218  11.117  0.5700 -0.1300  0.1438
    1TCq1    O214040   1.745   3.196  11.090 -0.1717  0.0544  0.0508
    1TCq1    C214041   1.938   3.125  11.207  0.2618 -0.1603  0.3865
    1TCq1    C314042   1.884   2.999  11.214  0.3872  0.3345 -0.1469
    1TCq1    C414043   1.909   2.912  11.322  0.2216 -0.1242 -0.3781
    1TCq1    C514044   1.991   2.956  11.427  0.4620 -0.3041  0.2468
    1TCq1    C614045   2.053   3.078  11.408  0.8615 -0.8929  0.2999
    1TCq1    C714046   2.019   3.165  11.304  0.1162 -0.2775 -0.4548
    1TCq1    C814047   2.122   3.145  11.517  0.2156  0.0489  0.2746
    1TCq1    O414048   2.202   3.233  11.490 -0.0071 -0.0564  0.1305
    1TCq1    C914049   1.814   2.800  11.360 -0.1659  0.7148  0.0075
    1TCq1    O514050   1.826   2.744  11.472 -0.9962 -0.2517 -0.0941
    1TCq1    O614051   1.715   2.778  11.287  0.0801  0.4132  0.4659
    1TCq1    H114052   2.044   3.242  11.075 -0.2745 -0.2829  1.5046
    1TCq1    H214053   1.801   2.970  11.150  0.4954  0.1272 -0.1955
    1TCq1    H314054   2.002   2.904  11.521  2.0514 -1.1813 -0.4366
    1TCq1    H414055   2.069   3.261  11.304 -0.7499  0.1745 -0.3076
    2MPD1     C14056   2.247   3.176  12.020  0.0441  0.2989 -0.3483
    2MPD1    C114057   2.144   3.083  12.000  0.3032 -0.5309 -0.0947
    2MPD1    C214058   2.096   3.053  11.870  0.0957 -0.0247 -0.1989
    2MPD1    C314059   2.158   3.112  11.765 -0.4839  0.1373 -0.2390
    2MPD1    C414060   2.267   3.203  11.779 -0.1723  0.2044 -0.4677
    2MPD1    C514061   2.305   3.228  11.910 -0.1294  0.1770 -0.3235
    2MPD1     H14062   2.007   2.992  11.858 -0.0010  0.1491 -0.3636
    2MPD1    H114063   2.317   3.250  11.696  0.1484 -2.2064 -1.6602
    2MPD1    H214064   2.282   3.207  12.118 -0.9157  0.1768  0.0281
    2MPD1    H314065   2.387   3.293  11.939  1.2840 -1.9424  0.4279
    2MPD1     N14066   2.096   3.082  11.640  0.0626 -0.0282 -0.8865
    2MPD1    H514067   2.018   3.019  11.648  0.5018 -0.6090 -1.1791
    2MPD1    N114068   2.086   3.032  12.116 -0.2931 -0.6267 -0.0169
    2MPD1    H614069   2.165   3.014  12.177  0.5856  1.5886 -0.5192
    2MPD1    H714070   2.044   2.939  12.111  2.4800 -2.1768  4.6611
    1TCq1    O114071   2.686   2.085   1.494 -0.2618  0.3919  0.9238
    1TCq1    C114072   2.554   2.073   1.484 -0.4386 -0.0621 -0.4028
    1TCq1    O214073   2.469   2.116   1.563  0.0209  0.4146 -0.5311
    1TCq1    C214074   2.527   1.980   1.385 -0.2158  0.0167 -0.3745
    1TCq1    C314075   2.411   2.007   1.317 -0.7271 -0.4672  0.1770
    1TCq1    C414076   2.371   1.912   1.227  0.7509  0.5419 -0.9043
    1TCq1    C514077   2.455   1.817   1.198 -0.1298 -0.0573  1.1082
    1TCq1    C614078   2.575   1.794   1.262 -0.7425  0.7521 -0.0856
    1TCq1    C714079   2.611   1.872   1.369 -0.1335  1.1058 -0.3690
    1TCq1    C814080   2.671   1.695   1.206  0.4798 -1.0351  0.1049
    1TCq1    O414081   2.746   1.639   1.287  0.0262 -0.2184 -0.1439
    1TCq1    C914082   2.259   1.944   1.132 -0.2703 -0.0998  0.8801
    1TCq1    O514083   2.152   1.999   1.175 -0.3508 -0.3418 -0.6006
    1TCq1    O614084   2.259   1.898   1.014 -0.1471 -0.1962 -0.0154
    1TCq1    H114085   2.733   2.048   1.417 -0.9711  0.0070  0.6822
    1TCq1    H214086   2.351   2.094   1.341 -0.6001 -0.6257  1.0521
    1TCq1    H314087   2.411   1.755   1.121  0.5917 -1.4652  1.8294
    1TCq1    H414088   2.697   1.851   1.431 -0.4782  1.7248  0.3223
    2MPD1     C14089   2.846   1.349   0.868  0.0108  0.9644 -0.5968
    2MPD1    C114090   2.760   1.429   0.801  0.1908  0.2867  0.3339
    2MPD1    C214091   2.694   1.527   0.878 -0.5045 -0.2565 -0.1190
    2MPD1    C314092   2.726   1.556   1.008  1.4673 -0.2886 -0.2586
    2MPD1    C414093   2.829   1.486   1.066 -0.3754  1.7083 -0.2219
    2MPD1    C514094   2.884   1.381   0.997  0.1395 -0.1854  0.5402
    2MPD1     H14095   2.617   1.590   0.835  0.4404 -0.7576 -2.5367
    2MPD1    H114096   2.879   1.501   1.161 -0.6903  1.2950  0.0083
    2MPD1    H214097   2.884   1.257   0.825 -0.0089  0.5408  0.2818
    2MPD1    H314098   2.957   1.317   1.045  0.8533  1.5652  1.7908
    2MPD1     N14099   2.657   1.660   1.074 -0.2226 -0.7582 -0.2172
    2MPD1    H514100   2.582   1.711   1.029  2.0525  0.9801 -2.1175
    2MPD1    N114101   2.704   1.382   0.679  0.3218 -0.3089  0.0350
    2MPD1    H614102   2.765   1.331   0.615  0.7894  1.7092 -1.1296
    2MPD1    H714103   2.678   1.466   0.630 -0.5070 -0.8178 -0.3896
    1MPD1     C14104   2.288   4.235  12.002  0.0912 -0.4457  0.2916
    1MPD1    C114105   2.352   4.296  11.895 -0.9197 -0.3516 -0.3229
    1MPD1    C214106   2.422   4.421  11.914 -0.5452 -0.5430  0.2042
    1MPD1    C314107   2.418   4.486  12.037  0.3314  0.1559 -0.2644
    1MPD1    C414108   2.346   4.427  12.135  0.1297 -0.1175  0.0068
    1MPD1    C514109   2.301   4.304  12.120 -0.4430  0.2713  0.3855
    1MPD1     H14110   2.476   4.471  11.834 -1.6672  1.4549  0.6960
    1MPD1    H114111   2.347   4.474  12.232 -0.6541  1.9112 -0.9767
    1MPD1    H214112   2.253   4.133  11.994 -3.0985  0.9464 -3.6990
    1MPD1    H314113   2.265   4.246  12.204 -2.3794  2.4653  1.0700
    1MPD1     N14114   2.485   4.607  12.046 -0.7998  0.2619  0.9433
    1MPD1    H514115   2.522   4.645  11.960  0.1476 -1.3299  0.6422
    1MPD1    N114116   2.386   4.215  11.788 -0.6586 -0.5698 -0.4106
    1MPD1    H614117   2.412   4.255  11.697 -2.0339  0.6196 -0.2815
    1MPD1    H714118   2.315   4.145  11.768  0.0751 -0.9223 -1.8261
    2MPD1     C14119   1.718   0.216  11.548 -0.2009  0.0378 -0.1193
    2MPD1    C114120   1.852   0.242  11.539  0.2560 -0.8735  0.3484
    2MPD1    C214121   1.928   0.139  11.478 -0.3880  0.6191 -0.0494
    2MPD1    C314122   1.872   0.019  11.425  0.1418  0.1909  0.1831
    2MPD1    C414123   1.744   4.716  11.461 -0.1012 -0.5054  0.5446
    2MPD1    C514124   1.662   0.096  11.512 -0.2623  0.1911  0.1964
    2MPD1     H14125   2.022   0.162  11.430  0.8726 -0.9470  1.7145
    2MPD1    H114126   1.692   4.623  11.444 -2.5930  1.1365 -0.8657
    2MPD1    H214127   1.652   0.283  11.603  0.2384  0.2835  0.1176
    2MPD1    H314128   1.556   0.076  11.524 -0.1754 -1.1580 -1.2990
    2MPD1     N14129   1.957   4.651  11.356 -0.1818  0.2289 -0.5097
    2MPD1    H514130   2.054   4.678  11.343  0.2997 -0.0963  2.5740
    2MPD1    N114131   1.903   0.371  11.571  0.3802  0.6333 -0.5375
    2MPD1    H614132   2.001   0.377  11.597 -0.0456  3.6769  0.4299
    2MPD1    H714133   1.843   0.431  11.628 -1.2012  0.3473 -1.8959
    3MPD1     C14134   2.269   3.972  10.552  0.5052 -0.2981  0.6689
    3MPD1    C114135   2.354   4.087  10.576  0.2297  0.3611 -0.6290
    3MPD1    C214136   2.327   4.158  10.689 -0.0187 -0.2267  0.1714
    3MPD1    C314137   2.217   4.130  10.770 -1.1489 -0.3542  0.2220
    3MPD1    C414138   2.131   4.031  10.742  0.4997 -0.2387 -0.6365
    3MPD1    C514139   2.157   3.955  10.630 -0.1271 -1.1850 -0.2994
    3MPD1     H14140   2.398   4.234  10.720 -0.2771  0.2330 -0.3697
    3MPD1    H114141   2.049   3.999  10.805 -0.0104 -0.8761 -1.6225
    3MPD1    H214142   2.283   3.903  10.470 -0.0490  1.9851 -1.3748
    3MPD1    H314143   2.098   3.868  10.605  0.8420 -1.8230 -0.3905
    3MPD1     N14144   2.201   4.209  10.887 -0.0094  0.2464 -0.4938
    3MPD1    H514145   2.284   4.262  10.909 -0.3282  1.3276 -1.9205
    3MPD1    N114146   2.469   4.100  10.500 -0.2931  0.8482  0.5979
    3MPD1    H614147   2.466   4.059  10.407 -0.5069 -1.3378  1.5645
    3MPD1    H714148   2.493   4.198  10.504 -0.6412  1.0007 -1.3000
    4MPD2     C14149   2.699   0.338  11.606  0.0841  0.1567 -0.1662
    4MPD2    C114150   2.804   0.293  11.685 -0.4490 -0.8932  0.1690
    4MPD2    C214151   2.911   0.239  11.621 -0.2108 -0.1275  0.1452
    4MPD2    C314152   2.916   0.230  11.482 -0.6971  0.0393  0.1370
    4MPD2    C414153   2.816   0.285  11.400 -0.4009 -0.0669 -0.6136
    4MPD2    C514154   2.707   0.337  11.467 -0.0853 -1.1971  0.3697
    4MPD2     H14155   2.987   0.195  11.685  0.7242  0.6031 -0.4509
    4MPD2    H114156   2.809   0.277  11.292  0.6692  2.4422 -0.8736
    4MPD2    H214157   2.607   0.375  11.652 -0.8026 -0.3576 -1.5270
    4MPD2    H314158   2.631   0.396  11.417  1.3820  0.3342 -0.0552
    4MPD2     N14159   3.002   0.132  11.410 -0.0585 -0.3028 -0.2147
    4MPD2    H514160   2.970   0.093  11.321 -0.6724 -1.6207  0.5883
    4MPD2    N114161   2.799   0.271  11.826 -0.1088  0.1746 -0.4585
    4MPD2    H714162   2.887   0.258  11.873  0.2349  1.7448 -0.6822
    5TMC3    C114163   2.711   0.204  12.023 -0.3358  0.1795 -0.0458
    5TMC3    C214164   2.600   0.127  12.062  0.6714  0.5843 -0.2841
    5TMC3    C314165   2.639   0.029  12.144  0.2982 -0.0860 -0.8292
    5TMC3    C414166   2.844   0.163  12.041  0.3099  0.6569 -0.0331
    5TMC3    C514167   2.869   0.041  12.100 -0.0784  0.4305 -0.1055
    5TMC3    C614168   2.765   4.700  12.164 -0.0405 -0.5083  0.0679
    5TMC3     C14169   2.688   0.279  11.909  0.4502 -0.1239 -0.2504
    5TMC3     O14170   2.572   0.317  11.892  0.0213 -0.8923 -0.5978
    5TMC3     H14171   2.494   0.146  12.050  0.5869  0.2057 -0.1214
    5TMC3    H114172   2.932   0.224  12.024 -0.7636  2.0975 -0.4333
    5TMC3    H214173   2.767   4.602  12.209 -1.6050 -0.0489  1.1155
    5TMC3    C714174   2.971   4.682  12.047 -0.6638 -0.5185 -0.4731
    5TMC3    C814175   2.543   4.649  12.165 -0.2546  0.1532 -0.3003
    5TMC3    O114176   3.047   0.008  11.968  0.8873 -0.0083  0.4586
    5TMC3    O214177   2.542   4.590  12.272 -0.3266 -0.4950 -0.0691
    6TMC3    C114178   2.032   4.466  11.216  0.2043 -0.3344  0.1014
    6TMC3    C214179   2.005   4.370  11.122 -0.0052 -0.9079  0.2951
    6TMC3    C314180   2.111   4.291  11.081  0.4475  0.1291 -0.6970
    6TMC3    C414181   2.155   4.474  11.281  0.6313  0.2876 -0.6537
    6TMC3    C514182   2.249   4.388  11.247 -0.0506 -0.4201  0.7020
    6TMC3    C614183   2.233   4.299  11.141  0.4433 -0.6855  0.1255
    6TMC3     C14184   1.920   4.540  11.277  0.6781  0.2237 -0.1386
    6TMC3     O14185   1.802   4.533  11.237  0.0386 -0.8716 -0.2582
    6TMC3     H14186   1.906   4.359  11.078  0.2227  0.3277 -0.4970
    6TMC3    H114187   2.177   4.547  11.358  1.9102  0.2259 -0.9559
    6TMC3    H214188   2.315   4.234  11.114  2.1348  1.7501 -0.5988
    6TMC3    C714189   2.358   4.372  11.343 -0.0651 -0.6200 -1.1817
    6TMC3    C814190   2.089   4.208  10.969  0.2507  0.0607 -0.1811
    6TMC3    O114191   2.397   4.483  11.384 -0.0356 -0.0827 -0.3997
    6TMC3    O214192   1.978   4.158  10.949 -0.0108  0.0702  0.1959
    7MPD2     C14193   3.199   4.226  11.981  0.0972  0.0351  0.4819
    7MPD2    C114194   3.191   4.335  11.899 -0.5301  0.1905 -0.2537
    7MPD2    C214195   3.123   4.445  11.927 -0.1588 -0.4203  0.1460
    7MPD2    C314196   3.050   4.444  12.043 -0.4220  0.6057  0.4666
    7MPD2    C414197   3.051   4.330  12.125  0.1686  0.4054  0.2667
    7MPD2    C514198   3.130   4.228  12.089 -0.8349  0.6846 -1.2785
    7MPD2     H14199   3.133   4.527  11.857 -1.9237 -0.1637  0.2027
    7MPD2    H114200   3.023   4.335  12.229  1.8812  1.3343  0.6895
    7MPD2    H214201   3.257   4.137  11.962 -1.1800 -0.6409 -0.1785
    7MPD2    H314202   3.128   4.141  12.154 -2.4231  0.2506 -1.8942
    7MPD2     N14203   2.966   4.551  12.088  0.2119 -0.3200  0.3721
    7MPD2    H514204   2.898   4.534  12.161 -1.1377 -1.9720 -1.2865
    7MPD2    N114205   3.264   4.320  11.778  0.2930 -0.1288 -0.4155
    7MPD2    H714206   3.326   4.241  11.782 -2.2473 -2.1381 -0.4283
    8TMC3    C114207   3.165   4.480  11.628 -0.1730  0.0218  0.4125
    8TMC3    C214208   3.039   4.429  11.638 -0.8146 -0.5824 -0.0144
    8TMC3    C314209   2.937   4.497  11.581 -0.3754 -0.4851 -0.1817
    8TMC3    C414210   3.195   4.587  11.549 -0.2554 -0.2101  1.0460
    8TMC3    C514211   3.095   4.647  11.486  0.2457 -0.2322 -0.2927
    8TMC3    C614212   2.961   4.608  11.506 -0.7536  0.4671  0.0571
    8TMC3     C14213   3.283   4.409  11.674  0.1456  0.0746 -0.1248
    8TMC3     O14214   3.373   4.397  11.588 -0.0284 -0.2259 -0.5908
    8TMC3     H14215   3.023   4.339  11.696  0.4865  0.5739  2.1075
    8TMC3    H114216   3.298   4.619  11.548 -1.0795  2.2990 -1.8069
    8TMC3    H214217   2.881   4.661  11.455  1.3108  2.2668 -1.3291
    8TMC3    C714218   3.111   0.069  11.473  0.0744 -0.3961 -0.1423
    8TMC3    C814219   2.814   4.442  11.551 -0.0472  0.2682  0.5313
    8TMC3    O114220   3.170   0.112  11.571 -0.0904  0.2947 -0.1986
    8TMC3    O214221   2.720   4.524  11.535  0.1961 -0.2154 -0.0457
    9MPD2     C14222   2.693   4.096  11.621  0.0967  0.1793  0.2359
    9MPD2    C114223   2.692   4.230  11.583 -0.1064 -0.3038 -0.4030
    9MPD2    C214224   2.580   4.279  11.516 -0.1953  0.3038  0.2588
    9MPD2    C314225   2.478   4.197  11.477  0.1495 -0.3358  0.1699
    9MPD2    C414226   2.473   4.071  11.519  0.4726  0.4467  0.0371
    9MPD2    C514227   2.576   4.023  11.594 -0.3692  0.3181 -0.0722
    9MPD2     H14228   2.585   4.377  11.469 -2.3193 -0.1911 -0.9620
    9MPD2    H114229   2.393   4.007  11.484  1.3646 -1.3078  1.2011
    9MPD2    H214230   2.774   4.047  11.672 -1.1517  1.3188  3.3214
    9MPD2    H314231   2.577   3.920  11.626  1.5732  0.1291 -0.7297
    9MPD2     N14232   2.377   4.240  11.386  0.5333  0.2166  0.3032
    9MPD2    H514233   2.324   4.165  11.341 -1.0417  1.2309  0.4597
    9MPD2    N114234   2.806   4.311  11.596  0.4189 -0.3269 -0.3520
    9MPD2    H714235   2.890   4.260  11.622  1.4666  0.8535 -1.4101
    1MPD1     C14236   3.267   3.272  16.243  0.3030  0.3439  0.0567
    1MPD1    C114237   3.143   3.201  16.241 -0.0524  0.5286 -0.1627
    1MPD1    C214238   3.082   3.185  16.367 -0.2292  0.1892 -0.0572
    1MPD1    C314239   3.142   3.236  16.481 -0.1923 -0.1237 -0.0175
    1MPD1    C414240   3.255   3.313  16.474 -0.1634  1.0060  0.0903
    1MPD1    C514241   3.315   3.340  16.351 -0.2207  0.0339 -1.2050
    1MPD1     H14242   3.000   3.113  16.373 -1.5186  1.5962 -0.8749
    1MPD1    H114243   3.290   3.345  16.572 -4.2188 -0.8278  2.1435
    1MPD1    H214244   3.320   3.301  16.153 -0.2746  0.5633 -0.2134
    1MPD1    H314245   3.407   3.396  16.345  0.4681 -1.1794 -2.0017
    1MPD1     N14246   3.086   3.212  16.611 -0.0403 -0.5103 -0.1826
    1MPD1    H514247   3.127   3.256  16.693 -1.2636 -1.2621  0.8421
    1MPD1    N114248   3.087   3.151  16.122 -0.1977  1.0704 -0.2751
    1MPD1    H614249   3.004   3.092  16.131 -0.5258  1.6723  0.6320
    1MPD1    H714250   3.166   3.117  16.067  1.0426  1.9924  0.9459
    2MPD1     C14251   2.241   2.819  17.066  0.2736  0.1412  0.5846
    2MPD1    C114252   2.256   2.962  17.076  0.2680 -0.1821  0.2598
    2MPD1    C214253   2.383   3.010  17.023  0.4941 -0.2022 -0.9435
    2MPD1    C314254   2.491   2.929  16.992 -0.6284 -0.3504  0.1104
    2MPD1    C414255   2.474   2.792  17.002  0.3786  0.1315 -0.5477
    2MPD1    C514256   2.350   2.744  17.038 -0.7739  0.8900  0.0431
    2MPD1     H14257   2.382   3.117  17.007 -0.9149 -0.0495  0.2198
    2MPD1    H114258   2.548   2.713  16.990  1.4066  0.8711  0.9653
    2MPD1    H214259   2.145   2.774  17.089 -0.2867  1.7810  1.4809
    2MPD1    H314260   2.328   2.638  17.045 -0.8907  0.9498  0.5587
    2MPD1     N14261   2.613   2.986  16.971 -0.5438 -0.3841  0.2565
    2MPD1    H514262   2.610   3.086  16.956 -0.5455  0.1081  3.5851
    2MPD1    N114263   2.144   3.043  17.095 -0.2398 -0.1799 -0.2670
    2MPD1    H614264   2.077   2.999  17.157  2.1182  0.5875  2.8280
    2MPD1    H714265   2.164   3.139  17.122 -1.9214 -0.6410  2.5748
    3TCq2    C114266   2.733   2.919  16.998  0.6077  0.6996 -0.5907
    3TCq2    O214267   2.761   2.813  17.051  0.6537  0.3285 -0.2148
    3TCq2    C214268   2.843   2.991  16.943  0.2799  0.3604 -0.5014
    3TCq2    C314269   2.951   2.976  17.019  0.2391  0.5457 -0.1998
    3TCq2    C414270   3.070   3.036  16.973  0.4446 -0.1801 -0.1279
    3TCq2    C514271   3.069   3.102  16.858  0.1390  0.5121  0.1320
    3TCq2    C614272   2.964   3.095  16.773  0.0159  0.4045  0.1758
    3TCq2    C714273   2.839   3.051  16.818  0.1242  0.0172  0.6257
    3TCq2    C814274   2.978   3.141  16.636  0.8721  1.3087  0.7668
    3TCq2    O414275   2.879   3.121  16.566 -0.3922  0.0025  0.0153
    3TCq2    C914276   3.186   3.033  17.059  0.1148  0.2723  0.4461
    3TCq2    O514277   3.176   2.983  17.178 -0.0049 -0.5183 -0.0345
    3TCq2    O614278   3.278   3.114  17.032  0.0814  0.0508 -0.5450
    3TCq2    H214279   2.955   2.922  17.113  1.5235  1.1769  0.1152
    3TCq2    H314280   3.166   3.132  16.820  0.2554  1.7149  1.3807
    3TCq2    H414281   2.757   3.041  16.748  1.2856 -2.9814 -0.2789
    1TCq1    O114282   0.099   2.095  12.647 -0.0947 -0.5424 -0.4048
    1TCq1    C114283   4.712   2.082  12.729 -0.1638 -0.5815  0.1763
    1TCq1    O214284   4.601   2.039  12.696 -0.0246 -0.0274 -0.0127
    1TCq1    C214285   0.038   2.077  12.863 -0.2775 -0.3883 -0.2759
    1TCq1    C314286   4.698   1.988  12.947  0.2672  0.3503  0.3952
    1TCq1    C414287   0.018   1.975  13.076 -0.1202  0.0688  0.8881
    1TCq1    C514288   0.134   2.030  13.115  0.3717 -0.0597  0.3493
    1TCq1    C614289   0.205   2.106  13.028 -0.2648  0.0873  0.1499
    1TCq1    C714290   0.154   2.127  12.898 -0.6805 -0.3484 -1.2046
    1TCq1    C814291   0.312   2.200  13.061 -0.1098 -0.0825  0.2613
    1TCq1    O414292   0.332   2.302  12.992 -0.4864 -0.1677 -0.0938
    1TCq1    C914293   4.666   1.894  13.166 -0.0455 -0.2706 -0.2862
    1TCq1    O514294   4.720   1.862  13.273  0.0790 -0.1185 -0.3762
    1TCq1    O614295   4.549   1.873  13.138  0.8264  0.4341  0.5349
    1TCq1    H114296   0.178   2.061  12.695  0.5714  1.1172 -0.3443
    1TCq1    H214297   4.600   1.949  12.919  0.3469 -0.4108  1.1780
    1TCq1    H314298   0.175   2.017  13.214 -2.1966  0.0935  1.4376
    1TCq1    H414299   0.203   2.196  12.831 -0.5661 -0.2709 -1.0443
    2MPD2     C14300   0.451   2.392  13.230  0.0751 -0.3107 -0.1827
    2MPD2    C114301   0.448   2.262  13.264  0.1529 -0.3073 -0.3215
    2MPD2    C214302   0.510   2.221  13.378 -0.2318  0.1838 -0.7306
    2MPD2    C314303   0.578   2.301  13.462  0.0202 -0.1104  0.0245
    2MPD2    C414304   0.595   2.430  13.422 -0.8016 -0.4835 -0.6641
    2MPD2    C514305   0.532   2.473  13.310 -0.0516  0.1241 -0.1152
    2MPD2     H14306   0.492   2.121  13.416 -0.3641 -0.2213 -1.8475
    2MPD2    H114307   0.647   2.507  13.479 -0.2376 -0.7257 -0.8459
    2MPD2    H214308   0.401   2.437  13.145  2.4671  1.9635 -0.3988
    2MPD2    H314309   0.542   2.579  13.292  2.9499 -0.2453 -0.6451
    2MPD2     N14310   0.639   2.252  13.584 -0.8492  0.2522 -0.6038
    2MPD2    H514311   0.645   2.151  13.589 -2.6995  0.1477 -0.6862
    2MPD2    N114312   0.366   2.172  13.184 -0.5512  0.2377  0.4355
    2MPD2    H714313   0.351   2.083  13.231  1.1711 -0.1360  0.2897
    3TCq1    O114314   0.922   1.849  13.936 -0.2507 -0.0397 -0.4582
    3TCq1    C114315   0.923   1.923  13.823 -0.5787 -0.7069 -0.1387
    3TCq1    O214316   0.954   1.890  13.711  0.5394  0.4809 -0.0246
    3TCq1    C214317   0.871   2.060  13.851 -0.0472 -0.3247 -0.6118
    3TCq1    C314318   0.902   2.119  13.975 -0.1362  0.6157  0.4330
    3TCq1    C414319   0.828   2.231  14.012  0.0320 -0.0652 -0.4234
    3TCq1    C514320   0.748   2.297  13.919 -0.3559 -0.3335  0.4861
    3TCq1    C614321   0.747   2.246  13.793  0.3741 -1.0922 -0.1380
    3TCq1    C714322   0.802   2.129  13.757 -0.1445  0.8019  0.1548
    3TCq1    C814323   0.694   2.330  13.688 -0.1104  0.1376 -0.0880
    3TCq1    O414324   0.683   2.451  13.704 -0.2070  0.6502 -0.4653
    3TCq1    C914325   0.828   2.280  14.142  0.4824  0.2818 -0.4461
    3TCq1    O514326   0.932   2.260  14.210 -0.4395  0.0976 -0.2598
    3TCq1    O614327   0.744   2.370  14.172 -0.1341  0.4644 -0.1770
    3TCq1    H114328   0.870   1.882  14.012  0.5340  2.6579 -1.0865
    3TCq1    H214329   0.948   2.066  14.058 -0.3944  1.1392  0.9129
    3TCq1    H314330   0.684   2.383  13.938 -1.8184 -1.1447 -0.7537
    3TCq1    H414331   0.807   2.087  13.657 -3.0144 -1.0936  0.8297
    1MPD2     C14332   0.145   2.845  15.378  0.4926  0.1343  0.1515
    1MPD2    C114333   0.035   2.768  15.420 -0.3298  0.3602  0.4571
    1MPD2    C214334   0.052   2.643  15.486 -0.1248 -0.6111 -0.1966
    1MPD2    C314335   0.179   2.596  15.507 -0.6580  0.6123 -0.3199
    1MPD2    C414336   0.279   2.675  15.468  0.5070  0.0707 -0.3828
    1MPD2    C514337   0.266   2.786  15.394  1.3525 -0.2923  0.1468
    1MPD2     H14338   4.686   2.594  15.523  0.7001 -0.9689  1.3094
    1MPD2    H114339   0.379   2.634  15.472  1.1431  1.6317 -0.1196
    1MPD2    H214340   0.140   2.937  15.321  0.7125  0.2303  0.2860
    1MPD2    H314341   0.357   2.833  15.359  0.6830  0.9590  0.0824
    1MPD2     N14342   0.216   2.471  15.558 -0.4821 -0.3760 -0.3857
    1MPD2    H514343   0.311   2.451  15.586 -0.6280  0.5168  0.7216
    1MPD2    N114344   4.631   2.825  15.401 -0.2226  0.7810  0.0416
    1MPD2    H714345   4.630   2.912  15.348 -1.6476 -0.6327 -2.2514
    2TMC3    C114346   4.399   2.865  15.454  0.0534 -0.6784  0.0184
    2TMC3    C214347   4.318   2.852  15.569 -0.7556  0.4593  1.1233
    2TMC3    C314348   4.188   2.802  15.551  0.3877 -1.0152 -0.6868
    2TMC3    C414349   4.345   2.843  15.330 -0.2574  0.7002  1.2951
    2TMC3    C514350   4.212   2.801  15.314  0.5237 -0.4964  0.1765
    2TMC3    C614351   4.139   2.771  15.424  0.4534 -0.5992 -0.2140
    2TMC3     C14352   4.519   2.792  15.475 -0.2348  0.0882  0.4621
    2TMC3     O14353   4.503   2.716  15.568 -0.0239  0.1951  0.5250
    2TMC3     H14354   4.367   2.875  15.663 -0.7216 -1.1220  1.4960
    2TMC3    H114355   4.411   2.861  15.246  0.8657 -2.1691  1.5542
    2TMC3    H214356   4.038   2.732  15.421 -0.0584  0.8158 -1.9454
    2TMC3    C714357   4.131   2.863  15.210  1.1113 -0.1422 -0.1066
    2TMC3    C814358   4.150   2.708  15.655 -0.1567  0.0035 -0.0424
    2TMC3    O114359   4.009   2.852  15.215  0.6065 -0.4004 -0.2691
    2TMC3    O214360   4.039   2.661  15.666 -0.2998  0.0069 -0.3144
    3TCq1    O114361   4.415   3.624  14.305 -0.2583  0.0386 -0.5225
    3TCq1    C114362   4.498   3.523  14.274 -0.3246  0.1951 -0.2650
    3TCq1    O214363   4.560   3.516  14.169 -0.3974 -0.3832  0.1187
    3TCq1    C214364   4.526   3.453  14.401 -0.1713  0.0392 -0.4499
    3TCq1    C314365   4.658   3.432  14.443  0.1242  0.2607  0.1517
    3TCq1    C414366   4.670   3.373  14.567 -0.4037  0.8390  1.0755
    3TCq1    C514367   4.557   3.362  14.650  0.7958  0.5655 -0.4953
    3TCq1    C614368   4.432   3.391  14.606 -0.1196 -1.0834 -0.4335
    3TCq1    C714369   4.417   3.439  14.478 -0.3047 -0.1605  0.5279
    3TCq1    C814370   4.313   3.376  14.693  0.1906  0.0120  0.0203
    3TCq1    O414371   4.208   3.416  14.640 -1.0748 -0.3072  0.2458
    3TCq1    C914372   0.078   3.344  14.617 -0.1956  0.4949  0.1755
    3TCq1    O514373   0.091   3.348  14.747 -0.4330  0.5525 -0.1154
    3TCq1    O614374   0.183   3.356  14.549 -0.0548 -0.5933  0.0465
    3TCq1    H114375   4.386   3.628  14.399 -0.1368  0.2798 -0.4945
    3TCq1    H214376   0.018   3.449  14.376  0.3686  1.2675  0.7219
    3TCq1    H314377   4.575   3.318  14.747 -1.9328 -1.1950 -0.7862
    3TCq1    H414378   4.321   3.463  14.433  0.5558  1.5692 -0.3451
    4MPD2     C14379   4.104   3.199  14.807  0.4988  0.3863 -0.0182
    4MPD2    C114380   4.237   3.194  14.848  0.7693 -0.3779  0.3039
    4MPD2    C214381   4.261   3.108  14.952 -0.5553 -0.1242  0.6628
    4MPD2    C314382   4.170   3.030  15.017 -0.2408 -0.0187  1.0054
    4MPD2    C414383   4.039   3.034  14.967 -0.2860  0.0386  0.0072
    4MPD2    C514384   4.017   3.111  14.863  0.2929 -0.2190  0.3837
    4MPD2     H14385   4.363   3.111  14.990 -0.0589 -0.4392 -0.6351
    4MPD2    H114386   3.954   2.987  15.013  0.5465 -1.2291  0.2526
    4MPD2    H214387   4.069   3.259  14.723  0.0030  0.0025 -0.0867
    4MPD2    H314388   3.913   3.132  14.839  0.3179 -1.5119 -0.8436
    4MPD2     N14389   4.209   2.937  15.121  0.1351 -0.2687  0.2878
    4MPD2    H514390   4.309   2.929  15.134  0.5450  1.2528 -1.9091
    4MPD2    N114391   4.337   3.278  14.795 -0.0200 -0.1606  0.8524
    4MPD2    H714392   4.428   3.241  14.821  0.0381  0.5784  1.7124
    5TMC2    C114393   4.718   2.135  15.791 -0.0469  0.2476 -0.3497
    5TMC2    C214394   0.084   2.134  15.896  0.3286  0.1928 -0.7956
    5TMC2    C314395   0.197   2.212  15.875  0.2089 -0.2624  0.1603
    5TMC2    C414396   0.033   2.186  15.675 -0.3286  0.0432  0.3466
    5TMC2    C514397   0.153   2.249  15.647 -1.3941  0.0864  0.2755
    5TMC2    C614398   0.233   2.259  15.756 -0.5958  0.3217 -0.6399
    5TMC2     C14399   4.582   2.152  15.834 -0.0016 -0.3470 -0.2231
    5TMC2     O14400   4.541   2.090  15.925  0.3583  0.2997 -0.5474
    5TMC2     H14401   0.060   2.114  15.999  2.1379 -2.2595 -0.8630
    5TMC2    H114402   4.682   2.178  15.596  1.2564 -1.0986 -1.0311
    5TMC2    H214403   0.331   2.305  15.755 -0.1849 -0.5485  0.9098
    5TMC2    C714404   0.118   2.378  15.594 -0.2132  0.7029 -0.9377
    5TMC2    C814405   0.317   2.172  15.954  0.0036  0.4402 -0.0777
    5TMC2    O114406   4.720   2.393  15.604  0.1628  0.6701 -0.1909
    5TMC2    O214407   0.408   2.113  15.899 -0.1652  0.2530 -0.3585
    5TMC2    O514408   0.280   2.164  16.083 -0.0185 -0.4635 -0.2591
    5TMC2    H514409   0.205   2.218  16.116  0.6708 -0.7090  1.7183
    6MPD2     C14410   4.175   2.446  15.807  0.1052 -0.4397 -0.7162
    6MPD2    C114411   4.282   2.517  15.757  0.5112 -0.5949 -0.0947
    6MPD2    C214412   4.408   2.460  15.762  0.3226 -0.3272  0.4988
    6MPD2    C314413   4.422   2.328  15.804 -0.1395 -0.0114 -0.0494
    6MPD2    C414414   4.314   2.264  15.862  0.4402 -0.5732 -0.1186
    6MPD2    C514415   4.197   2.330  15.871  0.0512  1.2374 -0.0920
    6MPD2     H14416   4.487   2.521  15.719  1.2639 -1.4460  0.6410
    6MPD2    H114417   4.314   2.163  15.902  0.3121 -1.1979 -1.7193
    6MPD2    H214418   4.075   2.486  15.799  0.9764  1.2606 -3.0933
    6MPD2    H314419   4.115   2.281  15.924  0.9468  0.8219  0.9238
    6MPD2     N14420   4.543   2.267  15.780 -0.0990  0.4045  0.6112
    6MPD2    H514421   4.618   2.319  15.736 -1.6641  0.1582 -2.3520
    6MPD2    N114422   4.273   2.648  15.696 -0.7259  0.3049  0.4962
    6MPD2    H714423   4.363   2.669  15.654 -0.3273 -1.0316  0.6689
  945NH3     N114424   2.844   2.813  12.821 -0.4832 -0.0141 -0.3930
  945NH3     H214425   2.847   2.726  12.874 -0.8269  1.5437  2.1999
  945NH3     H314426   2.751   2.835  12.790  0.4802 -0.7605 -3.7910
  945NH3     H414427   2.890   2.791  12.734  1.7003 -2.7018  1.4422
  946SOD     NA14428   2.688   2.809  15.020  0.5654  0.1423 -0.0251
  947SOD     NA14429   1.515   0.833  13.832 -0.2972 -0.4327  0.2561
  948SOD     NA14430   1.644   0.992  17.031  0.5195 -0.5401  0.5200
  949SOD     NA14431   0.238   1.205  11.197 -0.1316  0.2059 -0.1290
  950SOD     NA14432   1.727   3.126  14.289  0.0981 -0.0348  0.4061
  951SOD     NA14433   2.019   1.921   1.619  0.6649  0.2590 -0.0032
  952SOD     NA14434   4.107   2.160  11.226 -0.1093 -0.2480 -0.0255
  953SOD     NA14435   4.311   0.500   8.989 -0.8376  0.3151  0.0041
  954SOD     NA14436   1.112   1.745  12.515  0.1366 -0.3930  0.0483
  955SOD     NA14437   0.307   2.211  10.020  0.0333  0.1876 -0.1305
  956SOD     NA14438   0.932   4.699  15.770  0.7138 -0.5698 -0.3563
  957SOD     NA14439   1.286   4.335   6.490  0.2819  0.5330 -0.1656
  958SOD     NA14440   2.392   0.986   5.700  0.5160  0.1677 -0.0435
  959SOD     NA14441   2.679   2.530  15.169  0.2602 -0.0651  0.2306
  960SOD     NA14442   0.652   1.850  10.348 -0.1824  0.1442 -0.1037
  961SOD     NA14443   0.450   1.492   9.263 -0.4485 -0.5843 -0.0421
  962SOD     NA14444   1.179   2.521  11.213 -0.6443 -0.1747  0.6482
  963SOD     NA14445   3.281   2.571   1.731  0.2060 -0.1957 -0.1253
  964SOD     NA14446   1.781   4.230  11.966  0.5394  0.1280  0.2616
  965SOD     NA14447   0.107   1.970   1.410  0.1265 -0.8170  0.1494
  966SOD     NA14448   1.984   3.143  13.259  0.2085 -0.0147  0.4443
  967SOD     NA14449   4.618   3.933   1.162 -0.4653  0.2132  0.4931
  968SOD     NA14450   0.237   3.217  14.841 -0.0487  0.5399  0.0257
  969SOD     NA14451   4.169   1.333   9.829 -0.2024  0.0144 -0.3369
  970SOD     NA14452   4.462   2.636  10.650 -0.4290 -0.3557  0.2761
  971SOD     NA14453   0.331   3.492  14.624  0.0274  0.0479  0.1902
  972SOD     NA14454   1.358   4.639   0.886 -0.1212 -0.2926 -0.0236
  973SOD     NA14455   2.230   2.076   0.872 -0.4421 -0.1168  0.0705
  974SOD     NA14456   1.698   2.579  11.395  0.2264  0.3574  0.3032
  975SOD     NA14457   3.052   2.970  17.360  0.1327 -0.3738  0.1991
  976SOD     NA14458   4.496   1.957   7.622  0.5758 -0.1352 -0.2162
  977SOD     NA14459   0.275   1.431   9.694 -0.0241 -0.4907  0.1538
  978SOD     NA14460   2.072   1.788   0.894 -0.6071 -0.1886  0.2117
  979SOD     NA14461   1.812   2.394  14.543  0.2183  0.1666  0.2770
  980SOD     NA14462   3.351   0.327  15.407 -0.5020 -0.4248  0.4915
  981SOD     NA14463   0.399   4.278  10.388 -0.1957  0.0882 -0.0715
  982SOD     NA14464   2.316   3.622   8.194 -0.4274  0.1863 -0.1416
  983SOD     NA14465   1.763   0.537   2.419 -0.1982  0.0871 -0.4857
  984SOD     NA14466   4.179   0.350  13.095 -0.1375 -0.1575 -0.5026
  985SOD     NA14467   4.157   1.687   2.972  0.1071  0.4384 -0.4007
  986SOD     NA14468   3.339   2.929  17.310  0.0329 -0.1876  0.2294
  987SOD     NA14469   3.909   0.502   1.370 -0.1387  0.2762 -0.3720
  988SOD     NA14470   1.855   2.632  11.649  0.3268  0.1942 -0.2970
  989SOD     NA14471   2.072   4.030   5.088 -0.0275 -0.1744  0.0510
  990SOD     NA14472   4.556   3.368   1.080  0.1519 -0.2270  0.6359
  991SOD     NA14473   2.367   3.722  13.743 -0.2971  0.2788 -0.2395
  992SOD     NA14474   2.268   2.837  14.996  0.3388 -0.1148  0.2498
  993SOD     NA14475   3.166   3.214   0.064 -0.4390  0.2331  0.0337
  994SOD     NA14476   3.322   1.324  15.094  0.0468  0.4579 -0.0380
  995SOD     NA14477   1.258   2.154  15.460  0.0395  0.1966 -0.0311
  996SOD     NA14478   3.101   1.244  11.283 -0.4153  0.3001 -0.1431
  997SOD     NA14479   3.562   2.653   0.722 -0.1140  0.3101 -0.4945
  998SOD     NA14480   4.345   4.601  10.327  0.4101  0.1865 -0.2056
  999SOD     NA14481   3.674   0.933   2.673 -0.5536  0.1354  0.6240
 1000SOD     NA14482   0.067   0.450   5.864  0.1242 -0.0037 -0.5690
 1001SOD     NA14483   3.631   2.523   1.719  0.0550 -0.3303 -0.3916
 1002SOD     NA14484   3.917   1.287  13.852  0.4490  0.5897  0.3082
 1003SOD     NA14485   0.924   2.213  11.256  0.5400 -0.4568 -0.3163
 1004SOD     NA14486   1.783   1.012   8.313  0.3805 -0.2624  0.0864
 1005SOD     NA14487   4.031   2.141  12.730  0.2727  0.9648 -0.3451
 1006SOD     NA14488   4.139   2.644  10.554  0.3754 -0.0218  0.2180
 1007SOD     NA14489   2.664   2.225   4.012 -0.2085  0.2865  0.4174
 1008SOD     NA14490   1.150   3.180  15.403 -0.2230 -0.4973  0.1545
 1009SOD     NA14491   2.261   2.264  14.829  0.0664  0.0643 -0.5153
 1010SOD     NA14492   2.462   2.959  16.088  0.0915  0.2664 -0.5545
 1011SOD     NA14493   4.121   1.808  10.488 -0.5029 -0.1336 -0.4445
 1012SOL     OW14494   3.197   3.667   1.751  0.6941  0.1637 -0.2867
 1012SOL    HW114495   3.104   3.679   1.771  0.7552  3.7030 -2.0443
 1012SOL    HW214496   3.242   3.740   1.794  0.5162 -0.6983  1.3603
 1013SOL     OW14497   2.430   3.968   4.890 -0.0231  0.2474  0.0019
 1013SOL    HW114498   2.463   4.052   4.922  0.8254  0.7339 -2.1546
 1013SOL    HW214499   2.468   3.966   4.802  0.1181  1.4210  0.0383
 1014SOL     OW14500   2.219   3.627   3.310 -0.6557  0.0844  0.2977
 1014SOL    HW114501   2.123   3.622   3.311 -0.5887 -1.3039 -0.7629
 1014SOL    HW214502   2.234   3.711   3.353 -0.4570  0.2203 -0.0442
 1015SOL     OW14503   4.434   0.854   7.723 -0.4545 -0.1046  0.1337
 1015SOL    HW114504   4.529   0.867   7.719 -0.4850  0.0390 -0.1372
 1015SOL    HW214505   4.405   0.801   7.649 -2.2335  0.4910  0.4195
 1016SOL     OW14506   0.855   2.645  11.152  0.2275 -0.3193  0.4554
 1016SOL    HW114507   0.808   2.728  11.143 -1.5059 -1.1596  1.6173
 1016SOL    HW214508   0.927   2.677  11.206 -0.2523  0.6572  0.5187
 1017SOL     OW14509   1.246   1.429   9.934 -0.5882  0.2369  0.4429
 1017SOL    HW114510   1.284   1.489   9.869  1.7641 -0.8038  0.8725
 1017SOL    HW214511   1.306   1.434  10.008  0.9167 -1.1108 -0.6821
 1018SOL     OW14512   0.704   2.284   4.940  0.2653 -0.8349  0.6049
 1018SOL    HW114513   0.744   2.271   4.854  0.6575 -1.2157  0.8515
 1018SOL    HW214514   0.732   2.375   4.955 -1.1887 -0.2253 -0.2759
 1019SOL     OW14515   3.593   0.676   8.613 -0.3976  0.1960 -0.0709
 1019SOL    HW114516   3.565   0.752   8.663 -1.8522  0.3763 -1.1403
 1019SOL    HW214517   3.671   0.651   8.662 -1.2272 -1.2694  0.5233
 1020SOL     OW14518   4.500   0.824  16.591  0.3796 -0.3703 -0.2206
 1020SOL    HW114519   4.470   0.914  16.597 -0.3459 -0.6706  0.6130
 1020SOL    HW214520   4.596   0.820  16.581  0.1390 -1.7324 -1.9748
 1021SOL     OW14521   4.553   2.425   6.355 -0.4109  0.4171 -0.5560
 1021SOL    HW114522   4.462   2.393   6.359 -1.2262  2.9631  1.4514
 1021SOL    HW214523   4.600   2.342   6.353 -0.9596  0.0772  1.2207
 1022SOL     OW14524   4.708   1.298   7.282  0.0669  0.1054  0.3597
 1022SOL    HW114525   4.702   1.223   7.341  1.8629 -0.5279 -0.2665
 1022SOL    HW214526   0.072   1.328   7.308  1.4945 -2.3627 -1.5082
 1023SOL     OW14527   1.787   3.761   4.920 -0.0487  0.0989 -0.3049
 1023SOL    HW114528   1.834   3.678   4.910 -1.1752 -0.6406  0.5617
 1023SOL    HW214529   1.698   3.727   4.918  0.5098 -1.5095  2.8859
 1024SOL     OW14530   3.700   3.469  16.870  0.2126  0.4797 -0.3497
 1024SOL    HW114531   3.750   3.522  16.808  1.9964  1.7324  2.1522
 1024SOL    HW214532   3.694   3.389  16.818  0.3773  0.3263 -0.1326
 1025SOL     OW14533   0.442   3.097   0.391  0.4720  0.2289  0.3447
 1025SOL    HW114534   0.516   3.106   0.451 -1.0747  1.8188  2.0275
 1025SOL    HW214535   0.470   3.032   0.327 -2.8615  1.2302 -2.1690
 1026SOL     OW14536   3.862   4.682   9.049  0.2587 -0.1041  0.1773
 1026SOL    HW114537   3.936   0.007   9.086 -0.6461  0.9569  0.6053
 1026SOL    HW214538   3.917   4.643   8.982 -1.2520 -1.7479 -0.1154
 1027SOL     OW14539   3.613   0.872   3.740 -0.2266  0.3180  0.2582
 1027SOL    HW114540   3.637   0.921   3.819  0.3493 -2.0389  1.5236
 1027SOL    HW214541   3.690   0.819   3.720 -0.5623  0.0014 -0.1896
 1028SOL     OW14542   2.023   2.913  16.782 -0.3623 -0.6331 -0.3117
 1028SOL    HW114543   1.951   2.975  16.781  0.1173 -0.0839 -0.7013
 1028SOL    HW214544   2.055   2.941  16.868 -0.1708 -1.1364 -0.2177
 1029SOL     OW14545   4.347   4.491   3.562  0.4689  0.0671  0.1923
 1029SOL    HW114546   4.262   4.477   3.520  1.0971 -0.5956 -0.8640
 1029SOL    HW214547   4.368   4.408   3.605  0.8413 -0.2149 -0.5357
 1030SOL     OW14548   4.073   1.775   4.258 -0.1732  0.3193 -0.5535
 1030SOL    HW114549   4.019   1.837   4.306  2.5591  0.7811  1.9219
 1030SOL    HW214550   4.108   1.717   4.326  1.6247  2.0018 -0.0436
 1031SOL     OW14551   2.970   2.618   3.786  0.2615 -0.1562 -0.0642
 1031SOL    HW114552   2.952   2.712   3.785 -0.0519 -0.2237 -1.4851
 1031SOL    HW214553   2.990   2.607   3.878 -2.9166  1.0794  0.8079
 1032SOL     OW14554   3.627   1.454   1.207 -0.5652 -0.1408  0.1394
 1032SOL    HW114555   3.650   1.472   1.116 -0.7013  1.9315  0.5254
 1032SOL    HW214556   3.714   1.427   1.238  0.7390  1.9811 -1.6540
 1033SOL     OW14557   0.742   1.362   8.376 -0.1566 -0.2075  0.0879
 1033SOL    HW114558   0.729   1.367   8.471 -0.1087 -1.2600  0.1459
 1033SOL    HW214559   0.766   1.269   8.373  1.7957  0.2412  2.2960
 1034SOL     OW14560   3.503   3.892  13.507 -0.5344 -0.0381  0.1681
 1034SOL    HW114561   3.564   3.821  13.528 -0.3147 -0.3412 -1.5026
 1034SOL    HW214562   3.525   3.951  13.578 -2.8821 -0.2105  1.0360
 1035SOL     OW14563   2.424   0.204  10.950 -0.6859  0.6012  0.4088
 1035SOL    HW114564   2.434   0.296  10.926 -1.3739  0.2217 -1.3419
 1035SOL    HW214565   2.515   0.187  10.975 -0.7085 -0.4689 -0.2005
 1036SOL     OW14566   3.010   0.242   9.215 -0.6841 -0.2876 -0.5530
 1036SOL    HW114567   3.005   0.184   9.139  1.9621  0.4261 -1.2616
 1036SOL    HW214568   3.065   0.314   9.185 -2.0844  0.4033 -1.4896
 1037SOL     OW14569   1.308   4.148   4.270 -0.0784 -0.2026  0.4113
 1037SOL    HW114570   1.312   4.230   4.320 -0.7992 -0.0234  0.1757
 1037SOL    HW214571   1.269   4.177   4.188  1.9772 -1.0282 -0.8613
 1038SOL     OW14572   3.758   1.941  16.620  0.3534  0.2326  0.4920
 1038SOL    HW114573   3.724   1.858  16.586 -1.1792  0.0874  2.3470
 1038SOL    HW214574   3.756   1.922  16.714  1.1079 -0.9722  0.2690
 1039SOL     OW14575   0.462   2.635   8.758 -0.1954 -0.3485  0.0536
 1039SOL    HW114576   0.507   2.555   8.732  0.7735 -0.0947  0.9273
 1039SOL    HW214577   0.530   2.679   8.810 -0.1344  0.3144 -0.5782
 1040SOL     OW14578   3.956   0.184   8.814 -0.2410  0.3994  0.4926
 1040SOL    HW114579   3.860   0.174   8.812 -0.2149  0.3594 -0.8128
 1040SOL    HW214580   3.977   0.182   8.720  0.1976  0.7979  0.5842
 1041SOL     OW14581   2.101   1.550   8.270  0.3953 -0.4507  0.2518
 1041SOL    HW114582   2.065   1.602   8.342 -0.6423 -1.9259  0.8000
 1041SOL    HW214583   2.026   1.493   8.254 -0.4158  0.4740  0.7295
 1042SOL     OW14584   1.147   2.819   1.315 -0.3573 -0.0941  0.0636
 1042SOL    HW114585   1.209   2.776   1.256 -3.4775  0.0536 -3.3152
 1042SOL    HW214586   1.192   2.900   1.341 -0.8052  1.1388 -2.9743
 1043SOL     OW14587   4.238   2.760   7.900 -0.2170  0.0063 -0.2886
 1043SOL    HW114588   4.213   2.809   7.978 -0.6989  0.5702 -0.7968
 1043SOL    HW214589   4.316   2.805   7.868 -1.3451  2.2083  0.1077
 1044SOL     OW14590   4.112   1.410   6.125 -0.4248  0.2445 -0.0899
 1044SOL    HW114591   4.030   1.452   6.151 -1.3833 -0.6868 -1.6717
 1044SOL    HW214592   4.172   1.479   6.154 -1.1127 -0.2666  2.5353
 1045SOL     OW14593   0.899   2.024   9.155  0.0613 -0.4405 -0.4440
 1045SOL    HW114594   0.978   1.974   9.175  0.1554 -0.9302 -2.0078
 1045SOL    HW214595   0.839   1.994   9.224  0.1292 -0.5084 -0.4143
 1046SOL     OW14596   1.475   3.952   3.738 -0.2433 -0.2961  0.0524
 1046SOL    HW114597   1.459   3.909   3.654 -0.3492 -1.1326  0.5053
 1046SOL    HW214598   1.435   4.036   3.715  0.3619 -0.7356 -2.6277
 1047SOL     OW14599   0.452   0.363   9.385 -0.3063 -0.2211 -0.2745
 1047SOL    HW114600   0.431   0.318   9.467  2.1298  1.5269  1.3183
 1047SOL    HW214601   0.528   0.414   9.412 -0.5005 -0.4268  0.6342
 1048SOL     OW14602   0.556   0.142   8.681  0.2710 -0.1718 -0.8767
 1048SOL    HW114603   0.521   0.231   8.692  2.9462  0.4276  2.7835
 1048SOL    HW214604   0.543   0.112   8.771 -2.3877  0.4882 -1.0332
 1049SOL     OW14605   1.342   0.132  17.267  0.5943  0.1922  0.2096
 1049SOL    HW114606   1.371   0.168  17.183 -3.1214  0.8908 -0.8035
 1049SOL    HW214607   1.375   0.186  17.339  1.2701 -2.2110  1.6916
 1050SOL     OW14608   3.350   2.108   2.342 -0.3884  0.5326 -0.4740
 1050SOL    HW114609   3.278   2.168   2.361 -0.5052  0.0315  0.6855
 1050SOL    HW214610   3.319   2.079   2.256 -3.4038  1.5931  0.2502
 1051SOL     OW14611   4.448   0.685   9.469  0.2264  0.9761 -0.3774
 1051SOL    HW114612   4.366   0.681   9.519  0.0228 -3.1671 -1.0655
 1051SOL    HW214613   4.412   0.724   9.390 -0.3974 -1.0834 -1.0917
 1052SOL     OW14614   3.356   3.016   5.645 -0.0683  0.3880 -0.4893
 1052SOL    HW114615   3.432   2.960   5.658 -1.2562 -0.9460  0.7087
 1052SOL    HW214616   3.296   2.996   5.717  0.2030  1.4783  0.0368
 1053SOL     OW14617   0.035   0.902   4.109  0.1977 -0.1457  0.1329
 1053SOL    HW114618   4.697   0.830   4.125  1.2131 -0.6916  1.5958
 1053SOL    HW214619   0.110   0.871   4.159  0.5456 -0.3962 -0.5501
 1054SOL     OW14620   0.968   0.512   6.321 -0.1792 -0.0138 -0.4840
 1054SOL    HW114621   0.937   0.566   6.248  2.4184  2.2473  0.0830
 1054SOL    HW214622   1.039   0.462   6.280  0.9584  2.3468 -1.3984
 1055SOL     OW14623   1.614   4.554   2.451 -0.1026 -0.2505 -0.3885
 1055SOL    HW114624   1.699   4.581   2.487 -0.4771 -3.1774  2.6469
 1055SOL    HW214625   1.593   4.485   2.513 -0.0139  1.0367  1.0665
 1056SOL     OW14626   4.339   1.865   5.521 -0.0736 -0.4826  0.2704
 1056SOL    HW114627   4.361   1.862   5.428  0.5323  0.0010  0.4032
 1056SOL    HW214628   4.413   1.920   5.546  1.7026 -2.3064 -0.9771
 1057SOL     OW14629   3.810   2.964  12.933 -0.0791  0.4831  0.0627
 1057SOL    HW114630   3.883   3.023  12.952  1.1336 -1.2500  0.8760
 1057SOL    HW214631   3.814   2.957  12.838 -0.4238  0.3281  0.0584
 1058SOL     OW14632   3.532   1.535  13.095 -0.3483  0.1165  0.3789
 1058SOL    HW114633   3.544   1.625  13.125 -2.1567  0.5936 -0.3218
 1058SOL    HW214634   3.553   1.549  13.002  1.9442  0.4384  0.9499
 1059SOL     OW14635   0.755   2.502  11.550 -0.9116 -0.0251 -0.1319
 1059SOL    HW114636   0.833   2.530  11.598 -0.9982 -1.2096  0.7026
 1059SOL    HW214637   0.720   2.442  11.616  0.4286 -0.9881 -0.2912
 1060SOL     OW14638   0.842   0.093  15.588  0.1567  0.1696 -0.3346
 1060SOL    HW114639   0.839   0.036  15.511 -1.6721 -1.0357  0.6231
 1060SOL    HW214640   0.840   0.182  15.554  1.2057  0.4588  0.3805
 1061SOL     OW14641   4.685   2.591   4.702 -0.2599 -0.0606  0.4329
 1061SOL    HW114642   0.044   2.543   4.690 -0.3737 -0.2906  0.5623
 1061SOL    HW214643   4.683   2.633   4.617  1.9516  1.3443  1.0668
 1062SOL     OW14644   1.844   1.891   2.432 -0.7432 -0.3071 -0.6135
 1062SOL    HW114645   1.906   1.822   2.454 -1.1898 -0.7904 -0.8850
 1062SOL    HW214646   1.759   1.848   2.445 -1.0810  0.2273 -1.0207
 1063SOL     OW14647   1.066   2.328  11.373 -0.8545  0.1866 -0.0105
 1063SOL    HW114648   1.029   2.395  11.430 -2.1919 -0.6179  0.0607
 1063SOL    HW214649   1.147   2.307  11.420 -0.9834  0.8074  0.4801
 1064SOL     OW14650   2.854   3.485  13.486 -0.0922 -0.3604 -0.2810
 1064SOL    HW114651   2.813   3.568  13.512 -2.4670 -1.0893 -1.7500
 1064SOL    HW214652   2.914   3.521  13.420  0.7404 -2.6664 -0.7785
 1065SOL     OW14653   2.355   1.396   7.110  0.7875  0.7804  0.0635
 1065SOL    HW114654   2.432   1.359   7.067 -0.7311 -0.9210 -1.2191
 1065SOL    HW214655   2.331   1.464   7.047 -0.5001 -1.1680 -1.5471
 1066SOL     OW14656   3.455   0.269   5.542 -0.2656  0.1329 -0.4672
 1066SOL    HW114657   3.526   0.205   5.533  1.5240  1.6448  2.8814
 1066SOL    HW214658   3.392   0.229   5.482 -0.0394  2.0393 -1.9712
 1067SOL     OW14659   0.860   2.148  10.021  0.0442  0.1638 -0.6035
 1067SOL    HW114660   0.814   2.170   9.940 -0.1853  1.4701 -0.1139
 1067SOL    HW214661   0.875   2.236  10.056  0.9526  0.2495 -1.2097
 1068SOL     OW14662   3.187   4.444   7.929 -0.3309 -0.1306  0.0519
 1068SOL    HW114663   3.261   4.429   7.870 -2.6378 -0.7659 -2.6480
 1068SOL    HW214664   3.119   4.432   7.863  0.9428 -0.3960 -1.2189
 1069SOL     OW14665   2.455   3.624   2.755  0.1438  0.3377  1.0636
 1069SOL    HW114666   2.440   3.603   2.663  0.9475 -0.4540  1.1141
 1069SOL    HW214667   2.510   3.555   2.792  1.4703 -0.7318 -3.0077
 1070SOL     OW14668   2.272   2.560  14.946  0.8305 -0.3357  1.1095
 1070SOL    HW114669   2.286   2.474  14.984 -0.0405 -0.6001  0.8429
 1070SOL    HW214670   2.293   2.542  14.855  1.3638 -0.0100  1.1712
 1071SOL     OW14671   0.487   2.225   0.617  0.2320 -0.2241 -0.2419
 1071SOL    HW114672   0.486   2.318   0.596 -2.1204 -0.0596  0.5774
 1071SOL    HW214673   0.469   2.238   0.710  1.5003  0.8257 -0.1417
 1072SOL     OW14674   2.314   0.386   2.854  0.3914  0.0487 -0.1708
 1072SOL    HW114675   2.269   0.353   2.776  0.9037  2.1770 -1.3465
 1072SOL    HW214676   2.242   0.411   2.912 -0.4990 -0.7992 -0.8974
 1073SOL     OW14677   1.210   3.281   2.052  0.3399 -0.3593 -0.2675
 1073SOL    HW114678   1.297   3.286   2.092 -0.1301  3.6113  0.2358
 1073SOL    HW214679   1.155   3.324   2.116 -0.5796  0.3898 -1.5577
 1074SOL     OW14680   4.549   1.616   1.391 -0.0081 -0.3887  0.2357
 1074SOL    HW114681   4.579   1.526   1.396 -2.5580 -1.2096  0.3609
 1074SOL    HW214682   4.487   1.609   1.318 -1.3878  1.3894  1.2415
 1075SOL     OW14683   1.992   1.794   8.023  0.0974 -0.0208 -0.3692
 1075SOL    HW114684   1.947   1.731   7.966  0.7228  1.2081 -2.2457
 1075SOL    HW214685   1.919   1.818   8.080  0.3676 -0.3527  0.1141
 1076SOL     OW14686   0.158   4.016   9.856  0.1789 -0.0465 -0.1961
 1076SOL    HW114687   0.229   4.061   9.811  0.3551  0.8055  0.9260
 1076SOL    HW214688   0.216   3.957   9.903  0.0250 -0.9751 -1.1898
 1077SOL     OW14689   2.538   2.199   7.486 -0.5037 -0.2284 -0.1178
 1077SOL    HW114690   2.508   2.219   7.575 -0.6876 -0.4951 -0.1219
 1077SOL    HW214691   2.620   2.154   7.506  0.1763  0.1916 -1.9685
 1078SOL     OW14692   1.451   1.379   2.820 -0.2236  0.1344 -0.2327
 1078SOL    HW114693   1.406   1.392   2.737 -3.0020  0.6319  1.3260
 1078SOL    HW214694   1.392   1.430   2.876  1.0822  1.7189 -0.3002
 1079SOL     OW14695   3.236   2.367   1.829  0.1464 -0.2093 -0.2883
 1079SOL    HW114696   3.157   2.377   1.883  0.5718 -0.0389  0.3010
 1079SOL    HW214697   3.223   2.276   1.805 -1.7959 -0.3134  1.1223
 1080SOL     OW14698   2.541   0.474   3.998 -0.1881 -0.5165 -0.2978
 1080SOL    HW114699   2.576   0.553   4.040 -1.5919 -0.3321  0.5028
 1080SOL    HW214700   2.604   0.411   4.034  1.8403  0.2281 -2.4779
 1081SOL     OW14701   4.707   2.655   6.356  0.1839  0.2020 -0.4809
 1081SOL    HW114702   4.690   2.561   6.350  0.6587 -0.0557  2.0133
 1081SOL    HW214703   0.014   2.659   6.447  0.7252  0.8509 -0.6950
 1082SOL     OW14704   1.993   1.788   5.108 -0.2503 -0.4761 -0.0372
 1082SOL    HW114705   1.974   1.866   5.160 -1.4007 -1.2463  0.6834
 1082SOL    HW214706   2.087   1.784   5.125 -0.4440 -0.5690  1.0152
 1083SOL     OW14707   3.602   0.273   3.400  0.2006  0.7640 -0.1377
 1083SOL    HW114708   3.693   0.275   3.429 -0.3746 -0.0562  1.7714
 1083SOL    HW214709   3.572   0.344   3.457  1.0575  2.2777 -1.6155
 1084SOL     OW14710   3.873   1.147   6.346  0.1469 -0.2015  0.6171
 1084SOL    HW114711   3.897   1.086   6.277  0.2013  0.2046  0.2755
 1084SOL    HW214712   3.933   1.115   6.413 -3.5841  0.5956  4.3564
 1085SOL     OW14713   3.671   4.719  13.927  0.2757 -0.1493  0.8007
 1085SOL    HW114714   3.749   0.014  13.874 -0.0017  3.6024  1.6951
 1085SOL    HW214715   3.630   4.668  13.858 -0.9569  1.6976  0.1682
 1086SOL     OW14716   0.310   1.233  13.947  0.2142 -0.3913 -0.5013
 1086SOL    HW114717   0.269   1.190  13.872 -0.0748  0.5137 -0.8671
 1086SOL    HW214718   0.385   1.174  13.956  0.2591 -0.3317 -0.4797
 1087SOL     OW14719   4.143   1.751  13.138  0.2605 -0.3240 -0.4559
 1087SOL    HW114720   4.104   1.752  13.050  0.2425 -0.8129 -0.4539
 1087SOL    HW214721   4.218   1.805  13.115 -0.7583  1.5431  0.6007
 1088SOL     OW14722   1.370   3.311  11.716  0.2572 -0.0821 -0.5597
 1088SOL    HW114723   1.451   3.348  11.752  0.3758 -0.0349 -0.8770
 1088SOL    HW214724   1.360   3.226  11.760  3.0470 -0.5482 -0.8001
 1089SOL     OW14725   2.139   1.447   8.814 -0.2045  0.6085  0.1406
 1089SOL    HW114726   2.112   1.413   8.899 -1.7990 -1.1717 -1.0786
 1089SOL    HW214727   2.055   1.473   8.777 -0.9659 -0.0826  1.3942
 1090SOL     OW14728   3.706   0.180   1.548  0.4363  0.5577 -0.6994
 1090SOL    HW114729   3.757   0.243   1.498  0.9915 -0.2473 -1.1356
 1090SOL    HW214730   3.711   0.096   1.502  0.5869 -0.0097  0.3523
 1091SOL     OW14731   0.921   0.001   5.603 -0.1373 -0.1521  0.4024
 1091SOL    HW114732   0.919   0.096   5.614  1.1490  0.1955 -2.4493
 1091SOL    HW214733   1.015   4.706   5.609  0.6001  3.4004 -0.3388
 1092SOL     OW14734   2.500   4.243   4.651  0.1277  0.3903 -0.1156
 1092SOL    HW114735   2.439   4.284   4.590  0.2921  2.5929  1.1950
 1092SOL    HW214736   2.499   4.151   4.627 -0.4897  0.2768  0.3413
 1093SOL     OW14737   2.670   1.385   3.225 -0.3760 -0.2867  0.0556
 1093SOL    HW114738   2.744   1.364   3.167  0.2774 -0.1047  0.8245
 1093SOL    HW214739   2.704   1.385   3.314 -2.1524  1.6333  0.7152
 1094SOL     OW14740   1.805   3.167   7.690  0.0043  0.2356  0.2623
 1094SOL    HW114741   1.811   3.263   7.692 -0.6073  0.2994 -1.0433
 1094SOL    HW214742   1.857   3.145   7.768  1.6368 -0.2372 -0.9508
 1095SOL     OW14743   0.111   4.157   3.217 -0.0877  0.5427  0.2524
 1095SOL    HW114744   0.177   4.094   3.188 -1.7661 -1.5570  1.0675
 1095SOL    HW214745   0.041   4.125   3.161 -0.9746  0.3424  1.4887
 1096SOL     OW14746   2.154   1.273   3.684  0.7909 -0.1267  0.6355
 1096SOL    HW114747   2.185   1.226   3.761  1.4824 -2.3659 -1.0239
 1096SOL    HW214748   2.229   1.248   3.631 -1.5131 -1.2676 -2.1403
 1097SOL     OW14749   2.818   1.497  11.438  0.0127 -0.1689 -1.0509
 1097SOL    HW114750   2.762   1.473  11.512  0.8250  0.8821 -0.0982
 1097SOL    HW214751   2.785   1.586  11.426 -0.5580 -0.3755 -1.0143
 1098SOL     OW14752   4.526   2.911   0.453  0.1398 -0.0940 -0.5249
 1098SOL    HW114753   4.599   2.963   0.418  0.7584 -1.5698 -1.4364
 1098SOL    HW214754   4.460   2.932   0.387 -0.7799 -0.5316  0.2591
 1099SOL     OW14755   0.551   2.746   6.323  0.1908 -0.3752  0.2938
 1099SOL    HW114756   0.591   2.821   6.368 -1.3773  0.4677  0.2964
 1099SOL    HW214757   0.594   2.749   6.237  0.3899 -0.1231  0.4039
 1100SOL     OW14758   0.644   0.154   7.814  0.5929 -0.3050 -0.1895
 1100SOL    HW114759   0.650   0.245   7.784 -3.4353  1.3856  4.1489
 1100SOL    HW214760   0.692   0.165   7.896 -0.6087  0.2326  0.4385
 1101SOL     OW14761   4.226   2.130   5.974  0.1842 -0.0293 -0.2447
 1101SOL    HW114762   4.235   2.172   5.888  1.7397  1.7004  0.7581
 1101SOL    HW214763   4.143   2.166   6.005  0.7558  1.0650  0.0262
 1102SOL     OW14764   3.691   1.369   4.594 -0.3511 -0.4209  0.3676
 1102SOL    HW114765   3.762   1.304   4.589 -0.4834 -0.5387 -0.0125
 1102SOL    HW214766   3.643   1.340   4.516 -0.1505  0.4402 -0.0780
 1103SOL     OW14767   1.907   2.175   5.969 -0.4952 -0.7035 -0.2186
 1103SOL    HW114768   1.884   2.201   5.880  0.9919  1.3491  0.0102
 1103SOL    HW214769   1.945   2.254   6.007 -2.2949 -0.0593  0.2683
 1104SOL     OW14770   2.587   4.070   7.558 -0.0809 -0.4755 -0.4350
 1104SOL    HW114771   2.625   4.031   7.636  0.1443  2.6402  1.0105
 1104SOL    HW214772   2.504   4.022   7.564  0.9987 -2.0483  2.0544
 1105SOL     OW14773   3.257   2.939   7.525 -0.1066 -0.2517 -0.3426
 1105SOL    HW114774   3.161   2.938   7.536 -0.0423 -0.5787  0.2162
 1105SOL    HW214775   3.268   2.860   7.473  0.8164 -0.9113  0.8442
 1106SOL     OW14776   3.260   1.833   9.181 -0.5223 -0.0500 -0.0446
 1106SOL    HW114777   3.306   1.793   9.107 -2.3521 -2.4226  0.1129
 1106SOL    HW214778   3.331   1.843   9.245 -0.7284 -2.4456  0.5402
 1107SOL     OW14779   0.191   2.869   8.949 -0.0813  0.1058  0.8027
 1107SOL    HW114780   0.277   2.909   8.961 -0.0296  0.1939  0.1101
 1107SOL    HW214781   0.208   2.775   8.957 -0.0291  0.0761  0.3121
 1108SOL     OW14782   4.713   1.696   3.309 -0.1158 -0.0270  0.7529
 1108SOL    HW114783   0.000   1.644   3.389 -1.6996 -1.4541  0.0230
 1108SOL    HW214784   4.720   1.632   3.239 -0.7826  2.5180 -1.6496
 1109SOL     OW14785   1.725   4.161   3.980 -0.5086 -0.0934  0.1378
 1109SOL    HW114786   1.675   4.240   3.959 -1.1326 -0.0283  1.9098
 1109SOL    HW214787   1.789   4.172   3.909  0.3129 -0.1695  0.8600
 1110SOL     OW14788   0.408   3.300   7.673 -0.3734 -0.6903 -0.0039
 1110SOL    HW114789   0.321   3.340   7.668  0.5128  1.1816 -0.6794
 1110SOL    HW214790   0.457   3.369   7.717  0.6469 -2.0987  1.0651
 1111SOL     OW14791   3.808   0.640   6.920 -0.1427  0.0851  0.0984
 1111SOL    HW114792   3.857   0.625   7.002  0.5381  1.0430 -0.1414
 1111SOL    HW214793   3.867   0.598   6.857  0.2475 -2.5291  2.1570
 1112SOL     OW14794   3.736   0.064   2.488 -0.2601 -0.0425 -0.3215
 1112SOL    HW114795   3.789   4.721   2.445 -1.4269 -2.9104  2.7022
 1112SOL    HW214796   3.653   0.031   2.454  0.5065 -1.0623 -1.1905
 1113SOL     OW14797   0.790   0.676  15.971 -0.3209  0.1476 -0.0727
 1113SOL    HW114798   0.846   0.750  15.950 -0.0196  0.4235  1.7136
 1113SOL    HW214799   0.813   0.671  16.064  1.2482  0.9771 -0.4226
 1114SOL     OW14800   4.578   3.005   5.837 -0.0062  0.1879 -0.1236
 1114SOL    HW114801   4.649   2.957   5.881  1.2927  1.2468 -1.0748
 1114SOL    HW214802   4.589   3.093   5.873  0.8264  0.7720 -1.8433
 1115SOL     OW14803   1.742   2.973  15.691  0.1603  0.1141  0.2259
 1115SOL    HW114804   1.746   2.935  15.779 -0.4213 -0.2622  0.0940
 1115SOL    HW214805   1.776   3.062  15.699  1.2767 -0.2903 -0.1093
 1116SOL     OW14806   0.138   2.869   1.784  0.1243  0.3594  0.1692
 1116SOL    HW114807   0.060   2.906   1.744  0.0520 -0.7851 -0.7437
 1116SOL    HW214808   0.122   2.893   1.875  0.4859  2.6742 -0.3588
 1117SOL     OW14809   2.582   4.460  17.060 -0.2291 -0.5855  0.5268
 1117SOL    HW114810   2.555   4.383  17.009  2.1387 -0.6188 -0.6597
 1117SOL    HW214811   2.580   4.532  16.996 -2.1744 -1.8112 -0.8122
 1118SOL     OW14812   3.054   0.313   2.764 -0.3248  0.1509  0.5989
 1118SOL    HW114813   3.147   0.299   2.784  0.1756  0.2906 -1.6473
 1118SOL    HW214814   3.046   0.317   2.669 -1.7111  1.6919  0.7921
 1119SOL     OW14815   4.405   0.753   6.445 -0.1140 -0.1319  0.4830
 1119SOL    HW114816   4.388   0.833   6.397  0.9110  0.7451  1.5653
 1119SOL    HW214817   4.470   0.778   6.511  0.1532 -0.8740  0.5036
 1120SOL     OW14818   4.107   1.101   9.538 -0.0002 -0.0884 -0.8562
 1120SOL    HW114819   4.131   1.008   9.547  3.3823  0.9722  1.3600
 1120SOL    HW214820   4.141   1.124   9.452 -0.9716 -1.8214 -1.7044
 1121SOL     OW14821   1.791   2.670   5.320  0.8389  0.5066 -0.6251
 1121SOL    HW114822   1.783   2.758   5.356 -2.3201  0.0901 -0.2917
 1121SOL    HW214823   1.706   2.660   5.276  1.7152  0.4685 -2.3194
 1122SOL     OW14824   4.331   3.761  13.097 -0.1233 -0.4873 -0.6846
 1122SOL    HW114825   4.368   3.685  13.143 -1.6585 -1.4244 -0.9916
 1122SOL    HW214826   4.247   3.731  13.062  0.3986  0.8101 -2.9775
 1123SOL     OW14827   2.227   0.270   8.858 -0.3281  0.0886  0.6582
 1123SOL    HW114828   2.172   0.234   8.789 -1.0405  0.3298  1.0901
 1123SOL    HW214829   2.195   0.233   8.940 -2.6129  1.3176  0.3204
 1124SOL     OW14830   0.044   3.578   8.033 -0.6147  0.8445 -0.2392
 1124SOL    HW114831   4.695   3.529   8.071 -0.3858  0.7437  0.0679
 1124SOL    HW214832   0.095   3.583   8.113  1.2130 -1.8250 -1.2110
 1125SOL     OW14833   0.874   1.965   7.849 -0.1693 -0.2227 -0.0335
 1125SOL    HW114834   0.926   1.884   7.846 -0.9423 -0.7608  1.1153
 1125SOL    HW214835   0.903   2.006   7.768 -0.5585  3.1434  1.5370
 1126SOL     OW14836   0.097   3.039  11.001  0.4679  0.1787 -0.3000
 1126SOL    HW114837   0.012   3.063  10.964  0.3187  1.0725  0.6328
 1126SOL    HW214838   0.066   2.998  11.081  2.3974  0.9901  0.8676
 1127SOL     OW14839   2.007   3.798  14.913 -0.0618  0.0017 -0.0053
 1127SOL    HW114840   1.912   3.798  14.905 -0.2453  0.2341  2.0136
 1127SOL    HW214841   2.036   3.888  14.931  0.7484  0.0936 -1.7950
 1128SOL     OW14842   0.242   4.707   6.278  0.7225 -0.2355  0.0347
 1128SOL    HW114843   0.168   0.036   6.247 -0.5266 -2.0054  0.0127
 1128SOL    HW214844   0.256   4.638   6.213 -0.7345 -0.3893 -0.1222
 1129SOL     OW14845   1.744   1.727   1.138 -0.4648  0.6851  0.2919
 1129SOL    HW114846   1.783   1.691   1.059 -2.7581 -1.8341  0.3251
 1129SOL    HW214847   1.748   1.821   1.119  0.1990  0.7483  0.7568
 1130SOL     OW14848   1.622   3.803  11.688 -0.4046 -0.3659 -0.4264
 1130SOL    HW114849   1.686   3.803  11.760 -1.9234  1.1125  0.9138
 1130SOL    HW214850   1.590   3.893  11.694  3.9724  1.0655  1.4813
 1131SOL     OW14851   0.260   4.441  10.467 -0.1869 -0.2866  0.4241
 1131SOL    HW114852   0.206   4.472  10.540 -0.6926 -0.3109  0.0593
 1131SOL    HW214853   0.257   4.516  10.407  0.0218 -1.8521 -1.5229
 1132SOL     OW14854   2.513   1.316  13.394  0.1008  0.0034 -0.1325
 1132SOL    HW114855   2.585   1.301  13.456  0.2115 -0.2714 -0.3292
 1132SOL    HW214856   2.482   1.402  13.421 -0.1449 -0.7343  1.9763
 1133SOL     OW14857   0.015   0.313   7.715  0.3156  0.0290  0.7067
 1133SOL    HW114858   0.110   0.327   7.717  0.4071 -0.6674  1.4546
 1133SOL    HW214859   0.010   0.219   7.697  0.8980  0.2047 -0.3565
 1134SOL     OW14860   0.438   2.889   3.180  0.5065 -0.1915 -0.4070
 1134SOL    HW114861   0.445   2.797   3.154 -2.7583 -1.2388  2.3455
 1134SOL    HW214862   0.456   2.932   3.096  0.0298  0.7774 -0.0099
 1135SOL     OW14863   4.177   1.372   8.887  0.2064 -0.2103 -0.3149
 1135SOL    HW114864   4.182   1.467   8.875 -0.6807  0.0689  1.6997
 1135SOL    HW214865   4.082   1.360   8.883 -0.1439  2.9903 -2.3481
 1136SOL     OW14866   2.099   1.566   5.557 -0.4040 -0.2132 -0.1654
 1136SOL    HW114867   2.011   1.567   5.594  0.2518 -0.8849  1.4415
 1136SOL    HW214868   2.092   1.497   5.492 -2.0497 -0.4447  0.2659
 1137SOL     OW14869   2.255   1.759   7.991 -0.5671  0.3002 -0.4743
 1137SOL    HW114870   2.265   1.666   7.970 -0.9211  0.0281  0.6053
 1137SOL    HW214871   2.160   1.765   8.000 -0.3981  1.1704  0.7559
 1138SOL     OW14872   0.461   2.475   2.475 -0.4337 -0.6966 -0.4360
 1138SOL    HW114873   0.442   2.472   2.381  1.6839  1.5050 -0.9379
 1138SOL    HW214874   0.550   2.446   2.494 -0.4349 -0.4235 -0.0278
 1139SOL     OW14875   0.049   0.830  16.441  0.5231  0.0599  0.3562
 1139SOL    HW114876   0.144   0.835  16.428  0.7064 -0.4686  1.5660
 1139SOL    HW214877   0.035   0.781  16.522 -0.5012 -0.2993 -0.0348
 1140SOL     OW14878   1.374   0.330  14.170 -0.5086  0.0244  0.1652
 1140SOL    HW114879   1.407   0.338  14.259  0.4178 -0.7076 -0.1093
 1140SOL    HW214880   1.292   0.379  14.180 -0.5824 -0.0993  0.1661
 1141SOL     OW14881   0.416   3.370  17.198 -0.1616 -0.1806  0.3348
 1141SOL    HW114882   0.336   3.414  17.169  0.7300 -0.4667 -2.5096
 1141SOL    HW214883   0.459   3.347  17.116 -0.4230  2.4687 -0.5385
 1142SOL     OW14884   0.924   2.768   1.166  0.3754  0.0432  0.2548
 1142SOL    HW114885   0.897   2.857   1.141  0.1607 -0.1994 -0.3814
 1142SOL    HW214886   0.979   2.778   1.244 -0.1874 -1.0824  0.7905
 1143SOL     OW14887   0.351   3.554   3.664  0.5816 -0.0674  0.1608
 1143SOL    HW114888   0.320   3.627   3.610 -0.3920 -0.9417 -0.4505
 1143SOL    HW214889   0.445   3.547   3.647  0.7127  2.8150 -0.3983
 1144SOL     OW14890   3.009   3.267   7.858  0.1773 -0.0100  0.4687
 1144SOL    HW114891   3.004   3.257   7.953  2.4070 -1.5105  0.4276
 1144SOL    HW214892   2.933   3.324   7.843 -0.2462  0.1330  3.1315
 1145SOL     OW14893   4.483   2.427   3.245  0.1517  0.0212  0.4134
 1145SOL    HW114894   4.400   2.426   3.294 -0.9135  0.4476 -1.3900
 1145SOL    HW214895   4.494   2.522   3.242  0.8994 -0.0289  1.6456
 1146SOL     OW14896   3.602   2.461   4.190 -0.2163  0.7258 -0.5086
 1146SOL    HW114897   3.669   2.435   4.126 -0.6483  2.7717 -1.8045
 1146SOL    HW214898   3.568   2.548   4.168 -1.7083  0.5009  0.9347
 1147SOL     OW14899   4.523   0.842   4.711 -0.1768 -0.1184  0.3438
 1147SOL    HW114900   4.607   0.886   4.697 -1.0380  0.7844 -1.8900
 1147SOL    HW214901   4.544   0.749   4.697 -0.5957 -0.2840  0.7742
 1148SOL     OW14902   3.400   3.008   8.256  0.6656  0.0851  0.1889
 1148SOL    HW114903   3.379   2.931   8.203  0.6495 -0.1415  0.5241
 1148SOL    HW214904   3.319   3.011   8.307  0.1144  1.0004 -0.7292
 1149SOL     OW14905   3.630   0.346  12.865  0.0587 -0.2653 -0.6743
 1149SOL    HW114906   3.540   0.355  12.897  0.9110 -0.1972  1.7519
 1149SOL    HW214907   3.655   0.438  12.865  1.0060 -0.5273 -2.1685
 1150SOL     OW14908   0.879   3.388  14.766  0.0098  0.1709  0.3093
 1150SOL    HW114909   0.796   3.354  14.733  1.0366 -0.2550 -1.8189
 1150SOL    HW214910   0.890   3.466  14.713  1.7289 -1.0137 -1.0772
 1151SOL     OW14911   0.852   2.706   6.586 -0.0458 -1.0604  0.2854
 1151SOL    HW114912   0.916   2.772   6.610 -1.3144 -0.4185  1.9324
 1151SOL    HW214913   0.773   2.761   6.589  1.3491  0.8109  2.2477
 1152SOL     OW14914   0.869   1.698  17.283  0.1204  0.1547  0.0831
 1152SOL    HW114915   0.803   1.767  17.280  0.8286  0.8418  0.3801
 1152SOL    HW214916   0.945   1.732  17.235 -0.0032 -0.2273 -0.3864
 1153SOL     OW14917   2.647   2.545   6.837 -0.0020  0.4849 -0.2860
 1153SOL    HW114918   2.646   2.564   6.743  2.3227 -1.4247 -0.7025
 1153SOL    HW214919   2.732   2.586   6.855 -1.3439  3.4515 -0.6654
 1154SOL     OW14920   1.105   3.650   1.881  0.3811 -0.1961 -0.1239
 1154SOL    HW114921   1.012   3.627   1.891  0.5992 -1.4429 -1.0200
 1154SOL    HW214922   1.127   3.599   1.803  1.6519  1.3089 -0.7455
 1155SOL     OW14923   4.272   2.805   5.119 -0.7159  0.1821  0.3660
 1155SOL    HW114924   4.183   2.797   5.154 -0.7087  0.7861  0.5265
 1155SOL    HW214925   4.277   2.731   5.059  0.5206 -1.0079  1.9628
 1156SOL     OW14926   3.493   2.188   4.680 -0.7038  0.3008  0.6812
 1156SOL    HW114927   3.580   2.152   4.700 -0.1418  0.9259 -0.6865
 1156SOL    HW214928   3.443   2.135   4.742 -0.0460  0.9566  1.7718
 1157SOL     OW14929   1.896   0.847   1.031 -0.1154  0.5132 -0.5712
 1157SOL    HW114930   1.923   0.936   1.005 -0.4069  1.4357  2.2740
 1157SOL    HW214931   1.957   0.815   1.097  0.1005 -2.7835 -2.4175
 1158SOL     OW14932   0.223   3.117   6.873  0.1644  0.4110  0.7569
 1158SOL    HW114933   0.237   3.059   6.948  2.9542  1.8191  1.3452
 1158SOL    HW214934   0.129   3.103   6.865  0.8397 -2.6202 -1.7363
 1159SOL     OW14935   0.142   1.857   8.112  0.5302  0.6944 -0.1939
 1159SOL    HW114936   0.141   1.870   8.017  3.5703  0.0345 -0.3364
 1159SOL    HW214937   0.138   1.764   8.134 -0.4630  0.1958 -2.4678
 1160SOL     OW14938   1.397   4.612  10.086 -0.3571 -0.1789  0.3454
 1160SOL    HW114939   1.340   4.654  10.022  3.0386  0.7547 -2.0993
 1160SOL    HW214940   1.367   4.658  10.165  1.9460  1.6095  0.1805
 1161SOL     OW14941   0.012   0.106   1.689  0.1330  0.5495  0.7571
 1161SOL    HW114942   4.664   0.054   1.724  0.0988 -1.0166 -1.6788
 1161SOL    HW214943   4.686   0.188   1.694  1.0526  1.3787 -3.1713
 1162SOL     OW14944   2.790   4.089  12.722  0.2679  0.0196  0.1968
 1162SOL    HW114945   2.811   4.005  12.765 -1.5166 -0.3345  0.3452
 1162SOL    HW214946   2.767   4.049  12.638  2.6924 -0.4866 -0.2328
 1163SOL     OW14947   0.242   2.746   9.331 -0.5270  0.1771 -0.0752
 1163SOL    HW114948   0.294   2.819   9.364 -0.7955 -0.0261  0.7917
 1163SOL    HW214949   0.199   2.787   9.257  0.4662  0.6749 -0.3692
 1164SOL     OW14950   4.573   2.337   7.444 -0.0063 -0.1201  0.1535
 1164SOL    HW114951   4.535   2.288   7.517  1.9967 -0.1946  1.1220
 1164SOL    HW214952   4.608   2.270   7.386 -1.6190 -0.5644 -0.3047
 1165SOL     OW14953   4.212   1.827   3.132  1.0519 -0.0757 -0.6360
 1165SOL    HW114954   4.265   1.790   3.203  0.7057 -0.2311 -0.4581
 1165SOL    HW214955   4.184   1.910   3.169  0.9668  0.3870 -1.7515
 1166SOL     OW14956   0.051   3.003   0.999 -0.5367  0.6178  0.6512
 1166SOL    HW114957   0.137   2.977   0.965  0.1100  1.7562  1.3786
 1166SOL    HW214958   0.005   3.020   0.917  1.3009  0.3786 -0.4294
 1167SOL     OW14959   3.503   3.314  12.459 -0.4700 -0.2996 -0.2811
 1167SOL    HW114960   3.582   3.359  12.487 -2.0750  2.9398 -0.9073
 1167SOL    HW214961   3.483   3.255  12.531 -0.5778  0.4625  0.3130
 1168SOL     OW14962   0.718   2.741  11.919 -0.3890  0.1375  0.2095
 1168SOL    HW114963   0.640   2.759  11.866 -0.4901  0.2156  0.3870
 1168SOL    HW214964   0.744   2.829  11.945  0.8213 -0.1890  0.1069
 1169SOL     OW14965   3.299   2.735   1.576  0.8359  0.0777 -0.2497
 1169SOL    HW114966   3.376   2.780   1.543  0.1698  0.8588 -0.7402
 1169SOL    HW214967   3.237   2.750   1.505 -1.3394 -2.8073  1.0112
 1170SOL     OW14968   0.425   1.455  11.483 -0.2641  0.1095 -0.3326
 1170SOL    HW114969   0.513   1.485  11.462  0.1806 -0.5263  0.6516
 1170SOL    HW214970   0.367   1.525  11.451 -1.7443 -0.8403  0.2459
 1171SOL     OW14971   3.243   2.109   3.349  0.0407  0.0463  0.2065
 1171SOL    HW114972   3.282   2.088   3.434  0.3706 -2.4157 -0.5303
 1171SOL    HW214973   3.182   2.038   3.328  0.4256 -0.8877  2.2738
 1172SOL     OW14974   1.706   2.044   3.965 -0.3138 -0.0794 -0.2528
 1172SOL    HW114975   1.746   2.000   3.890 -0.8523 -2.6930  1.0124
 1172SOL    HW214976   1.725   2.136   3.946  1.2174 -0.1194  1.0521
 1173SOL     OW14977   0.569   0.213  15.603 -0.2524 -0.3664  0.4570
 1173SOL    HW114978   0.570   0.250  15.691 -1.0227  0.7313  0.0006
 1173SOL    HW214979   0.640   0.268  15.569 -1.2303  1.3755  1.2522
 1174SOL     OW14980   1.912   2.959   7.912  0.6495  0.2520  0.0582
 1174SOL    HW114981   1.829   2.994   7.945 -0.4077 -2.6148  0.4302
 1174SOL    HW214982   1.889   2.868   7.895  0.9886  0.0543  0.6617
 1175SOL     OW14983   0.693   3.889   2.088  0.7071  0.1724  0.5206
 1175SOL    HW114984   0.774   3.875   2.039  1.7869  0.6153  2.1827
 1175SOL    HW214985   0.640   3.921   2.015  0.6459 -1.3904 -0.1259
 1176SOL     OW14986   4.704   3.892   4.661 -0.3468 -0.1686  0.0774
 1176SOL    HW114987   4.659   3.919   4.741  1.3539 -0.6017  1.1930
 1176SOL    HW214988   0.064   3.859   4.696  0.1135  0.1707 -0.6880
 1177SOL     OW14989   0.485   2.842  11.788  0.0233 -0.1981  0.0066
 1177SOL    HW114990   0.462   2.855  11.696  0.7710  0.8126 -0.0319
 1177SOL    HW214991   0.433   2.913  11.826 -2.3695 -1.1577 -1.4539
 1178SOL     OW14992   1.193   4.080   3.724 -0.0190  0.2821  0.2527
 1178SOL    HW114993   1.179   3.985   3.723  0.3662  0.2576 -1.5632
 1178SOL    HW214994   1.178   4.091   3.818 -2.6207 -1.6737  0.0922
 1179SOL     OW14995   4.501   0.938   3.265 -0.2440 -0.2975  0.4348
 1179SOL    HW114996   4.528   0.852   3.234  3.2547  1.4056 -1.2838
 1179SOL    HW214997   4.587   0.967   3.295 -1.0436  0.5290  1.9522
 1180SOL     OW14998   0.351   4.118   5.626  0.4790  0.3001  0.7377
 1180SOL    HW114999   0.304   4.109   5.544  0.1146  0.9651  0.8803
 1180SOL    HW215000   0.293   4.075   5.689 -0.4786 -0.5971 -0.7655
 1181SOL     OW15001   2.276   3.924   8.633 -0.1780 -0.0047 -0.5127
 1181SOL    HW115002   2.249   3.924   8.541  2.6397 -0.8999 -1.3302
 1181SOL    HW215003   2.285   4.016   8.659 -1.0194 -0.1938  0.4204
 1182SOL     OW15004   1.697   3.818   2.295  0.2964 -0.0174 -0.6231
 1182SOL    HW115005   1.602   3.830   2.283  0.2260 -1.3495 -1.3943
 1182SOL    HW215006   1.723   3.758   2.225 -0.6071 -2.1184  0.8444
 1183SOL     OW15007   2.936   1.891  17.025 -0.0497 -0.2783  0.2086
 1183SOL    HW115008   2.850   1.919  17.056  0.8797  1.7910  0.9123
 1183SOL    HW215009   2.991   1.941  17.085 -0.0532  0.9277 -0.7961
 1184SOL     OW15010   2.300   0.721   4.233  0.4219 -0.0001 -0.0450
 1184SOL    HW115011   2.239   0.684   4.296 -0.4554 -0.7326 -1.3118
 1184SOL    HW215012   2.383   0.726   4.280 -0.0938  2.0347  0.6109
 1185SOL     OW15013   4.707   1.345   4.534  0.2845  0.4425 -0.3817
 1185SOL    HW115014   0.067   1.300   4.536 -0.8424 -1.6514 -0.8265
 1185SOL    HW215015   4.674   1.325   4.621 -1.4975  0.3821 -1.0689
 1186SOL     OW15016   3.528   3.074  16.468  0.2250  0.6751  0.1826
 1186SOL    HW115017   3.494   3.072  16.379 -0.0925 -2.5730  0.3690
 1186SOL    HW215018   3.451   3.068  16.525  2.2538  1.6638  3.0169
 1187SOL     OW15019   0.647   2.798   6.890  0.1389 -0.1172 -0.5352
 1187SOL    HW115020   0.735   2.769   6.915 -0.2934 -1.0022 -0.0696
 1187SOL    HW215021   0.668   2.859   6.819  1.0871 -0.6692 -0.7347
 1188SOL     OW15022   0.237   2.099   8.948 -0.7049 -0.3254 -0.2936
 1188SOL    HW115023   0.256   2.042   9.022 -0.7672 -0.9091 -0.7331
 1188SOL    HW215024   0.318   2.151   8.946 -0.5886 -0.4939  0.0279
 1189SOL     OW15025   3.208   2.915  15.484  0.0744  0.1139 -0.3701
 1189SOL    HW115026   3.218   2.938  15.577  0.1843 -0.9062 -0.1308
 1189SOL    HW215027   3.247   2.828  15.472 -0.0387  0.6710 -4.6398
 1190SOL     OW15028   3.517   3.168   3.198  0.4997 -0.5619 -0.2865
 1190SOL    HW115029   3.456   3.230   3.158  1.0089  0.2358  0.1675
 1190SOL    HW215030   3.489   3.168   3.290 -1.6734  0.4980 -0.9616
 1191SOL     OW15031   1.791   3.668  17.621 -0.4759 -0.0028 -0.1525
 1191SOL    HW115032   1.780   3.732  17.551  0.7901  1.2696  0.8218
 1191SOL    HW215033   1.741   3.591  17.591 -0.7570  0.3810 -0.6648
 1192SOL     OW15034   3.080   0.771   2.950 -0.3841  0.5776  0.3693
 1192SOL    HW115035   3.079   0.864   2.927  0.7196  0.3416 -0.5771
 1192SOL    HW215036   2.999   0.755   2.901  0.3542 -1.9499 -0.0509
 1193SOL     OW15037   4.254   2.179   1.703  0.2878 -0.4594 -0.1787
 1193SOL    HW115038   4.265   2.209   1.613  2.1018  2.7209  1.1177
 1193SOL    HW215039   4.313   2.103   1.704 -0.8056 -1.3572 -3.3002
 1194SOL     OW15040   1.424   2.828   5.970  0.1685  0.4030 -0.3381
 1194SOL    HW115041   1.481   2.905   5.962  1.7686 -0.6846  0.4566
 1194SOL    HW215042   1.454   2.771   5.899  1.5946  0.7613 -0.0293
 1195SOL     OW15043   2.365   1.583   0.782 -0.4053 -0.3520  0.3178
 1195SOL    HW115044   2.282   1.614   0.745  0.8729  2.0035 -0.5664
 1195SOL    HW215045   2.356   1.487   0.778  1.1604 -0.4405 -0.9097
 1196SOL     OW15046   3.068   4.286   4.697 -0.7728 -0.2809  0.3718
 1196SOL    HW115047   3.036   4.199   4.672  1.2241 -0.6778 -0.8006
 1196SOL    HW215048   3.151   4.271   4.651  0.4950  1.2241  2.1953
 1197SOL     OW15049   1.392   3.560  11.243 -0.5524 -0.6039 -0.4702
 1197SOL    HW115050   1.309   3.604  11.263  0.1993  0.9946 -0.8893
 1197SOL    HW215051   1.457   3.621  11.278  0.8231 -2.6180  0.4362
 1198SOL     OW15052   0.648   0.958   2.455  0.2557 -0.2893  0.0401
 1198SOL    HW115053   0.653   0.921   2.544 -0.1953 -0.4271  0.0050
 1198SOL    HW215054   0.689   1.041   2.482  1.2105 -0.2575 -1.5486
 1199SOL     OW15055   3.367   4.404   2.075  0.4341  0.0962  0.0771
 1199SOL    HW115056   3.301   4.347   2.036  0.7091  0.6881 -1.2767
 1199SOL    HW215057   3.407   4.432   1.993  0.0921 -0.4873 -0.2945
 1200SOL     OW15058   0.073   2.245   7.831 -0.5953 -0.0941 -0.3518
 1200SOL    HW115059   0.142   2.196   7.876  1.7080  2.3828 -1.1901
 1200SOL    HW215060   0.052   2.314   7.895  1.0569 -1.8639  2.1042
 1201SOL     OW15061   4.284   0.032  12.893 -0.3967  0.2669 -0.7799
 1201SOL    HW115062   4.210   0.068  12.942 -0.0868 -0.5417  0.2656
 1201SOL    HW215063   4.281   0.073  12.807  0.1581 -1.4131 -1.5964
 1202SOL     OW15064   2.501   4.368   0.299 -0.4847  0.5061  0.3360
 1202SOL    HW115065   2.576   4.422   0.274 -2.4156  1.9981 -2.2204
 1202SOL    HW215066   2.521   4.287   0.253 -2.1354  1.3407 -1.8376
 1203SOL     OW15067   2.883   2.159   3.115 -0.2619  0.1615  0.0230
 1203SOL    HW115068   2.857   2.251   3.119 -1.2519 -0.1005 -0.4440
 1203SOL    HW215069   2.937   2.148   3.193 -1.8306 -0.5589  1.0027
 1204SOL     OW15070   3.580   3.613  15.932  0.2131 -0.7912  0.2460
 1204SOL    HW115071   3.595   3.598  15.838 -0.7418  3.6243 -0.5763
 1204SOL    HW215072   3.629   3.694  15.942 -0.6242 -0.1071 -1.2056
 1205SOL     OW15073   0.103   3.515  10.582  0.2958  0.3694  0.2351
 1205SOL    HW115074   0.078   3.426  10.607  0.8995  0.2532  0.4196
 1205SOL    HW215075   0.152   3.538  10.661 -0.2817  0.1995  0.6465
 1206SOL     OW15076   3.087   3.701   8.895  0.0341 -0.3904  0.0172
 1206SOL    HW115077   3.106   3.616   8.854  0.9532 -0.2151  0.0849
 1206SOL    HW215078   3.179   3.719   8.915 -0.3109  1.0828  0.3076
 1207SOL     OW15079   2.575   0.517   8.524 -0.2088  0.0991 -0.9571
 1207SOL    HW115080   2.531   0.437   8.495 -1.3996  0.5001 -0.2717
 1207SOL    HW215081   2.665   0.487   8.519 -0.0717  0.1666  1.3407
 1208SOL     OW15082   2.923   1.540   9.474 -0.7778 -0.2064  0.4613
 1208SOL    HW115083   2.952   1.465   9.422 -0.5450 -1.9283  3.0252
 1208SOL    HW215084   2.987   1.602   9.440  1.3292 -1.8985  1.3226
 1209SOL     OW15085   3.725   1.796   8.992  0.2838  0.5051  0.6028
 1209SOL    HW115086   3.790   1.762   8.930 -2.1459 -0.3822 -1.4866
 1209SOL    HW215087   3.734   1.726   9.057  0.1222 -0.3457 -0.2731
 1210SOL     OW15088   0.803   3.009   2.142 -0.2214  1.1019 -0.4742
 1210SOL    HW115089   0.763   3.095   2.135 -2.7986  0.0377  1.1939
 1210SOL    HW215090   0.719   2.963   2.150  0.1911  0.8242  2.1320
 1211SOL     OW15091   0.666   4.403   2.585 -0.0368  0.3332 -0.0620
 1211SOL    HW115092   0.728   4.463   2.543  0.5401  0.7761  1.4145
 1211SOL    HW215093   0.688   4.324   2.536  0.6449  0.2962  0.3086
 1212SOL     OW15094   3.914   4.573  10.264  0.4537  0.5146  0.4741
 1212SOL    HW115095   3.892   4.623  10.185 -1.7012 -0.1494  0.6441
 1212SOL    HW215096   3.824   4.548  10.285  0.6393 -0.0372  0.6253
 1213SOL     OW15097   2.986   0.671   7.922  0.0144 -0.1254  0.8806
 1213SOL    HW115098   2.895   0.666   7.891  0.8447 -3.3759 -1.0404
 1213SOL    HW215099   2.971   0.733   7.993 -2.8223 -2.0357  1.9371
 1214SOL     OW15100   2.519   3.247  14.985  0.3503  0.4075  0.0650
 1214SOL    HW115101   2.605   3.262  15.025  0.6619 -2.2780  0.4093
 1214SOL    HW215102   2.471   3.316  15.030  0.8638  0.9313 -0.1929
 1215SOL     OW15103   1.845   2.731   3.364 -0.6526  0.2079 -0.6687
 1215SOL    HW115104   1.882   2.658   3.413  0.7236  1.6686  0.4686
 1215SOL    HW215105   1.916   2.775   3.318 -0.0582  1.5235  1.4827
 1216SOL     OW15106   3.689   2.101  15.957  0.5959  0.6524  0.0060
 1216SOL    HW115107   3.596   2.112  15.973  0.2438 -1.1824 -0.8407
 1216SOL    HW215108   3.695   2.031  15.892 -0.1527  0.6166 -0.0222
 1217SOL     OW15109   1.893   0.573   4.883  0.4379  0.7517 -0.0115
 1217SOL    HW115110   1.860   0.661   4.899  1.1204  0.8880  0.6723
 1217SOL    HW215111   1.807   0.533   4.871 -1.1886  3.4196  2.8611
 1218SOL     OW15112   0.384   1.027  13.668 -0.0866  0.2573 -0.1181
 1218SOL    HW115113   0.447   1.081  13.619 -0.6912  1.8952  0.9323
 1218SOL    HW215114   0.305   1.046  13.618  0.6510 -1.1366 -1.8671
 1219SOL     OW15115   3.136   1.252   6.077  0.3589 -0.4386  0.1618
 1219SOL    HW115116   3.090   1.170   6.094  1.1763 -1.5696 -3.0537
 1219SOL    HW215117   3.106   1.270   5.988  2.7836  0.4849 -0.4497
 1220SOL     OW15118   2.855   1.550  10.176  0.0363  0.5517  0.1463
 1220SOL    HW115119   2.898   1.551  10.091  0.9539  1.2036  0.6127
 1220SOL    HW215120   2.852   1.642  10.202  0.5790 -0.5638  4.1581
 1221SOL     OW15121   0.185   1.623   1.992  0.0642  0.1952 -0.1494
 1221SOL    HW115122   0.152   1.665   2.072  1.3263  1.2711 -0.1987
 1221SOL    HW215123   0.257   1.577   2.033 -2.6489 -2.6396  1.4590
 1222SOL     OW15124   2.904   1.494  11.825 -0.3241 -0.1469  1.3390
 1222SOL    HW115125   2.848   1.558  11.782  0.4659  0.2493  0.9016
 1222SOL    HW215126   2.989   1.510  11.784 -1.0245  0.7737  0.2671
 1223SOL     OW15127   0.585   1.781   5.323  0.3441  0.2020  0.1272
 1223SOL    HW115128   0.615   1.830   5.247  2.5320 -0.9508  0.2548
 1223SOL    HW215129   0.646   1.707   5.316  0.4757  0.3762 -0.6358
 1224SOL     OW15130   3.129   3.096   6.166 -0.0448  0.2245 -0.1438
 1224SOL    HW115131   3.218   3.073   6.142 -0.0579  0.0702 -0.0432
 1224SOL    HW215132   3.119   3.076   6.259 -1.5219 -0.4485 -0.4487
 1225SOL     OW15133   1.109   2.064   9.960  0.0715  0.4435  0.0536
 1225SOL    HW115134   1.039   2.126   9.975 -2.2975 -1.5666 -2.5965
 1225SOL    HW215135   1.053   1.987   9.970  1.9767 -1.1941 -1.6464
 1226SOL     OW15136   1.202   1.918   1.623  0.3634  0.4080 -0.6071
 1226SOL    HW115137   1.142   1.891   1.554  0.7915 -0.6477 -0.5729
 1226SOL    HW215138   1.260   1.978   1.576  0.8751  0.0953 -0.3872
 1227SOL     OW15139   3.511   3.148   2.609  0.5960 -0.1843 -0.6558
 1227SOL    HW115140   3.423   3.143   2.572  1.1373  1.9447 -2.2541
 1227SOL    HW215141   3.553   3.208   2.548  0.5293  0.6804  0.1405
 1228SOL     OW15142   2.867   3.004  11.985  0.5193 -0.2917  0.6125
 1228SOL    HW115143   2.859   3.081  12.040 -1.1066 -0.8467  1.1368
 1228SOL    HW215144   2.960   3.016  11.967  0.4830 -1.5098 -0.4278
 1229SOL     OW15145   4.615   3.649   9.720 -0.2616 -0.3229  0.5728
 1229SOL    HW115146   4.706   3.626   9.740 -0.0260  0.1529  0.0586
 1229SOL    HW215147   4.565   3.587   9.773  0.1903 -1.4064 -0.2672
 1230SOL     OW15148   1.245   0.598   8.800  0.0729  0.5340  0.0899
 1230SOL    HW115149   1.191   0.637   8.869 -0.4046 -1.0652  0.6218
 1230SOL    HW215150   1.330   0.640   8.807  0.2632 -0.1534  1.7970
 1231SOL     OW15151   3.561   2.301  15.752 -0.1923 -0.3031  0.5787
 1231SOL    HW115152   3.642   2.350  15.769 -1.0572 -0.1079  3.9293
 1231SOL    HW215153   3.573   2.237  15.822 -3.0378 -0.9390  0.4681
 1232SOL     OW15154   2.341   3.815   5.902  0.9083  0.3141  0.1822
 1232SOL    HW115155   2.287   3.830   5.980  1.0436  0.5639  0.2280
 1232SOL    HW215156   2.325   3.891   5.847  0.3758 -1.0563 -1.5324
 1233SOL     OW15157   1.717   3.971  13.696 -0.0135 -0.0759  0.0902
 1233SOL    HW115158   1.705   4.008  13.609 -0.1292 -0.7037 -0.1584
 1233SOL    HW215159   1.761   4.046  13.737  1.6946 -0.7585 -0.5043
 1234SOL     OW15160   2.131   3.838   7.256  0.0235 -0.1533  0.2006
 1234SOL    HW115161   2.190   3.900   7.214  0.4971 -1.8799 -1.6803
 1234SOL    HW215162   2.194   3.768   7.276  1.6373  0.8283 -1.4812
 1235SOL     OW15163   0.674   0.832   7.198  0.1118  0.0059  0.2535
 1235SOL    HW115164   0.759   0.808   7.236 -0.1372  1.1247  1.5317
 1235SOL    HW215165   0.656   0.759   7.139  0.4741 -1.1111  1.5204
 1236SOL     OW15166   0.379   3.958   2.176  0.1399 -0.0070 -0.4410
 1236SOL    HW115167   0.362   3.902   2.100  0.7979 -0.5892 -0.1570
 1236SOL    HW215168   0.362   3.891   2.242  0.7628  0.6897  0.4214
 1237SOL     OW15169   2.525   1.665   2.861  0.3411 -0.3515 -0.0592
 1237SOL    HW115170   2.497   1.579   2.893 -0.4745 -0.2166 -0.4244
 1237SOL    HW215171   2.478   1.671   2.779  0.8521  2.8201 -0.0889
 1238SOL     OW15172   1.986   2.057   8.233  0.2200  0.4422  0.4953
 1238SOL    HW115173   1.974   2.108   8.313 -1.6061 -1.6157  1.5520
 1238SOL    HW215174   1.944   2.122   8.176 -3.2366 -1.1209  1.2432
 1239SOL     OW15175   1.620   2.090   9.013 -0.5058  1.1214  0.2851
 1239SOL    HW115176   1.691   2.135   9.059 -0.3768  0.3895  0.7973
 1239SOL    HW215177   1.547   2.139   9.052 -1.0198  1.3416 -0.9345
 1240SOL     OW15178   3.994   3.875   8.571  0.0832  0.1461 -0.5876
 1240SOL    HW115179   4.023   3.962   8.542 -1.3026  1.0229  0.6566
 1240SOL    HW215180   4.063   3.862   8.636 -1.0920  1.2602  0.8857
 1241SOL     OW15181   4.040   2.604   0.822  0.3702  0.0839  0.3210
 1241SOL    HW115182   4.054   2.603   0.917 -2.2193 -2.4255  0.6956
 1241SOL    HW215183   4.122   2.641   0.790 -0.3005  0.2925 -1.1342
 1242SOL     OW15184   3.537   1.759   4.289 -0.4415 -0.0838 -0.4128
 1242SOL    HW115185   3.558   1.842   4.332 -1.4818  0.0317 -0.1215
 1242SOL    HW215186   3.591   1.707   4.348 -0.8039  0.7222  0.6197
 1243SOL     OW15187   2.620   2.854   3.141 -0.1740 -0.1881 -0.1899
 1243SOL    HW115188   2.575   2.769   3.142  0.5202 -0.5591 -1.2950
 1243SOL    HW215189   2.584   2.888   3.223  0.5067  3.1073 -1.2473
 1244SOL     OW15190   3.836   1.434   6.888  0.3590  0.1607 -0.4452
 1244SOL    HW115191   3.909   1.447   6.948 -0.7974  1.4346  0.7106
 1244SOL    HW215192   3.842   1.339   6.881  2.4255  0.3054 -0.4765
 1245SOL     OW15193   1.997   2.817  17.314  0.5495 -0.3624  0.1229
 1245SOL    HW115194   1.940   2.893  17.323  0.3632 -0.8581  2.9029
 1245SOL    HW215195   2.079   2.846  17.353 -0.7133  1.0885  1.6836
 1246SOL     OW15196   1.441   0.141   1.462  0.1187  0.3454  0.1215
 1246SOL    HW115197   1.350   0.129   1.434  0.7974 -0.3425 -1.7766
 1246SOL    HW215198   1.456   0.071   1.526 -0.0587 -0.9935 -1.2958
 1247SOL     OW15199   1.739   1.374   5.192 -0.4014 -0.0729  0.0309
 1247SOL    HW115200   1.672   1.442   5.195  2.6713  2.8828  1.2389
 1247SOL    HW215201   1.794   1.387   5.115 -1.0422 -2.4718 -0.8189
 1248SOL     OW15202   4.348   4.646   6.652 -0.0225 -0.2421  0.5690
 1248SOL    HW115203   4.427   4.673   6.605 -0.4140 -0.8526 -0.4577
 1248SOL    HW215204   4.381   4.606   6.732  0.3578 -1.3627 -0.1368
 1249SOL     OW15205   0.012   0.112   4.428 -0.0668  0.0288 -0.4434
 1249SOL    HW115206   0.003   0.137   4.336 -0.2763 -0.4528 -0.5492
 1249SOL    HW215207   4.647   0.118   4.462  0.4964 -1.2835  1.2469
 1250SOL     OW15208   0.077   4.409  15.794  0.6272  0.0915 -0.3558
 1250SOL    HW115209   0.169   4.407  15.823  0.3867 -0.1731  0.3956
 1250SOL    HW215210   0.075   4.481  15.731 -2.2699  0.2386 -0.0941
 1251SOL     OW15211   2.513   2.851  14.889 -0.0487 -0.3108 -0.3679
 1251SOL    HW115212   2.518   2.937  14.848 -0.0154 -0.3083 -0.3584
 1251SOL    HW215213   2.515   2.791  14.814 -0.2620 -1.9703  0.9336
 1252SOL     OW15214   1.770   0.385   7.223 -0.8271  0.3120 -0.5216
 1252SOL    HW115215   1.695   0.364   7.278 -0.8789 -0.0923 -0.7476
 1252SOL    HW215216   1.791   0.475   7.248 -0.6302  0.3548 -0.8273
 1253SOL     OW15217   3.365   2.945   6.166 -0.0982  0.2746  0.6016
 1253SOL    HW115218   3.421   2.981   6.235  1.2959 -0.9315  0.0960
 1253SOL    HW215219   3.386   2.852   6.174  0.1624  0.1616 -1.2606
 1254SOL     OW15220   2.430   1.067   5.493 -0.1945  0.3094 -0.3723
 1254SOL    HW115221   2.384   1.080   5.410 -1.4853  1.2155  0.4777
 1254SOL    HW215222   2.515   1.095   5.461 -0.3746  0.8960 -0.3382
 1255SOL     OW15223   1.088   0.378   7.291  0.2651  0.3340 -0.5556
 1255SOL    HW115224   1.083   0.297   7.240  2.2474 -0.8225  1.1230
 1255SOL    HW215225   1.005   0.374   7.339  1.0228 -0.5749  0.6625
 1256SOL     OW15226   1.091   1.923  14.413 -0.2489 -0.0028 -0.2607
 1256SOL    HW115227   1.093   1.986  14.340 -0.8149  1.2012  0.7641
 1256SOL    HW215228   1.151   1.857  14.380 -0.1105 -0.6057  1.2091
 1257SOL     OW15229   2.871   3.253  12.085 -0.5815 -0.4816 -0.5773
 1257SOL    HW115230   2.907   3.290  12.166 -0.4497 -0.1916 -0.7691
 1257SOL    HW215231   2.784   3.293  12.084 -0.6804 -0.7427 -1.6928
 1258SOL     OW15232   1.091   3.661   5.354  0.0457  0.2165  0.0483
 1258SOL    HW115233   1.113   3.618   5.271 -1.7065 -1.3953  0.4223
 1258SOL    HW215234   0.996   3.650   5.349 -0.0633  0.6397  1.2157
 1259SOL     OW15235   2.810   3.470   2.829 -0.2970 -0.1495 -0.3717
 1259SOL    HW115236   2.739   3.451   2.891  0.2766 -2.0726 -0.3137
 1259SOL    HW215237   2.811   3.392   2.773 -0.3766 -1.2674  1.1894
 1260SOL     OW15238   0.061   2.476   2.322 -0.1813 -0.3315  0.0635
 1260SOL    HW115239   0.038   2.420   2.248 -1.4438  0.3426 -0.0539
 1260SOL    HW215240   0.090   2.558   2.283 -0.8996 -0.9286 -1.7266
 1261SOL     OW15241   3.602   0.649  12.600  0.3508  0.1576  0.2438
 1261SOL    HW115242   3.664   0.642  12.527 -1.7873 -0.6102 -1.4979
 1261SOL    HW215243   3.571   0.559  12.601  1.6549 -0.2944 -0.2168
 1262SOL     OW15244   4.697   4.006  11.229  0.4184  0.4077 -0.3866
 1262SOL    HW115245   4.634   3.935  11.216 -0.3772  0.6724  2.1549
 1262SOL    HW215246   0.031   3.970  11.296 -0.3551  0.1500  0.1350
 1263SOL     OW15247   1.114   3.045   0.891 -0.4215  0.1463 -0.1975
 1263SOL    HW115248   1.164   2.965   0.905 -1.3236  0.2998  3.8573
 1263SOL    HW215249   1.112   3.048   0.795  0.0911 -1.1422 -0.2455
 1264SOL     OW15250   0.408   4.536   3.907  0.4070  0.2894 -0.2827
 1264SOL    HW115251   0.458   4.593   3.847 -0.2157  0.2263 -0.8622
 1264SOL    HW215252   0.478   4.501   3.962  0.7182  0.9304 -0.2735
 1265SOL     OW15253   2.465   1.507  17.293  0.8421 -0.1507  0.4909
 1265SOL    HW115254   2.422   1.578  17.245  2.4106  1.6404  1.7211
 1265SOL    HW215255   2.480   1.439  17.228  0.1909 -0.0588  0.2563
 1266SOL     OW15256   4.314   0.684   1.712 -0.3201  0.1072 -0.1514
 1266SOL    HW115257   4.323   0.592   1.687  1.8671 -0.0448  1.1737
 1266SOL    HW215258   4.225   0.686   1.749 -0.3921  1.7591 -0.4413
 1267SOL     OW15259   2.710   3.444   3.100 -0.1711 -0.1381 -0.0666
 1267SOL    HW115260   2.718   3.350   3.117 -2.0982 -0.2132  0.3832
 1267SOL    HW215261   2.617   3.466   3.105 -0.1632  0.1006 -0.8962
 1268SOL     OW15262   2.005   1.084  10.463 -0.2963  0.1542 -0.4562
 1268SOL    HW115263   1.977   1.022  10.396 -1.5333 -0.2940  0.4721
 1268SOL    HW215264   2.044   1.153  10.409 -2.3885 -1.3290 -3.8531
 1269SOL     OW15265   3.416   1.417   2.957 -0.0899 -0.1420 -0.3351
 1269SOL    HW115266   3.365   1.400   2.878 -0.4949 -0.9466  0.0980
 1269SOL    HW215267   3.425   1.512   2.960 -3.0568  0.0771  1.8235
 1270SOL     OW15268   0.573   1.273   1.845  0.3389 -0.3729  0.0430
 1270SOL    HW115269   0.533   1.345   1.893 -2.9170 -1.3808 -1.1744
 1270SOL    HW215270   0.569   1.201   1.907 -1.9846  0.0671  0.4055
 1271SOL     OW15271   1.495   3.749   7.381  0.3235  0.2099 -0.1883
 1271SOL    HW115272   1.540   3.833   7.373  2.2665 -0.7517  0.6491
 1271SOL    HW215273   1.402   3.763   7.362 -0.1611 -2.8721 -0.1388
 1272SOL     OW15274   3.726   1.169   3.142 -0.6019  0.2712  0.0627
 1272SOL    HW115275   3.740   1.138   3.231  1.0595  1.2634  0.1432
 1272SOL    HW215276   3.740   1.091   3.088 -1.7683 -0.0302  0.2070
 1273SOL     OW15277   2.019   0.541   6.816  0.2519 -0.2479  0.3972
 1273SOL    HW115278   2.067   0.544   6.733 -4.4567  1.1449 -2.2470
 1273SOL    HW215279   1.957   0.613   6.819 -0.7686 -1.1011 -0.3507
 1274SOL     OW15280   3.568   1.184   5.225  0.8610 -0.4478 -0.9204
 1274SOL    HW115281   3.526   1.268   5.204  0.8236  0.3948  2.5684
 1274SOL    HW215282   3.546   1.182   5.318 -1.0547  1.7219 -1.3345
 1275SOL     OW15283   2.757   2.435   1.490 -0.0916 -0.2385 -0.2027
 1275SOL    HW115284   2.807   2.448   1.571  2.6242  2.5988 -2.3185
 1275SOL    HW215285   2.739   2.524   1.460  1.2556  0.5919  1.4960
 1276SOL     OW15286   3.820   0.061   4.948  0.2431 -0.1252 -0.1569
 1276SOL    HW115287   3.844   0.007   4.873  0.9002 -1.1228  0.7667
 1276SOL    HW215288   3.899   0.058   5.002  0.2400 -1.3767 -0.2371
 1277SOL     OW15289   0.154   2.210   9.854 -0.4117  0.2744  0.0240
 1277SOL    HW115290   0.180   2.187   9.765 -2.7398 -3.3617  0.2895
 1277SOL    HW215291   0.066   2.242   9.835  0.2124  2.5275  0.8495
 1278SOL     OW15292   4.522   0.848  11.063  0.5210  0.4747  0.3135
 1278SOL    HW115293   4.519   0.942  11.080 -3.0894  0.0354  2.2072
 1278SOL    HW215294   4.516   0.844  10.967  0.4605 -0.7064  0.3681
 1279SOL     OW15295   3.057   4.300   2.679  0.4048  0.1480 -0.0770
 1279SOL    HW115296   3.024   4.212   2.697  0.1348  0.3185  0.2529
 1279SOL    HW215297   3.124   4.311   2.746 -0.1154  0.1878  0.4325
 1280SOL     OW15298   2.416   0.293   5.023  0.0080 -0.4935 -0.6428
 1280SOL    HW115299   2.456   0.296   4.936  0.0728 -0.7349 -0.6204
 1280SOL    HW215300   2.387   0.384   5.026  0.0967 -0.4693 -0.5183
 1281SOL     OW15301   2.183   2.749   6.410  0.3463 -0.3140 -0.1970
 1281SOL    HW115302   2.248   2.725   6.476 -2.1354 -0.8238  2.0412
 1281SOL    HW215303   2.134   2.811   6.464  0.6708  1.4041 -1.8642
 1282SOL     OW15304   2.385   3.887   7.527 -0.6458 -0.0889  0.1222
 1282SOL    HW115305   2.377   3.934   7.444  0.5195 -0.0934  0.0115
 1282SOL    HW215306   2.402   3.800   7.491 -0.5480  0.1702 -0.4664
 1283SOL     OW15307   3.215   0.128   0.200  0.1171 -0.0881 -0.0251
 1283SOL    HW115308   3.187   0.217   0.222  2.0186  0.7105 -0.8534
 1283SOL    HW215309   3.305   0.146   0.227  0.9212 -2.1399 -1.3253
 1284SOL     OW15310   2.483   4.138   8.983 -0.0265  0.0486 -0.7108
 1284SOL    HW115311   2.544   4.179   9.046  0.1157 -0.5795 -0.4388
 1284SOL    HW215312   2.472   4.051   9.021 -0.2714 -0.0695 -1.0558
 1285SOL     OW15313   3.377   1.676  11.212  0.1346  0.6175 -0.0164
 1285SOL    HW115314   3.386   1.749  11.152  1.3335  0.5075  0.0146
 1285SOL    HW215315   3.381   1.728  11.293  0.3562  0.2148  0.2326
 1286SOL     OW15316   3.784   2.270   7.504  0.0601 -0.3819  0.3158
 1286SOL    HW115317   3.809   2.275   7.412 -3.3093  0.5772 -0.5450
 1286SOL    HW215318   3.822   2.352   7.535 -0.1660 -0.2606  0.2729
 1287SOL     OW15319   4.524   2.032   1.056  0.2585 -0.1702  0.2426
 1287SOL    HW115320   4.566   1.995   0.979  0.3983 -2.1493  1.2737
 1287SOL    HW215321   4.488   2.114   1.022  1.9401  1.3169  2.0564
 1288SOL     OW15322   2.915   0.169   0.429 -0.3073 -0.0915  0.0547
 1288SOL    HW115323   2.885   0.143   0.342  1.9283  2.4960 -1.4793
 1288SOL    HW215324   2.840   0.212   0.468 -1.8206 -1.2187 -1.6083
 1289SOL     OW15325   2.295   1.743   1.975  0.2196 -0.7011 -0.0172
 1289SOL    HW115326   2.211   1.710   1.941 -0.0452 -0.9550  0.8914
 1289SOL    HW215327   2.362   1.711   1.915  1.7224  1.4252  0.5374
 1290SOL     OW15328   3.955   3.923   3.314 -0.0359 -0.3522 -0.1414
 1290SOL    HW115329   3.973   3.840   3.272 -0.1770 -0.4879  0.0665
 1290SOL    HW215330   3.869   3.912   3.354 -0.5753 -2.3150 -1.8344
 1291SOL     OW15331   3.925   1.096   1.349  0.6280 -0.2185 -0.0930
 1291SOL    HW115332   3.871   1.017   1.357  1.6140 -0.9876 -1.0286
 1291SOL    HW215333   4.011   1.063   1.326  1.1837  1.2328 -0.0833
 1292SOL     OW15334   2.208   1.852   6.100 -0.1740 -0.4813  0.4103
 1292SOL    HW115335   2.143   1.808   6.155 -1.3431  1.3169  0.4546
 1292SOL    HW215336   2.160   1.877   6.021 -2.0150  0.8971  1.9536
 1293SOL     OW15337   3.324   1.954   3.563  0.1219  1.1018 -0.2020
 1293SOL    HW115338   3.390   1.889   3.585 -2.1876 -0.9507  0.6512
 1293SOL    HW215339   3.242   1.906   3.558  0.0045  1.4039 -1.1144
 1294SOL     OW15340   1.349   1.826  12.528 -0.2923  0.3163 -0.6633
 1294SOL    HW115341   1.356   1.917  12.556 -0.5049  0.5684 -1.4336
 1294SOL    HW215342   1.402   1.821  12.448  0.4988  0.1800 -0.1318
 1295SOL     OW15343   3.768   3.807   0.752  0.0581 -0.6997 -0.0303
 1295SOL    HW115344   3.852   3.853   0.754  0.4349 -1.4155  0.5416
 1295SOL    HW215345   3.743   3.833   0.841  0.9898  0.4474 -0.1000
 1296SOL     OW15346   2.939   0.308  13.243  0.0209  0.4244 -0.3857
 1296SOL    HW115347   3.027   0.284  13.271 -0.7408  0.6808  2.2845
 1296SOL    HW215348   2.914   0.368  13.314  1.3827 -2.9778  2.9541
 1297SOL     OW15349   3.859   1.164   4.646 -0.7079  0.3579  0.3123
 1297SOL    HW115350   3.952   1.182   4.664 -0.5615  1.7170 -1.8435
 1297SOL    HW215351   3.818   1.150   4.731 -1.1989 -1.3446 -0.1986
 1298SOL     OW15352   3.167   3.285   3.630  0.6712  0.3961  0.5047
 1298SOL    HW115353   3.140   3.356   3.688 -0.4254  0.3741  0.0170
 1298SOL    HW215354   3.118   3.329   3.560  0.5437  2.2157  1.7314
 1299SOL     OW15355   3.598   3.622   3.858  0.1110  0.2519 -0.5853
 1299SOL    HW115356   3.524   3.673   3.890  0.7330  1.6618 -1.4020
 1299SOL    HW215357   3.660   3.624   3.932 -0.4664  0.6601 -0.1097
 1300SOL     OW15358   0.144   1.565   0.297 -0.2459  0.4710 -0.1396
 1300SOL    HW115359   0.225   1.601   0.260 -0.0946 -0.3089 -0.5652
 1300SOL    HW215360   0.167   1.473   0.284  0.8042  0.3361  2.7373
 1301SOL     OW15361   2.873   2.466   8.162 -0.0823  0.1010  0.0586
 1301SOL    HW115362   2.836   2.492   8.078  0.1677 -2.2381 -0.7786
 1301SOL    HW215363   2.814   2.522   8.211  0.7690  0.4776  0.6585
 1302SOL     OW15364   1.371   2.491   8.693  0.2620 -0.4074 -0.4288
 1302SOL    HW115365   1.441   2.512   8.630  0.3760 -2.4755 -0.9958
 1302SOL    HW215366   1.350   2.575   8.733  2.3223  0.3575 -0.9643
 1303SOL     OW15367   3.824   3.104  11.028  0.1745 -0.0399 -0.1040
 1303SOL    HW115368   3.763   3.056  11.085  1.6667 -2.0725 -0.2216
 1303SOL    HW215369   3.772   3.108  10.948 -1.5143 -0.9313  0.9535
 1304SOL     OW15370   2.680   1.702   6.701  0.3554  0.1516 -0.0013
 1304SOL    HW115371   2.742   1.765   6.738  0.7051 -0.4885  0.5080
 1304SOL    HW215372   2.712   1.686   6.612  0.0547  1.7126 -0.3900
 1305SOL     OW15373   4.352   2.268   2.320 -0.1954 -0.0094 -0.6361
 1305SOL    HW115374   4.336   2.230   2.406 -1.8364  3.1926  0.4633
 1305SOL    HW215375   4.400   2.198   2.274  0.8982  0.3291  0.0082
 1306SOL     OW15376   2.439   1.369  16.458 -0.4301  0.5471 -0.3403
 1306SOL    HW115377   2.393   1.444  16.494  0.2499  0.2421  1.1345
 1306SOL    HW215378   2.435   1.405  16.369 -1.4310  1.1282 -0.0509
 1307SOL     OW15379   2.846   0.090  13.140 -0.4737  0.1248 -0.4778
 1307SOL    HW115380   2.865   0.171  13.188 -0.7550  0.1655 -0.4291
 1307SOL    HW215381   2.813   0.128  13.058  2.0432  2.3613 -0.4660
 1308SOL     OW15382   2.550   3.074   9.284 -0.0200  0.1665 -0.0105
 1308SOL    HW115383   2.600   3.083   9.365  0.6468  1.9904 -0.6305
 1308SOL    HW215384   2.555   2.980   9.266 -3.8393 -0.1081  0.3495
 1309SOL     OW15385   4.360   3.735  14.560  0.6044 -0.0203  0.1259
 1309SOL    HW115386   4.394   3.700  14.642 -1.8390  1.4957  1.7830
 1309SOL    HW215387   4.271   3.750  14.592  0.6371  1.9678 -0.6653
 1310SOL     OW15388   1.879   2.681   7.970 -0.0978 -0.2576 -0.2119
 1310SOL    HW115389   1.933   2.611   8.008  1.7543  1.4214  0.2161
 1310SOL    HW215390   1.855   2.733   8.047 -0.7718 -0.1770 -0.4830
 1311SOL     OW15391   4.336   1.922   0.354 -0.0288 -0.0547 -0.1484
 1311SOL    HW115392   4.258   1.872   0.379  1.2039 -0.8780  2.1528
 1311SOL    HW215393   4.349   1.992   0.418  1.5825  1.6447 -2.3882
 1312SOL     OW15394   4.224   4.279  11.508 -0.0159  0.5513 -0.4234
 1312SOL    HW115395   4.210   4.201  11.454  0.0495  0.8023 -0.7964
 1312SOL    HW215396   4.203   4.350  11.448  1.5139  0.4744 -1.0457
 1313SOL     OW15397   0.390   4.272   6.952  0.1639 -0.0901 -0.1828
 1313SOL    HW115398   0.447   4.342   6.983 -0.2856  0.4779 -0.6330
 1313SOL    HW215399   0.444   4.217   6.895  0.1012 -0.2880 -0.0530
 1314SOL     OW15400   3.486   3.921   1.290 -0.5792  0.6416 -0.0789
 1314SOL    HW115401   3.483   3.853   1.357 -1.0174  0.3695 -0.3776
 1314SOL    HW215402   3.479   3.870   1.210 -0.3623  1.2738 -0.5047
 1315SOL     OW15403   4.407   3.093   1.655  0.4729 -0.0488 -0.5407
 1315SOL    HW115404   4.373   3.127   1.572 -0.5074  0.6752  0.1537
 1315SOL    HW215405   4.320   3.092   1.695 -0.9535 -0.2807 -3.5684
 1316SOL     OW15406   0.309   1.621   7.827  0.1987 -0.0950  0.0328
 1316SOL    HW115407   0.403   1.627   7.846 -0.3948  0.4075  2.7823
 1316SOL    HW215408   0.321   1.560   7.754 -1.4103 -1.8022  1.2084
 1317SOL     OW15409   0.432   3.462   2.178 -0.3123 -0.6153  0.2314
 1317SOL    HW115410   0.498   3.531   2.188 -0.0299 -1.1194  1.8782
 1317SOL    HW215411   0.416   3.447   2.271 -0.1522 -1.8313  0.0644
 1318SOL     OW15412   4.654   4.319  11.350 -0.2888 -0.0397 -0.1397
 1318SOL    HW115413   4.627   4.321  11.442 -1.9038  2.5805 -0.6944
 1318SOL    HW215414   4.616   4.232  11.334  1.0210 -0.3107 -1.7201
 1319SOL     OW15415   1.736   2.364  14.763  0.4357 -0.0511 -0.8548
 1319SOL    HW115416   1.713   2.272  14.780  2.4322 -0.8342 -2.4394
 1319SOL    HW215417   1.694   2.397  14.843  1.2763  1.0961 -0.8902
 1320SOL     OW15418   1.925   4.650   6.822  0.1888 -0.7106  0.4842
 1320SOL    HW115419   2.001   4.662   6.764 -0.0703 -0.0086  0.2864
 1320SOL    HW215420   1.890   0.014   6.836  2.2871 -0.2834  2.9076
 1321SOL     OW15421   0.645   3.817   4.191  0.7286  0.3975 -0.1396
 1321SOL    HW115422   0.733   3.832   4.226  0.9479  1.1337 -1.0197
 1321SOL    HW215423   0.593   3.845   4.267  2.3080  0.5133  0.9007
 1322SOL     OW15424   0.317   2.271   4.260  0.2469  0.3882 -0.1406
 1322SOL    HW115425   0.351   2.335   4.323 -0.1992  0.2951  0.1957
 1322SOL    HW215426   0.253   2.321   4.209  0.0124  1.0820  0.8211
 1323SOL     OW15427   3.903   3.120   5.197 -0.1336 -0.4107  0.2813
 1323SOL    HW115428   3.988   3.112   5.155  0.7414  0.9766  1.7966
 1323SOL    HW215429   3.839   3.124   5.126 -0.2167  0.2353  0.3982
 1324SOL     OW15430   4.296   1.967   4.293  0.4561  0.1829  0.0974
 1324SOL    HW115431   4.252   1.904   4.235 -0.9971  1.2994 -0.0135
 1324SOL    HW215432   4.261   2.046   4.252  0.5549  0.9777  1.5813
 1325SOL     OW15433   3.779   1.850   3.568 -0.2842 -0.6476 -0.1784
 1325SOL    HW115434   3.767   1.848   3.663  1.2765 -1.5539 -0.0063
 1325SOL    HW215435   3.870   1.875   3.555 -0.2124 -0.1787  1.1691
 1326SOL     OW15436   1.660   0.220   8.164  0.3283  0.3014  0.3919
 1326SOL    HW115437   1.606   0.144   8.184 -1.6997  1.5308 -0.3819
 1326SOL    HW215438   1.695   0.250   8.248 -0.7943 -1.1060  1.3631
 1327SOL     OW15439   2.811   4.087  10.764  0.2668 -0.0561  0.2553
 1327SOL    HW115440   2.805   4.167  10.713 -1.2238 -0.5888 -0.4021
 1327SOL    HW215441   2.886   4.103  10.822 -0.9706  0.9094  1.6019
 1328SOL     OW15442   0.271   3.574   7.256  0.1662 -0.0200 -0.0683
 1328SOL    HW115443   0.286   3.540   7.344 -1.9377  2.0060  1.0756
 1328SOL    HW215444   0.299   3.498   7.204  1.7412 -1.0354  2.2703
 1329SOL     OW15445   2.667   1.858   2.563 -0.1709 -0.0458  0.2338
 1329SOL    HW115446   2.590   1.914   2.555 -0.8330 -1.2277 -1.7133
 1329SOL    HW215447   2.640   1.796   2.496  0.2013  0.5512 -0.4694
 1330SOL     OW15448   1.345   3.919   5.429 -0.2273  0.1573  0.5044
 1330SOL    HW115449   1.313   3.869   5.353 -1.3406 -0.5248  1.4246
 1330SOL    HW215450   1.275   3.984   5.438 -0.7641 -0.4266  0.5290
 1331SOL     OW15451   4.048   1.178   8.671  0.2790  0.3803 -0.3960
 1331SOL    HW115452   4.097   1.121   8.730 -0.2166  0.0760 -0.2693
 1331SOL    HW215453   3.995   1.223   8.737 -1.0749  0.5088 -1.5730
 1332SOL     OW15454   0.636   1.089   6.384 -0.4493  0.1145  0.6327
 1332SOL    HW115455   0.698   1.030   6.427  0.5450  1.4304  0.9834
 1332SOL    HW215456   0.560   1.070   6.438 -0.0510  1.2022  1.5751
 1333SOL     OW15457   4.243   3.105  10.856 -0.2098 -0.1152  0.1603
 1333SOL    HW115458   4.300   3.028  10.867 -0.5450 -0.6984 -2.2291
 1333SOL    HW215459   4.291   3.155  10.922 -3.6180 -0.3951  2.8286
 1334SOL     OW15460   2.243   2.562   4.782  0.1816  0.0400  0.5189
 1334SOL    HW115461   2.308   2.607   4.728  0.0597 -0.8907 -0.3905
 1334SOL    HW215462   2.306   2.510   4.832 -1.6470 -0.9015  1.8488
 1335SOL     OW15463   2.901   1.606   4.433 -0.1009  0.0950 -0.6297
 1335SOL    HW115464   2.827   1.582   4.377 -0.0862  1.0884 -1.0598
 1335SOL    HW215465   2.887   1.698   4.455  2.0383  0.4006 -0.5631
 1336SOL     OW15466   2.141   1.467   1.713 -0.5388 -0.2692 -0.4175
 1336SOL    HW115467   2.223   1.420   1.726 -0.4727 -0.2719 -0.8466
 1336SOL    HW215468   2.082   1.392   1.707  0.2379 -0.7897 -1.5214
 1337SOL     OW15469   0.365   0.380   5.608 -0.2306 -0.8381 -0.6668
 1337SOL    HW115470   0.273   0.369   5.634 -0.4745  3.6830  0.3461
 1337SOL    HW215471   0.418   0.346   5.680  2.4957  0.7270 -1.9315
 1338SOL     OW15472   3.842   3.901  14.075  0.0019  0.2128  0.4085
 1338SOL    HW115473   3.828   3.864  14.162  1.3850 -1.5449 -0.1130
 1338SOL    HW215474   3.932   3.869  14.062 -0.1367 -0.3883  0.9006
 1339SOL     OW15475   2.855   1.541   3.016  0.4626  0.0010  0.4386
 1339SOL    HW115476   2.784   1.534   2.953  1.1088 -1.3474 -0.1483
 1339SOL    HW215477   2.873   1.448   3.032  0.0809 -0.5432 -2.2961
 1340SOL     OW15478   4.642   3.361   2.712 -0.8293  0.5990 -0.0436
 1340SOL    HW115479   4.712   3.415   2.749  0.3076 -0.8184 -0.1028
 1340SOL    HW215480   4.584   3.347   2.787 -2.1109 -1.3309 -1.4036
 1341SOL     OW15481   3.616   3.229  16.790 -0.0812  0.1921  0.5220
 1341SOL    HW115482   3.538   3.193  16.748  0.5093 -1.1436  0.5743
 1341SOL    HW215483   3.581   3.245  16.877  0.7978 -0.9882  1.0919
 1342SOL     OW15484   4.133   0.467   1.967  0.1351 -0.4387 -0.7515
 1342SOL    HW115485   4.104   0.394   1.912  1.3858 -0.0628 -1.9041
 1342SOL    HW215486   4.156   0.524   1.893  0.1690  2.7140  1.6555
 1343SOL     OW15487   3.431   1.173   2.359  0.1648  0.3546 -0.1389
 1343SOL    HW115488   3.410   1.202   2.448 -1.0691  1.2135 -0.7166
 1343SOL    HW215489   3.360   1.110   2.342  1.7010 -1.1684 -0.8988
 1344SOL     OW15490   0.150   1.180   9.734 -0.8052 -0.1298 -0.2516
 1344SOL    HW115491   0.225   1.176   9.674 -0.7009 -1.3620 -0.0464
 1344SOL    HW215492   0.185   1.185   9.823  1.2732 -1.8929 -0.9497
 1345SOL     OW15493   2.626   4.087   6.912  0.0601 -0.2697 -0.1933
 1345SOL    HW115494   2.592   4.057   6.996 -0.8149 -1.0081 -0.8103
 1345SOL    HW215495   2.582   4.040   6.841  0.0261  0.8391 -0.9095
 1346SOL     OW15496   3.840   4.485   7.385  0.3410  0.6843  0.5043
 1346SOL    HW115497   3.907   4.462   7.450  1.3934  0.2970 -0.7247
 1346SOL    HW215498   3.873   4.556   7.330  1.2551 -2.3494 -2.8374
 1347SOL     OW15499   2.179   3.244   4.930  0.3139 -0.1982  0.0095
 1347SOL    HW115500   2.164   3.161   4.974 -2.1192  1.2554  1.9542
 1347SOL    HW215501   2.137   3.303   4.993 -2.5514 -1.3180 -0.8536
 1348SOL     OW15502   2.077   1.638   1.050 -0.3631  0.4069  0.0842
 1348SOL    HW115503   2.146   1.575   1.032 -2.3001 -1.0217 -2.3248
 1348SOL    HW215504   2.081   1.648   1.145  1.5525  0.7055 -0.0421
 1349SOL     OW15505   0.442   3.806   4.389  0.0861 -0.2119  0.3370
 1349SOL    HW115506   0.399   3.867   4.329  0.7887 -0.4325 -0.3858
 1349SOL    HW215507   0.395   3.830   4.470  3.0594  0.6401  1.8071
 1350SOL     OW15508   1.403   4.502  15.880 -0.0410  0.5264  0.4528
 1350SOL    HW115509   1.377   4.581  15.927 -1.3742  1.0444 -1.1540
 1350SOL    HW215510   1.434   4.450  15.955 -1.1874  0.4936  0.8964
 1351SOL     OW15511   3.526   3.579   2.126  0.0893  0.4858 -0.1190
 1351SOL    HW115512   3.505   3.631   2.049 -0.9938  0.6846  0.3040
 1351SOL    HW215513   3.501   3.490   2.100 -0.6408  1.1380 -1.6471
 1352SOL     OW15514   0.196   1.444   1.511  0.1613 -0.2803 -0.0027
 1352SOL    HW115515   0.228   1.399   1.590  0.9031  0.3850  0.0697
 1352SOL    HW215516   0.264   1.509   1.494 -1.1001  0.4017 -2.4385
 1353SOL     OW15517   4.124   0.750   4.419  0.3607 -0.4443  0.2836
 1353SOL    HW115518   4.032   0.743   4.392  0.6612  1.0489 -1.0565
 1353SOL    HW215519   4.154   0.659   4.419 -1.8456 -1.1707  0.3345
 1354SOL     OW15520   3.742   1.109   1.719 -0.9594  0.5664  0.6424
 1354SOL    HW115521   3.677   1.157   1.770  1.0180  2.0387  1.7357
 1354SOL    HW215522   3.734   1.168   1.644 -2.7795  0.5705  0.8450
 1355SOL     OW15523   3.177   3.362   5.544  0.0285 -0.5038  0.1300
 1355SOL    HW115524   3.229   3.331   5.617 -0.6288 -3.0855 -0.5049
 1355SOL    HW215525   3.143   3.448   5.568 -0.5985 -0.1644 -1.9332
 1356SOL     OW15526   1.864   0.432   8.561  0.0455 -0.3178 -0.5510
 1356SOL    HW115527   1.924   0.460   8.630 -0.0253 -1.3096 -0.0785
 1356SOL    HW215528   1.826   0.513   8.529 -0.5482 -0.0913  0.7242
 1357SOL     OW15529   1.218   1.728  15.432  0.4518 -0.1288 -0.6594
 1357SOL    HW115530   1.285   1.788  15.465 -0.5659  0.1772  0.8376
 1357SOL    HW215531   1.247   1.643  15.468 -1.6229 -0.4467  0.2420
 1358SOL     OW15532   4.603   3.083  10.817  0.1179 -0.3312 -0.1679
 1358SOL    HW115533   4.569   3.134  10.890 -0.1291  1.3399 -1.4642
 1358SOL    HW215534   4.524   3.030  10.808 -0.9949  1.1821  0.7091
 1359SOL     OW15535   4.629   1.039   9.354  0.2110 -0.3922  0.1138
 1359SOL    HW115536   4.697   1.106   9.352 -1.1350  0.9438 -0.5693
 1359SOL    HW215537   4.655   0.981   9.426 -0.8503 -0.1596  0.6929
 1360SOL     OW15538   0.767   4.096   6.967  0.2058  0.2237  0.1651
 1360SOL    HW115539   0.781   4.038   6.892 -2.1091 -2.4973  1.7973
 1360SOL    HW215540   0.712   4.038   7.020  1.6372  0.7487  2.2094
 1361SOL     OW15541   4.228   1.126   7.532 -0.4412  0.2652  0.0139
 1361SOL    HW115542   4.277   1.198   7.493 -0.1478 -0.3070 -0.6684
 1361SOL    HW215543   4.173   1.174   7.594  0.4428  1.6469 -0.2677
 1362SOL     OW15544   2.423   4.438   5.341 -0.2477 -0.0843 -0.0555
 1362SOL    HW115545   2.444   4.358   5.292 -0.1701 -0.0685 -0.0476
 1362SOL    HW215546   2.471   4.417   5.422 -1.1945  2.2035  1.1022
 1363SOL     OW15547   1.572   2.522   5.654 -0.2598  0.0985  0.0480
 1363SOL    HW115548   1.576   2.615   5.631 -0.6335  0.0466 -0.2309
 1363SOL    HW215549   1.526   2.519   5.738  1.5791 -1.6945  0.9831
 1364SOL     OW15550   3.547   1.067  11.384 -0.5437  0.3451  0.2613
 1364SOL    HW115551   3.620   1.089  11.326 -0.9643 -3.0674 -1.5745
 1364SOL    HW215552   3.584   1.101  11.465  0.8632 -1.1514  0.2365
 1365SOL     OW15553   3.642   1.803   1.142 -0.2143  0.7980  1.2035
 1365SOL    HW115554   3.682   1.880   1.182 -1.1531  1.5780  0.6198
 1365SOL    HW215555   3.637   1.740   1.214  1.4775 -2.7195 -1.6888
 1366SOL     OW15556   3.368   3.462   1.797 -0.1270 -0.0518 -0.3088
 1366SOL    HW115557   3.299   3.525   1.776 -0.3121 -0.3747 -0.6668
 1366SOL    HW215558   3.418   3.522   1.852  0.7098 -2.0299  1.0793
 1367SOL     OW15559   2.646   4.552  17.570  0.1290 -0.0115 -0.7055
 1367SOL    HW115560   2.707   4.586  17.505  1.5139  0.6824  0.9637
 1367SOL    HW215561   2.574   4.529  17.511 -0.5615  0.2764  0.0174
 1368SOL     OW15562   1.682   2.527   3.700  0.1214  0.7236 -0.1487
 1368SOL    HW115563   1.752   2.565   3.753 -1.5766  1.7872  1.3202
 1368SOL    HW215564   1.730   2.499   3.623  0.1484 -0.4351  0.2979
 1369SOL     OW15565   1.199   2.101   3.296  0.2917  0.4265 -0.1626
 1369SOL    HW115566   1.146   2.090   3.217 -1.6677 -0.6582  1.3188
 1369SOL    HW215567   1.277   2.124   3.245  0.2654  1.5963  0.3236
 1370SOL     OW15568   4.183   3.789   7.855 -0.0829  0.0071  0.2667
 1370SOL    HW115569   4.126   3.819   7.785 -1.8122  0.0365  1.6964
 1370SOL    HW215570   4.152   3.853   7.919 -0.3122 -0.6070  0.7720
 1371SOL     OW15571   2.456   4.640  14.632  0.0135 -0.4065  0.0516
 1371SOL    HW115572   2.395   4.635  14.706 -0.3722  1.2291 -0.1561
 1371SOL    HW215573   2.397   4.631  14.558 -1.1147  2.9647  0.5151
 1372SOL     OW15574   0.830   1.108   8.415 -0.2956  0.4020  0.4027
 1372SOL    HW115575   0.853   1.032   8.362 -0.5177  0.0798  0.7689
 1372SOL    HW215576   0.754   1.071   8.459  0.3126 -2.4095 -0.9638
 1373SOL     OW15577   3.726   2.689   2.197  0.0238  0.0738  0.4508
 1373SOL    HW115578   3.797   2.635   2.232 -0.0905 -0.3889 -0.0309
 1373SOL    HW215579   3.770   2.774   2.193  0.6637 -0.2297  0.9517
 1374SOL     OW15580   3.874   4.611  10.979  0.1180 -0.5549 -0.8397
 1374SOL    HW115581   3.839   4.522  10.979  0.5443 -0.7313 -2.5926
 1374SOL    HW215582   3.931   4.610  11.056 -0.8353 -1.7160 -0.1627
 1375SOL     OW15583   4.690   0.702   9.333 -0.2467  0.7900 -0.8461
 1375SOL    HW115584   4.606   0.659   9.349  0.8509 -0.8487  0.5214
 1375SOL    HW215585   4.679   0.767   9.402  0.1923  1.5455 -1.4858
 1376SOL     OW15586   3.519   3.008  12.933  0.1975  0.0867 -0.0067
 1376SOL    HW115587   3.465   2.961  12.996 -2.1190  3.1174  0.2741
 1376SOL    HW215588   3.609   3.004  12.967  0.3455  0.5601 -0.3337
 1377SOL     OW15589   2.637   3.777  16.667 -0.1845 -0.1073 -1.0857
 1377SOL    HW115590   2.655   3.835  16.592 -0.1347 -0.7815 -1.5903
 1377SOL    HW215591   2.602   3.699  16.623 -1.7105 -1.5723  2.7508
 1378SOL     OW15592   0.639   1.012  12.428 -0.0697  0.3007 -0.0034
 1378SOL    HW115593   0.592   1.054  12.356  0.1284  0.8563  0.1949
 1378SOL    HW215594   0.623   1.077  12.496  0.6647 -0.7960  1.2370
 1379SOL     OW15595   2.898   0.649  13.623  0.1332  0.0630  0.8709
 1379SOL    HW115596   2.908   0.733  13.578 -1.0907 -0.4015 -0.2719
 1379SOL    HW215597   2.834   0.683  13.686  1.4682  0.9646  1.7371
 1380SOL     OW15598   2.135   3.550  13.475 -0.1007  0.1344 -0.9714
 1380SOL    HW115599   2.166   3.551  13.565 -0.5559 -0.6615 -0.8081
 1380SOL    HW215600   2.196   3.608  13.428  1.1021  1.9912  2.9205
 1381SOL     OW15601   1.271   2.710   6.397 -0.3668  0.0400 -0.2010
 1381SOL    HW115602   1.350   2.716   6.343  0.8177 -2.1501  1.2915
 1381SOL    HW215603   1.204   2.734   6.334  0.1442  0.4335 -0.5937
 1382SOL     OW15604   2.035   2.530   8.495  0.2445 -0.4228  0.7396
 1382SOL    HW115605   2.017   2.606   8.439 -1.6710 -0.9110  0.6826
 1382SOL    HW215606   1.959   2.526   8.552 -1.5040 -0.1704 -1.5461
 1383SOL     OW15607   0.256   4.017   2.891 -0.6573 -0.6058 -0.2853
 1383SOL    HW115608   0.329   4.038   2.949 -0.0996  0.0805 -1.2282
 1383SOL    HW215609   0.279   4.068   2.813  0.5564  2.1435  1.8967
 1384SOL     OW15610   4.278   2.282   6.410 -0.2212  0.0209 -0.0433
 1384SOL    HW115611   4.219   2.221   6.455  0.4865 -1.3153 -0.9201
 1384SOL    HW215612   4.350   2.264   6.469 -0.0448 -0.3287 -0.3614
 1385SOL     OW15613   0.939   1.838   3.526 -0.1919  0.0961  0.0321
 1385SOL    HW115614   0.849   1.863   3.549  0.3769 -0.5269  2.9019
 1385SOL    HW215615   0.928   1.832   3.431  0.6318 -0.5323 -0.0258
 1386SOL     OW15616   2.119   0.427  10.808 -0.9707 -0.6452  0.2361
 1386SOL    HW115617   2.037   0.386  10.837 -1.8231  0.1081 -1.0947
 1386SOL    HW215618   2.100   0.518  10.830 -0.4192 -0.4734 -0.0056
 1387SOL     OW15619   4.511   3.202   5.234  0.4812  0.5886  0.0983
 1387SOL    HW115620   4.516   3.121   5.184  0.5997 -0.1290  1.2957
 1387SOL    HW215621   4.545   3.162   5.314 -0.2591  1.4049  0.8230
 1388SOL     OW15622   0.785   2.423   6.840 -0.2556 -0.4572 -0.1961
 1388SOL    HW115623   0.790   2.515   6.865 -0.0476  0.0024 -1.9646
 1388SOL    HW215624   0.725   2.383   6.903 -1.6753  2.1033  0.0642
 1389SOL     OW15625   0.933   0.294  16.601  0.4615 -0.7386 -0.3861
 1389SOL    HW115626   1.022   0.320  16.580  1.2524 -0.9372  2.7314
 1389SOL    HW215627   0.916   0.365  16.662  1.0738  2.1689 -3.6082
 1390SOL     OW15628   1.350   2.852   2.204 -0.0231 -0.3679  0.2509
 1390SOL    HW115629   1.307   2.842   2.119  0.7049  2.6365 -0.4698
 1390SOL    HW215630   1.286   2.832   2.273 -1.2358 -0.2603 -0.8303
 1391SOL     OW15631   0.873   2.485   5.582 -0.0575  0.1642  0.1563
 1391SOL    HW115632   0.899   2.573   5.556 -0.9372 -0.2797 -2.2796
 1391SOL    HW215633   0.798   2.508   5.637  0.0757 -2.4712  1.4358
 1392SOL     OW15634   1.131   4.700   3.252 -0.1620  0.1884 -0.8032
 1392SOL    HW115635   1.137   4.631   3.186  2.4387  0.2712 -0.6732
 1392SOL    HW215636   1.183   0.043   3.208  0.3683  0.3942  0.1449
 1393SOL     OW15637   3.214   2.639   3.159 -0.0936  1.0531 -0.0616
 1393SOL    HW115638   3.154   2.640   3.085  0.9677  0.8866 -0.9253
 1393SOL    HW215639   3.290   2.666   3.107 -0.4747  1.0045 -0.6387
 1394SOL     OW15640   0.333   0.959   9.923  0.3011  0.2163 -0.4001
 1394SOL    HW115641   0.292   1.045   9.930 -2.2929 -1.0041 -0.5571
 1394SOL    HW215642   0.428   0.968   9.926  0.1423  1.2106  1.6475
 1395SOL     OW15643   3.773   2.384   3.985  0.6663  0.0545 -0.0205
 1395SOL    HW115644   3.845   2.421   3.935 -0.1334  0.8543 -0.5705
 1395SOL    HW215645   3.724   2.344   3.913  0.0244  0.4711  0.1829
 1396SOL     OW15646   2.602   0.938   4.073 -0.2913  0.1630  0.3254
 1396SOL    HW115647   2.644   0.854   4.089 -0.9673 -0.3703 -0.7301
 1396SOL    HW215648   2.513   0.913   4.047 -0.4582 -0.0398  1.0858
 1397SOL     OW15649   0.247   4.485   2.418  0.3531 -0.4508 -0.4811
 1397SOL    HW115650   0.207   4.491   2.332 -1.7697 -0.5050  0.4951
 1397SOL    HW215651   0.312   4.419   2.393 -0.4920 -1.5539  0.1999
 1398SOL     OW15652   1.031   2.869   0.210 -0.2580 -0.3032  0.1071
 1398SOL    HW115653   0.939   2.887   0.189 -0.3884  0.4113  1.2840
 1398SOL    HW215654   1.025   2.774   0.200 -3.7799  0.0090 -0.8264
 1399SOL     OW15655   2.375   4.275   3.879 -0.4676 -0.4076  0.4952
 1399SOL    HW115656   2.421   4.279   3.963  0.2423  1.0649  0.0370
 1399SOL    HW215657   2.445   4.285   3.815 -1.3806  1.4511 -0.2237
 1400SOL     OW15658   3.105   2.014   5.605  0.4408  0.2848  0.1349
 1400SOL    HW115659   3.198   2.035   5.612  0.4471  0.3859 -0.2676
 1400SOL    HW215660   3.095   1.935   5.658 -0.9389 -0.2485 -0.9193
 1401SOL     OW15661   1.143   3.585  12.552 -0.0970 -0.1695 -0.1988
 1401SOL    HW115662   1.233   3.569  12.524  0.6601 -0.1644  2.3083
 1401SOL    HW215663   1.099   3.591  12.467 -1.4504 -1.8475  0.3930
 1402SOL     OW15664   1.325   0.767   7.192  0.0585  0.7732  0.1775
 1402SOL    HW115665   1.276   0.736   7.269  0.6038  0.1312  0.2591
 1402SOL    HW215666   1.409   0.793   7.229 -0.1240 -0.3612  1.4057
 1403SOL     OW15667   3.039   3.099   6.462 -0.0287 -0.3133  0.1639
 1403SOL    HW115668   3.060   3.173   6.519  0.8387 -0.2900 -0.1906
 1403SOL    HW215669   3.099   3.030   6.489 -0.5016 -0.6500  0.3673
 1404SOL     OW15670   3.423   3.734   7.771  0.0463 -0.2333  0.7226
 1404SOL    HW115671   3.339   3.774   7.793 -0.8020  0.1727 -3.2997
 1404SOL    HW215672   3.477   3.761   7.846 -0.3650  1.9495  0.2493
 1405SOL     OW15673   4.309   2.611   0.745  0.2362 -0.5466  0.2705
 1405SOL    HW115674   4.332   2.703   0.726  0.8629 -0.0826  3.3181
 1405SOL    HW215675   4.371   2.568   0.686 -1.2194 -0.0944 -1.6245
 1406SOL     OW15676   0.992   4.217   3.593 -0.0874 -0.1877  0.1941
 1406SOL    HW115677   1.084   4.201   3.610 -0.1978  0.7545  1.6521
 1406SOL    HW215678   0.955   4.180   3.672 -0.1128  1.4113  0.9424
 1407SOL     OW15679   2.348   3.988   9.351 -0.5635 -0.5154  0.4217
 1407SOL    HW115680   2.361   4.082   9.349 -0.9977 -0.4156  2.1041
 1407SOL    HW215681   2.441   3.969   9.336 -1.0437 -1.5095 -1.3350
 1408SOL     OW15682   3.279   0.830   5.607  0.3137 -0.2081 -0.1549
 1408SOL    HW115683   3.358   0.881   5.624  0.3874 -0.8265  1.3911
 1408SOL    HW215684   3.294   0.760   5.672 -0.1950 -0.8341 -0.7156
 1409SOL     OW15685   1.278   4.259   8.619  0.5638  0.0119 -0.2093
 1409SOL    HW115686   1.200   4.205   8.609 -0.4501  1.2738  1.0371
 1409SOL    HW215687   1.243   4.341   8.651 -1.0133 -1.8148  2.7239
 1410SOL     OW15688   1.505   1.245  17.410  0.6219 -0.7162 -0.2604
 1410SOL    HW115689   1.453   1.212  17.336 -0.0213 -0.8538  0.2573
 1410SOL    HW215690   1.524   1.161  17.451 -1.1090 -1.0404 -0.1105
 1411SOL     OW15691   0.087   4.658  13.239 -0.3055  0.1067  0.1673
 1411SOL    HW115692   0.088   4.583  13.299  1.3180 -1.0469 -1.3011
 1411SOL    HW215693   0.178   4.653  13.209 -0.2403 -4.9251  1.2447
 1412SOL     OW15694   1.665   3.134   3.379  0.4420  0.4540 -0.0349
 1412SOL    HW115695   1.685   3.217   3.335  1.6093  0.5493  0.6498
 1412SOL    HW215696   1.595   3.116   3.317 -1.5721 -1.5974  2.8566
 1413SOL     OW15697   1.836   0.579   4.287 -0.2631 -0.1888  0.1205
 1413SOL    HW115698   1.788   0.591   4.369  0.0880 -1.7481  0.5522
 1413SOL    HW215699   1.893   0.507   4.314 -0.2135 -0.1565  0.1013
 1414SOL     OW15700   3.016   2.470  10.363  0.1265  0.0523  0.0438
 1414SOL    HW115701   3.076   2.412  10.317 -0.6551  0.5131 -1.5252
 1414SOL    HW215702   2.935   2.464  10.312  0.0435  1.0604  0.0611
 1415SOL     OW15703   1.966   4.471   3.146 -0.0262  0.1460  0.0638
 1415SOL    HW115704   1.967   4.567   3.143 -0.6117  0.0094 -4.3972
 1415SOL    HW215705   1.996   4.456   3.235 -2.1873 -0.2131  0.7306
 1416SOL     OW15706   3.920   2.096   4.897  0.8172  0.3612 -0.1524
 1416SOL    HW115707   3.912   2.113   4.991 -0.1112  1.2181 -0.3842
 1416SOL    HW215708   3.968   2.014   4.894 -0.6351 -0.4431 -1.4681
 1417SOL     OW15709   3.225   2.020   6.833 -0.0949 -0.2452 -0.6781
 1417SOL    HW115710   3.261   1.969   6.906 -1.6416  0.6237  0.6981
 1417SOL    HW215711   3.145   2.053   6.873  0.8836 -0.8010  1.7270
 1418SOL     OW15712   3.652   1.992   5.566  0.2700 -0.7446 -0.8156
 1418SOL    HW115713   3.633   2.043   5.487  1.5315  1.3372  0.2039
 1418SOL    HW215714   3.736   2.025   5.600 -0.9384  2.7857 -1.1907
 1419SOL     OW15715   0.852   4.068   9.182  0.0792 -0.1595 -0.7562
 1419SOL    HW115716   0.902   4.147   9.202  0.1977 -0.2052 -0.8778
 1419SOL    HW215717   0.803   4.057   9.264  2.8429  2.4909  1.2603
 1420SOL     OW15718   3.884   3.536   2.733  0.4692 -0.0790  0.1129
 1420SOL    HW115719   3.941   3.594   2.783  0.0008  0.5454 -0.0832
 1420SOL    HW215720   3.836   3.592   2.672  1.7127  1.5402  0.6434
 1421SOL     OW15721   0.776   1.332   4.087 -0.6418 -0.5708  0.1707
 1421SOL    HW115722   0.847   1.338   4.150 -0.4410 -0.0355 -0.1055
 1421SOL    HW215723   0.733   1.417   4.100 -2.1443 -1.3483  0.2541
 1422SOL     OW15724   2.919   3.349  12.589  0.1383  0.3181  0.2470
 1422SOL    HW115725   2.963   3.266  12.571  2.1050  1.1896  1.0710
 1422SOL    HW215726   2.985   3.407  12.551  0.0233 -2.0796 -3.5301
 1423SOL     OW15727   2.186   0.601   7.556 -0.5789 -0.6797  0.1824
 1423SOL    HW115728   2.280   0.620   7.558 -0.7953  0.6123 -1.3406
 1423SOL    HW215729   2.155   0.604   7.646 -1.6329  3.6875 -0.2948
 1424SOL     OW15730   0.269   3.105   1.585 -0.2998 -0.4814  0.1642
 1424SOL    HW115731   0.328   3.087   1.658 -0.7121  0.9487  0.8510
 1424SOL    HW215732   0.228   3.020   1.571 -1.1600 -0.4925  2.8139
 1425SOL     OW15733   2.133   2.659   3.870  0.4195  0.2380  0.1037
 1425SOL    HW115734   2.048   2.666   3.828  0.8185 -2.6474 -1.1617
 1425SOL    HW215735   2.187   2.731   3.836 -0.5346  1.4873  1.2555
 1426SOL     OW15736   1.719   1.335   4.646 -0.0568 -0.3245 -0.0971
 1426SOL    HW115737   1.773   1.375   4.578 -0.9532  0.5027 -0.3313
 1426SOL    HW215738   1.629   1.364   4.629  0.0328  0.0743  0.1116
 1427SOL     OW15739   1.019   3.673  12.774 -0.1878 -0.3652 -0.3568
 1427SOL    HW115740   1.016   3.762  12.738  0.7705  0.8433  2.6028
 1427SOL    HW215741   1.063   3.630  12.701 -1.2354 -2.2127  0.0888
 1428SOL     OW15742   1.987   1.036   7.033  0.4410  0.1989  0.1604
 1428SOL    HW115743   2.044   1.089   6.977  2.9127 -0.1486  2.3735
 1428SOL    HW215744   1.921   1.030   6.964  3.0026  1.9628 -2.4457
 1429SOL     OW15745   1.954   1.915   4.090 -0.2062  0.2288 -0.3267
 1429SOL    HW115746   1.910   1.974   4.029  2.6732 -0.7540 -3.3348
 1429SOL    HW215747   1.879   1.887   4.141  0.8983 -1.9614  0.0998
 1430SOL     OW15748   4.535   2.873  16.529  0.2750  0.5187 -0.8476
 1430SOL    HW115749   4.473   2.939  16.559 -1.3129 -1.6778  0.6581
 1430SOL    HW215750   4.617   2.923  16.538  0.4202  0.2646 -0.7659
 1431SOL     OW15751   3.244   3.330  12.784 -0.0933  0.7054  0.6970
 1431SOL    HW115752   3.169   3.346  12.841  0.5240  0.8428  1.4613
 1431SOL    HW215753   3.223   3.386  12.708 -0.1553  1.8952  1.5961
 1432SOL     OW15754   3.776   3.663   1.841  0.2661 -0.1047  0.1637
 1432SOL    HW115755   3.841   3.662   1.771 -1.0856  3.4334 -1.1131
 1432SOL    HW215756   3.783   3.572   1.872 -0.3802 -0.1295  0.2478
 1433SOL     OW15757   3.376   2.997  15.994 -0.3763  0.5050  0.6149
 1433SOL    HW115758   3.447   2.982  16.058  1.0724  1.5304 -0.7444
 1433SOL    HW215759   3.320   2.922  16.015 -2.3403  2.4782  2.3750
 1434SOL     OW15760   3.433   1.989   7.637  0.1100 -0.2129  0.0102
 1434SOL    HW115761   3.393   2.016   7.554 -1.4518  0.6988  1.0538
 1434SOL    HW215762   3.497   2.058   7.655  0.4201 -0.0660 -1.6550
 1435SOL     OW15763   3.446   1.573  11.649 -0.1007  0.0140 -0.3779
 1435SOL    HW115764   3.541   1.565  11.651 -0.0401  1.0650  1.1317
 1435SOL    HW215765   3.435   1.627  11.570  0.0263 -0.8486 -0.9793
 1436SOL     OW15766   1.669   0.606   2.773  0.0088  0.1680  0.1071
 1436SOL    HW115767   1.733   0.555   2.723 -1.0213  0.1408 -1.1598
 1436SOL    HW215768   1.690   0.574   2.861 -0.5748  0.8469  0.4865
 1437SOL     OW15769   1.620   2.838   5.043 -0.2926  0.4375 -0.3664
 1437SOL    HW115770   1.668   2.798   4.970 -1.2638 -1.1862 -0.1061
 1437SOL    HW215771   1.580   2.913   4.999  1.1725 -0.3926 -3.1983
 1438SOL     OW15772   2.188   3.905   3.340  0.1277 -0.0089  0.2301
 1438SOL    HW115773   2.204   3.915   3.246 -0.5470 -3.2273 -0.2185
 1438SOL    HW215774   2.115   3.966   3.354  2.6970  3.4639 -1.7034
 1439SOL     OW15775   2.013   3.396   3.086 -0.0164  0.0527  0.4382
 1439SOL    HW115776   2.003   3.337   3.012 -0.3649  1.3003 -0.5221
 1439SOL    HW215777   2.032   3.482   3.048 -0.9359  0.2347  0.3781
 1440SOL     OW15778   1.619   1.635   3.616 -0.3250  0.1601 -0.0651
 1440SOL    HW115779   1.654   1.699   3.554  1.3111 -1.2343 -0.5713
 1440SOL    HW215780   1.529   1.652   3.589 -0.9451  0.0214  1.9414
 1441SOL     OW15781   1.822   2.128   2.286 -0.2005 -0.3984  0.5953
 1441SOL    HW115782   1.809   2.058   2.351 -0.4225  0.3521  1.3623
 1441SOL    HW215783   1.901   2.163   2.328 -0.1556 -1.8033  1.6840
 1442SOL     OW15784   1.839   3.308   2.649 -0.2011  0.1739  0.6272
 1442SOL    HW115785   1.787   3.363   2.591 -0.7387 -0.3271  0.6300
 1442SOL    HW215786   1.914   3.285   2.595  0.5862  1.9888  0.9405
 1443SOL     OW15787   2.725   2.064   3.551 -0.1912  0.3212 -0.4618
 1443SOL    HW115788   2.705   2.149   3.512 -0.4506  0.7764  0.6457
 1443SOL    HW215789   2.646   2.019   3.521 -0.6861  0.3926  0.7147
 1444SOL     OW15790   4.492   2.864  10.263  0.5278 -0.4382  0.3099
 1444SOL    HW115791   4.522   2.818  10.185 -0.8736 -0.8557  0.0155
 1444SOL    HW215792   4.441   2.934  10.222 -0.9164 -1.7914 -0.2180
 1445SOL     OW15793   1.694   0.291  11.188  0.3535  0.0334 -0.0604
 1445SOL    HW115794   1.686   0.225  11.258 -1.7046  0.6939  0.3370
 1445SOL    HW215795   1.724   0.368  11.237  0.5528 -0.8467  1.2217
 1446SOL     OW15796   0.270   2.968  11.916  0.3709 -0.2483  0.5148
 1446SOL    HW115797   0.248   3.058  11.941 -0.3592 -0.6735  1.4229
 1446SOL    HW215798   0.234   2.918  11.989 -0.6737  0.3122  0.3860
 1447SOL     OW15799   3.372   1.205   8.492  0.2054  0.0272  0.5472
 1447SOL    HW115800   3.333   1.135   8.440  1.6090 -1.0181  0.8813
 1447SOL    HW215801   3.460   1.216   8.455  1.0876 -1.6652  2.0705
 1448SOL     OW15802   3.739   4.247   7.634 -0.0395 -0.3263  0.6068
 1448SOL    HW115803   3.717   4.339   7.648 -0.9436 -0.1377 -2.0285
 1448SOL    HW215804   3.751   4.217   7.724  0.8544 -1.0118  0.2645
 1449SOL     OW15805   4.248   1.208   3.890 -0.2582 -0.0698 -0.6936
 1449SOL    HW115806   4.322   1.173   3.940 -0.4124  0.0960 -0.3480
 1449SOL    HW215807   4.176   1.199   3.952 -0.3414  1.4322 -0.5767
 1450SOL     OW15808   0.801   2.959  17.240 -0.0165  0.0314 -0.3901
 1450SOL    HW115809   0.867   2.928  17.302 -1.2498  1.2740  1.5214
 1450SOL    HW215810   0.744   3.011  17.296  0.3176  1.5754 -1.4679
 1451SOL     OW15811   4.435   1.791   5.267  0.4573 -0.2659 -0.2510
 1451SOL    HW115812   4.469   1.878   5.249  1.4338 -0.6424 -0.1970
 1451SOL    HW215813   4.396   1.765   5.183 -1.4925 -2.1127  1.2018
 1452SOL     OW15814   3.990   3.960   1.547  0.5914 -0.4124 -0.5669
 1452SOL    HW115815   3.901   3.996   1.550  0.3269 -1.2475  1.9921
 1452SOL    HW215816   3.983   3.875   1.589  1.1173 -0.0295  0.2876
 1453SOL     OW15817   0.887   4.111   3.134 -0.5276  0.5628  0.0406
 1453SOL    HW115818   0.876   4.199   3.099 -0.6859 -0.2974 -2.0393
 1453SOL    HW215819   0.960   4.069   3.089  0.1500  0.4441  1.2306
 1454SOL     OW15820   3.219   4.189   3.507  0.2318 -0.0293  0.3637
 1454SOL    HW115821   3.137   4.141   3.505 -0.3759  0.9877  0.9480
 1454SOL    HW215822   3.197   4.279   3.533 -0.2765  0.1951 -0.8493
 1455SOL     OW15823   3.933   1.917   8.486  0.5912 -0.5750 -0.1692
 1455SOL    HW115824   4.024   1.929   8.513  0.3262  0.0777  0.4148
 1455SOL    HW215825   3.901   2.003   8.458 -0.1761 -0.3653  1.3801
 1456SOL     OW15826   1.275   3.005  17.219  0.1626  0.1813  0.2852
 1456SOL    HW115827   1.210   3.063  17.259 -0.7692 -1.2320  0.8326
 1456SOL    HW215828   1.229   2.924  17.196  3.5350 -1.9358  0.9619
 1457SOL     OW15829   2.973   1.181   4.656 -0.3473 -0.0827  0.5798
 1457SOL    HW115830   2.896   1.239   4.663 -1.0246 -0.6205 -2.7379
 1457SOL    HW215831   2.972   1.162   4.563  0.7887 -0.3569  0.6261
 1458SOL     OW15832   1.624   2.372   0.686 -0.1170 -0.4120 -0.1164
 1458SOL    HW115833   1.644   2.378   0.593 -0.5081 -0.5867 -0.2121
 1458SOL    HW215834   1.696   2.424   0.722 -1.0034 -0.8179  2.2871
 1459SOL     OW15835   1.333   1.159   1.744  0.1115  0.3651 -0.0845
 1459SOL    HW115836   1.389   1.171   1.667 -1.5817  2.3234 -1.0392
 1459SOL    HW215837   1.353   1.067   1.762  1.2542  1.1805  2.7625
 1460SOL     OW15838   4.101   3.090   9.472  0.1020 -0.4687 -0.0859
 1460SOL    HW115839   4.088   3.070   9.380 -0.5868 -0.1338 -0.0653
 1460SOL    HW215840   4.012   3.109   9.502  1.1858  0.3727  2.6411
 1461SOL     OW15841   1.851   3.587  16.609  0.2126  0.1546 -0.3418
 1461SOL    HW115842   1.923   3.575  16.548 -0.8300 -1.8642 -1.1632
 1461SOL    HW215843   1.801   3.662  16.576  0.4410 -0.3649 -1.8365
 1462SOL     OW15844   3.180   0.672   0.594  0.7474  0.8552 -0.1820
 1462SOL    HW115845   3.188   0.588   0.638  1.0612  0.4862 -0.9393
 1462SOL    HW215846   3.106   0.647   0.538  0.3253  0.6791  0.4546
 1463SOL     OW15847   3.439   1.981  16.203  0.2805  0.4616  0.2189
 1463SOL    HW115848   3.532   1.969  16.221  0.4227  0.6473 -0.3826
 1463SOL    HW215849   3.432   2.006  16.111 -0.3428  1.3176  0.5069
 1464SOL     OW15850   1.339   0.270   7.383 -0.1176  0.6380  0.1634
 1464SOL    HW115851   1.247   0.288   7.366  0.3814  1.6538 -1.5303
 1464SOL    HW215852   1.331   0.237   7.472  0.9671  1.3078  0.4971
 1465SOL     OW15853   3.796   4.121   6.791 -0.6790 -0.0161 -0.4483
 1465SOL    HW115854   3.802   4.203   6.741  0.8835 -1.0627 -2.0130
 1465SOL    HW215855   3.846   4.073   6.724  2.5276  0.3823  1.6373
 1466SOL     OW15856   0.277   0.389  11.446  0.4923  0.4810  0.0103
 1466SOL    HW115857   0.230   0.425  11.521 -0.4103 -2.3416  0.7630
 1466SOL    HW215858   0.367   0.392  11.478  0.2270 -0.5325  0.8316
 1467SOL     OW15859   1.697   0.841   6.727  0.0129 -0.3417 -0.4054
 1467SOL    HW115860   1.636   0.775   6.761  0.0554 -0.5634 -0.7583
 1467SOL    HW215861   1.661   0.845   6.639  1.0960  2.0024 -0.7594
 1468SOL     OW15862   4.590   3.489   8.281  0.5835  0.0892 -0.3509
 1468SOL    HW115863   4.577   3.509   8.373  0.2281  2.6116 -0.9577
 1468SOL    HW215864   4.671   3.439   8.288  0.6193  0.2534  0.3379
 1469SOL     OW15865   2.086   3.382   0.463  0.6113  0.3761 -0.3073
 1469SOL    HW115866   2.108   3.426   0.546  2.5994  0.0457 -0.6778
 1469SOL    HW215867   1.993   3.400   0.450  0.3448 -0.0197  0.9954
 1470SOL     OW15868   0.667   1.970  14.530  0.8480 -0.5107  0.0400
 1470SOL    HW115869   0.582   1.987  14.489  0.0883  0.0335  1.8622
 1470SOL    HW215870   0.710   2.055  14.521  0.5059 -0.1181  2.0867
 1471SOL     OW15871   1.963   1.439   2.099 -0.0417  0.6824  0.8191
 1471SOL    HW115872   1.904   1.478   2.164  0.4896 -0.6168  2.0904
 1471SOL    HW215873   1.984   1.523   2.059 -0.5745  0.5613  0.3036
 1472SOL     OW15874   4.608   2.944   2.519  0.2535  0.0047 -0.0579
 1472SOL    HW115875   4.680   2.885   2.543 -0.2906 -0.7295 -0.2376
 1472SOL    HW215876   4.596   2.990   2.602  0.6921 -2.3258  1.3252
 1473SOL     OW15877   2.572   0.764  14.569  0.2096 -0.1378  0.2091
 1473SOL    HW115878   2.631   0.816  14.513  0.2680  0.2062  0.5857
 1473SOL    HW215879   2.627   0.733  14.641 -0.0248  0.4732  0.6544
 1474SOL     OW15880   2.618   1.137   4.537 -0.2727  0.3010 -0.0500
 1474SOL    HW115881   2.551   1.138   4.469  0.5321  1.6886 -0.8060
 1474SOL    HW215882   2.648   1.228   4.534  1.4804 -0.2927 -0.3622
 1475SOL     OW15883   1.384   1.224  15.017  0.2746 -0.0036 -0.1967
 1475SOL    HW115884   1.384   1.315  15.045  0.1993  0.0226 -0.2826
 1475SOL    HW215885   1.289   1.217  15.002  0.6043 -1.0496 -1.7485
 1476SOL     OW15886   2.512   2.792   2.541  0.2719 -0.2719 -0.0754
 1476SOL    HW115887   2.517   2.770   2.448 -0.7646  0.9420 -0.4333
 1476SOL    HW215888   2.502   2.702   2.572 -3.5136  0.3663  0.5994
 1477SOL     OW15889   0.449   1.635   7.019 -0.3502 -0.1006 -0.1999
 1477SOL    HW115890   0.527   1.669   6.973  1.2300 -0.7650  1.9879
 1477SOL    HW215891   0.391   1.711   7.014 -0.8828 -0.3141  3.1038
 1478SOL     OW15892   3.516   0.846   2.529  0.0909 -0.1890 -0.2423
 1478SOL    HW115893   3.532   0.834   2.435  1.4575  1.5661 -0.2321
 1478SOL    HW215894   3.467   0.765   2.541  2.9094 -1.8410  0.2202
 1479SOL     OW15895   4.393   1.862   3.592 -0.0594  0.1043  0.1382
 1479SOL    HW115896   4.335   1.795   3.626 -1.4442  1.3663  0.2894
 1479SOL    HW215897   4.439   1.877   3.675  0.8834 -2.2550  0.0357
 1480SOL     OW15898   1.105   3.544  15.217 -0.1942 -0.0213  0.1922
 1480SOL    HW115899   1.195   3.520  15.192 -0.7599 -0.3758 -1.5019
 1480SOL    HW215900   1.116   3.636  15.244  1.3091  0.0910 -0.7566
 1481SOL     OW15901   4.268   4.111  12.116 -0.1411 -0.4666  0.3048
 1481SOL    HW115902   4.342   4.163  12.085 -0.8631  0.3034 -0.1282
 1481SOL    HW215903   4.286   4.111  12.210  0.0691 -0.0074  0.2638
 1482SOL     OW15904   3.399   3.564   3.431  0.6015 -0.0467  0.6463
 1482SOL    HW115905   3.486   3.589   3.463  0.4578  1.4960 -0.1444
 1482SOL    HW215906   3.341   3.587   3.504  0.1288  0.9789 -0.0452
 1483SOL     OW15907   2.111   2.379   3.300 -0.7027 -0.5280 -0.0441
 1483SOL    HW115908   2.113   2.450   3.236  1.6342  1.1876  1.8927
 1483SOL    HW215909   2.022   2.347   3.287 -0.9325  1.1511 -2.5800
 1484SOL     OW15910   0.730   0.941  16.422 -0.0437  0.3220  0.3486
 1484SOL    HW115911   0.770   0.981  16.499 -1.7531  1.2322  0.7595
 1484SOL    HW215912   0.637   0.959  16.437 -0.4474 -0.6340 -0.9372
 1485SOL     OW15913   2.892   4.089   5.698 -0.4912 -0.3547  0.7122
 1485SOL    HW115914   2.853   4.171   5.727 -0.7712 -0.2466  0.0099
 1485SOL    HW215915   2.971   4.089   5.752  0.9854 -2.8296 -1.4703
 1486SOL     OW15916   0.083   0.436   2.343  0.0749  0.6095 -0.2632
 1486SOL    HW115917   0.045   0.505   2.396 -0.4645  0.0975  0.0196
 1486SOL    HW215918   0.119   0.386   2.416  0.2848  1.0834 -0.0429
 1487SOL     OW15919   1.102   1.712   6.651  0.2213  0.4148  0.3414
 1487SOL    HW115920   1.112   1.745   6.740 -0.1147 -0.2370  0.6211
 1487SOL    HW215921   1.164   1.777   6.617  0.1154 -0.4801 -1.5570
 1488SOL     OW15922   0.392   0.482   1.162  0.0338 -0.5625 -0.3043
 1488SOL    HW115923   0.397   0.567   1.117 -0.9362 -0.3792 -0.0697
 1488SOL    HW215924   0.348   0.514   1.241  1.2621  0.5211 -0.0618
 1489SOL     OW15925   0.671   2.655   1.191 -0.4999 -0.1575  0.1019
 1489SOL    HW115926   0.640   2.703   1.115 -3.5818 -1.2603  0.6529
 1489SOL    HW215927   0.766   2.652   1.180 -0.5924  2.4771 -1.4813
 1490SOL     OW15928   4.288   1.137  12.569 -0.0121 -0.2033  0.1030
 1490SOL    HW115929   4.365   1.135  12.627  0.7771  0.4484 -0.9171
 1490SOL    HW215930   4.220   1.130  12.636 -1.1844  1.0295 -0.9767
 1491SOL     OW15931   0.391   3.215   2.603 -0.0461  0.7210  0.0181
 1491SOL    HW115932   0.321   3.161   2.641  0.2209  0.6317  0.3771
 1491SOL    HW215933   0.467   3.172   2.642 -0.9200 -0.2419  0.6733
 1492SOL     OW15934   4.340   3.692   9.032 -0.1173  0.4657 -0.5085
 1492SOL    HW115935   4.296   3.747   9.097  1.0146 -0.8510  1.4026
 1492SOL    HW215936   4.419   3.744   9.021  0.4742 -0.6036 -1.2739
 1493SOL     OW15937   4.250   0.671   2.917 -0.1902  0.2405 -0.0451
 1493SOL    HW115938   4.229   0.598   2.859  0.2873  0.9368 -1.1073
 1493SOL    HW215939   4.177   0.662   2.979 -1.3125  1.3082 -1.2085
 1494SOL     OW15940   2.902   3.866   0.731  0.1605 -0.0144  0.0916
 1494SOL    HW115941   2.909   3.845   0.638  0.9163 -1.5472  0.4911
 1494SOL    HW215942   2.862   3.952   0.725  1.7404  0.7006 -0.1311
 1495SOL     OW15943   2.019   3.173   3.944  0.1782 -0.0720 -0.8849
 1495SOL    HW115944   2.010   3.111   4.016  0.2903 -0.4057 -1.1536
 1495SOL    HW215945   1.940   3.227   3.952  1.3060  1.6013 -1.2500
 1496SOL     OW15946   1.479   1.747   1.503  0.1096 -0.2513  0.4507
 1496SOL    HW115947   1.428   1.741   1.422 -2.2470 -1.0981  2.0274
 1496SOL    HW215948   1.460   1.840   1.510 -1.2983 -0.6854  2.4506
 1497SOL     OW15949   1.179   0.653   3.922 -0.0825 -0.5290 -0.3450
 1497SOL    HW115950   1.209   0.667   3.832 -0.6432  2.3892 -0.0624
 1497SOL    HW215951   1.263   0.638   3.966  0.4752 -0.1399 -1.2758
 1498SOL     OW15952   0.578   1.740   1.956  0.1998 -0.0635  0.0672
 1498SOL    HW115953   0.634   1.810   1.921 -0.4642 -0.4154 -1.7106
 1498SOL    HW215954   0.651   1.693   1.997 -0.3099 -1.6381 -0.8313
 1499SOL     OW15955   1.870   1.599   2.453  0.1907 -0.0215 -0.2399
 1499SOL    HW115956   1.788   1.564   2.419 -1.0925  2.0064  0.7513
 1499SOL    HW215957   1.927   1.525   2.431 -0.5998 -1.2515  1.8831
 1500SOL     OW15958   2.050   2.924   6.556 -0.3276  0.4217 -0.1389
 1500SOL    HW115959   2.064   3.019   6.550 -0.1484  0.4089  0.0669
 1500SOL    HW215960   2.040   2.920   6.651 -0.2525  0.8687 -0.1114
 1501SOL     OW15961   0.777   0.732   4.264  0.2436  0.2074 -0.5007
 1501SOL    HW115962   0.798   0.821   4.293 -2.5795  0.6046  0.2866
 1501SOL    HW215963   0.863   0.697   4.239 -0.7221 -3.4339  1.1657
 1502SOL     OW15964   0.916   4.333   7.734 -0.4046 -0.0807  0.6319
 1502SOL    HW115965   0.979   4.382   7.681 -2.2285 -0.9737 -2.3264
 1502SOL    HW215966   0.847   4.310   7.672  0.4129  0.9290 -0.6486
 1503SOL     OW15967   4.557   3.571   3.255 -0.0613  0.3105  0.5564
 1503SOL    HW115968   4.545   3.654   3.208 -1.2269 -0.6814 -0.9143
 1503SOL    HW215969   4.652   3.563   3.251 -0.0261  1.4753 -1.1354
 1504SOL     OW15970   4.165   3.416   2.026  0.3951 -0.2201  0.5129
 1504SOL    HW115971   4.110   3.340   2.043  2.0781 -1.0710  2.1810
 1504SOL    HW215972   4.249   3.371   2.027 -0.2447 -1.4082  0.5851
 1505SOL     OW15973   4.616   4.187   8.071  0.2363 -0.4900 -0.4293
 1505SOL    HW115974   4.526   4.219   8.081  0.5382  0.6305 -1.3442
 1505SOL    HW215975   4.633   4.227   7.986  1.5000 -0.9219 -0.3741
 1506SOL     OW15976   2.218   3.363   7.815  0.6058 -0.4118 -1.2319
 1506SOL    HW115977   2.249   3.339   7.902 -3.0862  0.8528  0.4404
 1506SOL    HW215978   2.136   3.408   7.835 -0.1385 -0.8492 -3.2539
 1507SOL     OW15979   3.275   3.893   5.500 -0.0779  0.2197  0.6752
 1507SOL    HW115980   3.318   3.975   5.525 -0.2414  0.8114 -1.0311
 1507SOL    HW215981   3.339   3.854   5.441 -0.9711 -2.1928  1.2780
 1508SOL     OW15982   0.649   0.573   5.709  0.1820  0.1706 -0.2052
 1508SOL    HW115983   0.657   0.492   5.659 -0.3566  0.3292 -0.5514
 1508SOL    HW215984   0.575   0.608   5.659  1.2235  1.0904 -1.1079
 1509SOL     OW15985   3.247   4.071   1.492  0.1693 -0.1098 -0.1839
 1509SOL    HW115986   3.177   4.010   1.468 -1.3402  0.4959  2.5571
 1509SOL    HW215987   3.253   4.127   1.414  3.5098  0.8365  0.7754
 1510SOL     OW15988   4.121   0.398   3.020 -0.4873 -0.1599  0.2706
 1510SOL    HW115989   4.050   0.395   3.085 -1.5045 -2.1978 -0.9120
 1510SOL    HW215990   4.076   0.371   2.939 -1.5609 -0.6833  1.0340
 1511SOL     OW15991   1.127   0.961   7.303 -0.0622  0.2307  0.0776
 1511SOL    HW115992   1.199   0.906   7.271 -0.1997 -0.0382  0.2295
 1511SOL    HW215993   1.054   0.920   7.256  1.0854 -1.3680 -0.3233
 1512SOL     OW15994   0.297   1.113   5.913 -0.5791  0.1210 -0.0602
 1512SOL    HW115995   0.329   1.166   5.840 -2.3060 -1.9976 -2.3552
 1512SOL    HW215996   0.354   1.124   5.989 -0.6942 -0.4736  0.1161
 1513SOL     OW15997   4.188   0.387   3.716 -0.2827 -0.0473 -0.0978
 1513SOL    HW115998   4.140   0.371   3.798  1.7634  2.2908  1.5675
 1513SOL    HW215999   4.125   0.443   3.671 -1.5182 -0.3140  1.2931
 1514SOL     OW16000   2.771   1.431   8.333 -0.1170  0.0925 -0.2502
 1514SOL    HW116001   2.762   1.525   8.350 -0.2156  0.1170 -0.4383
 1514SOL    HW216002   2.738   1.435   8.243 -0.7468  0.0932 -0.0201
 1515SOL     OW16003   2.761   4.394   8.328  0.0830  0.3636 -0.0522
 1515SOL    HW116004   2.720   4.400   8.415  0.3285  0.0899  0.0826
 1515SOL    HW216005   2.815   4.315   8.335  0.5620  0.7097  0.1718
 1516SOL     OW16006   0.167   4.193   5.947  0.4555 -0.0810  0.1056
 1516SOL    HW116007   0.217   4.137   6.006  1.2156 -1.3964 -1.7950
 1516SOL    HW216008   0.111   4.128   5.906  0.4068  0.0147  0.0206
 1517SOL     OW16009   1.947   3.958   5.274 -0.0748  0.1412 -0.0544
 1517SOL    HW116010   1.957   3.867   5.303 -2.2325  0.9231  3.1338
 1517SOL    HW216011   1.914   4.002   5.352 -1.2542  0.5831 -0.8155
 1518SOL     OW16012   3.645   0.600   9.306 -0.1197  0.0550  0.2756
 1518SOL    HW116013   3.643   0.514   9.348 -2.3816 -0.8903 -1.8369
 1518SOL    HW216014   3.737   0.617   9.284 -0.2966  0.1925 -0.3570
 1519SOL     OW16015   1.397   2.692  11.163 -0.1401 -0.2137 -0.2830
 1519SOL    HW116016   1.410   2.720  11.254  1.3534 -1.2646 -0.1666
 1519SOL    HW216017   1.478   2.713  11.116  0.6090  0.2144  1.2041
 1520SOL     OW16018   0.030   3.157  12.999 -0.2927  0.2270 -0.4370
 1520SOL    HW116019   4.709   3.092  13.054  2.8030 -0.6376  1.0526
 1520SOL    HW216020   4.697   3.158  12.921 -0.4073  1.8487 -0.3285
 1521SOL     OW16021   0.549   3.543  14.547 -0.2825  0.2765 -0.4546
 1521SOL    HW116022   0.516   3.590  14.470  1.1375 -0.4229 -1.4823
 1521SOL    HW216023   0.639   3.572  14.561  0.1401 -0.8527 -0.8711
 1522SOL     OW16024   4.008   4.325   8.672  0.2342 -0.0281 -0.2204
 1522SOL    HW116025   4.055   4.328   8.589 -1.0010  0.1863 -0.9038
 1522SOL    HW216026   3.948   4.252   8.656  1.1478 -0.7923 -0.2286
 1523SOL     OW16027   4.027   1.514   7.370 -0.6928  0.0964  0.2067
 1523SOL    HW116028   4.097   1.462   7.331  0.2272  1.7353 -0.3710
 1523SOL    HW216029   3.971   1.449   7.412 -1.6975 -0.1356 -1.5321
 1524SOL     OW16030   4.200   0.950   5.212  0.2182  0.1642 -0.0684
 1524SOL    HW116031   4.120   0.978   5.257 -0.6315 -2.4753  0.0707
 1524SOL    HW216032   4.273   0.996   5.255  1.2595 -1.6657  0.1474
 1525SOL     OW16033   3.752   1.113   8.043 -0.2115 -0.1126 -0.4770
 1525SOL    HW116034   3.827   1.061   8.016 -1.8589 -1.9685 -1.5143
 1525SOL    HW216035   3.686   1.045   8.053 -0.0480 -0.2790 -0.5481
 1526SOL     OW16036   4.625   2.285   9.320  0.3362  0.9661 -0.8049
 1526SOL    HW116037   4.533   2.280   9.296  0.1808 -0.9338  0.2081
 1526SOL    HW216038   4.627   2.315   9.411 -0.6433  0.5387 -0.6498
 1527SOL     OW16039   4.551   2.836   7.129  0.6017 -0.2339 -0.0508
 1527SOL    HW116040   4.477   2.869   7.179  0.3172 -1.5417  0.3802
 1527SOL    HW216041   4.635   2.862   7.167 -0.2519  0.9565  1.0242
 1528SOL     OW16042   2.248   0.088  11.120 -0.4180  0.1943 -0.1303
 1528SOL    HW116043   2.295   0.081  11.203 -0.3318 -2.0310 -0.3801
 1528SOL    HW216044   2.322   0.113  11.065  1.0593 -1.1662  1.2574
 1529SOL     OW16045   4.514   3.735  11.245 -0.1671 -0.8584  0.2656
 1529SOL    HW116046   4.430   3.707  11.208 -0.2560  0.8581 -0.8361
 1529SOL    HW216047   4.493   3.730  11.338  2.3638 -1.0884  0.8253
 1530SOL     OW16048   1.591   0.968   1.454 -0.0364 -0.7543 -0.2214
 1530SOL    HW116049   1.601   0.925   1.538 -0.2939 -1.4615 -0.5541
 1530SOL    HW216050   1.665   0.933   1.405 -0.8548 -1.3308 -1.0457
 1531SOL     OW16051   4.459   3.654  14.794 -0.0067 -0.0766  0.0408
 1531SOL    HW116052   4.424   3.657  14.883  0.4947  0.4217  0.2245
 1531SOL    HW216053   4.546   3.615  14.805  0.6953  1.8285  1.2827
 1532SOL     OW16054   2.581   2.112   8.574  0.1402 -0.0484 -0.3394
 1532SOL    HW116055   2.662   2.101   8.624  0.2890 -0.9351 -0.7736
 1532SOL    HW216056   2.523   2.145   8.642  0.5597  0.4381 -0.2138
 1533SOL     OW16057   3.077   0.640   3.516 -0.1949 -0.3684 -0.2028
 1533SOL    HW116058   3.106   0.728   3.491 -2.2465 -0.1205 -1.6964
 1533SOL    HW216059   3.149   0.592   3.474  1.1321  0.0637  1.5694
 1534SOL     OW16060   1.398   3.766   5.849  0.4004  0.5072  0.2739
 1534SOL    HW116061   1.367   3.856   5.859 -1.0986  0.3249 -2.9023
 1534SOL    HW216062   1.424   3.772   5.757  0.6537 -0.1609  0.2951
 1535SOL     OW16063   3.452   1.043   7.495  0.2679 -0.2619  0.3829
 1535SOL    HW116064   3.395   1.028   7.570  1.3391  0.1736  1.2939
 1535SOL    HW216065   3.538   1.022   7.532 -0.2812 -2.1590  0.5988
 1536SOL     OW16066   4.505   3.112   4.371 -0.6052 -0.5565 -0.6020
 1536SOL    HW116067   4.478   3.183   4.312  0.7553  1.4212  1.1595
 1536SOL    HW216068   4.572   3.066   4.322 -1.3199 -0.3946 -1.7440
 1537SOL     OW16069   3.372   4.675  13.732 -0.0754  0.2044  0.3052
 1537SOL    HW116070   3.457   4.632  13.741 -0.9972 -1.6551 -0.0188
 1537SOL    HW216071   3.321   4.620  13.673  1.1328  1.3826 -1.8570
 1538SOL     OW16072   1.224   1.257   7.295  0.1485  0.5980 -0.3196
 1538SOL    HW116073   1.299   1.267   7.237 -0.4322 -2.3702 -1.5546
 1538SOL    HW216074   1.156   1.292   7.238  2.6952  2.8488 -1.9514
 1539SOL     OW16075   1.513   0.126   4.176 -0.8305 -0.1793 -0.2709
 1539SOL    HW116076   1.492   0.082   4.094  0.5583  1.0198 -1.2689
 1539SOL    HW216077   1.509   0.219   4.151  1.3259  0.2770  1.0683
 1540SOL     OW16078   2.863   4.101   4.601 -0.0536 -0.4024 -0.7159
 1540SOL    HW116079   2.849   4.010   4.625 -2.7987  1.1625  3.5604
 1540SOL    HW216080   2.866   4.093   4.505  1.1982 -1.3133 -0.5955
 1541SOL     OW16081   0.291   3.358   6.708 -0.2241 -0.4200  0.3486
 1541SOL    HW116082   0.357   3.322   6.649 -0.2949 -0.9915  0.6151
 1541SOL    HW216083   0.272   3.283   6.765 -3.0161 -0.3383 -0.4855
 1542SOL     OW16084   1.182   0.385   6.172  0.6679 -0.4226 -0.1722
 1542SOL    HW116085   1.193   0.317   6.239  0.4944 -0.0535  0.2328
 1542SOL    HW216086   1.240   0.356   6.102  1.5670  1.9277 -0.3875
 1543SOL     OW16087   3.951   2.372  14.532 -0.3020 -0.1499 -0.1280
 1543SOL    HW116088   3.866   2.393  14.571 -0.0310 -0.0246  0.3942
 1543SOL    HW216089   3.944   2.410  14.445 -0.2324 -1.3336 -0.6455
 1544SOL     OW16090   4.668   2.433   8.473  0.7172  0.2401  0.3190
 1544SOL    HW116091   4.618   2.513   8.459 -1.4533 -1.2439 -0.5736
 1544SOL    HW216092   4.603   2.388   8.529  0.5916  0.4238  0.3208
 1545SOL     OW16093   3.129   4.351  16.638  0.4583 -0.0629  0.1170
 1545SOL    HW116094   3.155   4.429  16.685 -2.2791 -0.2358  1.9327
 1545SOL    HW216095   3.208   4.297  16.645 -0.3993 -1.4394 -0.7401
 1546SOL     OW16096   3.260   3.958   7.903 -0.2648 -0.1910 -0.1431
 1546SOL    HW116097   3.303   4.043   7.900 -2.7511  1.0409 -0.6391
 1546SOL    HW216098   3.291   3.944   7.993  0.2580  0.3025 -0.2427
 1547SOL     OW16099   1.088   3.590   1.553 -0.2762 -0.5621 -0.1447
 1547SOL    HW116100   0.996   3.580   1.577 -0.2575  0.3455  0.3249
 1547SOL    HW216101   1.079   3.661   1.490  1.1220  1.2147  1.6314
 1548SOL     OW16102   4.010   2.845  16.297  0.2060 -0.1834 -0.0099
 1548SOL    HW116103   3.926   2.800  16.292 -0.5963  1.4978 -1.9558
 1548SOL    HW216104   4.058   2.775  16.252 -1.4786 -2.2957  1.5427
 1549SOL     OW16105   2.954   3.025   3.394  0.7798  0.1488 -0.1145
 1549SOL    HW116106   2.996   2.974   3.325 -0.0300 -0.9735  0.2401
 1549SOL    HW216107   2.945   3.114   3.358  0.4896  0.8586  1.6967
 1550SOL     OW16108   1.484   3.499  13.468  0.0183  0.8004 -0.4987
 1550SOL    HW116109   1.523   3.424  13.423 -0.6346  0.5436 -0.6408
 1550SOL    HW216110   1.552   3.564  13.453  0.8237 -0.0017 -0.3158
 1551SOL     OW16111   3.346   0.228   0.526 -0.2341 -0.2447 -0.7879
 1551SOL    HW116112   3.264   0.263   0.560  0.7610 -0.1886  1.5844
 1551SOL    HW216113   3.342   0.143   0.571 -1.7292  0.2152 -0.0326
 1552SOL     OW16114   3.288   2.001   6.370 -0.7463  0.8921 -0.4992
 1552SOL    HW116115   3.274   1.907   6.361 -0.2587  0.5976  1.9841
 1552SOL    HW216116   3.330   1.998   6.456 -0.2687  1.0231 -0.7320
 1553SOL     OW16117   2.560   4.651  16.707 -0.5879  0.1166 -0.7689
 1553SOL    HW116118   2.570   4.608  16.622  0.5083 -0.8352 -0.1578
 1553SOL    HW216119   2.471   4.681  16.690 -1.5063 -1.6853  0.8830
 1554SOL     OW16120   0.860   2.306  13.159  0.1196 -0.5462  0.1823
 1554SOL    HW116121   0.875   2.229  13.104  1.1176 -0.1388 -0.1112
 1554SOL    HW216122   0.943   2.307  13.206  1.4733 -0.3525 -2.2198
 1555SOL     OW16123   3.871   1.302   2.187  0.1384  0.5192  0.1056
 1555SOL    HW116124   3.785   1.260   2.176 -0.8466  2.8706 -1.1450
 1555SOL    HW216125   3.907   1.245   2.255 -2.4688 -0.8971  0.3077
 1556SOL     OW16126   4.085   2.750   3.417  0.1549 -0.3592 -0.2802
 1556SOL    HW116127   4.006   2.802   3.431  0.7552  0.4057  0.2838
 1556SOL    HW216128   4.135   2.805   3.357 -0.6071 -1.1354 -1.6068
 1557SOL     OW16129   0.112   2.679   7.176 -0.2616  0.0412 -0.3999
 1557SOL    HW116130   0.084   2.768   7.198 -1.8148 -0.6781  0.5692
 1557SOL    HW216131   0.066   2.627   7.242 -0.0099 -0.9577 -1.0067
 1558SOL     OW16132   4.251   2.976  14.595  0.2261 -0.5537 -0.7633
 1558SOL    HW116133   4.315   3.024  14.647 -2.5852  1.0381  1.2332
 1558SOL    HW216134   4.248   2.888  14.634 -1.2051  0.7919  2.1770
 1559SOL     OW16135   1.785   1.894   8.357 -0.1571 -0.0524 -0.1988
 1559SOL    HW116136   1.719   1.957   8.387 -1.7915 -2.1326  0.6105
 1559SOL    HW216137   1.860   1.948   8.333 -0.6966  2.0085  2.7108
 1560SOL     OW16138   3.828   3.393  14.354  0.1316  0.2976 -0.0968
 1560SOL    HW116139   3.911   3.407  14.309 -0.0695  0.5089 -0.3991
 1560SOL    HW216140   3.869   3.336  14.420  1.7472  0.1873 -1.1967
 1561SOL     OW16141   3.121   3.259   0.290  0.6678  0.5825 -0.1045
 1561SOL    HW116142   3.099   3.174   0.329  0.7346  0.6362  0.0529
 1561SOL    HW216143   3.185   3.294   0.353  0.1297  1.0861  0.1688
 1562SOL     OW16144   2.698   1.719   8.739  0.2008 -0.2064  0.3539
 1562SOL    HW116145   2.617   1.767   8.756  1.2976  2.4613 -1.9296
 1562SOL    HW216146   2.677   1.646   8.797  0.7277  0.0846  0.8995
 1563SOL     OW16147   4.010   4.426   3.057  0.1341 -0.7346 -0.2598
 1563SOL    HW116148   4.097   4.441   3.094 -0.8130  2.3480  0.7418
 1563SOL    HW216149   3.984   4.347   3.104  2.8200 -2.0063 -0.8953
 1564SOL     OW16150   0.738   3.618   5.785  0.2204  0.1047 -0.3405
 1564SOL    HW116151   0.700   3.678   5.848  0.5118  0.6117 -0.6524
 1564SOL    HW216152   0.797   3.570   5.842  2.4346  2.9768 -0.2513
 1565SOL     OW16153   0.588   1.934  16.517  0.5044 -0.2673 -0.0603
 1565SOL    HW116154   0.516   1.874  16.534  0.1516  0.2035  0.1131
 1565SOL    HW216155   0.657   1.884  16.474  0.5591 -0.4175  0.2053
 1566SOL     OW16156   2.944   2.134  13.341  0.3865 -0.2460  0.2699
 1566SOL    HW116157   3.002   2.156  13.269  0.3428  1.0159  0.6210
 1566SOL    HW216158   2.924   2.220  13.377  0.6261  1.0155 -2.7126
 1567SOL     OW16159   2.192   2.955   7.930 -0.8468 -0.2914 -0.0579
 1567SOL    HW116160   2.119   2.969   7.870 -1.4563 -1.0950  0.4942
 1567SOL    HW216161   2.142   2.945   8.011 -2.5009  0.5507 -0.9787
 1568SOL     OW16162   1.547   0.395   6.080 -0.2978  0.3254  0.5674
 1568SOL    HW116163   1.571   0.349   6.161 -1.8660 -1.0539  0.2364
 1568SOL    HW216164   1.538   0.327   6.013  0.2560  2.6897 -1.8645
 1569SOL     OW16165   0.907   1.808   4.236 -0.0275  0.3360  0.3340
 1569SOL    HW116166   0.833   1.774   4.185  1.6230 -1.5235 -0.7987
 1569SOL    HW216167   0.958   1.729   4.248 -0.2916  0.1535  0.2607
 1570SOL     OW16168   1.054   3.171   0.043  0.1465 -0.3081 -0.3081
 1570SOL    HW116169   1.121   3.209   0.099  0.1723  0.9645 -1.1819
 1570SOL    HW216170   1.061   3.226  17.660 -2.4070  2.5213  1.4457
 1571SOL     OW16171   2.848   1.314   6.668  0.1602  0.0159 -0.1588
 1571SOL    HW116172   2.765   1.268   6.656 -0.2136  0.8002 -0.5396
 1571SOL    HW216173   2.859   1.323   6.763  0.3320 -0.8183 -0.0964
 1572SOL     OW16174   3.273   2.120   0.792  0.1455  0.3945  0.2741
 1572SOL    HW116175   3.233   2.155   0.871 -0.5028 -0.9681  0.5524
 1572SOL    HW216176   3.260   2.026   0.806  1.5112  0.4257  1.8446
 1573SOL     OW16177   0.143   1.956  17.246  0.6053 -0.0256  0.3773
 1573SOL    HW116178   0.049   1.966  17.237  0.5663 -0.9124 -0.2066
 1573SOL    HW216179   0.144   1.923  17.336 -2.5773 -0.3719  0.2684
 1574SOL     OW16180   4.582   4.386  12.614  0.1523  0.2608 -0.6700
 1574SOL    HW116181   4.652   4.387  12.679  0.0730 -0.9530 -0.5656
 1574SOL    HW216182   4.567   4.293  12.597  0.2450  0.1967 -0.4035
 1575SOL     OW16183   4.106   1.094  12.775 -0.0306 -0.5748 -0.0758
 1575SOL    HW116184   4.108   1.044  12.857  0.6089 -2.0065 -0.9596
 1575SOL    HW216185   4.056   1.168  12.810 -1.0248 -0.3615 -1.9856
 1576SOL     OW16186   2.531   1.158  16.148 -0.1508  0.4259  0.1581
 1576SOL    HW116187   2.593   1.111  16.094  0.6509  0.2563  1.2354
 1576SOL    HW216188   2.468   1.192  16.083 -0.2267 -2.0264 -1.0658
 1577SOL     OW16189   1.331   1.741   3.022  0.1479  0.1219  0.0783
 1577SOL    HW116190   1.392   1.814   3.037  1.5477 -0.7912 -1.1116
 1577SOL    HW216191   1.295   1.772   2.939  0.0076 -1.2726 -0.3805
 1578SOL     OW16192   1.832   2.430   4.456  0.5425 -0.3605 -0.4228
 1578SOL    HW116193   1.860   2.343   4.428 -0.1543  0.5301 -3.8698
 1578SOL    HW216194   1.879   2.435   4.539  0.9974  0.6635 -0.7383
 1579SOL     OW16195   4.667   2.593   2.032 -0.3305  0.5940 -0.3181
 1579SOL    HW116196   4.641   2.501   2.037  1.8746  0.0249  0.8489
 1579SOL    HW216197   0.030   2.590   2.072 -0.2958  0.7612 -0.3826
 1580SOL     OW16198   2.924   3.191  11.351 -0.1127  0.8724  0.0405
 1580SOL    HW116199   3.002   3.220  11.398  1.0710 -0.3582 -1.1488
 1580SOL    HW216200   2.882   3.127  11.410 -1.5127  2.3841  0.6638
 1581SOL     OW16201   1.557   0.636   6.834 -0.0957 -0.4495  0.4857
 1581SOL    HW116202   1.589   0.620   6.922  1.6332  1.0273  0.1121
 1581SOL    HW216203   1.488   0.696   6.862 -0.1027 -0.2167 -0.0180
 1582SOL     OW16204   3.993   4.497   2.168 -0.4546 -0.3642  0.1514
 1582SOL    HW116205   4.023   4.409   2.148  1.3028  0.3215 -0.2873
 1582SOL    HW216206   4.068   4.553   2.146 -0.5656 -0.4621 -0.4765
 1583SOL     OW16207   0.572   1.319   5.318  0.3428 -0.4780  0.5280
 1583SOL    HW116208   0.502   1.384   5.323  0.7378 -0.0186  0.1988
 1583SOL    HW216209   0.610   1.332   5.405  0.8303 -0.4511  0.3115
 1584SOL     OW16210   4.334   2.556   6.918 -0.3979 -0.0670  0.2935
 1584SOL    HW116211   4.315   2.515   6.834 -2.3330  1.8419 -0.2085
 1584SOL    HW216212   4.408   2.611   6.892 -0.1932 -0.4719  0.0397
 1585SOL     OW16213   2.314   1.112   5.243 -0.0885 -0.3651  0.1654
 1585SOL    HW116214   2.329   1.189   5.188  2.3169 -0.0147  1.3029
 1585SOL    HW216215   2.247   1.078   5.184  0.8833  0.1531 -1.2443
 1586SOL     OW16216   4.182   1.793   2.267 -0.2337  0.1147  0.3382
 1586SOL    HW116217   4.208   1.835   2.349  1.3383  0.5616 -0.3976
 1586SOL    HW216218   4.201   1.856   2.197  1.3743 -0.8284 -0.0696
 1587SOL     OW16219   3.318   2.547   9.988 -0.0628  0.2031  0.1291
 1587SOL    HW116220   3.236   2.520  10.029 -1.7436  1.0562 -2.6168
 1587SOL    HW216221   3.384   2.528  10.054 -0.5076 -0.3543  0.4124
 1588SOL     OW16222   1.487   4.417  17.074 -0.0003  0.2666 -0.2152
 1588SOL    HW116223   1.538   4.354  17.022  0.7584 -0.3567  1.2870
 1588SOL    HW216224   1.553   4.439  17.139  0.4934 -1.9680  0.0563
 1589SOL     OW16225   0.450   0.270   5.893  0.5632  0.3564 -0.1852
 1589SOL    HW116226   0.518   0.256   5.959  0.6607 -0.3179 -0.4347
 1589SOL    HW216227   0.491   0.217   5.825  2.1294  2.6469 -1.0386
 1590SOL     OW16228   2.118   4.205   8.585 -0.1029 -0.0076  0.0030
 1590SOL    HW116229   2.198   4.201   8.638  0.7512 -3.0812 -1.5007
 1590SOL    HW216230   2.086   4.292   8.608 -0.3124 -0.1077  0.0861
 1591SOL     OW16231   1.977   2.016   1.847 -1.0670 -0.2194 -0.1552
 1591SOL    HW116232   1.901   2.065   1.877  0.0294 -0.0921  2.3989
 1591SOL    HW216233   2.038   2.027   1.919 -2.4819  0.0823  1.0009
 1592SOL     OW16234   0.772   4.341   4.677 -0.3110  0.5224 -0.9593
 1592SOL    HW116235   0.843   4.357   4.615  0.0222  3.0845  0.0515
 1592SOL    HW216236   0.716   4.417   4.660 -2.5306 -0.1726  3.2663
 1593SOL     OW16237   2.585   4.716   4.476 -0.0605  0.1943  0.0791
 1593SOL    HW116238   2.535   4.718   4.395 -2.0755 -3.0397  1.2519
 1593SOL    HW216239   2.516   0.014   4.539  0.7521 -0.4899  1.2209
 1594SOL     OW16240   3.327   1.248  11.321  0.3071  0.1489 -0.0674
 1594SOL    HW116241   3.376   1.192  11.381 -1.6792 -0.6930  0.7677
 1594SOL    HW216242   3.386   1.318  11.290  0.2390 -0.7605 -2.2951
 1595SOL     OW16243   4.443   0.566   6.800 -0.4854  0.1686 -0.0371
 1595SOL    HW116244   4.370   0.595   6.746 -1.0771 -1.2919 -0.0340
 1595SOL    HW216245   4.442   0.475   6.770 -0.2723  0.4530 -0.9089
 1596SOL     OW16246   4.492   3.069  13.984 -0.4483 -0.0268 -0.4851
 1596SOL    HW116247   4.427   3.138  13.995  0.3067  0.8597 -1.6140
 1596SOL    HW216248   4.512   3.068  13.890 -1.8699  0.6337 -0.8049
 1597SOL     OW16249   2.682   1.133   5.412  0.1770  0.4473  0.1591
 1597SOL    HW116250   2.715   1.043   5.406 -1.5844 -0.2950  1.3927
 1597SOL    HW216251   2.750   1.180   5.459  0.9457  1.3338 -1.8618
 1598SOL     OW16252   0.779   2.205   8.290  0.0365  0.0164  0.2857
 1598SOL    HW116253   0.719   2.163   8.351  0.9749 -1.3648  0.2508
 1598SOL    HW216254   0.816   2.135   8.236  1.2930  1.4728 -0.7536
 1599SOL     OW16255   1.304   2.683   3.296 -0.3183  0.1894 -0.2790
 1599SOL    HW116256   1.361   2.607   3.290 -0.6407  0.0548 -1.6337
 1599SOL    HW216257   1.245   2.662   3.369  1.0044 -0.9102  0.4632
 1600SOL     OW16258   0.729   4.111  10.413  0.4833 -0.3255  0.2062
 1600SOL    HW116259   0.688   4.056  10.479 -1.2061  3.0756  1.9618
 1600SOL    HW216260   0.654   4.138  10.361 -0.4365 -3.5463 -0.1556
 1601SOL     OW16261   2.025   4.162   8.311  0.1117  0.3423 -0.1385
 1601SOL    HW116262   1.955   4.226   8.322  1.5727  2.5027 -3.5050
 1601SOL    HW216263   2.070   4.180   8.394 -2.6550 -1.5007  1.7482
 1602SOL     OW16264   0.157   0.296  15.009 -0.2243 -0.0297 -0.2846
 1602SOL    HW116265   0.192   0.307  14.921 -1.9722 -0.2524 -1.0123
 1602SOL    HW216266   0.127   0.386  15.020 -1.5127 -0.3632 -0.9675
 1603SOL     OW16267   3.845   1.021   6.034  0.5691  0.0722 -0.1504
 1603SOL    HW116268   3.869   1.097   5.981  3.4206 -0.1887  0.7623
 1603SOL    HW216269   3.927   1.003   6.079  0.9916  1.9212 -0.2024
 1604SOL     OW16270   2.742   3.449   9.384 -0.4086 -0.0104  0.5176
 1604SOL    HW116271   2.751   3.453   9.479  1.4712 -1.9188  0.4165
 1604SOL    HW216272   2.679   3.378   9.372  0.5379 -0.7855  0.1181
 1605SOL     OW16273   3.952   1.078   2.394  0.1531 -0.3405  0.3570
 1605SOL    HW116274   3.859   1.071   2.374  0.3783 -0.6147 -0.6348
 1605SOL    HW216275   3.952   1.110   2.484  0.9815  1.8111 -0.4087
 1606SOL     OW16276   1.247   0.179  15.286 -0.6692 -0.2800  0.4540
 1606SOL    HW116277   1.162   0.199  15.324  0.1299  1.9996  0.9885
 1606SOL    HW216278   1.248   0.240  15.212  3.7821  0.6311  1.3153
 1607SOL     OW16279   2.833   0.152   3.419  0.2217  0.0333  0.0759
 1607SOL    HW116280   2.869   0.171   3.333 -0.3291 -1.5217 -0.4909
 1607SOL    HW216281   2.899   0.098   3.464 -0.9771 -1.4380  0.0731
 1608SOL     OW16282   4.695   0.692   0.427  0.8065  0.0025 -0.3649
 1608SOL    HW116283   4.694   0.683   0.522  1.5409 -1.5454 -0.5110
 1608SOL    HW216284   0.020   0.610   0.418 -0.8097 -0.8843 -1.1029
 1609SOL     OW16285   1.746   2.206   0.224 -0.0068  0.2761  0.2113
 1609SOL    HW116286   1.699   2.276   0.178  0.3875  0.1925 -0.3232
 1609SOL    HW216287   1.785   2.260   0.294  3.2771 -0.2124 -1.2109
 1610SOL     OW16288   2.015   1.202   1.662  0.7864 -0.3373 -0.4962
 1610SOL    HW116289   1.963   1.216   1.582  1.7524 -0.1211 -1.0805
 1610SOL    HW216290   1.978   1.121   1.697 -0.6933  0.8273  0.6237
 1611SOL     OW16291   2.782   3.786   3.377  0.7819  0.1929  0.0152
 1611SOL    HW116292   2.714   3.720   3.391  2.3160 -1.4788 -0.4386
 1611SOL    HW216293   2.858   3.733   3.352  0.1074  1.1694 -4.0857
 1612SOL     OW16294   1.360   1.716   3.541 -0.5695  0.4684 -0.3748
 1612SOL    HW116295   1.348   1.810   3.529 -2.5646  0.3405  0.6052
 1612SOL    HW216296   1.341   1.688   3.452 -0.2764  1.3355 -0.7121
 1613SOL     OW16297   0.089   4.034   3.770  0.0122 -0.5884 -0.5112
 1613SOL    HW116298   0.116   4.125   3.754 -2.5362  0.4642  1.1574
 1613SOL    HW216299   0.073   4.014   3.678 -0.5772  0.8289 -0.7209
 1614SOL     OW16300   3.709   3.409  11.049  0.4962  0.2904 -0.3629
 1614SOL    HW116301   3.762   3.472  11.001  0.2603 -0.7713 -2.0322
 1614SOL    HW216302   3.685   3.447  11.133  1.4672  2.0705 -0.8982
 1615SOL     OW16303   2.607   2.487   4.675 -0.4373 -0.5488  0.4482
 1615SOL    HW116304   2.642   2.576   4.669 -1.1573 -0.4659 -2.4085
 1615SOL    HW216305   2.528   2.492   4.622  0.0961 -0.8775 -0.3790
 1616SOL     OW16306   3.442   1.170   5.494 -0.3689 -0.2435 -0.5960
 1616SOL    HW116307   3.366   1.223   5.471 -0.9843  0.1094  2.2226
 1616SOL    HW216308   3.434   1.189   5.588  0.2064  0.1954 -0.6360
 1617SOL     OW16309   0.369   1.753   4.249 -0.7463  0.3514 -0.0921
 1617SOL    HW116310   0.323   1.672   4.228  2.0136 -1.1684 -0.3056
 1617SOL    HW216311   0.300   1.810   4.215 -0.2356  0.9411 -0.1459
 1618SOL     OW16312   1.836   2.504   7.342  0.1512 -0.1862 -0.0200
 1618SOL    HW116313   1.769   2.436   7.349 -0.7914  0.7874  0.3562
 1618SOL    HW216314   1.878   2.471   7.262  1.8397  0.4949  0.5889
 1619SOL     OW16315   1.361   1.910   5.201 -0.1936  0.3016  0.2187
 1619SOL    HW116316   1.401   1.879   5.120  1.7145  0.9636  0.8939
 1619SOL    HW216317   1.281   1.952   5.170 -1.2281 -1.3858  0.6419
 1620SOL     OW16318   0.306   0.785   4.479 -0.2410  0.1532  0.7385
 1620SOL    HW116319   0.358   0.862   4.455 -0.0816 -0.4628 -0.9256
 1620SOL    HW216320   0.362   0.725   4.430  0.6775  0.6769  1.1417
 1621SOL     OW16321   0.929   2.738   8.357 -0.8327 -0.5699  0.5648
 1621SOL    HW116322   0.843   2.762   8.323  1.2319  1.1940 -3.3292
 1621SOL    HW216323   0.991   2.798   8.317 -1.3513 -0.8424 -0.6296
 1622SOL     OW16324   0.346   0.610   8.387 -0.3162  0.1987 -0.2235
 1622SOL    HW116325   0.310   0.610   8.298  0.6443 -0.2713 -0.6224
 1622SOL    HW216326   0.349   0.704   8.401 -0.2127  0.5226 -2.3615
 1623SOL     OW16327   3.734   1.510   5.897 -0.6841 -0.5509  0.3209
 1623SOL    HW116328   3.658   1.537   5.948  0.4292  1.0925  1.0966
 1623SOL    HW216329   3.786   1.590   5.892  1.4589 -2.1679 -3.1059
 1624SOL     OW16330   4.584   4.624   2.641  0.2845 -0.0268 -0.0158
 1624SOL    HW116331   4.506   4.641   2.694  1.2457  0.4968  1.2238
 1624SOL    HW216332   4.591   4.529   2.649 -1.6864 -0.2139 -0.4937
 1625SOL     OW16333   0.129   3.421   7.725  0.1798  0.4039  0.3623
 1625SOL    HW116334   0.155   3.371   7.803 -0.2169 -0.0095  0.2296
 1625SOL    HW216335   0.035   3.426   7.740  0.4259  0.4551  1.9124
 1626SOL     OW16336   4.249   0.832   6.903  0.2221 -0.0290  0.5347
 1626SOL    HW116337   4.233   0.745   6.939  2.2434 -0.9652 -0.8268
 1626SOL    HW216338   4.278   0.875   6.984 -2.3919 -2.8556  2.9899
 1627SOL     OW16339   2.548   3.159   8.257 -0.5979 -0.0073  0.5107
 1627SOL    HW116340   2.574   3.191   8.344  0.6864  2.7188 -0.8751
 1627SOL    HW216341   2.636   3.153   8.219 -0.3719 -0.5226  1.1182
 1628SOL     OW16342   2.590   0.017   3.436  0.4446 -0.3591  0.1679
 1628SOL    HW116343   2.677   0.051   3.414  0.1423  0.3976  0.1563
 1628SOL    HW216344   2.589   4.649   3.409 -0.3782 -0.4556  0.5515
 1629SOL     OW16345   4.172   1.946  12.742  0.0222 -0.4839  0.0993
 1629SOL    HW116346   4.128   1.890  12.806 -2.1128  0.2307 -0.7235
 1629SOL    HW216347   4.259   1.907  12.739  0.1277 -0.1677 -0.9062
 1630SOL     OW16348   3.263   1.666   2.727 -0.4831 -0.3279  0.1804
 1630SOL    HW116349   3.195   1.664   2.793  0.2545  0.6786  0.9664
 1630SOL    HW216350   3.207   1.653   2.650  0.5103 -0.4018 -0.5304
 1631SOL     OW16351   1.341   1.828  12.983  0.1900 -0.2676 -0.4068
 1631SOL    HW116352   1.312   1.914  13.013 -0.0864 -0.5324  0.0937
 1631SOL    HW216353   1.419   1.825  13.038 -1.5527 -0.5592  2.0287
 1632SOL     OW16354   0.763   0.835  13.897  0.1383  0.4152  0.0895
 1632SOL    HW116355   0.807   0.758  13.862 -1.8899 -1.0913  0.8709
 1632SOL    HW216356   0.673   0.805  13.902  0.0065  0.5463 -1.3908
 1633SOL     OW16357   2.843   3.945   2.972  0.9770 -0.0854  0.8622
 1633SOL    HW116358   2.806   3.984   3.050 -2.4404 -0.0523 -0.7833
 1633SOL    HW216359   2.786   3.869   2.960 -0.5550  1.5137 -2.1285
 1634SOL     OW16360   4.439   2.360   1.424  0.1263  0.1014  0.3317
 1634SOL    HW116361   4.354   2.321   1.447 -0.1038 -1.5597 -3.2773
 1634SOL    HW216362   4.489   2.279   1.437  0.5196  0.2653 -0.1725
 1635SOL     OW16363   3.659   2.380  16.241  0.4134  0.3393 -0.7902
 1635SOL    HW116364   3.586   2.322  16.217  0.8252 -0.0400 -1.1343
 1635SOL    HW216365   3.733   2.350  16.189  1.6897  1.8452  0.1493
 1636SOL     OW16366   3.861   0.171  13.416 -0.1481 -0.2146 -0.6354
 1636SOL    HW116367   3.942   0.215  13.388  0.6115 -1.3133 -0.1777
 1636SOL    HW216368   3.801   0.242  13.439  0.2634 -0.9408  2.7158
 1637SOL     OW16369   2.526   1.998   4.693 -0.3154  0.6004 -0.4040
 1637SOL    HW116370   2.541   1.985   4.786  0.4983  2.3254 -0.2925
 1637SOL    HW216371   2.579   2.078   4.683  1.3145 -0.6437 -1.6919
 1638SOL     OW16372   3.152   3.595   8.075 -0.1582  0.4942 -0.0813
 1638SOL    HW116373   3.155   3.601   7.979 -0.0371 -2.0466 -0.2357
 1638SOL    HW216374   3.233   3.554   8.103 -1.1353 -1.0373  0.5307
 1639SOL     OW16375   3.525   0.585   5.990 -0.1753 -0.1458 -0.0412
 1639SOL    HW116376   3.588   0.515   6.006  0.2614  0.4873  1.0034
 1639SOL    HW216377   3.571   0.660   6.028 -0.7427  0.9660 -1.5324
 1640SOL     OW16378   3.971   0.951  16.821 -0.3414  0.3731  0.2922
 1640SOL    HW116379   3.981   0.893  16.896  0.2564 -0.3453 -0.3420
 1640SOL    HW216380   3.876   0.944  16.811 -0.6036  0.9551  2.4246
 1641SOL     OW16381   2.587   3.840   6.113 -0.0811 -0.1873  0.1343
 1641SOL    HW116382   2.638   3.912   6.076 -1.0595  0.2684 -0.3568
 1641SOL    HW216383   2.531   3.816   6.039 -2.0472  0.7777  1.3043
 1642SOL     OW16384   3.707   4.331   8.203  0.2175 -0.1317 -0.1318
 1642SOL    HW116385   3.679   4.422   8.190 -0.4757  0.2889  4.5653
 1642SOL    HW216386   3.708   4.337   8.298 -1.9154  0.3230 -0.1369
 1643SOL     OW16387   4.120   1.547   3.182 -0.2705  0.3799  0.4416
 1643SOL    HW116388   4.044   1.578   3.231 -0.7320  2.0124 -1.3370
 1643SOL    HW216389   4.143   1.461   3.217 -2.7346  0.2426  1.6989
 1644SOL     OW16390   3.025   4.700  13.424  0.2922 -0.1828  0.4100
 1644SOL    HW116391   3.060   0.044  13.366 -1.3510  0.8319  0.5922
 1644SOL    HW216392   2.936   4.686  13.392 -0.2300  0.0671  1.7609
 1645SOL     OW16393   4.001   1.625   2.036 -0.4875  0.2292  0.2685
 1645SOL    HW116394   4.015   1.565   1.963 -1.3237  0.5964 -0.2052
 1645SOL    HW216395   4.090   1.640   2.068  0.1605 -0.3159 -1.2433
 1646SOL     OW16396   1.164   2.642   8.473  0.0631  0.5262  0.2075
 1646SOL    HW116397   1.219   2.703   8.425  1.0438 -0.6215 -0.1143
 1646SOL    HW216398   1.075   2.664   8.445 -1.1297 -1.3194  2.5280
 1647SOL     OW16399   3.457   1.092   4.988  0.1319 -0.2294 -0.1711
 1647SOL    HW116400   3.492   1.120   5.073 -0.6588 -0.5439  0.2544
 1647SOL    HW216401   3.439   0.999   5.001  2.1601 -0.7189 -0.8465
 1648SOL     OW16402   3.662   3.643   4.592 -0.0939 -0.4046 -0.8700
 1648SOL    HW116403   3.646   3.570   4.652 -0.6728 -0.5400 -1.1982
 1648SOL    HW216404   3.757   3.642   4.607 -0.3273  0.8352  0.7205
 1649SOL     OW16405   2.506   1.881   5.927 -0.0497  0.2229 -0.2110
 1649SOL    HW116406   2.423   1.867   5.973 -1.1470  1.2282 -1.8391
 1649SOL    HW216407   2.473   1.930   5.851  2.6684  2.0106 -0.2385
 1650SOL     OW16408   0.348   0.214   9.633  0.8287  0.1723 -0.0423
 1650SOL    HW116409   0.324   0.122   9.644 -1.9426  0.8255 -0.7365
 1650SOL    HW216410   0.284   0.272   9.675  1.3117 -0.4614  1.5501
 1651SOL     OW16411   3.307   0.929  16.190  0.4874  0.0167 -0.3753
 1651SOL    HW116412   3.321   1.022  16.177 -0.7657  0.1271 -0.9591
 1651SOL    HW216413   3.259   0.927  16.272  0.9846 -2.1038 -0.1132
 1652SOL     OW16414   3.416   2.485   2.772 -0.7717 -0.3972  0.4254
 1652SOL    HW116415   3.446   2.448   2.689  1.0686 -0.0400  0.9384
 1652SOL    HW216416   3.491   2.471   2.830 -0.9002 -0.4196  0.5848
 1653SOL     OW16417   3.289   4.134  16.428  0.0723 -0.4286 -0.0906
 1653SOL    HW116418   3.314   4.048  16.463  0.8043 -0.5399 -0.8987
 1653SOL    HW216419   3.373   4.178  16.423 -0.9533  1.5819  0.1648
 1654SOL     OW16420   3.386   1.499   2.477 -0.2309  0.0610 -0.1514
 1654SOL    HW116421   3.308   1.553   2.486  0.2525  1.0457 -1.7476
 1654SOL    HW216422   3.360   1.425   2.532  0.3154 -0.8792 -1.1489
 1655SOL     OW16423   4.079   0.399  13.302  0.4723  0.0842  0.0051
 1655SOL    HW116424   3.985   0.401  13.317  0.5980 -1.8187  0.9710
 1655SOL    HW216425   4.106   0.486  13.333  0.4478 -0.0944  0.5384
 1656SOL     OW16426   4.308   0.636  16.555 -0.2506  0.6329  0.2278
 1656SOL    HW116427   4.375   0.699  16.583 -0.9938  1.2964  0.5197
 1656SOL    HW216428   4.231   0.680  16.591 -0.3219 -0.0832  0.9579
 1657SOL     OW16429   1.153   4.340   2.314  0.4320  0.1494  0.0997
 1657SOL    HW116430   1.213   4.375   2.380 -1.8931  1.1882  1.6661
 1657SOL    HW216431   1.174   4.362   2.223 -1.1392  0.7903 -0.1115
 1658SOL     OW16432   1.817   0.386  15.289 -0.1682 -1.0407 -0.1233
 1658SOL    HW116433   1.759   0.451  15.330  1.8625 -0.6249  2.0400
 1658SOL    HW216434   1.823   0.420  15.200 -0.5228  0.4411  0.4307
 1659SOL     OW16435   2.223   1.151   6.902  0.0740 -0.4576 -0.6902
 1659SOL    HW116436   2.226   1.235   6.855 -0.8972  0.5988  1.1368
 1659SOL    HW216437   2.224   1.090   6.828 -2.2072 -2.1478  0.6566
 1660SOL     OW16438   1.775   2.491  15.501  0.0736 -0.3126  0.8523
 1660SOL    HW116439   1.686   2.460  15.520 -0.2707 -0.6338 -1.3244
 1660SOL    HW216440   1.772   2.587  15.500  0.3660 -0.2976  1.2173
 1661SOL     OW16441   3.643   3.948   5.723 -0.4401 -0.3572 -0.2935
 1661SOL    HW116442   3.713   4.013   5.715 -2.1559  1.4242 -0.6249
 1661SOL    HW216443   3.578   3.996   5.773  0.8130  0.7262  0.3006
 1662SOL     OW16444   2.562   0.758   7.403 -0.3782  0.2129  0.1439
 1662SOL    HW116445   2.492   0.820   7.420 -1.6408 -0.7120 -1.6646
 1662SOL    HW216446   2.542   0.740   7.311  4.6824 -0.9508 -0.7507
 1663SOL     OW16447   2.341   2.819   5.459 -0.3620  0.6453 -0.2497
 1663SOL    HW116448   2.362   2.907   5.491 -2.1884  0.7699  0.5892
 1663SOL    HW216449   2.289   2.833   5.380 -0.1460  0.3799 -0.4394
 1664SOL     OW16450   4.417   1.255   6.338 -0.3973  0.6291  0.2094
 1664SOL    HW116451   4.481   1.306   6.288 -0.1609  0.8843  0.7716
 1664SOL    HW216452   4.391   1.320   6.404  0.9162  1.7683 -0.3886
 1665SOL     OW16453   2.826   4.347   9.083 -0.3713 -0.1839  0.1761
 1665SOL    HW116454   2.770   4.316   9.154  0.1171  1.3816  1.2406
 1665SOL    HW216455   2.759   4.388   9.029 -0.1218  0.3527  0.2716
 1666SOL     OW16456   4.109   1.479   5.827 -0.0860  0.1939  0.4227
 1666SOL    HW116457   4.125   1.572   5.839  1.2802 -0.0742  0.7000
 1666SOL    HW216458   4.101   1.455   5.919 -0.1137  0.5400  0.5103
 1667SOL     OW16459   4.378   4.589   1.311 -0.3851 -0.6765  0.0531
 1667SOL    HW116460   4.375   4.633   1.396 -2.6270 -0.6849 -0.0419
 1667SOL    HW216461   4.345   4.667   1.265  1.2414 -1.4127 -2.4017
 1668SOL     OW16462   0.142   2.800  11.221 -0.4153  0.3517  0.4921
 1668SOL    HW116463   0.112   2.785  11.131  1.4092  0.1817 -0.0794
 1668SOL    HW216464   0.200   2.725  11.232 -1.4571 -0.8596 -2.2593
 1669SOL     OW16465   0.507   0.732  15.636  0.1219 -0.0008 -0.1600
 1669SOL    HW116466   0.534   0.820  15.611 -0.1732  0.4221  1.0152
 1669SOL    HW216467   0.419   0.755  15.665 -0.1665 -1.5255  0.1805
 1670SOL     OW16468   4.360   3.728   7.184 -0.4341  0.3728 -0.0839
 1670SOL    HW116469   4.369   3.767   7.270  1.0795 -2.3977  1.0189
 1670SOL    HW216470   4.374   3.633   7.188 -0.9366  0.2404 -1.2511
 1671SOL     OW16471   0.364   1.664   3.527 -0.7755 -0.4539  0.3482
 1671SOL    HW116472   0.329   1.627   3.608  0.1563  0.3645  1.1285
 1671SOL    HW216473   0.459   1.669   3.538 -0.7802 -1.0425  0.6575
 1672SOL     OW16474   2.664   0.930   4.704 -0.2377 -0.0265 -0.7392
 1672SOL    HW116475   2.570   0.915   4.708 -0.2968  1.2375  2.5779
 1672SOL    HW216476   2.666   0.997   4.635 -1.4909  0.0024 -0.7552
 1673SOL     OW16477   1.293   3.519   9.959 -0.2162  0.0157 -0.1000
 1673SOL    HW116478   1.209   3.475   9.970  0.3025 -0.9493 -0.0206
 1673SOL    HW216479   1.294   3.562  10.045  1.2230 -0.3159  0.0471
 1674SOL     OW16480   3.245   4.246   8.908  0.4139  0.4332  0.2943
 1674SOL    HW116481   3.257   4.271   8.816 -0.1768  0.2474  0.1677
 1674SOL    HW216482   3.331   4.268   8.944  0.0810  1.3580  0.5135
 1675SOL     OW16483   2.654   0.405   7.594  0.3778 -0.4879  1.1089
 1675SOL    HW116484   2.675   0.411   7.688  1.2547 -3.8149  1.1424
 1675SOL    HW216485   2.640   0.310   7.587 -1.0702 -0.2881  1.4658
 1676SOL     OW16486   3.453   0.226  14.582  0.5266  0.2948  0.0952
 1676SOL    HW116487   3.534   0.250  14.538  0.7945 -1.6834 -0.4988
 1676SOL    HW216488   3.424   0.316  14.595  1.5355  0.8163 -1.3317
 1677SOL     OW16489   3.785   2.662  15.687 -0.2591 -0.2265 -1.1708
 1677SOL    HW116490   3.774   2.726  15.617  0.3479 -1.2613 -2.2015
 1677SOL    HW216491   3.877   2.673  15.711 -1.3631  1.5178  2.3072
 1678SOL     OW16492   3.092   1.314  11.507 -0.3233 -0.4451 -0.1231
 1678SOL    HW116493   3.175   1.326  11.552 -0.3389  1.2145 -0.5572
 1678SOL    HW216494   3.029   1.373  11.548 -0.4455 -0.4453 -0.3083
 1679SOL     OW16495   2.387   3.680   7.194  0.0040  0.2307 -0.0800
 1679SOL    HW116496   2.478   3.705   7.211  0.3489 -0.3234 -1.0692
 1679SOL    HW216497   2.353   3.653   7.279  1.0515  3.7483  1.4435
 1680SOL     OW16498   2.940   1.571   6.287  0.5882 -0.3613  0.2244
 1680SOL    HW116499   2.927   1.489   6.334 -0.1466  0.2600  1.1020
 1680SOL    HW216500   2.894   1.630   6.346  1.1654 -0.7699  1.0791
 1681SOL     OW16501   3.508   3.227  17.065  0.2038 -0.1137 -0.1184
 1681SOL    HW116502   3.472   3.306  17.104  0.5076  0.1093 -0.2939
 1681SOL    HW216503   3.434   3.168  17.051  1.0256 -1.0066 -0.6779
 1682SOL     OW16504   3.168   3.666  14.343 -0.0545 -0.1603 -0.3454
 1682SOL    HW116505   3.139   3.639  14.256  3.3656 -1.0065 -1.2145
 1682SOL    HW216506   3.261   3.645  14.336 -0.6277 -1.8374 -2.7594
 1683SOL     OW16507   2.965   3.421   8.154 -0.2045  0.0942 -0.3379
 1683SOL    HW116508   2.879   3.421   8.112 -0.5437  2.4500  0.3747
 1683SOL    HW216509   3.016   3.485   8.105  1.4635  0.4229  1.8503
 1684SOL     OW16510   4.168   1.961   5.116  0.3081  0.2267 -0.3562
 1684SOL    HW116511   4.126   1.928   5.195  0.9523  0.5448  0.1198
 1684SOL    HW216512   4.121   1.909   5.051 -0.1707 -0.4800  0.5471
 1685SOL     OW16513   2.858   3.092   6.156  0.2923 -0.1342  0.1636
 1685SOL    HW116514   2.849   2.997   6.157  0.5198 -0.1343  1.6844
 1685SOL    HW216515   2.952   3.111   6.154 -0.5213  3.7962 -1.5360
 1686SOL     OW16516   3.869   3.123   4.174 -0.5655  0.1854 -0.1520
 1686SOL    HW116517   3.858   3.197   4.235 -1.2526  0.1642 -0.2603
 1686SOL    HW216518   3.925   3.161   4.106  1.0541  0.0598  1.1061
 1687SOL     OW16519   3.871   3.215   9.454 -0.4953 -0.1305 -0.2230
 1687SOL    HW116520   3.900   3.302   9.480  1.7193 -0.7084 -0.7270
 1687SOL    HW216521   3.813   3.246   9.385 -0.8577  0.7433  0.4810
 1688SOL     OW16522   1.458   3.965   8.038 -0.5152  0.0437 -0.3596
 1688SOL    HW116523   1.526   3.927   8.093 -1.1575  2.0219  1.7872
 1688SOL    HW216524   1.423   3.879   8.013  0.5986 -0.2124 -1.0098
 1689SOL     OW16525   1.935   0.040  16.881  0.2773 -0.1952 -0.3710
 1689SOL    HW116526   1.993   0.116  16.876 -0.4734  0.3511 -0.8745
 1689SOL    HW216527   1.910   0.037  16.789 -0.0523  1.7660 -0.3625
 1690SOL     OW16528   1.863   3.361   6.335 -0.3637  0.3035 -0.1861
 1690SOL    HW116529   1.908   3.402   6.262  0.9458  1.6292  1.3569
 1690SOL    HW216530   1.875   3.267   6.321  1.3907  0.4230  0.5966
 1691SOL     OW16531   1.743   3.995   5.762  0.3636  0.4430 -0.4699
 1691SOL    HW116532   1.716   4.017   5.673 -0.9106 -0.0994 -0.2079
 1691SOL    HW216533   1.834   3.975   5.738  1.1218  0.9646  1.9775
 1692SOL     OW16534   0.913   0.693   6.131  0.0491 -0.4830  0.0988
 1692SOL    HW116535   0.972   0.766   6.151  0.1815 -0.2448 -1.1475
 1692SOL    HW216536   0.902   0.694   6.036  0.0434 -1.9699  0.0925
 1693SOL     OW16537   2.741   2.054  17.138  0.7161 -0.5378  0.0214
 1693SOL    HW116538   2.754   2.050  17.233  0.5911 -2.6372 -0.0558
 1693SOL    HW216539   2.685   2.131  17.135  1.7372  0.2476  1.3436
 1694SOL     OW16540   4.615   4.364   7.573  0.0226  0.0260 -0.6486
 1694SOL    HW116541   4.558   4.439   7.554  0.1722 -0.1549 -1.8044
 1694SOL    HW216542   4.690   4.403   7.529  0.7668 -2.0611 -1.2302
 1695SOL     OW16543   2.450   1.334   3.778  0.0564 -0.0496  0.3338
 1695SOL    HW116544   2.395   1.276   3.831 -1.9634 -0.1010 -1.7734
 1695SOL    HW216545   2.533   1.287   3.788  0.1329 -0.1100 -0.6152
 1696SOL     OW16546   2.814   0.167  12.885 -0.2539  0.0967  0.0799
 1696SOL    HW116547   2.862   0.185  12.804 -0.0237 -0.2275  0.1457
 1696SOL    HW216548   2.807   0.072  12.877  0.7122  0.0215  0.1243
 1697SOL     OW16549   0.880   0.627   5.374 -0.1535 -0.1350  0.2167
 1697SOL    HW116550   0.797   0.579   5.374 -0.1607 -0.1231 -2.6548
 1697SOL    HW216551   0.929   0.583   5.304  0.5170 -1.4251  1.5091
 1698SOL     OW16552   3.449   2.166   1.609  0.2251 -0.0503 -0.0704
 1698SOL    HW116553   3.489   2.112   1.676  0.9322  1.1563  0.4753
 1698SOL    HW216554   3.357   2.139   1.606 -0.0803  1.1089 -1.6789
 1699SOL     OW16555   3.592   0.962   4.374 -0.1852 -0.0922  0.2099
 1699SOL    HW116556   3.517   0.904   4.357 -0.6546  0.5137  0.2380
 1699SOL    HW216557   3.615   0.937   4.463  0.1216  0.9482  0.4186
 1700SOL     OW16558   2.509   3.840  13.325  0.1692 -0.3402 -0.0328
 1700SOL    HW116559   2.455   3.763  13.307  0.3932 -0.7612  1.0976
 1700SOL    HW216560   2.435   3.887  13.364 -0.5897  0.1113 -2.0362
 1701SOL     OW16561   2.197   4.633  11.750  0.6335  0.2688  0.2316
 1701SOL    HW116562   2.190   4.658  11.658  0.0882  1.3374  0.5579
 1701SOL    HW216563   2.273   4.684  11.776  3.1979 -2.6395 -1.6263
 1702SOL     OW16564   4.616   1.643   2.247 -0.6122 -0.4450 -0.0145
 1702SOL    HW116565   4.551   1.617   2.182 -1.5186  0.5891  0.4892
 1702SOL    HW216566   4.692   1.678   2.200 -1.5338  1.0843 -0.3454
 1703SOL     OW16567   0.878   3.417  12.899  0.4832  0.0848 -0.5557
 1703SOL    HW116568   0.945   3.437  12.963 -2.3631  1.7578  1.8727
 1703SOL    HW216569   0.851   3.506  12.879 -3.0891 -1.0434 -0.7284
 1704SOL     OW16570   2.590   2.991   5.923 -0.4242 -0.3919  0.1653
 1704SOL    HW116571   2.630   2.941   5.851 -0.0135 -0.1795  0.2444
 1704SOL    HW216572   2.572   2.920   5.984  0.2759  0.3265  1.1986
 1705SOL     OW16573   0.371   3.113   6.317 -0.0349 -0.3540 -0.7511
 1705SOL    HW116574   0.350   3.135   6.226  0.7536 -1.0036 -1.1002
 1705SOL    HW216575   0.308   3.044   6.336  1.0144 -1.4385 -1.1847
 1706SOL     OW16576   2.058   0.275   7.960  0.2206  0.5295 -0.3985
 1706SOL    HW116577   2.015   0.255   7.877  0.2604  1.8769 -0.7471
 1706SOL    HW216578   2.036   0.194   8.007  3.6174  0.9949  2.0522
 1707SOL     OW16579   2.263   0.477   1.734  0.0965  0.5612 -0.5710
 1707SOL    HW116580   2.221   0.394   1.754  2.2271  0.1259  1.9854
 1707SOL    HW216581   2.262   0.519   1.820  0.1157  0.1447 -0.3693
 1708SOL     OW16582   2.310   3.288   8.068  0.1619 -0.1981 -0.5337
 1708SOL    HW116583   2.259   3.253   8.141  1.4725 -3.0755 -1.0030
 1708SOL    HW216584   2.368   3.352   8.109  0.3543 -0.6868 -0.0380
 1709SOL     OW16585   3.823   1.635   2.659 -0.5401 -0.0165  0.0144
 1709SOL    HW116586   3.791   1.637   2.749  1.7163  1.8604  0.7819
 1709SOL    HW216587   3.857   1.725   2.652 -1.2280  0.1306 -1.5457
 1710SOL     OW16588   3.603   2.289   3.797  0.4976 -0.2478 -0.0284
 1710SOL    HW116589   3.537   2.330   3.852 -0.2905 -0.4790 -0.7904
 1710SOL    HW216590   3.606   2.354   3.727 -2.2862 -2.1091 -1.9048
 1711SOL     OW16591   3.536   0.455  13.162 -0.2437  0.6609 -0.2372
 1711SOL    HW116592   3.458   0.425  13.116  0.2566  1.4926 -1.6330
 1711SOL    HW216593   3.539   0.386  13.229  1.1754  0.5110 -0.4484
 1712SOL     OW16594   0.725   1.432   3.528 -0.0116 -0.1600  0.7153
 1712SOL    HW116595   0.721   1.441   3.433  0.0480  1.7933  0.8999
 1712SOL    HW216596   0.748   1.339   3.534  1.2374  0.1671  0.9495
 1713SOL     OW16597   0.893   3.442  11.591 -0.3634  0.2464 -0.8112
 1713SOL    HW116598   0.988   3.448  11.581 -0.5717  2.4808 -1.4490
 1713SOL    HW216599   0.886   3.439  11.686  1.5580 -1.5588 -0.7311
 1714SOL     OW16600   0.292   2.179   0.187  0.3480  0.5734  0.2745
 1714SOL    HW116601   0.212   2.203   0.234  1.4263  2.6458  1.0459
 1714SOL    HW216602   0.333   2.112   0.241  0.6669  1.1696  0.7776
 1715SOL     OW16603   0.147   3.125   4.400  0.1893  0.7457  0.6445
 1715SOL    HW116604   0.076   3.147   4.340  0.8827  4.3380  1.1654
 1715SOL    HW216605   0.204   3.077   4.340 -1.2494  1.1001 -0.9872
 1716SOL     OW16606   2.264   1.835   3.193 -0.0141  0.9320  1.0261
 1716SOL    HW116607   2.259   1.743   3.219 -2.7386  0.9478  0.5499
 1716SOL    HW216608   2.356   1.838   3.164 -0.8504  0.3225 -1.6516
 1717SOL     OW16609   1.807   1.525   8.575  0.0460 -0.2586  0.6527
 1717SOL    HW116610   1.830   1.534   8.668  0.9518 -0.0242  0.4070
 1717SOL    HW216611   1.735   1.465   8.594  0.3628 -1.2597 -1.2673
 1718SOL     OW16612   0.101   4.144  14.947  0.5231  0.0940 -0.0839
 1718SOL    HW116613   0.169   4.179  14.890 -0.6857 -0.7135 -2.0538
 1718SOL    HW216614   0.049   4.222  14.964  1.9056  0.9323  0.2440
 1719SOL     OW16615   1.481   4.493   8.614  0.1054  0.3691  0.0483
 1719SOL    HW116616   1.426   4.569   8.632 -0.0813  0.1026  0.6101
 1719SOL    HW216617   1.419   4.420   8.611 -0.4461  0.8038  0.6750
 1720SOL     OW16618   3.897   1.160   0.355 -0.1718 -0.0395  0.0439
 1720SOL    HW116619   3.889   1.218   0.279 -3.0866 -0.3092  0.1445
 1720SOL    HW216620   3.823   1.102   0.340 -1.0584  1.1010  0.0300
 1721SOL     OW16621   3.108   1.433   4.827 -0.2433 -0.1973 -0.1061
 1721SOL    HW116622   3.050   1.386   4.887 -0.1438  0.0406  0.1783
 1721SOL    HW216623   3.124   1.360   4.767 -0.6732 -0.1053 -0.3365
 1722SOL     OW16624   2.997   0.926   0.576  0.4059  0.0632 -0.1871
 1722SOL    HW116625   2.994   0.865   0.503 -1.0705 -0.1581  0.0698
 1722SOL    HW216626   3.080   0.891   0.609  0.1636 -0.5720 -0.2546
 1723SOL     OW16627   2.080   4.300   6.109  0.1329  0.0875 -0.0805
 1723SOL    HW116628   2.076   4.209   6.081 -2.1887 -0.4326  2.0162
 1723SOL    HW216629   2.022   4.299   6.185  1.0618 -3.3695  0.5668
 1724SOL     OW16630   1.992   1.767   2.694  0.6768 -0.1736 -0.6676
 1724SOL    HW116631   1.928   1.731   2.632 -0.3747 -0.3040  0.5053
 1724SOL    HW216632   2.064   1.779   2.632 -0.1034  0.5064 -1.4508
 1725SOL     OW16633   2.067   4.413   4.550  0.0355  0.3122 -0.2692
 1725SOL    HW116634   2.118   4.402   4.630 -0.5702 -0.0787  0.0587
 1725SOL    HW216635   2.059   4.320   4.533  3.1518  0.3184 -1.6714
 1726SOL     OW16636   1.334   2.166   0.012 -0.1078 -0.1126 -0.1731
 1726SOL    HW116637   1.303   2.078   0.028  1.6812 -0.5667  0.8862
 1726SOL    HW216638   1.427   2.152  17.689  0.0577 -1.1449  1.4557
 1727SOL     OW16639   4.362   1.749   9.413 -0.7293 -0.0465 -0.7300
 1727SOL    HW116640   4.325   1.836   9.402 -2.9724 -1.0473 -1.0138
 1727SOL    HW216641   4.412   1.751   9.331 -0.5569 -0.6540 -0.6395
 1728SOL     OW16642   2.070   3.639   6.909 -0.1351 -0.1788 -0.0459
 1728SOL    HW116643   2.004   3.656   6.841  1.0836  0.9270 -0.9438
 1728SOL    HW216644   2.124   3.571   6.868  1.9509  0.9901  0.8444
 1729SOL     OW16645   3.053   0.458   4.732  0.3371 -0.4980 -0.2295
 1729SOL    HW116646   3.141   0.447   4.697  1.1610 -1.1896  2.0387
 1729SOL    HW216647   3.063   0.484   4.824  0.2685 -1.2123 -0.0232
 1730SOL     OW16648   2.271   3.922   2.475  0.1170  0.5596 -0.3755
 1730SOL    HW116649   2.270   3.968   2.391 -0.5328 -0.4716 -0.9211
 1730SOL    HW216650   2.364   3.899   2.469  0.8468  3.2090  0.4853
 1731SOL     OW16651   3.772   0.346   8.076  0.2931  0.4067 -0.5397
 1731SOL    HW116652   3.786   0.440   8.074 -0.5232  0.5651  0.8108
 1731SOL    HW216653   3.687   0.346   8.121  0.8862  0.1477  0.5714
 1732SOL     OW16654   2.471   2.158  14.842 -0.1542 -0.2720  0.1594
 1732SOL    HW116655   2.498   2.121  14.926  3.7804 -2.1094 -1.9235
 1732SOL    HW216656   2.525   2.106  14.782  1.9231  2.5413 -0.4117
 1733SOL     OW16657   1.788   1.157  12.675  0.2050 -0.2231 -0.3817
 1733SOL    HW116658   1.736   1.092  12.722 -1.7867  1.0406 -0.8540
 1733SOL    HW216659   1.866   1.107  12.653  0.0817 -1.6411  2.4515
 1734SOL     OW16660   0.381   3.446   2.986  0.3518  0.3626  0.1298
 1734SOL    HW116661   0.335   3.424   2.905  1.8288  0.0827 -0.6301
 1734SOL    HW216662   0.409   3.534   2.964  1.0144  0.1854  0.2571
 1735SOL     OW16663   0.887   0.643   4.596 -0.0449  0.5463  0.0369
 1735SOL    HW116664   0.835   0.605   4.667 -0.1383 -2.1089 -1.4850
 1735SOL    HW216665   0.877   0.735   4.622  0.0074  0.0021  2.0034
 1736SOL     OW16666   2.179   3.135   3.348  0.0635  0.5832 -0.4358
 1736SOL    HW116667   2.247   3.121   3.282 -1.0286  1.1870 -1.7092
 1736SOL    HW216668   2.226   3.098   3.422 -1.3280 -1.1750 -0.4225
 1737SOL     OW16669   0.756   3.503   6.103  0.4348  0.0868  0.1019
 1737SOL    HW116670   0.760   3.594   6.075 -1.3467  1.1718  3.2594
 1737SOL    HW216671   0.820   3.497   6.175  3.4683  3.4714 -2.3063
 1738SOL     OW16672   0.640   2.328   2.286 -0.1453  0.8774 -0.4813
 1738SOL    HW116673   0.586   2.365   2.216 -2.7357 -2.3557 -0.1571
 1738SOL    HW216674   0.659   2.413   2.325  0.7304 -0.2694  1.5620
 1739SOL     OW16675   1.436   4.402  14.911 -0.0505  0.0263 -0.1017
 1739SOL    HW116676   1.361   4.363  14.866  0.0684  0.7027 -0.8848
 1739SOL    HW216677   1.443   4.349  14.991  0.8736 -0.6389 -0.6190
 1740SOL     OW16678   3.728   3.949   5.410 -0.3088  0.3276 -0.3682
 1740SOL    HW116679   3.778   4.012   5.463 -4.1249  1.3215  2.0368
 1740SOL    HW216680   3.757   3.972   5.322 -0.1679  2.0134  0.1186
 1741SOL     OW16681   2.770   1.472  15.185 -0.0028  0.1520 -0.0329
 1741SOL    HW116682   2.786   1.448  15.094 -1.1187  0.1128 -0.2236
 1741SOL    HW216683   2.843   1.532  15.199 -0.1454  0.6040 -1.2195
 1742SOL     OW16684   0.891   3.772   7.335  0.4087  0.3740  0.1319
 1742SOL    HW116685   0.892   3.841   7.402 -4.2365  2.6678 -2.1872
 1742SOL    HW216686   0.927   3.811   7.255 -1.0493  0.7525 -0.3256
 1743SOL     OW16687   0.008   1.304   2.827 -0.0384 -0.3659 -0.3224
 1743SOL    HW116688   0.082   1.343   2.780 -0.0853 -1.5145 -1.3328
 1743SOL    HW216689   0.045   1.219   2.850  0.7220  0.2237  0.6160
 1744SOL     OW16690   3.298   0.995   3.196 -0.2570  0.0968  0.1164
 1744SOL    HW116691   3.377   1.045   3.176 -0.1915 -0.1554 -0.2667
 1744SOL    HW216692   3.338   0.909   3.211  0.5021  0.1355 -1.6682
 1745SOL     OW16693   4.587   4.573   3.658  0.1053 -0.1297 -0.3727
 1745SOL    HW116694   4.579   4.514   3.583  1.7081  0.7163 -1.2103
 1745SOL    HW216695   4.495   4.593   3.672 -0.1629 -1.2005 -0.6309
 1746SOL     OW16696   3.753   2.259   6.431  0.0926  0.6850  0.4150
 1746SOL    HW116697   3.820   2.315   6.393 -0.3966  0.9603 -0.0544
 1746SOL    HW216698   3.669   2.299   6.406 -1.6585 -2.5965  1.0247
 1747SOL     OW16699   3.444   4.093   5.523  0.0752  0.2592 -0.1127
 1747SOL    HW116700   3.496   4.123   5.449  0.6213 -0.0949  0.1331
 1747SOL    HW216701   3.510   4.057   5.582 -1.5530 -0.2416  1.4239
 1748SOL     OW16702   0.766   2.061   3.600 -0.4528 -0.0871  0.6260
 1748SOL    HW116703   0.843   2.038   3.652 -1.2306  1.2841  2.3946
 1748SOL    HW216704   0.775   2.156   3.593  1.6609 -0.4212 -1.1562
 1749SOL     OW16705   2.687   4.451  10.852 -0.4219  0.6099 -0.1431
 1749SOL    HW116706   2.733   4.531  10.877 -0.6827  0.9090 -0.6154
 1749SOL    HW216707   2.745   4.425  10.781 -1.7174 -0.4780 -0.8154
 1750SOL     OW16708   3.682   2.085   7.704  0.0519  0.1014  0.4062
 1750SOL    HW116709   3.729   2.010   7.668 -0.4174  0.8019 -1.6704
 1750SOL    HW216710   3.700   2.157   7.644  0.0197 -1.1590 -1.1206
 1751SOL     OW16711   3.575   2.193   8.986  0.1536 -0.3536  0.0782
 1751SOL    HW116712   3.482   2.214   8.995  0.0777 -1.6488  2.2148
 1751SOL    HW216713   3.612   2.280   9.000 -1.3452  0.2795  0.1464
 1752SOL     OW16714   2.140   1.294   4.493  0.4565 -0.0648 -0.6165
 1752SOL    HW116715   2.145   1.212   4.445 -0.8189  0.3731 -1.4902
 1752SOL    HW216716   2.159   1.266   4.583  0.3844  0.7085 -0.3573
 1753SOL     OW16717   1.520   2.030  16.951 -0.0068 -0.5230  0.1077
 1753SOL    HW116718   1.433   1.990  16.947 -0.0796 -0.7251  3.6571
 1753SOL    HW216719   1.567   1.966  17.005 -0.5813 -0.9498  0.1133
 1754SOL     OW16720   3.446   3.018  13.636  0.7298 -0.3872 -0.0757
 1754SOL    HW116721   3.412   2.937  13.673  1.2589 -1.0850 -1.1339
 1754SOL    HW216722   3.374   3.050  13.581  0.7982  2.0097  1.1929
 1755SOL     OW16723   1.824   1.807   3.162  0.0159  0.4462  0.1933
 1755SOL    HW116724   1.863   1.769   3.084  0.3321  0.0463  0.5486
 1755SOL    HW216725   1.790   1.727   3.202  0.7342 -0.3954 -0.8657
 1756SOL     OW16726   2.747   3.723   7.518  0.3439 -0.4836  0.0857
 1756SOL    HW116727   2.735   3.786   7.589  0.5298 -0.2977 -0.0468
 1756SOL    HW216728   2.740   3.643   7.570  1.3987  0.8311  2.2234
 1757SOL     OW16729   1.537   1.245   4.231 -0.3872  0.0592 -0.0881
 1757SOL    HW116730   1.535   1.341   4.233  2.5466  0.1309 -0.6629
 1757SOL    HW216731   1.628   1.222   4.250 -0.5961 -0.8335 -0.1463
 1758SOL     OW16732   0.414   0.760   1.070 -0.2627 -0.1792 -0.1699
 1758SOL    HW116733   0.508   0.765   1.085 -0.1240  0.2920 -1.1436
 1758SOL    HW216734   0.376   0.845   1.092  0.4602  0.6271 -2.0079
 1759SOL     OW16735   1.937   0.265   6.375 -0.2430 -0.2973  0.2509
 1759SOL    HW116736   2.027   0.234   6.383  0.0651  1.1217  2.3226
 1759SOL    HW216737   1.941   0.356   6.407  0.1303 -0.7418  1.4923
 1760SOL     OW16738   2.166   1.031   5.663 -0.2500 -0.0371  0.1752
 1760SOL    HW116739   2.141   0.938   5.656  0.8007 -0.3418  0.5097
 1760SOL    HW216740   2.122   1.069   5.587 -1.2435  0.9425  1.2374
 1761SOL     OW16741   3.795   1.482   5.152  0.2619 -0.1837  0.1712
 1761SOL    HW116742   3.846   1.413   5.111 -0.1276  0.0767 -0.7528
 1761SOL    HW216743   3.799   1.543   5.078 -2.3720  1.1997  1.1898
 1762SOL     OW16744   4.385   0.246   5.911 -0.0239 -0.0732 -0.5801
 1762SOL    HW116745   4.328   0.233   5.986 -1.8560  1.1884 -1.7560
 1762SOL    HW216746   4.330   0.207   5.843 -0.8355  1.7146 -0.9392
 1763SOL     OW16747   2.973   4.362   7.034 -0.0369 -1.1233  0.1123
 1763SOL    HW116748   2.929   4.338   7.116 -2.6650 -1.6167 -1.4477
 1763SOL    HW216749   2.895   4.362   6.979 -1.7448  1.9462  2.4988
 1764SOL     OW16750   2.268   2.078   5.312 -0.0311  0.4541  0.0883
 1764SOL    HW116751   2.221   2.004   5.350 -0.1705  0.6867  0.3762
 1764SOL    HW216752   2.283   2.046   5.223 -0.4628 -1.0600  0.5527
 1765SOL     OW16753   0.438   3.132  14.722  0.2950  1.0053 -0.1740
 1765SOL    HW116754   0.393   3.144  14.638  0.7451 -0.2143 -0.6046
 1765SOL    HW216755   0.515   3.188  14.714  1.6928 -0.8096  0.4917
 1766SOL     OW16756   2.342   0.526   3.551 -0.1930  0.2209  0.8124
 1766SOL    HW116757   2.396   0.513   3.473 -0.9533 -0.7049  0.4432
 1766SOL    HW216758   2.413   0.549   3.610  0.6806  0.2478 -0.2467
 1767SOL     OW16759   3.699   0.737   7.899  0.0748  0.1642  0.2082
 1767SOL    HW116760   3.776   0.775   7.858 -0.0933 -0.8527 -1.0503
 1767SOL    HW216761   3.734   0.711   7.984  0.8888  1.0969  0.1568
 1768SOL     OW16762   4.072   3.288   4.714  0.2465 -0.6734 -0.4774
 1768SOL    HW116763   4.103   3.352   4.778 -1.6201 -2.1280  1.8828
 1768SOL    HW216764   4.104   3.326   4.632  0.6112  1.6613  0.7621
 1769SOL     OW16765   4.459   1.324   4.451 -0.7204 -0.4684  0.1883
 1769SOL    HW116766   4.547   1.343   4.483 -1.9151  0.8417  2.7642
 1769SOL    HW216767   4.466   1.234   4.421  1.6234 -1.3173  3.2740
 1770SOL     OW16768   0.640   1.806   6.238  0.1424 -0.3971 -0.5384
 1770SOL    HW116769   0.707   1.740   6.258  0.0580 -0.6183 -0.9687
 1770SOL    HW216770   0.692   1.877   6.200  0.6384 -0.4755  0.0000
 1771SOL     OW16771   2.285   2.634  15.375  0.0234 -0.2937  0.4496
 1771SOL    HW116772   2.290   2.578  15.453 -3.0287 -0.9943  0.1167
 1771SOL    HW216773   2.196   2.668  15.380  0.7833  1.8491 -0.7149
 1772SOL     OW16774   2.640   3.389  12.093 -0.1006 -0.1687  0.0848
 1772SOL    HW116775   2.581   3.338  12.149  0.3709 -1.8744 -0.9803
 1772SOL    HW216776   2.575   3.430  12.036  0.6525  1.3469  0.3146
 1773SOL     OW16777   2.777   3.412   9.695  0.3862 -0.1182  0.3031
 1773SOL    HW116778   2.703   3.357   9.722 -0.0384 -0.6432 -1.9509
 1773SOL    HW216779   2.848   3.350   9.713  0.6219  0.0196 -0.1656
 1774SOL     OW16780   1.573   1.715   9.659  0.5008 -0.8672  0.3085
 1774SOL    HW116781   1.513   1.760   9.718  0.8431  3.7717 -2.7806
 1774SOL    HW216782   1.535   1.629   9.676  0.8589 -1.3328 -1.1799
 1775SOL     OW16783   2.731   0.945   2.492 -0.1369  0.4738  0.1987
 1775SOL    HW116784   2.695   0.856   2.498 -2.4384  1.3988  0.1405
 1775SOL    HW216785   2.656   0.999   2.520 -0.1533  0.4020  0.2969
 1776SOL     OW16786   0.514   3.006   4.364  0.1653  0.3924  0.3294
 1776SOL    HW116787   0.530   3.072   4.296  2.8062 -0.2851  0.3093
 1776SOL    HW216788   0.419   3.005   4.354  0.1929  0.1971  0.0881
 1777SOL     OW16789   1.614   2.687   4.577  0.4544  0.1123  0.7899
 1777SOL    HW116790   1.585   2.611   4.527 -0.1767  0.7578  0.1843
 1777SOL    HW216791   1.660   2.648   4.652  0.1651 -0.8420  0.4737
 1778SOL     OW16792   2.806   3.359   7.105  0.2901 -0.2050 -0.3257
 1778SOL    HW116793   2.780   3.277   7.146 -0.9347 -0.1596 -1.0224
 1778SOL    HW216794   2.899   3.373   7.127  0.4460  0.6167 -1.5099
 1779SOL     OW16795   0.129   3.053   3.168  0.0021 -0.5785  0.4103
 1779SOL    HW116796   0.095   3.096   3.090  3.4962 -0.3654 -0.9825
 1779SOL    HW216797   0.191   2.989   3.133 -0.5158  0.6049 -2.6034
 1780SOL     OW16798   1.324   0.877   6.422  0.0126  0.4637  0.1674
 1780SOL    HW116799   1.293   0.806   6.366  2.5787 -0.3598 -0.2088
 1780SOL    HW216800   1.270   0.952   6.396  1.4018  1.8376  1.2834
 1781SOL     OW16801   1.807   2.631  16.197  0.1330 -0.1353 -0.5692
 1781SOL    HW116802   1.726   2.588  16.172 -1.3503  2.5882 -0.5152
 1781SOL    HW216803   1.783   2.690  16.269  0.4309 -2.3935  1.3489
 1782SOL     OW16804   2.785   1.765   8.072 -0.7853  0.5158  0.0535
 1782SOL    HW116805   2.835   1.724   8.142  0.8727  0.1927 -1.3263
 1782SOL    HW216806   2.832   1.844   8.044 -0.1087 -0.2189 -0.8867
 1783SOL     OW16807   1.431   3.899   2.298 -0.7315  0.0314  0.6398
 1783SOL    HW116808   1.337   3.911   2.311 -1.0659 -0.3949 -1.3194
 1783SOL    HW216809   1.446   3.991   2.274 -1.6987 -0.2566 -1.0903
 1784SOL     OW16810   4.489   3.545   0.606  0.0337  0.2205  0.5423
 1784SOL    HW116811   4.525   3.461   0.636  1.5898  0.6652 -0.0656
 1784SOL    HW216812   4.536   3.547   0.522 -1.6007 -0.2865 -0.3816
 1785SOL     OW16813   4.099   3.910   9.466  0.5599 -0.1686  0.2977
 1785SOL    HW116814   4.190   3.914   9.437  0.5545 -2.8053 -0.0668
 1785SOL    HW216815   4.036   3.926   9.395  0.2372  0.3157  0.6888
 1786SOL     OW16816   4.651   4.262   7.828  0.3069 -0.3113  0.3827
 1786SOL    HW116817   0.015   4.275   7.792 -0.3637 -3.6424 -2.4667
 1786SOL    HW216818   4.598   4.329   7.784 -1.4431 -3.1296 -1.8043
 1787SOL     OW16819   1.197   0.609   7.395  0.1461 -0.0846 -0.0291
 1787SOL    HW116820   1.230   0.561   7.471 -1.4591 -0.1652  0.6176
 1787SOL    HW216821   1.184   0.542   7.328 -1.1089 -0.9866  1.1156
 1788SOL     OW16822   2.466   4.202   4.292  0.1432 -0.2113  0.7117
 1788SOL    HW116823   2.446   4.284   4.336  0.8746  0.4614 -0.2179
 1788SOL    HW216824   2.397   4.203   4.225  0.4062 -3.4953  0.3610
 1789SOL     OW16825   2.837   3.186   2.213 -0.6620  0.2264 -0.0961
 1789SOL    HW116826   2.926   3.179   2.178 -0.8336  1.5367 -0.7915
 1789SOL    HW216827   2.826   3.119   2.279  2.3225  1.6430  1.8446
 1790SOL     OW16828   0.999   2.167   0.175  0.1552  0.1865 -0.1202
 1790SOL    HW116829   0.938   2.160   0.249  0.6008 -1.2077  0.1120
 1790SOL    HW216830   1.028   2.079   0.152 -0.6230 -0.3508  0.9557
 1791SOL     OW16831   1.444   1.182   4.824  0.1761  0.3905  0.2091
 1791SOL    HW116832   1.438   1.160   4.731  0.5262  0.9648  0.0510
 1791SOL    HW216833   1.448   1.093   4.860  0.6619  0.8396  1.2643
 1792SOL     OW16834   0.405   2.505   2.200 -0.2387  0.4904 -0.5900
 1792SOL    HW116835   0.310   2.513   2.188 -0.9016 -5.5287  0.5491
 1792SOL    HW216836   0.438   2.517   2.111  0.3767  0.9384 -0.2954
 1793SOL     OW16837   0.450   4.570   2.570 -0.3679  0.3731 -0.3331
 1793SOL    HW116838   0.515   4.500   2.558 -1.0079  0.2221 -2.7771
 1793SOL    HW216839   0.385   4.529   2.514 -0.5413  0.0473  0.0994
 1794SOL     OW16840   2.918   1.975  15.542 -0.6319  0.1788 -0.6329
 1794SOL    HW116841   2.841   1.919  15.545 -1.3355  1.1874  0.0066
 1794SOL    HW216842   2.883   2.055  15.579 -0.2051 -0.9603  2.2118
 1795SOL     OW16843   3.779   4.038   6.125  0.4579 -0.5376  0.1186
 1795SOL    HW116844   3.696   4.086   6.122 -0.6654 -2.4342  1.1878
 1795SOL    HW216845   3.804   4.054   6.034 -0.9930 -0.4578 -0.2686
 1796SOL     OW16846   4.190   3.845   1.860  0.1169  0.3364 -0.5885
 1796SOL    HW116847   4.246   3.922   1.875  0.8560 -0.1605 -0.7894
 1796SOL    HW216848   4.248   3.783   1.816  0.3110  1.2629 -1.6351
 1797SOL     OW16849   0.754   2.952   6.682  0.2316  0.3500  0.2602
 1797SOL    HW116850   0.835   2.988   6.644 -1.0377  2.2242 -0.6888
 1797SOL    HW216851   0.703   3.033   6.687 -0.3395 -0.2105  3.0778
 1798SOL     OW16852   2.889   3.081  12.780  0.1890 -0.1975  0.4912
 1798SOL    HW116853   2.965   3.081  12.838  0.0424 -0.0138  0.6827
 1798SOL    HW216854   2.868   2.990  12.798 -1.1556 -0.2205 -1.2242
 1799SOL     OW16855   3.694   1.058   2.252 -0.5208  0.1813 -0.2662
 1799SOL    HW116856   3.620   1.105   2.289 -1.5785 -1.5383 -0.1755
 1799SOL    HW216857   3.659   0.976   2.287 -0.1493  0.3887  0.5881
 1800SOL     OW16858   1.798   0.424   5.459 -0.1707  0.9270  0.0585
 1800SOL    HW116859   1.849   0.346   5.478 -1.8809  0.6522  3.4740
 1800SOL    HW216860   1.866   0.489   5.439 -0.3166  0.2585 -2.5910
 1801SOL     OW16861   0.711   3.258   4.392  0.0599 -0.0243 -0.0670
 1801SOL    HW116862   0.764   3.333   4.365  0.6312 -1.0345 -1.7494
 1801SOL    HW216863   0.755   3.247   4.476 -0.4249  2.3100  0.5123
 1802SOL     OW16864   3.683   2.501   4.451  0.2908  0.7429  0.3021
 1802SOL    HW116865   3.588   2.488   4.451  0.3551  0.2625 -0.0931
 1802SOL    HW216866   3.695   2.481   4.358  1.2050  0.3629  0.5043
 1803SOL     OW16867   1.489   1.967   9.825 -0.5777 -0.3067 -0.0753
 1803SOL    HW116868   1.415   1.911   9.848  0.6873 -2.0892 -0.2575
 1803SOL    HW216869   1.456   2.052   9.853  0.4422 -0.0536  0.3758
 1804SOL     OW16870   3.559   1.919   3.090 -0.1300  0.2794 -0.1854
 1804SOL    HW116871   3.591   1.887   3.174  0.0355 -0.9246 -0.6990
 1804SOL    HW216872   3.495   1.986   3.114 -1.3044 -1.1139  0.5640
 1805SOL     OW16873   0.342   3.440   5.214  0.0689 -0.4766  0.1441
 1805SOL    HW116874   0.261   3.418   5.261 -0.4436  0.3086 -0.3460
 1805SOL    HW216875   0.331   3.534   5.229  1.3160  0.0983 -2.5498
 1806SOL     OW16876   3.605   2.220  12.786  0.2954  0.0113 -0.2062
 1806SOL    HW116877   3.606   2.299  12.731 -2.3327  0.3792  0.2721
 1806SOL    HW216878   3.649   2.160  12.725 -0.6189 -0.1126 -0.7496
 1807SOL     OW16879   4.103   3.575  14.045 -0.7937  0.3854  0.7342
 1807SOL    HW116880   4.192   3.610  14.042 -0.3874 -0.5609  1.7349
 1807SOL    HW216881   4.108   3.501  14.106  1.7199 -0.0208  0.0333
 1808SOL     OW16882   0.721   3.341   2.788  0.2756 -0.0116 -0.1156
 1808SOL    HW116883   0.704   3.412   2.726  0.1918  1.1329  1.2171
 1808SOL    HW216884   0.677   3.267   2.746  0.4296  0.3470 -0.9133
 1809SOL     OW16885   1.022   1.043   4.973 -0.1579  0.6252  0.0470
 1809SOL    HW116886   1.072   0.968   5.004  0.1392  1.1603  0.8581
 1809SOL    HW216887   1.081   1.117   4.991  2.3560 -1.1979 -0.7643
 1810SOL     OW16888   1.824   1.844  14.137 -0.1956  0.0219  0.7576
 1810SOL    HW116889   1.844   1.757  14.172  0.8505 -0.2995 -0.6493
 1810SOL    HW216890   1.731   1.835  14.117  0.2671 -1.0574 -0.9129
 1811SOL     OW16891   2.546   3.867   4.090  0.3810  0.1026 -0.1340
 1811SOL    HW116892   2.503   3.903   4.013 -0.1569 -2.9543 -1.2523
 1811SOL    HW216893   2.633   3.840   4.059  0.7186  2.2593 -1.0455
 1812SOL     OW16894   3.808   0.430  13.302  0.2546 -0.2639  0.0984
 1812SOL    HW116895   3.730   0.375  13.298 -0.4380  0.7739 -0.5225
 1812SOL    HW216896   3.785   0.513  13.262  1.0241 -0.3735 -0.5572
 1813SOL     OW16897   3.956   3.435   3.381 -0.0711 -0.6528  0.4366
 1813SOL    HW116898   4.033   3.382   3.365  1.2118  0.5439  2.6342
 1813SOL    HW216899   3.932   3.460   3.292 -0.2572  1.4537  1.0714
 1814SOL     OW16900   3.941   3.514   5.457 -0.4793  0.1002 -0.2544
 1814SOL    HW116901   4.009   3.520   5.524  0.0026  2.1696 -0.9449
 1814SOL    HW216902   3.908   3.600   5.483  0.7789  0.8156 -1.0044
 1815SOL     OW16903   1.588   3.706   3.773 -0.3384 -0.0666  0.5011
 1815SOL    HW116904   1.512   3.761   3.754  0.7691  1.4598  0.5084
 1815SOL    HW216905   1.562   3.630   3.721  0.8960 -0.8544  1.0427
 1816SOL     OW16906   2.824   0.151   1.368  0.2832 -0.2458 -0.7086
 1816SOL    HW116907   2.855   0.165   1.457  0.0348 -0.7813 -0.5366
 1816SOL    HW216908   2.805   0.242   1.343 -2.9268 -1.0308 -1.1883
 1817SOL     OW16909   1.396   1.059   2.166  0.4460 -0.1069 -0.2073
 1817SOL    HW116910   1.390   1.154   2.170  0.8884 -0.0169 -1.6480
 1817SOL    HW216911   1.308   1.039   2.199 -0.0592  1.8220 -0.4091
 1818SOL     OW16912   3.236   2.954   0.377  0.1690  0.0777 -0.0942
 1818SOL    HW116913   3.287   2.947   0.457  0.3889 -0.7853 -0.3163
 1818SOL    HW216914   3.145   2.951   0.408 -0.2714  0.3420 -1.3395
 1819SOL     OW16915   0.926   1.464   0.875 -0.2874 -0.2693 -0.2230
 1819SOL    HW116916   0.848   1.441   0.824 -0.4864 -1.6857  0.7095
 1819SOL    HW216917   0.992   1.413   0.828  0.5515  2.0718 -1.5655
 1820SOL     OW16918   2.043   0.420  13.198 -0.8427 -0.5703  0.3690
 1820SOL    HW116919   2.035   0.416  13.103 -0.0855 -0.3077  0.2910
 1820SOL    HW216920   2.043   0.515  13.207  2.2429 -0.5307 -0.1426
 1821SOL     OW16921   3.925   4.528  12.825  0.2454  0.3599  0.4618
 1821SOL    HW116922   3.943   4.564  12.739  0.4159 -0.9880 -0.0692
 1821SOL    HW216923   3.873   4.604  12.850 -0.8832 -0.0457 -0.6282
 1822SOL     OW16924   1.426   4.201   8.384  0.1502  0.4235  0.0708
 1822SOL    HW116925   1.387   4.232   8.466  0.4435  0.0423  0.3502
 1822SOL    HW216926   1.459   4.280   8.342  0.7778 -0.3975 -0.9580
 1823SOL     OW16927   3.482   1.016  14.058 -0.4024  0.5775  0.1959
 1823SOL    HW116928   3.434   1.030  13.976  1.1051 -1.7391 -1.1055
 1823SOL    HW216929   3.420   1.058  14.118  1.8007  4.4579 -0.2556
 1824SOL     OW16930   4.611   0.204  17.530 -0.1787  0.3900 -0.1117
 1824SOL    HW116931   4.649   0.235  17.612 -3.4562 -0.3159  1.6753
 1824SOL    HW216932   4.574   0.125  17.568 -0.0333 -0.4177 -1.6406
 1825SOL     OW16933   1.066   1.772   1.442 -0.1893 -0.4493  0.5057
 1825SOL    HW116934   1.000   1.707   1.468 -0.6098 -0.1655  0.1319
 1825SOL    HW216935   1.062   1.766   1.347 -2.5213  0.1150  0.5535
 1826SOL     OW16936   0.936   4.723  11.705 -0.5464  0.1157  0.3527
 1826SOL    HW116937   0.950   0.011  11.799  0.5972 -2.8364  0.5299
 1826SOL    HW216938   1.009   4.672  11.670 -0.0465  1.5879 -0.7579
 1827SOL     OW16939   3.234   0.265  16.628 -0.1071  0.6819  0.1033
 1827SOL    HW116940   3.245   0.170  16.629 -0.3182  0.5702 -4.3670
 1827SOL    HW216941   3.323   0.282  16.596 -0.7535  1.6578 -1.1895
 1828SOL     OW16942   0.760   4.520  15.763 -0.0252  0.1640  0.1450
 1828SOL    HW116943   0.672   4.559  15.768 -0.8673 -1.8534  1.2549
 1828SOL    HW216944   0.734   4.439  15.719 -1.6332  1.8620 -2.0321
 1829SOL     OW16945   2.982   1.026   3.817  0.3946  0.4178  0.4542
 1829SOL    HW116946   3.056   0.994   3.766 -1.3544 -0.1295 -1.7755
 1829SOL    HW216947   2.948   0.952   3.867  2.4289 -0.9772 -0.2291
 1830SOL     OW16948   1.722   0.338  17.315 -0.2329 -0.4725  0.0973
 1830SOL    HW116949   1.721   0.358  17.221 -1.4611  0.0723  0.2212
 1830SOL    HW216950   1.767   0.255  17.304 -1.2908 -0.9672 -0.4887
 1831SOL     OW16951   2.508   1.331  15.590 -0.0539 -0.1054  0.5201
 1831SOL    HW116952   2.484   1.250  15.546  1.3603  0.1152 -0.6448
 1831SOL    HW216953   2.583   1.362  15.539  1.2760 -0.9951  1.9232
 1832SOL     OW16954   3.345   4.151   1.724 -0.1093  0.2707  0.1546
 1832SOL    HW116955   3.305   4.129   1.640  0.2655  1.1567 -0.2581
 1832SOL    HW216956   3.427   4.183   1.688 -0.7826  1.8796  0.0228
 1833SOL     OW16957   0.984   2.884   4.695  0.3575  0.3370 -0.1094
 1833SOL    HW116958   1.009   2.848   4.610 -0.5890  0.8126 -0.5892
 1833SOL    HW216959   0.890   2.871   4.701  0.4552 -0.7219 -0.9677
 1834SOL     OW16960   0.692   0.433   3.344 -0.0938 -0.0088  0.2508
 1834SOL    HW116961   0.645   0.441   3.427  0.4072 -2.0250  0.7259
 1834SOL    HW216962   0.773   0.390   3.369  0.3004  0.2892 -0.5267
 1835SOL     OW16963   1.372   2.844   4.542 -0.3193 -0.0492 -0.2201
 1835SOL    HW116964   1.335   2.757   4.555 -0.9235  0.6504  2.8807
 1835SOL    HW216965   1.461   2.818   4.565  0.4221  1.8365 -0.9656
 1836SOL     OW16966   1.016   2.487  12.474  0.0678  0.3454 -0.1763
 1836SOL    HW116967   1.004   2.562  12.532  2.0286 -0.0095  0.6729
 1836SOL    HW216968   0.944   2.508  12.414 -0.1478  0.6695  0.1953
 1837SOL     OW16969   3.752   2.381   8.057 -0.5810 -0.3754 -0.0024
 1837SOL    HW116970   3.794   2.368   7.972 -2.4301 -1.8703 -0.6938
 1837SOL    HW216971   3.704   2.301   8.038 -0.7173 -0.3138  0.0863
 1838SOL     OW16972   4.041   1.847   5.334 -0.3234  0.2263 -0.5197
 1838SOL    HW116973   4.022   1.879   5.422  2.1740 -1.0358  0.4887
 1838SOL    HW216974   3.956   1.825   5.295 -0.5510  2.0555 -1.0370
 1839SOL     OW16975   4.285   2.597   4.954  0.0390 -0.4158 -0.0601
 1839SOL    HW116976   4.213   2.603   4.891  0.1616 -1.7494 -0.3379
 1839SOL    HW216977   4.302   2.505   4.974 -0.5886  0.0138  2.3693
 1840SOL     OW16978   3.998   0.661   8.864  0.2896 -0.3129  0.3042
 1840SOL    HW116979   4.057   0.621   8.928 -0.0602  0.5569  1.1589
 1840SOL    HW216980   4.025   0.603   8.793 -0.7652  0.2842 -0.5760
 1841SOL     OW16981   2.739   2.176   5.811 -0.2335 -0.2659  0.1865
 1841SOL    HW116982   2.825   2.207   5.780 -0.7134  0.4859 -0.3920
 1841SOL    HW216983   2.696   2.243   5.757  0.3552  0.7302  0.9595
 1842SOL     OW16984   3.777   2.048   4.669 -0.2355  0.1157 -0.8123
 1842SOL    HW116985   3.821   2.053   4.754  0.4248 -0.4482 -1.1105
 1842SOL    HW216986   3.819   2.119   4.620 -2.8649  0.9555 -1.8254
 1843SOL     OW16987   2.428   4.708  16.959  0.4585  0.1183 -0.1317
 1843SOL    HW116988   2.446   4.689  16.867 -0.2346 -0.0802 -0.2242
 1843SOL    HW216989   2.336   4.686  16.972  0.3350 -0.6864 -2.3124
 1844SOL     OW16990   1.025   3.945   4.694  0.0975  0.0588  0.1841
 1844SOL    HW116991   0.989   3.857   4.691  0.5835 -0.0593 -1.9660
 1844SOL    HW216992   0.950   4.002   4.680  0.4763  0.3771 -0.5385
 1845SOL     OW16993   2.427   3.558   5.559 -0.8966 -0.0963  0.2741
 1845SOL    HW116994   2.473   3.609   5.492 -0.1520  0.4577  1.2161
 1845SOL    HW216995   2.363   3.623   5.589 -3.1216 -1.2686 -1.9400
 1846SOL     OW16996   2.984   2.651  15.226  0.2351 -0.1678 -0.6535
 1846SOL    HW116997   2.937   2.662  15.144  1.8817  1.2920 -1.4009
 1846SOL    HW216998   2.899   2.643  15.270 -1.2728  1.7216 -3.2532
 1847SOL     OW16999   3.826   0.320   5.029 -0.1517  0.7230  0.4269
 1847SOL    HW117000   3.810   0.281   5.115 -0.3924  0.3502  0.2151
 1847SOL    HW217001   3.808   0.250   4.966 -1.9518  1.5813 -0.0217
 1848SOL     OW17002   0.858   1.470   6.534 -0.6193  0.2262 -0.0650
 1848SOL    HW117003   0.899   1.477   6.620  1.0570 -1.5126 -0.7054
 1848SOL    HW217004   0.789   1.406   6.549 -0.5697  0.3806  0.7789
 1849SOL     OW17005   2.139   1.045   4.345 -0.2799  0.5241  0.5917
 1849SOL    HW117006   2.094   0.971   4.385 -1.7296  1.5422  0.8142
 1849SOL    HW217007   2.084   1.048   4.267  1.1537  0.7052 -0.4152
 1850SOL     OW17008   1.931   0.957   0.616 -0.2297 -0.0151  0.0336
 1850SOL    HW117009   1.867   0.908   0.668 -0.4243  1.2465  1.0083
 1850SOL    HW217010   1.965   1.009   0.690 -0.2765  1.2995 -0.8606
 1851SOL     OW17011   2.163   3.454  16.189  0.2986 -0.0003  0.7313
 1851SOL    HW117012   2.151   3.470  16.095  4.0648  0.4985  0.3076
 1851SOL    HW217013   2.097   3.512  16.226  1.2168  0.1710  2.1214
 1852SOL     OW17014   4.174   3.289   5.271  0.6766  0.8932  0.5302
 1852SOL    HW117015   4.269   3.299   5.271  1.0410 -2.3476  1.8567
 1852SOL    HW217016   4.155   3.379   5.295  0.6118  1.2628 -0.9439
 1853SOL     OW17017   3.900   1.586   1.528  0.4014  0.3748  0.0567
 1853SOL    HW117018   3.933   1.498   1.508 -1.1581 -0.3651  0.6908
 1853SOL    HW217019   3.811   1.562   1.555 -0.2875  0.1794 -2.3217
 1854SOL     OW17020   1.906   0.728   0.432 -0.0353 -0.3151 -0.3466
 1854SOL    HW117021   1.920   0.683   0.515 -2.7722 -0.9103 -0.2005
 1854SOL    HW217022   1.926   0.818   0.456  0.1301 -0.9626  1.9563
 1855SOL     OW17023   0.155   0.179   2.510 -0.1036 -0.0222 -0.0352
 1855SOL    HW117024   0.250   0.191   2.507 -0.6074  4.0717  0.8583
 1855SOL    HW217025   0.150   0.122   2.433  0.1417  0.5381 -0.4622
 1856SOL     OW17026   2.130   0.817   4.949  0.0757 -0.0793  0.2456
 1856SOL    HW117027   2.205   0.871   4.924 -1.1209  2.0824  1.3400
 1856SOL    HW217028   2.088   0.806   4.863 -0.0859  0.7042  0.2249
 1857SOL     OW17029   2.274   1.838  14.725 -0.4276 -0.5398 -0.6055
 1857SOL    HW117030   2.330   1.894  14.672  0.0485 -0.3064  0.1470
 1857SOL    HW217031   2.200   1.832  14.665 -0.8097 -1.2042 -0.0721
 1858SOL     OW17032   4.556   3.875  15.111  0.1975 -0.6596 -0.1666
 1858SOL    HW117033   4.582   3.784  15.126  0.8226  0.0761  3.3431
 1858SOL    HW217034   4.640   3.902  15.074  0.0697 -2.6461 -1.9224
 1859SOL     OW17035   2.488   3.239   2.019  0.0362 -0.1339  0.1765
 1859SOL    HW117036   2.571   3.234   1.972 -0.7877 -0.0254 -1.2982
 1859SOL    HW217037   2.515   3.259   2.109  2.6641 -1.6965 -0.2703
 1860SOL     OW17038   4.229   4.656   2.477  0.1999  0.0762 -0.2844
 1860SOL    HW117039   4.306   4.607   2.448  0.9134  1.7068 -1.1619
 1860SOL    HW217040   4.230   0.014   2.426 -1.1411  0.6026  0.5378
 1861SOL     OW17041   3.931   1.261  14.450  0.5833 -0.4430 -0.1069
 1861SOL    HW117042   3.978   1.289  14.529 -1.2875  0.7931  0.5701
 1861SOL    HW217043   3.984   1.190  14.414  2.6184  0.6286  0.7423
 1862SOL     OW17044   4.711   1.459   9.070 -0.4418  0.3506 -0.5078
 1862SOL    HW117045   4.722   1.535   9.127  2.2486  0.1443 -0.7781
 1862SOL    HW217046   0.047   1.479   8.998  0.6515 -1.6842 -0.1641
 1863SOL     OW17047   3.282   1.922   5.854  0.4205  0.2541 -0.0534
 1863SOL    HW117048   3.264   1.989   5.921  0.3119 -0.9444  1.1072
 1863SOL    HW217049   3.296   1.977   5.777 -3.2123  0.2911 -0.6862
 1864SOL     OW17050   2.533   3.279   6.304  0.5062  0.1377 -0.5395
 1864SOL    HW117051   2.539   3.299   6.211 -1.6871  0.7071 -0.5484
 1864SOL    HW217052   2.618   3.242   6.330 -0.4404 -1.3208  0.4422
 1865SOL     OW17053   4.653   3.954   9.964  0.6415  0.4490  1.0661
 1865SOL    HW117054   0.010   3.980   9.917  0.7833  1.7979  2.0409
 1865SOL    HW217055   4.673   3.893  10.034 -2.0952 -1.3918  0.2418
 1866SOL     OW17056   2.737   2.414   7.212  0.6355 -0.7891 -0.0463
 1866SOL    HW117057   2.680   2.371   7.275 -0.0642  0.2473  0.0376
 1866SOL    HW217058   2.691   2.495   7.188  0.3383 -0.6355  1.0289
 1867SOL     OW17059   1.852   2.164   4.388 -0.2626 -0.3948  0.5359
 1867SOL    HW117060   1.792   2.096   4.419  0.2052  0.1606  2.6562
 1867SOL    HW217061   1.934   2.121   4.360 -0.4252 -0.2631 -0.1481
 1868SOL     OW17062   3.676   3.645  12.382 -0.3224 -0.3026 -0.1235
 1868SOL    HW117063   3.652   3.622  12.293  3.1152  1.0108 -1.3842
 1868SOL    HW217064   3.697   3.561  12.422  0.5036  0.9821  2.1350
 1869SOL     OW17065   2.374   3.280   3.638 -0.5595  0.1955  0.3372
 1869SOL    HW117066   2.286   3.252   3.660  0.5669 -0.8194  3.5737
 1869SOL    HW217067   2.359   3.373   3.624  2.9141  0.7542  0.1620
 1870SOL     OW17068   4.175   3.954   9.093 -0.0242 -0.6867  0.0995
 1870SOL    HW117069   4.088   3.933   9.128  0.4126 -1.0303  0.9613
 1870SOL    HW217070   4.229   3.963   9.171 -0.8581  0.1632  0.5830
 1871SOL     OW17071   2.584   2.397   8.464  0.3607  0.3374  0.0259
 1871SOL    HW117072   2.546   2.412   8.551 -1.7876 -0.9999 -0.6798
 1871SOL    HW217073   2.642   2.321   8.468  0.2154  0.2241 -0.0181
 1872SOL     OW17074   3.126   0.068   6.259 -0.1975 -0.0489  0.0092
 1872SOL    HW117075   3.134   0.160   6.233 -0.5695 -0.7591 -2.6650
 1872SOL    HW217076   3.195   0.054   6.324  0.1758  1.4438 -0.0672
 1873SOL     OW17077   1.573   3.905   1.522  0.4440  0.1170 -0.0039
 1873SOL    HW117078   1.592   3.819   1.559 -1.1184  0.1068  0.7783
 1873SOL    HW217079   1.511   3.884   1.452 -0.1269 -1.6175  1.0297
 1874SOL     OW17080   1.773   0.998   8.086 -0.5164 -0.2096  0.6869
 1874SOL    HW117081   1.742   1.068   8.029  1.0616 -0.0317  0.0419
 1874SOL    HW217082   1.745   0.924   8.031 -1.0308 -1.3388  2.4686
 1875SOL     OW17083   3.630   2.685  16.675  0.1964 -0.2418  0.1718
 1875SOL    HW117084   3.642   2.630  16.753 -1.5326 -2.2476 -0.9852
 1875SOL    HW217085   3.635   2.620  16.604 -1.5599  2.8173 -2.7276
 1876SOL     OW17086   0.632   1.415  15.859 -0.7550 -0.2337  0.7001
 1876SOL    HW117087   0.643   1.485  15.794  0.1336 -0.8929  0.1559
 1876SOL    HW217088   0.550   1.436  15.905  1.0305  5.2151  1.3832
 1877SOL     OW17089   1.175   3.336  10.622  0.0344 -0.0719 -0.3898
 1877SOL    HW117090   1.138   3.380  10.545  1.3440 -3.1055 -2.7304
 1877SOL    HW217091   1.219   3.409  10.666 -1.9256  1.0600 -0.3106
 1878SOL     OW17092   2.696   3.595   6.176 -0.1102 -0.4052  0.9236
 1878SOL    HW117093   2.699   3.610   6.270  2.0283 -2.5502  1.2176
 1878SOL    HW217094   2.648   3.673   6.148  1.5457  0.7419  1.2835
 1879SOL     OW17095   1.774   3.715   3.978 -0.0971  0.0053  0.5917
 1879SOL    HW117096   1.794   3.807   3.957  1.0104  0.0683  1.9207
 1879SOL    HW217097   1.686   3.708   3.940  0.8093 -0.4741 -1.3816
 1880SOL     OW17098   2.704   4.155   3.798  0.5454  0.0736  1.0221
 1880SOL    HW117099   2.646   4.080   3.787  1.3714 -0.4171 -0.0290
 1880SOL    HW217100   2.676   4.196   3.879  1.5675  2.4197  0.2038
 1881SOL     OW17101   4.163   2.610   3.643  0.1475 -0.0013  0.2271
 1881SOL    HW117102   4.147   2.663   3.565  2.4166  0.6734  0.2185
 1881SOL    HW217103   4.099   2.543   3.620  1.4447 -1.1256 -0.1120
 1882SOL     OW17104   1.248   0.383   3.752 -0.1906  0.2018 -0.3261
 1882SOL    HW117105   1.335   0.389   3.791 -0.0828 -0.2987 -0.4911
 1882SOL    HW217106   1.261   0.394   3.657 -3.4058  2.4358 -0.5050
 1883SOL     OW17107   0.126   3.398  15.151 -0.3210 -0.1436 -0.3514
 1883SOL    HW117108   0.182   3.356  15.086  1.1203  0.2886  0.6183
 1883SOL    HW217109   0.039   3.361  15.133 -1.0858  1.2021  0.4805
 1884SOL     OW17110   3.840   3.627  14.837  0.0446  0.1835 -0.4657
 1884SOL    HW117111   3.868   3.621  14.746  0.1851 -2.0351 -0.2884
 1884SOL    HW217112   3.921   3.616  14.886  0.0638 -1.0802 -0.7680
 1885SOL     OW17113   0.259   3.370   1.560  0.1424  0.1729  0.3058
 1885SOL    HW117114   0.350   3.397   1.575  0.3360  2.3451 -4.8794
 1885SOL    HW217115   0.270   3.281   1.593  2.3403 -0.4158 -2.0428
 1886SOL     OW17116   3.403   3.593  12.688  0.3423  0.4154 -0.0668
 1886SOL    HW117117   3.367   3.602  12.600  1.0327 -0.9988 -0.4985
 1886SOL    HW217118   3.494   3.570  12.670  0.0217 -0.3210 -0.7227
 1887SOL     OW17119   3.261   1.647   3.199 -0.6753  0.2016 -0.4754
 1887SOL    HW117120   3.340   1.662   3.148 -0.9357 -2.0418 -1.5421
 1887SOL    HW217121   3.232   1.730   3.238 -2.5623 -0.1813 -1.0754
 1888SOL     OW17122   3.317   0.187   0.917  0.6448  0.1605  0.6070
 1888SOL    HW117123   3.262   0.265   0.921 -1.4957 -1.1777 -2.1497
 1888SOL    HW217124   3.369   0.187   0.997  0.5129 -2.5204  0.6859
 1889SOL     OW17125   3.529   0.360   0.076 -0.2241  0.1256  0.3056
 1889SOL    HW117126   3.580   0.441   0.065  1.8248 -1.4433 -1.7803
 1889SOL    HW217127   3.586   0.294   0.036 -0.2891  0.4769 -0.3718
 1890SOL     OW17128   0.488   1.032   7.597 -0.5069 -0.4777  0.1963
 1890SOL    HW117129   0.547   1.086   7.546 -1.1925  0.1204  0.0427
 1890SOL    HW217130   0.425   1.099   7.624 -1.8350 -1.5285 -0.3176
 1891SOL     OW17131   0.682   1.321  16.466  0.0360 -0.1014  0.0312
 1891SOL    HW117132   0.767   1.281  16.484  0.5854  1.3417  0.6289
 1891SOL    HW217133   0.641   1.329  16.552  1.9694  1.2215  0.8311
 1892SOL     OW17134   0.576   1.627   4.681  0.0156  0.1497 -0.0006
 1892SOL    HW117135   0.662   1.640   4.722  0.0880  0.9960 -0.4252
 1892SOL    HW217136   0.520   1.698   4.711 -1.4517 -1.2155  0.5121
 1893SOL     OW17137   3.365   1.248   4.716 -0.4001 -0.2006 -0.2279
 1893SOL    HW117138   3.307   1.216   4.785  0.2285  1.2421  0.9741
 1893SOL    HW217139   3.362   1.181   4.647 -0.9477 -1.8366  1.3839
 1894SOL     OW17140   3.376   0.810   2.945 -1.5062 -0.5222 -0.1045
 1894SOL    HW117141   3.284   0.834   2.950 -1.6555 -1.7280  2.9142
 1894SOL    HW217142   3.373   0.726   2.991  1.4911  0.8877  2.6427
 1895SOL     OW17143   1.750   0.078   5.412 -0.3283  0.4914 -0.5455
 1895SOL    HW117144   1.794   4.718   5.404  2.1777  1.6417  1.3146
 1895SOL    HW217145   1.822   0.136   5.436 -0.6398  0.3657  0.6879
 1896SOL     OW17146   3.025   0.832   9.037  0.1976 -0.0813 -0.6227
 1896SOL    HW117147   2.941   0.790   9.056  0.4496 -0.6725 -0.8132
 1896SOL    HW217148   3.070   0.830   9.121 -2.2794  0.5486  0.7108
 1897SOL     OW17149   0.503   2.277   0.888 -0.0994 -0.5292 -0.2823
 1897SOL    HW117150   0.477   2.188   0.909  1.0944 -0.5880  0.9895
 1897SOL    HW217151   0.560   2.281   0.965 -2.1555  2.7251  1.0894
 1898SOL     OW17152   4.666   1.796   6.722 -0.8367  0.5959  0.3368
 1898SOL    HW117153   0.030   1.772   6.691 -1.2975  0.6269 -0.9872
 1898SOL    HW217154   4.671   1.891   6.730 -2.0286  0.8146 -1.4911
 1899SOL     OW17155   1.666   4.587   6.342 -0.3012  0.2551  0.0247
 1899SOL    HW117156   1.730   4.639   6.390 -1.0938  0.2087  1.1320
 1899SOL    HW217157   1.632   4.527   6.407 -0.7519  2.2323  1.6068
 1900SOL     OW17158   2.399   4.466   4.437 -0.3277 -0.5151  0.4386
 1900SOL    HW117159   2.323   4.509   4.398 -0.4161 -0.0263  1.1439
 1900SOL    HW217160   2.454   4.539   4.463  2.0353 -1.9095 -0.6183
 1901SOL     OW17161   1.497   1.028   3.999  0.2328  0.0605 -0.5678
 1901SOL    HW117162   1.412   1.052   3.963 -1.0724 -0.4679  2.1929
 1901SOL    HW217163   1.543   1.111   3.988 -0.8226  0.5401 -1.3719
 1902SOL     OW17164   0.735   2.544  14.378  0.4302  0.5043  0.8031
 1902SOL    HW117165   0.782   2.493  14.443 -2.4711 -3.7944 -0.4325
 1902SOL    HW217166   0.728   2.479  14.307  1.0140  1.2546  0.0621
 1903SOL     OW17167   4.201   4.582   5.046 -0.4055 -0.0014  0.8264
 1903SOL    HW117168   4.136   4.646   5.074 -1.5954 -1.3878  1.2601
 1903SOL    HW217169   4.183   4.560   4.954  0.1473  1.6860  0.3171
 1904SOL     OW17170   4.673   2.598   2.686 -0.2088 -0.4522 -0.2281
 1904SOL    HW117171   4.706   2.517   2.645 -4.9929 -2.4952  0.0183
 1904SOL    HW217172   4.579   2.596   2.671 -0.3466  4.3208 -0.0087
 1905SOL     OW17173   1.396   0.650   2.723 -0.2440 -0.4124 -0.0090
 1905SOL    HW117174   1.368   0.667   2.633  0.5535 -1.6234 -0.4939
 1905SOL    HW217175   1.491   0.650   2.710 -0.0305 -0.0196  1.5866
 1906SOL     OW17176   4.592   0.279   3.464  0.2804  0.4079  0.3518
 1906SOL    HW117177   4.513   0.225   3.468  0.9567 -0.7102 -1.3054
 1906SOL    HW217178   4.656   0.224   3.508  1.2317  0.1328 -1.3650
 1907SOL     OW17179   3.536   1.466   5.701  0.3989 -0.0575  0.0565
 1907SOL    HW117180   3.622   1.479   5.741  0.0193  0.6096  0.6582
 1907SOL    HW217181   3.496   1.547   5.669  1.4175  0.5667  0.3756
 1908SOL     OW17182   3.726   1.663  17.173 -0.8853 -0.0625 -0.4017
 1908SOL    HW117183   3.658   1.730  17.185 -1.7981 -1.3316  1.4136
 1908SOL    HW217184   3.725   1.646  17.079 -0.0145 -0.0257 -0.4118
 1909SOL     OW17185   1.872   0.778   8.717 -0.5630  0.2046 -0.6221
 1909SOL    HW117186   1.808   0.801   8.785  1.8772  0.8897  1.4159
 1909SOL    HW217187   1.919   0.859   8.697 -1.0092  0.2476 -1.5154
 1910SOL     OW17188   4.637   4.156   8.490  0.0967 -0.6580 -0.2859
 1910SOL    HW117189   4.708   4.214   8.517 -0.2845 -0.9712  1.4303
 1910SOL    HW217190   4.687   4.094   8.438  0.1021 -0.8824 -0.0170
 1911SOL     OW17191   3.171   0.893   6.911  0.2914  0.0480  0.1564
 1911SOL    HW117192   3.232   0.896   6.837  0.5731  1.0411  0.4364
 1911SOL    HW217193   3.174   0.986   6.933 -0.4243  0.3518 -1.0469
 1912SOL     OW17194   3.792   2.183   5.719 -0.4045 -0.4138 -0.2163
 1912SOL    HW117195   3.733   2.162   5.792  0.3016 -0.0711  0.4558
 1912SOL    HW217196   3.875   2.198   5.765 -1.0710  1.0717  0.5177
 1913SOL     OW17197   4.144   0.593   4.669  0.0294 -0.4304 -0.3038
 1913SOL    HW117198   4.059   0.633   4.650 -0.2163 -0.7624  0.0977
 1913SOL    HW217199   4.142   0.580   4.764 -0.3317 -0.6024 -0.3375
 1914SOL     OW17200   1.407   4.155  17.344  0.0391 -0.9078  0.3107
 1914SOL    HW117201   1.470   4.143  17.273 -0.9833  2.0647 -1.1301
 1914SOL    HW217202   1.334   4.182  17.287  0.1840 -1.7577 -0.2777
 1915SOL     OW17203   4.713   0.901   7.746  0.2581  0.4008 -0.1034
 1915SOL    HW117204   4.712   0.994   7.722 -0.5554  0.5852  0.6538
 1915SOL    HW217205   0.032   0.863   7.669 -2.8583 -1.5134 -0.8960
 1916SOL     OW17206   4.457   1.951   1.773  0.6967  0.5914  0.6408
 1916SOL    HW117207   4.423   1.895   1.704  1.5579  1.3648 -0.3988
 1916SOL    HW217208   4.541   1.976   1.735  1.6545 -0.9568  1.7525
 1917SOL     OW17209   1.527   2.665   5.217  0.5449 -0.6369  0.1488
 1917SOL    HW117210   1.558   2.726   5.149  0.8634  1.2799  1.9980
 1917SOL    HW217211   1.458   2.622   5.167  0.5244 -0.9698  0.4617
 1918SOL     OW17212   3.727   2.939  16.580 -0.2100 -0.2877 -0.5987
 1918SOL    HW117213   3.706   2.847  16.596  1.0559 -0.2606  1.1855
 1918SOL    HW217214   3.654   2.962  16.523 -1.0727  0.6389  0.8852
 1919SOL     OW17215   3.349   4.228   9.832  0.3900  0.3266 -0.0359
 1919SOL    HW117216   3.395   4.197   9.910  1.7684 -1.5044 -1.5590
 1919SOL    HW217217   3.338   4.142   9.790 -0.1252 -0.2931  1.3631
 1920SOL     OW17218   0.718   1.263   5.097 -0.2783  0.0094 -0.2523
 1920SOL    HW117219   0.659   1.275   5.171 -0.9443  3.2713 -1.3184
 1920SOL    HW217220   0.701   1.340   5.044  1.0584  1.0606  0.8382
 1921SOL     OW17221   1.153   3.417  11.550  0.3937 -0.2553  0.4756
 1921SOL    HW117222   1.230   3.382  11.594  1.0934 -0.3559 -0.8422
 1921SOL    HW217223   1.160   3.397  11.457 -2.5831  1.8615 -0.1941
 1922SOL     OW17224   1.064   2.881   3.805 -0.7181 -0.1000  0.0121
 1922SOL    HW117225   1.087   2.932   3.882 -0.6427  0.8899 -0.6683
 1922SOL    HW217226   1.128   2.809   3.807 -0.8415 -0.2895 -2.2412
 1923SOL     OW17227   1.171   4.148   5.425 -0.3418 -0.1309 -0.4964
 1923SOL    HW117228   1.179   4.230   5.377 -1.7440  0.4618  0.2843
 1923SOL    HW217229   1.136   4.182   5.507 -1.3477 -0.1428 -0.9190
 1924SOL     OW17230   2.728   3.137   5.151  0.1559 -0.2173  0.1925
 1924SOL    HW117231   2.665   3.077   5.193 -1.2518 -0.1074 -1.7722
 1924SOL    HW217232   2.803   3.127   5.210  2.4722  0.1741 -2.6903
 1925SOL     OW17233   1.425   1.891  15.512 -0.2522  0.3352  0.1256
 1925SOL    HW117234   1.516   1.905  15.486 -0.2212  0.6824  0.4309
 1925SOL    HW217235   1.427   1.923  15.601 -3.1370  0.1391  0.2666
 1926SOL     OW17236   2.455   0.522  15.237 -0.1225 -0.5488 -0.0390
 1926SOL    HW117237   2.468   0.550  15.146  0.8610 -0.5538  0.1044
 1926SOL    HW217238   2.484   0.431  15.251  0.3123 -0.5239 -0.7451
 1927SOL     OW17239   1.928   3.736   8.331 -0.2880 -0.1370 -0.2856
 1927SOL    HW117240   1.969   3.793   8.397 -2.4970 -0.6640  1.5625
 1927SOL    HW217241   1.841   3.775   8.322 -0.5415 -0.5677  0.2387
 1928SOL     OW17242   0.557   1.327   1.416  0.0783  0.5143 -0.6248
 1928SOL    HW117243   0.600   1.252   1.455 -1.4597  0.3300  0.6813
 1928SOL    HW217244   0.628   1.355   1.358  1.2461 -0.0426  0.5510
 1929SOL     OW17245   4.324   0.413   1.682 -0.0999 -0.2805  0.0075
 1929SOL    HW117246   4.340   0.386   1.591 -0.4859  0.3118 -0.2423
 1929SOL    HW217247   4.232   0.392   1.697  0.5159 -2.5452  0.5665
 1930SOL     OW17248   1.219   2.725   8.047  0.1833  0.1741 -0.2856
 1930SOL    HW117249   1.226   2.781   7.969  2.0657 -0.1400 -0.3365
 1930SOL    HW217250   1.125   2.707   8.042  0.2820  0.1512 -2.4376
 1931SOL     OW17251   2.210   2.730   3.184 -0.3832  0.0942 -0.0927
 1931SOL    HW117252   2.157   2.803   3.152  0.2542  0.2685 -0.7316
 1931SOL    HW217253   2.272   2.725   3.111 -0.6508 -0.4109 -0.2868
 1932SOL     OW17254   0.462   4.564  12.381  0.2421 -0.2951 -0.7748
 1932SOL    HW117255   0.528   4.508  12.339 -0.4667 -1.7113 -0.0231
 1932SOL    HW217256   0.409   4.497  12.425  0.7208 -1.2114 -1.5922
 1933SOL     OW17257   1.619   0.817   5.952 -0.4151 -0.2845  0.0600
 1933SOL    HW117258   1.575   0.791   5.871 -0.6100 -1.2542  0.4878
 1933SOL    HW217259   1.619   0.913   5.952 -1.5379 -0.2830  2.3189
 1934SOL     OW17260   3.283   2.677   8.533 -0.1255 -0.4288  0.2974
 1934SOL    HW117261   3.357   2.647   8.479  0.1785  0.3813  0.2643
 1934SOL    HW217262   3.211   2.665   8.472  0.4104 -1.3000 -0.1610
 1935SOL     OW17263   1.903   3.622   6.697 -0.7676  0.3194  0.3390
 1935SOL    HW117264   1.992   3.596   6.673 -0.4359  2.4597 -0.7930
 1935SOL    HW217265   1.850   3.547   6.671 -0.3302  0.1196  0.0074
 1936SOL     OW17266   4.072   1.824  10.269  0.2316 -0.3005  0.1593
 1936SOL    HW117267   4.043   1.908  10.233  2.3684  0.4077  0.0916
 1936SOL    HW217268   4.074   1.753  10.205  2.5107 -0.4073  0.3440
 1937SOL     OW17269   3.070   4.073   9.933 -0.1381 -0.6626 -0.0737
 1937SOL    HW117270   3.118   4.024   9.867  0.8057 -0.5764  0.5474
 1937SOL    HW217271   3.001   4.112   9.880  0.3126  0.8206  0.4422
 1938SOL     OW17272   1.736   3.033  17.115 -0.2200 -0.3947 -0.0923
 1938SOL    HW117273   1.688   2.951  17.122  0.5443 -0.6290  2.5150
 1938SOL    HW217274   1.805   3.031  17.181  0.3428 -2.3656 -0.7208
 1939SOL     OW17275   3.392   1.604   6.588  0.4183 -0.5975  0.5136
 1939SOL    HW117276   3.311   1.597   6.538 -0.6834  0.5704  2.1277
 1939SOL    HW217277   3.351   1.633   6.670 -2.2064 -0.8131 -0.7037
 1940SOL     OW17278   2.345   3.057  15.041 -0.1831  0.5579  0.0278
 1940SOL    HW117279   2.414   3.122  15.054 -0.7192  1.0398  0.4382
 1940SOL    HW217280   2.295   3.073  15.121  2.0643  1.7287  1.1815
 1941SOL     OW17281   2.644   0.132  11.116  0.4355 -0.1066 -0.0674
 1941SOL    HW117282   2.586   0.149  11.190  2.0549  0.4550  1.0704
 1941SOL    HW217283   2.695   0.059  11.151 -0.9386 -0.0113  2.1353
 1942SOL     OW17284   3.073   4.039  17.278 -1.0965  0.1846 -0.7199
 1942SOL    HW117285   3.086   4.120  17.229 -0.3998  1.9446  2.3846
 1942SOL    HW217286   2.990   4.056  17.322  0.2493  3.0259  0.7130
 1943SOL     OW17287   1.881   2.683  10.285 -0.2123  1.3359 -0.0962
 1943SOL    HW117288   1.883   2.652  10.195 -4.0231  2.2873 -0.5336
 1943SOL    HW217289   1.909   2.775  10.283  0.6943  1.0531 -0.2254
 1944SOL     OW17290   0.251   4.417  15.313 -0.0896 -0.6954  0.0538
 1944SOL    HW117291   0.342   4.422  15.340 -0.2451 -2.0128  0.7992
 1944SOL    HW217292   0.239   4.323  15.299  0.4158 -0.3662 -2.6104
 1945SOL     OW17293   4.030   0.182   7.910 -0.3273 -1.1475 -0.4660
 1945SOL    HW117294   4.022   0.239   7.834 -1.9623  1.0026  1.3260
 1945SOL    HW217295   4.070   0.241   7.974  2.1157 -1.2287 -1.9134
 1946SOL     OW17296   2.976   1.917   7.887  0.5510  0.4111 -0.5012
 1946SOL    HW117297   2.993   2.007   7.912  1.0983  0.4863 -1.1468
 1946SOL    HW217298   3.062   1.883   7.910  0.0750 -1.0115 -0.8138
 1947SOL     OW17299   4.243   2.925   6.731 -0.1088  0.0502 -0.6157
 1947SOL    HW117300   4.304   2.857   6.705  1.5477  0.0829  3.1197
 1947SOL    HW217301   4.280   3.002   6.688  0.1529 -0.5623 -1.4844
 1948SOL     OW17302   4.662   3.651   7.512 -0.1470  0.9985 -0.2972
 1948SOL    HW117303   4.635   3.715   7.579 -1.0735 -0.4272  0.6920
 1948SOL    HW217304   0.028   3.632   7.537  0.3395  0.9397 -2.0677
 1949SOL     OW17305   2.395   4.637   8.801 -1.0035 -0.3525 -0.0055
 1949SOL    HW117306   2.477   4.655   8.845 -0.8396 -2.0623  0.3821
 1949SOL    HW217307   2.362   4.558   8.845 -1.2065 -0.4403 -0.3148
 1950SOL     OW17308   1.331   0.664   6.233 -0.0299  0.0406  0.2789
 1950SOL    HW117309   1.319   0.625   6.146 -0.2648 -2.0007  1.2234
 1950SOL    HW217310   1.427   0.669   6.237 -0.0535  2.2187 -1.8983
 1951SOL     OW17311   0.064   1.084   0.950 -0.0443  0.7093  1.0581
 1951SOL    HW117312   0.094   1.175   0.944 -1.1382  1.0676  0.8841
 1951SOL    HW217313   4.720   1.094   1.016  1.4297  1.5143  2.4333
 1952SOL     OW17314   1.149   0.215   0.739 -0.3122 -0.0773  0.3968
 1952SOL    HW117315   1.164   0.138   0.794 -0.5690 -1.3240 -1.2914
 1952SOL    HW217316   1.226   0.203   0.684  0.5857  1.0304  1.4115
 1953SOL     OW17317   3.654   0.904  13.808  0.5357  0.2217 -0.0213
 1953SOL    HW117318   3.566   0.867  13.815  0.4783  0.2291 -0.7887
 1953SOL    HW217319   3.678   0.901  13.901 -1.3825 -1.5311  0.4223
 1954SOL     OW17320   4.344   4.223   9.334  0.1839 -0.7162 -0.2836
 1954SOL    HW117321   4.332   4.132   9.359  0.2051 -0.5183  0.4326
 1954SOL    HW217322   4.257   4.263   9.328  0.2972 -0.3587  0.4898
 1955SOL     OW17323   1.583   0.843   7.289  0.4080 -0.1880 -0.1128
 1955SOL    HW117324   1.553   0.859   7.378  1.6380 -0.4669  0.3592
 1955SOL    HW217325   1.649   0.912   7.279  0.4637 -0.0901  1.0200
 1956SOL     OW17326   4.184   3.269   8.323 -0.5039 -0.5091 -0.4513
 1956SOL    HW117327   4.215   3.337   8.264  0.4656 -1.0994 -0.6061
 1956SOL    HW217328   4.266   3.227   8.348 -0.8628 -0.8660  0.1366
 1957SOL     OW17329   4.023   1.905  13.378 -0.2181 -0.2076 -0.0704
 1957SOL    HW117330   4.042   1.851  13.301 -1.3126 -0.3298 -0.2461
 1957SOL    HW217331   3.934   1.939  13.370 -0.6378 -1.2043  0.2578
 1958SOL     OW17332   2.464   1.216  17.148 -0.1354 -0.1673 -0.6494
 1958SOL    HW117333   2.492   1.276  17.079 -1.1075  1.8764  0.7433
 1958SOL    HW217334   2.408   1.163  17.092 -2.0848 -0.4374  1.5686
 1959SOL     OW17335   2.006   3.018   5.375 -0.1803  0.0969 -0.1041
 1959SOL    HW117336   2.084   3.065   5.404 -0.2054  0.0118  0.1094
 1959SOL    HW217337   2.030   2.926   5.364 -1.4360 -0.5301  2.1859
 1960SOL     OW17338   2.613   3.604   4.385 -0.4048 -0.3553  0.4215
 1960SOL    HW117339   2.541   3.668   4.388 -0.8890 -0.9297  0.9295
 1960SOL    HW217340   2.570   3.520   4.370 -2.7723  0.7683  0.8148
 1961SOL     OW17341   2.724   4.657   8.529  0.1656 -0.4845  1.0787
 1961SOL    HW117342   2.692   0.021   8.546  0.4803 -0.4009  1.2417
 1961SOL    HW217343   2.816   4.681   8.544 -0.1288  1.3489 -0.1361
 1962SOL     OW17344   0.398   4.306   8.281  0.2193  0.0113 -0.2473
 1962SOL    HW117345   0.389   4.267   8.368  0.8528 -1.2789 -0.7551
 1962SOL    HW217346   0.493   4.300   8.271  0.4132  0.3599  1.3031
 1963SOL     OW17347   1.872   0.004  11.784 -0.0431 -0.3578 -0.6091
 1963SOL    HW117348   1.957   0.010  11.740  1.4501 -1.5608  2.1294
 1963SOL    HW217349   1.800   0.006  11.721  0.1186 -1.8209 -0.8318
 1964SOL     OW17350   3.464   4.185   7.887  0.1930 -0.0495  0.1306
 1964SOL    HW117351   3.529   4.135   7.837  2.1824  0.5260  2.1586
 1964SOL    HW217352   3.479   4.269   7.845  1.5899 -0.5932 -0.4581
 1965SOL     OW17353   1.886   3.923   2.712 -0.6346  0.0723  0.4936
 1965SOL    HW117354   1.895   3.836   2.674 -1.1656  1.0828 -1.9593
 1965SOL    HW217355   1.979   3.932   2.733  0.0277 -3.2145 -1.0955
 1966SOL     OW17356   3.066   3.869  10.818  0.2293  0.6627 -0.4569
 1966SOL    HW117357   3.040   3.928  10.888 -0.3458  0.0898 -0.1831
 1966SOL    HW217358   3.087   3.928  10.746 -1.6613  0.0232 -1.5008
 1967SOL     OW17359   0.158   2.699   2.201  0.0925  0.2798 -0.0117
 1967SOL    HW117360   0.246   2.706   2.164 -0.0079 -1.4310 -0.5673
 1967SOL    HW217361   0.183   2.760   2.271 -0.3611  0.9719 -0.4449
 1968SOL     OW17362   3.055   1.038  11.366 -0.0783  0.2123  0.3036
 1968SOL    HW117363   3.100   0.958  11.337  0.3594  0.6267 -0.1549
 1968SOL    HW217364   2.976   0.997  11.401  0.2561 -1.0586 -0.4299
 1969SOL     OW17365   0.299   0.963   3.407  0.3937 -0.1962  0.2001
 1969SOL    HW117366   0.353   1.037   3.379 -0.8258  1.6116  2.6514
 1969SOL    HW217367   0.272   0.997   3.492 -2.3374  1.5584 -1.3469
 1970SOL     OW17368   1.608   0.219   4.420 -0.6241  0.2343  0.1721
 1970SOL    HW117369   1.566   0.197   4.337  1.1483  0.9137 -0.9146
 1970SOL    HW217370   1.605   0.136   4.468  0.2147 -0.1228 -0.4015
 1971SOL     OW17371   4.630   2.131   1.454 -0.0344 -0.4903 -0.2163
 1971SOL    HW117372   4.571   2.072   1.408  0.7846  0.2520 -2.1989
 1971SOL    HW217373   4.649   2.193   1.384  2.9648 -2.9119 -1.5169
 1972SOL     OW17374   1.467   4.528   3.314  0.8663  0.9408  0.0449
 1972SOL    HW117375   1.413   4.450   3.308  2.1129  0.1329 -0.6685
 1972SOL    HW217376   1.469   4.561   3.224 -1.5108  1.1691  0.0589
 1973SOL     OW17377   1.953   3.191  13.021  0.0049 -0.4196 -0.1089
 1973SOL    HW117378   1.868   3.220  12.987 -0.5551 -0.0565  1.6134
 1973SOL    HW217379   2.004   3.205  12.942 -0.5077  2.8978  0.1526
 1974SOL     OW17380   3.901   4.135   5.526 -0.4556  0.6369 -0.5435
 1974SOL    HW117381   3.939   4.157   5.441  1.9562  1.2514  0.6699
 1974SOL    HW217382   3.976   4.144   5.585  0.2959  1.7565 -1.6816
 1975SOL     OW17383   3.459   0.113   8.395  0.3602  0.2164  0.3016
 1975SOL    HW117384   3.513   0.068   8.461  0.2163 -0.1796  0.1521
 1975SOL    HW217385   3.474   0.066   8.313 -0.3490  1.2205 -0.4094
 1976SOL     OW17386   2.402   2.884   3.492 -0.3100  0.2580 -0.2349
 1976SOL    HW117387   2.431   2.955   3.434 -1.2199  1.9733  1.3839
 1976SOL    HW217388   2.489   2.850   3.510  0.3797  2.1606 -0.0095
 1977SOL     OW17389   2.417   0.789   9.506  0.1240 -0.5573  0.5069
 1977SOL    HW117390   2.513   0.793   9.505  0.0131  2.1066 -3.0099
 1977SOL    HW217391   2.396   0.872   9.548  2.0130  1.5578 -2.6305
 1978SOL     OW17392   4.540   0.700  15.726 -1.3394 -0.1779  0.0942
 1978SOL    HW117393   4.492   0.628  15.766 -1.0838 -1.3014 -1.5773
 1978SOL    HW217394   4.493   0.763  15.780  1.2249 -0.0977  2.2106
 1979SOL     OW17395   2.114   1.292  12.149 -0.0028 -0.3321  0.5701
 1979SOL    HW117396   2.197   1.318  12.189 -1.1366  0.3758  2.4806
 1979SOL    HW217397   2.055   1.277  12.223 -2.3285  2.1393 -0.7375
 1980SOL     OW17398   3.529   1.722   5.603 -0.4654  0.1685 -0.2377
 1980SOL    HW117399   3.456   1.755   5.552 -0.7115  0.0959  0.0696
 1980SOL    HW217400   3.581   1.799   5.625 -2.5006  1.6070 -0.4746
 1981SOL     OW17401   4.510   0.600  11.463  0.0761  0.5383 -0.2107
 1981SOL    HW117402   4.566   0.562  11.395 -1.7236  0.3608 -1.6212
 1981SOL    HW217403   4.464   0.675  11.426  0.2992  1.0288  0.5213
 1982SOL     OW17404   1.842   4.549  17.076  0.3928 -0.5378  0.5451
 1982SOL    HW117405   1.839   4.594  16.991 -1.0052 -1.0488  0.3245
 1982SOL    HW217406   1.934   4.525  17.083  0.3241 -0.6111  1.1539
 1983SOL     OW17407   1.578   3.037   7.575 -0.1923 -0.1347 -0.3223
 1983SOL    HW117408   1.502   3.086   7.606  0.1776 -0.0771  0.4857
 1983SOL    HW217409   1.649   3.091   7.609 -0.0367 -1.0552  0.8074
 1984SOL     OW17410   0.699   1.868  12.180 -0.4116  0.0208 -0.2546
 1984SOL    HW117411   0.650   1.816  12.118 -1.7057 -0.3759  1.1037
 1984SOL    HW217412   0.726   1.806  12.248 -0.1308  2.6360  2.0330
 1985SOL     OW17413   1.976   2.005   3.264 -0.9098  0.2990 -0.3567
 1985SOL    HW117414   2.051   1.950   3.239 -1.6509 -0.0427 -1.7864
 1985SOL    HW217415   1.902   1.956   3.227 -0.1353 -2.1134  1.2472
 1986SOL     OW17416   3.001   2.100   6.688  0.1498 -0.2931  0.0070
 1986SOL    HW117417   3.095   2.112   6.705 -0.1723  0.5262  1.2478
 1986SOL    HW217418   2.979   2.180   6.642  1.5466  1.2004  1.9088
 1987SOL     OW17419   3.995   4.681   7.608  0.0984  0.3917  0.8704
 1987SOL    HW117420   3.950   4.693   7.691  0.4018 -0.3111  1.1331
 1987SOL    HW217421   4.082   4.647   7.631 -0.1917 -1.0963 -0.2219
 1988SOL     OW17422   0.795   2.479   4.036  0.1593  0.1364 -0.0877
 1988SOL    HW117423   0.723   2.446   3.982  0.0419  0.6388 -0.2350
 1988SOL    HW217424   0.751   2.493   4.120  3.1916  1.7957  1.2054
 1989SOL     OW17425   4.120   0.017   2.958 -0.2310 -0.4423  0.4581
 1989SOL    HW117426   4.126   0.086   2.892 -1.1643 -0.8708 -0.0640
 1989SOL    HW217427   4.207   0.028   2.998 -1.2376  2.2585  1.9722
 1990SOL     OW17428   2.736   2.589   6.008 -0.1358  0.2027  0.6615
 1990SOL    HW117429   2.776   2.579   5.921 -1.3895 -2.1579  0.3771
 1990SOL    HW217430   2.766   2.504   6.039  1.6786 -0.3892 -2.6134
 1991SOL     OW17431   4.641   3.807   7.711 -0.1498  0.0559  0.2444
 1991SOL    HW117432   4.692   3.819   7.791  1.2935 -2.0997 -0.3358
 1991SOL    HW217433   4.559   3.794   7.758  1.0453 -0.8541  2.0699
 1992SOL     OW17434   2.161   0.739   3.569 -0.6938  0.3206  0.3021
 1992SOL    HW117435   2.203   0.654   3.556 -0.4756  0.2773  1.2577
 1992SOL    HW217436   2.221   0.796   3.521 -1.0343  3.0582  3.1156
 1993SOL     OW17437   0.377   2.087   4.697  0.4736  0.4582  0.4345
 1993SOL    HW117438   0.304   2.136   4.733 -0.9937  1.3116 -3.8082
 1993SOL    HW217439   0.368   2.099   4.603  0.1024 -0.2272  0.3818
 1994SOL     OW17440   3.186   3.970   3.841  0.3871 -0.8595 -0.3370
 1994SOL    HW117441   3.185   3.961   3.746 -1.3518 -0.8778 -0.3170
 1994SOL    HW217442   3.124   4.042   3.851 -0.1284 -1.2792 -0.5076
 1995SOL     OW17443   2.888   0.821   6.341 -0.3771 -0.3570 -0.1352
 1995SOL    HW117444   2.932   0.883   6.282  1.9794 -1.7913  0.1290
 1995SOL    HW217445   2.920   0.857   6.423 -0.0925 -0.9151 -0.0051
 1996SOL     OW17446   4.124   4.235   2.103 -0.0176  0.2257  0.4307
 1996SOL    HW117447   4.187   4.228   2.174 -1.6566 -1.0979  1.7540
 1996SOL    HW217448   4.158   4.163   2.049  0.7505  0.5170  0.5329
 1997SOL     OW17449   3.814   0.263   7.252 -0.4690  0.7720 -0.3967
 1997SOL    HW117450   3.785   0.330   7.314 -0.5904  0.6781 -0.3526
 1997SOL    HW217451   3.851   0.194   7.307  0.6687  3.1284  1.8109
 1998SOL     OW17452   0.022   4.431  10.664  0.3797 -0.1923 -0.6276
 1998SOL    HW117453   0.063   4.346  10.650  1.3135 -0.0111  0.9768
 1998SOL    HW217454   0.005   4.432  10.758  0.3569 -3.2724 -0.5963
 1999SOL     OW17455   3.743   4.074   1.603  0.6376 -0.2047 -0.1040
 1999SOL    HW117456   3.672   4.022   1.639  0.0875 -0.8108 -2.0346
 1999SOL    HW217457   3.690   4.152   1.590  2.3713  0.9187 -0.4719
 2000SOL     OW17458   3.845   1.227   3.746  0.4612 -0.1863  0.3652
 2000SOL    HW117459   3.883   1.291   3.687 -0.7301 -0.2890 -0.5041
 2000SOL    HW217460   3.897   1.147   3.733 -0.8086 -1.1950  1.4351
 2001SOL     OW17461   3.895   0.005  11.865  0.2923 -0.1096  0.5404
 2001SOL    HW117462   3.833   4.703  11.797  0.7037 -0.2330  0.2058
 2001SOL    HW217463   3.950   0.066  11.815  1.2333 -1.0560  0.4089
 2002SOL     OW17464   2.407   0.259   7.357  0.1661 -0.6962 -0.5020
 2002SOL    HW117465   2.479   0.203   7.385  0.0778 -1.4633 -1.7861
 2002SOL    HW217466   2.448   0.322   7.298 -0.2037  1.8479  1.9723
 2003SOL     OW17467   0.226   4.219  10.238 -0.0131 -0.1564  0.3216
 2003SOL    HW117468   0.235   4.124  10.237  1.1408 -0.0435  0.4013
 2003SOL    HW217469   0.185   4.246  10.156 -1.6956 -1.1156  0.8341
 2004SOL     OW17470   1.959   1.798   0.122 -0.2234  0.1480 -0.2899
 2004SOL    HW117471   1.880   1.843   0.151 -0.1890  1.0621 -1.6101
 2004SOL    HW217472   1.957   1.722   0.180 -1.3439 -1.0068 -1.8318
 2005SOL     OW17473   0.807   2.641   9.093  0.5305 -1.0725  0.1206
 2005SOL    HW117474   0.870   2.603   9.032  1.1047  0.2324 -0.0854
 2005SOL    HW217475   0.867   2.706   9.129 -0.1702  0.0531 -0.7502
 2006SOL     OW17476   4.106   4.359  16.790  0.0287  0.3670  0.0243
 2006SOL    HW117477   4.067   4.295  16.731 -1.0862  1.4771 -0.4491
 2006SOL    HW217478   4.154   4.416  16.731  1.9716 -0.4761  0.7837
 2007SOL     OW17479   3.251   4.243  10.182 -0.4458 -0.3164 -0.0885
 2007SOL    HW117480   3.316   4.177  10.159  0.1830  0.0350  0.6878
 2007SOL    HW217481   3.168   4.197  10.168 -0.5654  0.1270 -0.8822
 2008SOL     OW17482   2.394   4.482  14.195  0.0424 -1.2953  0.2974
 2008SOL    HW117483   2.411   4.534  14.273  0.8570 -1.2523  0.0933
 2008SOL    HW217484   2.467   4.496  14.134 -0.2805 -1.6314 -0.1658
 2009SOL     OW17485   1.769   3.259   3.679  0.0496 -0.1653  0.7968
 2009SOL    HW117486   1.746   3.258   3.772  0.5757  0.6799  0.9393
 2009SOL    HW217487   1.756   3.167   3.656 -0.4335  0.4300 -1.3336
 2010SOL     OW17488   2.140   0.210   9.098 -0.5512 -0.0528  0.3190
 2010SOL    HW117489   2.083   0.281   9.127  0.4480  0.3781  1.2064
 2010SOL    HW217490   2.179   0.191   9.183  1.1875  1.1676 -0.1803
 2011SOL     OW17491   2.669   3.012  11.222 -0.4797  0.3803  0.7142
 2011SOL    HW117492   2.710   3.084  11.175  1.9451  0.4180  2.8990
 2011SOL    HW217493   2.597   3.054  11.269  0.0958  1.9047  0.2176
 2012SOL     OW17494   0.726   0.003  14.654 -0.1380 -0.1426 -0.1053
 2012SOL    HW117495   0.799   0.026  14.712 -0.2801  1.1368 -0.4352
 2012SOL    HW217496   0.770   4.665  14.595 -4.0337 -0.9408 -2.1924
 2013SOL     OW17497   0.432   0.681   8.705  0.1043 -0.1375  0.2631
 2013SOL    HW117498   0.379   0.676   8.784 -1.2748 -1.9959 -0.7780
 2013SOL    HW217499   0.410   0.769   8.675 -2.6216 -0.6661  0.6948
 2014SOL     OW17500   2.327   1.492   9.685 -0.5006 -0.1814  0.3809
 2014SOL    HW117501   2.250   1.544   9.707 -0.9427 -0.9409  0.6309
 2014SOL    HW217502   2.387   1.564   9.668  1.6950 -2.2390 -0.6525
 2015SOL     OW17503   3.734   1.811   4.071  0.0106  0.8184 -0.2908
 2015SOL    HW117504   3.663   1.790   4.131 -0.5451 -0.0918 -1.2684
 2015SOL    HW217505   3.731   1.907   4.074  0.2628  0.8133  0.1691
 2016SOL     OW17506   0.561   1.177   0.692  0.6593  0.1859  0.0320
 2016SOL    HW117507   0.505   1.152   0.765  1.7360 -1.5689  0.2727
 2016SOL    HW217508   0.614   1.099   0.675  0.5926  0.1742 -0.1243
 2017SOL     OW17509   3.710   0.752   6.108 -0.3681  0.1164 -0.9746
 2017SOL    HW117510   3.701   0.833   6.058  1.4402  0.1433 -1.2611
 2017SOL    HW217511   3.804   0.754   6.130 -1.3380  0.7125  3.1126
 2018SOL     OW17512   3.395   4.190   6.852 -0.1608 -0.0009 -0.1627
 2018SOL    HW117513   3.336   4.163   6.922  0.8090  1.1722  1.1180
 2018SOL    HW217514   3.474   4.141   6.875  0.0748  0.5685  0.2396
 2019SOL     OW17515   4.672   1.073   5.074 -0.1061  0.0139  0.0029
 2019SOL    HW117516   4.711   1.069   5.162  2.0853  0.2302 -0.9439
 2019SOL    HW217517   4.688   1.163   5.045 -0.7627  0.3715  0.7417
 2020SOL     OW17518   3.203   3.646  11.190 -0.2459  0.2095 -0.9249
 2020SOL    HW117519   3.206   3.671  11.097 -1.2112  0.9001 -0.7591
 2020SOL    HW217520   3.183   3.733  11.223 -2.3583  0.0842 -1.8567
 2021SOL     OW17521   1.986   1.015   7.464  0.1208  0.5304 -1.2387
 2021SOL    HW117522   2.029   0.939   7.425  0.6661  0.2256 -0.0508
 2021SOL    HW217523   2.061   1.065   7.496  0.3309 -0.8618  0.4823
 2022SOL     OW17524   2.047   4.330  16.953  0.0154 -0.1903  0.4801
 2022SOL    HW117525   2.135   4.346  16.986 -0.4409  2.5831  0.3454
 2022SOL    HW217526   2.008   4.280  17.025  0.9881 -2.8374 -0.8266
 2023SOL     OW17527   0.397   1.676   1.086 -0.3231 -0.3208 -0.1305
 2023SOL    HW117528   0.351   1.700   1.005 -0.5492  1.0023  0.3917
 2023SOL    HW217529   0.323   1.663   1.145 -1.1451 -0.3891 -1.1690
 2024SOL     OW17530   1.420   0.690   4.117  0.4768 -0.1383 -0.1757
 2024SOL    HW117531   1.349   0.753   4.124 -0.0454 -0.6723 -0.6820
 2024SOL    HW217532   1.491   0.752   4.099  0.4949 -0.1661 -0.1994
 2025SOL     OW17533   4.551   3.248   3.377 -0.3230  0.1407 -0.4978
 2025SOL    HW117534   4.552   3.299   3.458 -0.5996 -1.8992  0.7830
 2025SOL    HW217535   4.600   3.308   3.319 -0.0200 -0.3357 -0.7356
 2026SOL     OW17536   3.641   0.074   5.551  0.2697 -0.0636  0.1199
 2026SOL    HW117537   3.644   0.028   5.635  1.3372 -0.9946 -0.4403
 2026SOL    HW217538   3.736   0.083   5.544  0.0227  2.6693 -0.0051
 2027SOL     OW17539   2.647   2.413   4.149  0.3340 -0.1965  0.1866
 2027SOL    HW117540   2.589   2.484   4.121 -0.6636 -1.3221 -0.6067
 2027SOL    HW217541   2.636   2.408   4.244  0.8638 -1.6140  0.1763
 2028SOL     OW17542   0.625   4.470   6.943 -0.4338 -0.4954  0.6532
 2028SOL    HW117543   0.706   4.513   6.913 -0.0840 -1.0916  0.7464
 2028SOL    HW217544   0.566   4.542   6.963  0.0689  0.7329 -2.3272
 2029SOL     OW17545   0.186   4.607  11.396  0.1119  0.6886  0.2473
 2029SOL    HW117546   0.095   4.635  11.401 -0.1209 -0.5095  2.6731
 2029SOL    HW217547   0.216   4.609  11.487 -1.4250  2.9303  0.6889
 2030SOL     OW17548   4.547   1.127  13.444  0.6622  0.0671  0.1754
 2030SOL    HW117549   4.574   1.208  13.400 -0.7474  1.0810  1.1743
 2030SOL    HW217550   4.463   1.148  13.485  1.3462 -1.7021  2.4863
 2031SOL     OW17551   1.067   2.829  17.220  0.2209  0.3121  0.0145
 2031SOL    HW117552   1.082   2.743  17.258 -3.1267  1.5111  4.1268
 2031SOL    HW217553   0.981   2.817  17.178  0.0059  0.2063  0.4829
 2032SOL     OW17554   3.735   3.384   8.677 -0.9149 -0.2906  0.3059
 2032SOL    HW117555   3.690   3.329   8.741 -2.5938  1.6142  0.7628
 2032SOL    HW217556   3.755   3.462   8.728  0.1575 -0.8416  0.7279
 2033SOL     OW17557   2.229   3.393   6.294 -0.3040 -0.1449  0.1225
 2033SOL    HW117558   2.269   3.471   6.257 -1.8460  0.2202 -0.7746
 2033SOL    HW217559   2.290   3.371   6.364 -0.9405  0.0204  0.7319
 2034SOL     OW17560   2.143   3.640   2.004 -0.3194 -0.1273 -0.1137
 2034SOL    HW117561   2.094   3.637   1.921 -1.1242  1.3308  0.2966
 2034SOL    HW217562   2.190   3.557   2.005  1.8193  1.0614 -0.6435
 2035SOL     OW17563   1.400   2.236  14.156 -0.1149 -0.3149 -0.3413
 2035SOL    HW117564   1.324   2.180  14.171  0.1858 -1.1110 -1.7616
 2035SOL    HW217565   1.442   2.221  14.240 -2.0901  0.9613  0.8807
 2036SOL     OW17566   2.076   3.638   3.916  0.5193  0.0631 -0.0179
 2036SOL    HW117567   2.101   3.727   3.941 -1.1639  0.3783  0.5461
 2036SOL    HW217568   1.985   3.646   3.886 -0.2383  0.9779  2.5087
 2037SOL     OW17569   1.084   1.518   5.185  0.3081 -0.4660  0.5521
 2037SOL    HW117570   1.162   1.510   5.131 -1.4740 -1.5936 -1.8320
 2037SOL    HW217571   1.032   1.585   5.140  1.6969  0.0039 -0.3424
 2038SOL     OW17572   1.480   1.807   4.953 -0.2183 -0.2196  0.0253
 2038SOL    HW117573   1.554   1.865   4.937 -0.4661  0.0998  0.0370
 2038SOL    HW217574   1.424   1.823   4.877  1.3528  1.6720 -0.7020
 2039SOL     OW17575   3.946   2.244   2.021 -0.0502  0.4904  0.4158
 2039SOL    HW117576   3.871   2.273   2.074 -0.0838  2.1830 -0.5578
 2039SOL    HW217577   4.017   2.302   2.047  1.2199 -0.7776 -0.2631
 2040SOL     OW17578   1.142   3.837  10.063 -0.3403 -0.0594 -0.2011
 2040SOL    HW117579   1.091   3.858  10.141  0.1659  0.4829 -0.0165
 2040SOL    HW217580   1.069   3.828  10.001  0.2365 -0.7095 -0.7786
 2041SOL     OW17581   4.031   0.815   2.344 -0.1497 -0.1499 -0.1016
 2041SOL    HW117582   4.017   0.910   2.343 -0.2840 -0.1640  0.2570
 2041SOL    HW217583   4.116   0.803   2.386  0.5643  0.6278 -1.3343
 2042SOL     OW17584   0.302   4.678  12.179  0.1025 -0.5635  0.4837
 2042SOL    HW117585   0.287   0.032  12.233 -1.4194  0.0465 -0.8314
 2042SOL    HW217586   0.364   4.639  12.241  0.6637  0.2928  0.4665
 2043SOL     OW17587   2.348   2.836   7.738  0.5496 -0.1421  0.1312
 2043SOL    HW117588   2.277   2.811   7.679  0.0460 -1.0635  1.1403
 2043SOL    HW217589   2.302   2.879   7.811 -0.2087  0.1801 -0.5326
 2044SOL     OW17590   2.347   1.962   5.728  0.1163 -0.2884  0.6919
 2044SOL    HW117591   2.305   2.040   5.693 -1.0830 -0.5822  1.5008
 2044SOL    HW217592   2.343   1.905   5.651  2.1980  0.5072 -0.0150
 2045SOL     OW17593   1.072   2.431   9.797 -0.2016 -0.3030  0.4527
 2045SOL    HW117594   1.164   2.421   9.772  0.6220  2.5975  2.3929
 2045SOL    HW217595   1.052   2.522   9.774  0.8543 -0.1828  0.0202
 2046SOL     OW17596   3.014   4.407   5.230 -0.2270  0.4964  0.0961
 2046SOL    HW117597   3.065   4.472   5.278 -0.1302 -0.3406  1.1477
 2046SOL    HW217598   3.068   4.330   5.243 -1.3710 -0.3539 -0.1493
 2047SOL     OW17599   2.617   2.826   8.510  0.3812  0.7004  0.2113
 2047SOL    HW117600   2.574   2.911   8.496 -0.8356  0.1206  0.4150
 2047SOL    HW217601   2.690   2.854   8.564  2.8978 -2.6115 -1.4805
 2048SOL     OW17602   1.026   3.387   6.342  0.1505 -0.1132  0.4559
 2048SOL    HW117603   1.095   3.446   6.311  1.4636 -0.3428  2.9475
 2048SOL    HW217604   1.038   3.316   6.279 -2.2122  0.0641 -0.1943
 2049SOL     OW17605   3.075   2.780   4.812  0.5634  0.1061  0.2524
 2049SOL    HW117606   3.034   2.787   4.899  0.5001  0.9644  0.1553
 2049SOL    HW217607   3.096   2.870   4.786 -0.5527 -0.1290 -1.4490
 2050SOL     OW17608   0.767   4.576   4.366  0.1545 -0.0131 -0.3959
 2050SOL    HW117609   0.711   4.653   4.379  0.9888  0.4096  0.6822
 2050SOL    HW217610   0.855   4.609   4.346 -0.7123  1.5993 -1.5448
 2051SOL     OW17611   3.376   3.015   6.805 -0.4445 -0.1053  0.0266
 2051SOL    HW117612   3.284   2.990   6.818  0.0968 -1.1246  1.8546
 2051SOL    HW217613   3.396   3.049   6.892  0.0594 -1.8402  0.5735
 2052SOL     OW17614   4.665   4.584   3.926  0.8145 -0.4923 -0.1280
 2052SOL    HW117615   4.630   4.578   3.837 -0.5452  1.7202  0.2575
 2052SOL    HW217616   4.673   4.490   3.942 -2.7455 -0.6939  0.3067
 2053SOL     OW17617   0.111   3.895   1.241 -0.0291 -0.6009 -0.1219
 2053SOL    HW117618   0.143   3.847   1.318  2.7864 -2.2033 -2.2740
 2053SOL    HW217619   0.190   3.910   1.189  0.2266 -2.1553 -0.1787
 2054SOL     OW17620   1.863   3.346   4.325  0.0563 -0.2619  0.4904
 2054SOL    HW117621   1.828   3.265   4.287 -0.1897 -0.2602  0.7191
 2054SOL    HW217622   1.813   3.405   4.268 -0.9566 -1.9333 -0.3562
 2055SOL     OW17623   3.531   2.959   5.207  0.0279 -0.2986  0.1518
 2055SOL    HW117624   3.548   3.042   5.163 -0.3411  1.1361  2.6574
 2055SOL    HW217625   3.481   2.993   5.282 -1.1844 -1.3424 -0.2013
 2056SOL     OW17626   4.094   3.899   5.034 -0.0959 -0.5419  0.4080
 2056SOL    HW117627   4.160   3.836   5.005 -0.9596 -0.6452 -1.3318
 2056SOL    HW217628   4.070   3.861   5.118  2.5803 -1.3583  0.7853
 2057SOL     OW17629   0.516   3.809  14.681  0.2980  0.1399 -0.6392
 2057SOL    HW117630   0.592   3.778  14.730  0.4871  1.0735 -0.3336
 2057SOL    HW217631   0.554   3.797  14.594  0.0175  2.5771 -1.0933
 2058SOL     OW17632   0.850   4.601   6.164 -0.5839 -0.1465 -0.0046
 2058SOL    HW117633   0.766   4.622   6.122 -0.6426  3.5331  1.9464
 2058SOL    HW217634   0.822   4.573   6.251  2.1631 -1.5378  0.4319
 2059SOL     OW17635   2.873   3.088  17.291  0.5304  0.1642  0.2550
 2059SOL    HW117636   2.833   3.170  17.261 -1.4273 -1.5491 -1.8948
 2059SOL    HW217637   2.802   3.032  17.322 -0.2689  0.7220 -0.5694
 2060SOL     OW17638   3.484   0.549  11.786  0.4200  0.3684  0.5162
 2060SOL    HW117639   3.410   0.508  11.742  1.0292 -1.4225  1.1344
 2060SOL    HW217640   3.490   0.638  11.753  0.4832  0.1301 -0.1176
 2061SOL     OW17641   3.219   3.391  12.502 -0.1314  0.4799  0.1325
 2061SOL    HW117642   3.222   3.479  12.465 -0.0755  0.9094  1.1656
 2061SOL    HW217643   3.312   3.366  12.507 -0.1202  0.5743  0.3680
 2062SOL     OW17644   2.161   2.180   7.328 -0.5000  0.2852  0.1164
 2062SOL    HW117645   2.153   2.257   7.384 -0.1444  0.3595  0.0622
 2062SOL    HW217646   2.189   2.112   7.390  1.5157 -1.1935 -2.4397
 2063SOL     OW17647   3.327   3.904  13.297  0.0681 -0.4892  0.2597
 2063SOL    HW117648   3.374   3.895  13.380  0.8125  1.4883  0.0673
 2063SOL    HW217649   3.381   3.866  13.228 -0.6404 -1.1559  0.0724
 2064SOL     OW17650   0.401   1.956   5.402  0.1328  0.2739  0.1030
 2064SOL    HW117651   0.363   1.894   5.340 -1.3907  2.0362 -0.7384
 2064SOL    HW217652   0.493   1.933   5.395 -0.1342 -0.2578 -1.5292
 2065SOL     OW17653   0.525   3.742  10.372 -0.3906 -0.2044 -0.1443
 2065SOL    HW117654   0.460   3.727  10.303 -3.1824 -5.1468  3.5362
 2065SOL    HW217655   0.469   3.768  10.445  0.6317 -1.9148  1.2553
 2066SOL     OW17656   2.098   4.161  17.265 -0.5585  0.5365  0.2938
 2066SOL    HW117657   2.050   4.183  17.345 -1.2733  0.8469 -0.2162
 2066SOL    HW217658   2.059   4.076  17.241 -0.6565  0.4704  0.6933
 2067SOL     OW17659   3.930   1.711  12.923 -0.1235  0.5597  0.7776
 2067SOL    HW117660   3.868   1.657  12.972 -1.0742  2.0555  1.2212
 2067SOL    HW217661   3.872   1.785  12.902  0.4390  1.1519  1.3289
 2068SOL     OW17662   0.545   2.320  12.481 -0.1957  0.7359 -0.0838
 2068SOL    HW117663   0.504   2.313  12.567 -0.6899  0.0580 -0.3775
 2068SOL    HW217664   0.626   2.278  12.507 -0.7011  1.4443  2.6714
 2069SOL     OW17665   4.709   4.516   0.113  0.2512  0.1432  0.6786
 2069SOL    HW117666   4.644   4.567   0.160 -0.1364 -0.1590  0.4676
 2069SOL    HW217667   4.711   4.435   0.164 -0.8501  0.2399  0.8556
 2070SOL     OW17668   0.692   0.788   2.662  1.0439  0.2889 -0.3848
 2070SOL    HW117669   0.739   0.749   2.736  1.0920  0.5416 -0.2854
 2070SOL    HW217670   0.692   0.713   2.602  1.0179 -1.0128  1.2454
 2071SOL     OW17671   3.875   1.572  13.228 -0.0625  0.4129 -0.0772
 2071SOL    HW117672   3.788   1.558  13.264 -0.0669  1.9558  0.5108
 2071SOL    HW217673   3.870   1.528  13.143  0.0232 -1.1095  0.7185
 2072SOL     OW17674   1.620   3.488   5.175 -0.3989 -0.6233 -0.0252
 2072SOL    HW117675   1.680   3.425   5.215 -0.0002 -0.1335  0.1404
 2072SOL    HW217676   1.540   3.460   5.220  0.5994 -1.9138  0.9312
 2073SOL     OW17677   2.377   4.156  15.700 -0.1443 -0.3634  0.3945
 2073SOL    HW117678   2.443   4.164  15.769 -1.6541  0.5870  1.7325
 2073SOL    HW217679   2.348   4.065  15.706 -0.1352 -0.3791  0.2028
 2074SOL     OW17680   2.374   1.757   9.513  0.6319 -0.2475 -0.2546
 2074SOL    HW117681   2.466   1.765   9.538  1.1878 -1.7915 -1.8159
 2074SOL    HW217682   2.338   1.843   9.532 -1.3175 -1.3744  1.1497
 2075SOL     OW17683   3.137   3.584   7.792 -0.2399 -0.5543  0.6858
 2075SOL    HW117684   3.131   3.581   7.696 -1.3105 -0.9355  0.7658
 2075SOL    HW217685   3.196   3.509   7.800 -1.5536 -1.8655 -1.8756
 2076SOL     OW17686   1.908   4.577   5.412 -0.2711 -0.2590 -0.2281
 2076SOL    HW117687   1.968   4.509   5.382 -1.2311 -1.2363  0.0500
 2076SOL    HW217688   1.944   4.592   5.499  0.2634  2.0140 -0.8388
 2077SOL     OW17689   4.352   3.356   6.408  0.4461  0.4639  0.7028
 2077SOL    HW117690   4.436   3.341   6.451 -0.0573  0.9818  1.8492
 2077SOL    HW217691   4.307   3.272   6.420  1.5188 -0.0805  0.9406
 2078SOL     OW17692   4.219   0.034   8.073  1.0499  0.0764  0.2139
 2078SOL    HW117693   4.163   0.111   8.066 -2.3895 -2.4269 -0.2079
 2078SOL    HW217694   4.262   0.045   7.989  0.2503  1.8034  0.0519
 2079SOL     OW17695   0.981   3.523   3.855 -0.2654 -0.2410 -0.1189
 2079SOL    HW117696   0.893   3.497   3.825  0.5395 -2.6817 -0.3956
 2079SOL    HW217697   1.013   3.580   3.786 -3.5677  1.5174 -0.2194
 2080SOL     OW17698   4.208   0.568   5.932 -0.3574 -0.8430 -0.3403
 2080SOL    HW117699   4.258   0.583   6.012 -0.3276  1.6696 -0.8143
 2080SOL    HW217700   4.250   0.633   5.876  0.8488 -0.3576  1.1295
 2081SOL     OW17701   3.491   0.460   4.904  0.2692  0.3616  0.6402
 2081SOL    HW117702   3.482   0.490   4.994  1.7493  1.0230  0.5758
 2081SOL    HW217703   3.511   0.367   4.914 -2.0126  0.1222  2.7560
 2082SOL     OW17704   2.041   2.756   4.158 -0.6167  0.0973 -0.4593
 2082SOL    HW117705   1.958   2.707   4.161 -0.0352 -0.6851  2.2379
 2082SOL    HW217706   2.096   2.709   4.095 -1.4687 -0.6477 -0.6617
 2083SOL     OW17707   4.567   2.111   3.636 -0.7995  0.0216  0.5690
 2083SOL    HW117708   4.503   2.042   3.616  1.6503 -1.8766 -0.6334
 2083SOL    HW217709   4.499   2.176   3.656 -0.9601 -0.5265  1.8203
 2084SOL     OW17710   2.316   3.256   0.416  0.5800  0.2726 -0.1529
 2084SOL    HW117711   2.340   3.214   0.499  0.3501 -2.8112 -1.6457
 2084SOL    HW217712   2.235   3.292   0.451 -1.0586 -2.3885 -1.2610
 2085SOL     OW17713   1.950   2.139   1.550  0.0449 -0.2804 -0.1989
 2085SOL    HW117714   1.951   2.178   1.463  0.4416  0.2543  0.0482
 2085SOL    HW217715   1.961   2.206   1.617 -0.8346 -0.1569 -0.1741
 2086SOL     OW17716   1.884   0.817  14.203  0.4505 -0.1020  0.0772
 2086SOL    HW117717   1.937   0.883  14.158 -0.7452 -0.8115 -2.3859
 2086SOL    HW217718   1.844   0.777  14.126 -0.2823 -0.5548  0.6925
 2087SOL     OW17719   1.385   3.472  10.788 -0.2549  0.1823 -0.5687
 2087SOL    HW117720   1.392   3.381  10.818  1.2859  0.7906  0.8958
 2087SOL    HW217721   1.359   3.514  10.870 -0.4739 -0.5617 -0.2488
 2088SOL     OW17722   3.996   0.751  15.988 -0.4504  0.4131  0.4544
 2088SOL    HW117723   4.010   0.774  15.897  3.6286 -1.8642  0.5050
 2088SOL    HW217724   4.020   0.837  16.022  0.4582  0.7666 -1.1126
 2089SOL     OW17725   3.736   0.232   3.888 -0.0676  0.1192 -0.6587
 2089SOL    HW117726   3.769   0.142   3.885 -0.7769 -0.1515 -0.2317
 2089SOL    HW217727   3.818   0.278   3.905  0.6448 -1.0797 -0.9081
 2090SOL     OW17728   4.064   1.235  11.223 -0.1728 -0.7298  0.5280
 2090SOL    HW117729   4.009   1.199  11.293  0.4922 -0.9150  0.9455
 2090SOL    HW217730   4.149   1.227  11.264  0.0302 -3.6562 -0.4845
 2091SOL     OW17731   0.062   4.295   3.697 -0.0722  0.6717  0.6125
 2091SOL    HW117732   0.102   4.338   3.773  1.6079 -1.0788  0.7247
 2091SOL    HW217733   0.100   4.343   3.623  1.4926 -0.8877  0.4114
 2092SOL     OW17734   4.488   0.044  13.376  0.5817  0.2808  0.1503
 2092SOL    HW117735   4.571   0.091  13.380  0.2167  0.7749  1.8316
 2092SOL    HW217736   4.509   4.675  13.363 -0.2333 -0.0764  1.4053
 2093SOL     OW17737   0.184   2.912   1.349  0.4734 -0.3229  0.5249
 2093SOL    HW117738   0.250   2.896   1.416 -0.5588 -2.7076  0.9533
 2093SOL    HW217739   0.097   2.876   1.365  0.8227 -0.5494  1.9017
 2094SOL     OW17740   0.972   4.179   5.762 -0.1788 -0.3886  0.7244
 2094SOL    HW117741   0.979   4.208   5.672  0.9097 -1.1162  0.5778
 2094SOL    HW217742   0.889   4.218   5.790 -0.3222  0.3913 -0.8113
 2095SOL     OW17743   1.239   0.690  14.946 -0.2213  0.5816 -0.6994
 2095SOL    HW117744   1.245   0.632  15.022  0.4290  1.7090  0.1055
 2095SOL    HW217745   1.242   0.775  14.989 -0.5581  2.0388 -3.5678
 2096SOL     OW17746   2.222   0.426   2.348 -0.4128 -0.0627 -0.0533
 2096SOL    HW117747   2.272   0.349   2.377 -0.4380  0.0527  0.2951
 2096SOL    HW217748   2.217   0.393   2.259  0.4150  1.0673 -0.5219
 2097SOL     OW17749   3.540   0.350   8.237 -0.5956  0.1495  0.0566
 2097SOL    HW117750   3.483   0.426   8.245  1.5465  1.6920  0.7032
 2097SOL    HW217751   3.496   0.293   8.300 -2.2792  0.6817 -0.6518
 2098SOL     OW17752   0.341   1.181  15.570  0.3017  0.5358 -0.3582
 2098SOL    HW117753   0.378   1.267  15.554 -0.2960  0.4007 -2.4548
 2098SOL    HW217754   0.246   1.186  15.563  0.2705 -0.5784 -0.6594
 2099SOL     OW17755   3.806   2.887   7.819 -0.6591 -0.0579 -0.5573
 2099SOL    HW117756   3.875   2.876   7.884 -2.9110 -2.0320  1.4669
 2099SOL    HW217757   3.725   2.882   7.870 -0.8580  2.4640 -0.6082
 2100SOL     OW17758   3.708   1.300   1.530 -0.3852 -0.0866 -0.1034
 2100SOL    HW117759   3.701   1.322   1.437  1.2088  1.4330  0.1379
 2100SOL    HW217760   3.706   1.388   1.567  1.1096  0.6330 -1.7302
 2101SOL     OW17761   1.522   0.438   5.460  0.0793  0.0350 -0.0532
 2101SOL    HW117762   1.618   0.431   5.465 -0.1358 -1.9120  1.4123
 2101SOL    HW217763   1.501   0.456   5.551 -1.2108 -2.6659  0.1625
 2102SOL     OW17764   4.706   2.808  12.476  0.0661  0.5443 -0.7923
 2102SOL    HW117765   0.076   2.805  12.495 -0.0365 -1.0144 -0.5134
 2102SOL    HW217766   4.662   2.827  12.559 -1.3635 -2.9558 -0.7370
 2103SOL     OW17767   0.025   0.284   4.183  0.1336  0.4311 -0.5845
 2103SOL    HW117768   4.658   0.306   4.162  0.5433  1.3912 -1.3207
 2103SOL    HW217769   0.070   0.296   4.100  0.5956 -0.4518 -0.4660
 2104SOL     OW17770   3.308   3.919   8.175 -0.2209 -0.0696 -1.1208
 2104SOL    HW117771   3.306   3.829   8.207  3.1137  0.0903 -0.5061
 2104SOL    HW217772   3.351   3.972   8.242 -0.7771 -2.7547  1.3389
 2105SOL     OW17773   2.165   3.815   9.239  0.2708  0.0425 -0.8982
 2105SOL    HW117774   2.229   3.878   9.274  1.1856 -1.3589 -0.0748
 2105SOL    HW217775   2.206   3.735   9.270  0.9464  0.1832 -1.4288
 2106SOL     OW17776   0.261   2.420   0.403  0.2351  0.2280  0.0802
 2106SOL    HW117777   0.279   2.499   0.352 -1.1350 -1.5857 -3.2377
 2106SOL    HW217778   0.332   2.429   0.466  0.1130  2.5420 -0.1050
 2107SOL     OW17779   0.331   2.887   1.137  0.3624 -0.2684 -0.2601
 2107SOL    HW117780   0.415   2.880   1.182 -0.0810  0.6162  0.7048
 2107SOL    HW217781   0.259   2.894   1.199  0.4028  0.6743 -0.3181
 2108SOL     OW17782   3.854   4.125   8.583  0.3274  0.7695  0.2254
 2108SOL    HW117783   3.842   4.045   8.633 -0.6012 -0.5811 -2.1849
 2108SOL    HW217784   3.763   4.129   8.554 -0.3024  0.9551  2.2319
 2109SOL     OW17785   1.712   1.465   3.959  0.2374  0.3469  0.6541
 2109SOL    HW117786   1.777   1.418   4.010 -2.0114 -1.9026  1.4507
 2109SOL    HW217787   1.764   1.538   3.926 -0.9138  1.0003  0.2955
 2110SOL     OW17788   3.330   3.937   4.249  0.1043  0.5136  0.1815
 2110SOL    HW117789   3.408   3.971   4.206 -1.1495  1.8614 -1.0687
 2110SOL    HW217790   3.367   3.878   4.314  1.5000 -1.8082 -2.7507
 2111SOL     OW17791   4.292   4.577  11.701 -0.0831  0.1547  0.4060
 2111SOL    HW117792   4.219   4.515  11.709 -1.5021  1.5445 -1.6921
 2111SOL    HW217793   4.240   4.643  11.655  1.7650  3.4843  3.1551
 2112SOL     OW17794   2.379   3.523   2.521 -0.0554 -0.1015 -0.1612
 2112SOL    HW117795   2.356   3.537   2.429 -0.8747 -1.8462 -0.2364
 2112SOL    HW217796   2.446   3.455   2.515  1.5040  1.5316 -1.1120
 2113SOL     OW17797   3.734   0.869   7.473  0.2250 -0.4777 -0.1026
 2113SOL    HW117798   3.729   0.817   7.393  0.2406  2.1937 -1.8220
 2113SOL    HW217799   3.779   0.948   7.444  0.8280 -0.0908  1.8734
 2114SOL     OW17800   2.481   2.836   6.456  0.8290  0.5995 -0.4252
 2114SOL    HW117801   2.451   2.915   6.501 -0.7093 -0.2714  0.0723
 2114SOL    HW217802   2.459   2.774   6.526  1.7350  1.2952  0.4677
 2115SOL     OW17803   1.386   2.935   7.827 -0.4545 -0.4511  0.3887
 2115SOL    HW117804   1.319   2.876   7.793  1.3428 -1.9755 -0.5685
 2115SOL    HW217805   1.377   2.998   7.755 -0.0709 -0.2048  0.5574
 2116SOL     OW17806   1.383   4.418  16.821 -0.4635  0.3905 -0.2480
 2116SOL    HW117807   1.425   4.427  16.907  0.1518  0.1415 -0.5296
 2116SOL    HW217808   1.459   4.425  16.764 -1.8133  1.7055 -1.8872
 2117SOL     OW17809   1.858   2.816   2.652  0.0941  0.6837  0.4791
 2117SOL    HW117810   1.912   2.794   2.575 -1.5964  1.5584 -0.9516
 2117SOL    HW217811   1.874   2.742   2.710 -2.1829  0.7398  1.1636
 2118SOL     OW17812   3.948   4.132   7.036  0.1506 -0.3963 -0.0093
 2118SOL    HW117813   3.949   4.154   6.943 -0.6050  1.9293  0.5460
 2118SOL    HW217814   3.904   4.209   7.072 -0.7255 -1.3142  0.9018
 2119SOL     OW17815   4.352   0.145  10.065 -0.0996 -0.5636 -0.2824
 2119SOL    HW117816   4.411   0.092  10.119 -1.5708 -2.1092 -0.2164
 2119SOL    HW217817   4.314   0.204  10.130 -1.8931 -3.3683  1.2006
 2120SOL     OW17818   3.281   0.683   8.210 -0.2280 -0.2864  1.0243
 2120SOL    HW117819   3.265   0.595   8.176 -2.3085  0.5699 -0.2091
 2120SOL    HW217820   3.347   0.662   8.276  0.7201  1.4156  0.6304
 2121SOL     OW17821   2.852   4.442   4.715  0.2542  0.1773  0.2777
 2121SOL    HW117822   2.941   4.406   4.707  0.2264 -0.2353  1.7095
 2121SOL    HW217823   2.837   4.412   4.805 -1.1056  2.1041  0.6768
 2122SOL     OW17824   1.783   4.693  10.992  0.2504  0.5289  0.0398
 2122SOL    HW117825   1.795   4.642  11.072  1.7354 -0.7374 -0.9960
 2122SOL    HW217826   1.867   0.012  10.977  0.4748  0.0025 -0.1970
 2123SOL     OW17827   3.379   0.877   6.418 -0.1111  0.0886  0.1896
 2123SOL    HW117828   3.357   0.949   6.359  1.7689 -0.1422 -0.7835
 2123SOL    HW217829   3.391   0.810   6.351 -1.9827  0.8644 -0.9204
 2124SOL     OW17830   4.257   1.734   5.765  0.6531 -0.4958  0.0173
 2124SOL    HW117831   4.285   1.721   5.675 -0.9952 -0.2466 -0.5428
 2124SOL    HW217832   4.173   1.779   5.752  1.3647  0.6623 -0.5684
 2125SOL     OW17833   2.040   0.787  12.157 -0.2796  0.0708 -0.0967
 2125SOL    HW117834   2.052   0.789  12.252  2.4398 -1.2018 -0.4029
 2125SOL    HW217835   2.030   0.880  12.137  0.3800 -0.0077 -0.7989
 2126SOL     OW17836   4.487   1.145   1.682  0.3849 -0.3147  0.4804
 2126SOL    HW117837   4.538   1.166   1.760 -0.7525 -2.4777  1.7949
 2126SOL    HW217838   4.446   1.059   1.689 -1.5841  0.6181  0.5128
 2127SOL     OW17839   3.111   4.641   5.349  0.0241 -0.7521  0.1349
 2127SOL    HW117840   3.186   4.677   5.301  0.3409  0.8630  1.8423
 2127SOL    HW217841   3.148   4.618   5.434  0.6624  0.5745  0.2168
 2128SOL     OW17842   0.416   2.713   6.997  0.2170  0.2089 -0.1775
 2128SOL    HW117843   0.370   2.785   7.040  0.8008  1.0619 -0.9905
 2128SOL    HW217844   0.505   2.743   6.982  0.1416  0.3917 -0.2598
 2129SOL     OW17845   1.358   3.064  12.710 -0.3644  0.2942  0.3886
 2129SOL    HW117846   1.394   3.050  12.798  0.0940  1.5491  0.3976
 2129SOL    HW217847   1.298   3.138  12.718  1.4461  1.9490 -1.4319
 2130SOL     OW17848   3.838   4.101   4.456  0.1828 -0.1078 -0.4602
 2130SOL    HW117849   3.825   4.013   4.422 -0.1675 -0.6351  1.0118
 2130SOL    HW217850   3.914   4.131   4.407 -1.1637  1.1575 -1.7685
 2131SOL     OW17851   0.116   4.394   4.763 -1.0288 -0.0408 -0.1012
 2131SOL    HW117852   0.065   4.442   4.698  0.5629  1.6031 -0.1251
 2131SOL    HW217853   0.140   4.318   4.709 -0.7789  0.5248 -0.7925
 2132SOL     OW17854   1.973   3.686   4.260  0.1247 -0.2889  0.2113
 2132SOL    HW117855   1.898   3.666   4.315 -0.9064 -0.2047 -1.1584
 2132SOL    HW217856   1.938   3.685   4.171  0.7371  0.1311 -0.0335
 2133SOL     OW17857   4.511   3.857   6.506  0.6184  0.3855 -0.1866
 2133SOL    HW117858   4.451   3.791   6.539  0.2628  0.9703  0.3385
 2133SOL    HW217859   4.599   3.830   6.535  0.0074  2.0692  3.2313
 2134SOL     OW17860   0.746   1.280   5.947  0.2405 -0.5207  0.7200
 2134SOL    HW117861   0.788   1.290   6.033  1.9639  0.6257 -0.2630
 2134SOL    HW217862   0.715   1.190   5.954  2.5618 -1.2917  1.1946
 2135SOL     OW17863   1.795   1.346  10.945 -0.4258 -0.1463  0.5600
 2135SOL    HW117864   1.771   1.257  10.970 -0.0680 -0.5395 -0.4883
 2135SOL    HW217865   1.792   1.330  10.850 -1.1597 -1.7300  0.8557
 2136SOL     OW17866   3.832   2.131   2.904  0.4204 -0.0079  0.2006
 2136SOL    HW117867   3.740   2.107   2.911  0.2679  0.6992  0.6206
 2136SOL    HW217868   3.841   2.109   2.811 -1.0831  0.2148  0.0108
 2137SOL     OW17869   1.581   4.670   4.553 -0.8972  0.1725 -0.0118
 2137SOL    HW117870   1.560   4.593   4.606 -1.3391  0.1508 -0.2144
 2137SOL    HW217871   1.609   0.013   4.616 -0.7287  0.2104 -0.1297
 2138SOL     OW17872   3.569   3.573   9.189  0.0437 -0.8148  0.0103
 2138SOL    HW117873   3.479   3.575   9.222 -0.1697 -1.5040 -0.5280
 2138SOL    HW217874   3.577   3.480   9.168 -0.5125 -0.6099 -1.1355
 2139SOL     OW17875   3.971   2.682  10.746  0.3434  0.0147 -0.1995
 2139SOL    HW117876   3.997   2.769  10.775  0.8505 -0.5609  1.0493
 2139SOL    HW217877   4.023   2.627  10.804 -0.3996  0.5363  0.9517
 2140SOL     OW17878   4.391   0.062   5.174 -0.1535 -0.0590 -0.0458
 2140SOL    HW117879   4.439   0.125   5.120 -0.5628 -2.4349 -3.1425
 2140SOL    HW217880   4.334   0.016   5.113  0.0130  1.6072 -1.4506
 2141SOL     OW17881   3.624   0.019   5.853 -0.7639 -0.1231 -0.0535
 2141SOL    HW117882   3.587   4.722   5.939  1.2667 -1.4376  0.4853
 2141SOL    HW217883   3.597   0.111   5.849 -0.8126 -0.1726 -0.8660
 2142SOL     OW17884   0.140   1.031  13.523 -0.2915  0.5493  0.0205
 2142SOL    HW117885   0.049   1.044  13.499 -0.0264 -1.6021 -2.0971
 2142SOL    HW217886   0.177   1.023  13.435  1.4847  3.9514  0.4442
 2143SOL     OW17887   4.614   3.375   3.620  0.7316  0.2645 -0.3940
 2143SOL    HW117888   4.556   3.401   3.691  0.7278  0.5045 -0.4863
 2143SOL    HW217889   4.691   3.432   3.626 -0.5853  2.1683 -1.7144
 2144SOL     OW17890   0.749   3.465  13.176  0.0476  0.4083 -0.8730
 2144SOL    HW117891   0.800   3.397  13.219 -0.9967  0.2606  0.1146
 2144SOL    HW217892   0.693   3.425  13.110  1.0281 -4.3246  1.1579
 2145SOL     OW17893   3.568   1.248   6.375  0.0048  0.2052  0.5843
 2145SOL    HW117894   3.566   1.225   6.468  1.0605  1.0617  0.8190
 2145SOL    HW217895   3.656   1.216   6.359  0.1621  0.0106  1.9034
 2146SOL     OW17896   0.879   2.587  13.526 -0.4176  0.2925  0.2916
 2146SOL    HW117897   0.901   2.649  13.596  0.4024 -0.5443  0.7862
 2146SOL    HW217898   0.797   2.550  13.558 -0.2983  0.4438  0.7805
 2147SOL     OW17899   1.405   3.070  16.980 -1.1110  0.0475 -0.1791
 2147SOL    HW117900   1.330   3.059  17.039 -2.5230  1.7094 -1.6783
 2147SOL    HW217901   1.457   3.132  17.032 -0.3453 -0.1096 -0.7543
 2148SOL     OW17902   3.217   1.612  10.077 -0.0717 -0.4307 -0.0101
 2148SOL    HW117903   3.298   1.607  10.127 -1.7093 -0.0573  2.7563
 2148SOL    HW217904   3.244   1.564   9.999 -1.4733  1.5470 -1.7274
 2149SOL     OW17905   2.271   3.667   7.984  0.5139 -0.1789 -0.6386
 2149SOL    HW117906   2.188   3.632   7.951 -0.6410 -0.0780  2.1154
 2149SOL    HW217907   2.276   3.739   7.921 -0.8645  1.2201  0.8467
 2150SOL     OW17908   2.150   2.163   8.890  0.2422  0.2265 -0.0738
 2150SOL    HW117909   2.098   2.225   8.838 -0.7712 -0.8279 -0.3173
 2150SOL    HW217910   2.169   2.216   8.967 -1.7774  2.3334 -1.0165
 2151SOL     OW17911   3.734   4.147  14.285 -0.4369 -0.7614  0.2163
 2151SOL    HW117912   3.697   4.180  14.367 -0.0935 -2.4274  1.0353
 2151SOL    HW217913   3.658   4.105  14.245 -0.3594 -3.0356  2.4738
 2152SOL     OW17914   3.865   3.132   7.730 -0.2799  0.0913 -0.1814
 2152SOL    HW117915   3.851   3.172   7.816  0.8709  3.3570 -1.5203
 2152SOL    HW217916   3.842   3.043   7.758 -1.3640 -0.0103 -1.3941
 2153SOL     OW17917   0.568   1.369   6.346  0.2256  0.2979  0.0605
 2153SOL    HW117918   0.479   1.348   6.373  0.1266  1.3712  0.5558
 2153SOL    HW217919   0.617   1.345   6.425  1.0875  0.3456 -0.4541
 2154SOL     OW17920   2.865   4.681   6.303  0.4229 -0.1116  0.4801
 2154SOL    HW117921   2.865   4.661   6.397 -0.3045 -2.3478  0.0089
 2154SOL    HW217922   2.950   4.721   6.286 -0.4058  1.8302  0.9062
 2155SOL     OW17923   0.435   2.969  17.490 -0.9670 -0.1390  0.3630
 2155SOL    HW117924   0.489   2.893  17.513 -0.3247  0.3840  0.5722
 2155SOL    HW217925   0.514   3.021  17.478 -1.9109  1.7876  2.5430
 2156SOL     OW17926   0.571   2.843   2.186  0.7981 -0.1371 -0.4880
 2156SOL    HW117927   0.604   2.770   2.134 -2.6195 -1.9543 -0.1179
 2156SOL    HW217928   0.489   2.857   2.139  1.7576 -1.3851 -2.5108
 2157SOL     OW17929   0.183   3.845  11.491 -0.0532 -0.0635 -0.0705
 2157SOL    HW117930   0.199   3.765  11.540  2.0636  2.4819  3.4603
 2157SOL    HW217931   0.240   3.829  11.416 -0.9017  1.5048 -1.0517
 2158SOL     OW17932   2.455   1.195   1.028  0.1964 -0.8440 -0.3539
 2158SOL    HW117933   2.491   1.204   1.117 -1.2574 -1.5653  0.3055
 2158SOL    HW217934   2.386   1.132   1.044  1.2094 -1.9155 -0.1942
 2159SOL     OW17935   1.568   3.372   7.275 -0.0445  0.1852 -0.2093
 2159SOL    HW117936   1.502   3.389   7.208  1.6383 -0.0835 -1.9333
 2159SOL    HW217937   1.567   3.277   7.287  0.1279  0.5730  2.9541
 2160SOL     OW17938   1.985   1.720  12.687  0.3443 -0.5374  0.0943
 2160SOL    HW117939   1.896   1.717  12.720  0.3898 -0.5393  0.2176
 2160SOL    HW217940   2.038   1.681  12.757  2.2506 -1.1057 -1.6765
 2161SOL     OW17941   2.907   1.231   4.046 -0.2877  0.1556  0.5030
 2161SOL    HW117942   2.853   1.207   4.121 -1.1112  0.1054 -0.1034
 2161SOL    HW217943   2.930   1.323   4.060  0.4902 -0.0444  0.5021
 2162SOL     OW17944   1.047   4.501   7.553 -0.7181  0.1661 -0.1139
 2162SOL    HW117945   1.010   4.589   7.546 -0.5400  0.2811  0.4392
 2162SOL    HW217946   1.140   4.525   7.543 -0.0445 -2.1160  0.6512
 2163SOL     OW17947   0.743   1.349   4.756  0.1337 -0.0061  0.0190
 2163SOL    HW117948   0.752   1.415   4.688  0.5569 -1.0207 -0.9114
 2163SOL    HW217949   0.732   1.398   4.838 -0.8674 -0.1377 -0.0416
 2164SOL     OW17950   1.180   3.413   3.991  0.0516 -0.0932  0.5939
 2164SOL    HW117951   1.234   3.429   3.913 -0.9200 -1.2015 -0.2940
 2164SOL    HW217952   1.095   3.446   3.961  0.6129 -0.9388 -1.9649
 2165SOL     OW17953   3.985   2.925  10.880  0.0678 -0.3944  0.0888
 2165SOL    HW117954   4.058   2.963  10.927  0.9646  0.9804 -2.4194
 2165SOL    HW217955   3.915   2.926  10.945 -0.6362  0.4012 -0.6877
 2166SOL     OW17956   0.449   0.092   4.577 -0.3427 -0.4708  0.5180
 2166SOL    HW117957   0.363   0.112   4.613 -0.1826  0.5741  0.3319
 2166SOL    HW217958   0.441   4.722   4.563  1.0555 -0.4903 -0.1484
 2167SOL     OW17959   1.217   4.338   5.212 -0.3080 -0.7826  0.4700
 2167SOL    HW117960   1.138   4.388   5.192  0.5391  0.1697 -0.4935
 2167SOL    HW217961   1.282   4.404   5.187 -2.3633  1.0792  0.0255
 2168SOL     OW17962   1.250   0.054   9.649 -0.1088  0.5806  0.7892
 2168SOL    HW117963   1.268   4.683   9.646 -2.5483  0.2287 -2.6853
 2168SOL    HW217964   1.325   0.081   9.701 -0.5504 -1.3267  2.4466
 2169SOL     OW17965   4.695   1.786   4.478 -0.2237 -0.0631 -0.4135
 2169SOL    HW117966   4.600   1.800   4.482  0.2720  2.7369  1.1587
 2169SOL    HW217967   4.705   1.773   4.572 -1.1109  2.0433 -0.0445
 2170SOL     OW17968   4.638   1.262   4.776  0.0254 -0.1758  0.5022
 2170SOL    HW117969   4.555   1.235   4.813  1.3654 -0.6549  3.1597
 2170SOL    HW217970   4.679   1.297   4.856 -1.5596  1.7687  0.4813
 2171SOL     OW17971   0.337   2.525   4.032 -0.1261 -0.0379 -0.3743
 2171SOL    HW117972   0.340   2.554   3.941  0.3889  1.0870  0.0017
 2171SOL    HW217973   0.314   2.604   4.080  2.5724 -0.6908  2.0108
 2172SOL     OW17974   4.510   4.176   9.790 -0.3591  0.6817 -0.2092
 2172SOL    HW117975   4.429   4.186   9.740 -0.0881  2.0696 -0.3739
 2172SOL    HW217976   4.509   4.082   9.808  0.5208  1.3474  3.2581
 2173SOL     OW17977   1.246   4.716  15.970 -0.1446 -0.2432  0.3500
 2173SOL    HW117978   1.199   4.670  15.900 -0.6884  0.1344  0.4721
 2173SOL    HW217979   1.263   0.078  15.931  0.3489  0.4843  2.1843
 2174SOL     OW17980   1.472   1.880   4.042 -0.3414  0.1007  0.1738
 2174SOL    HW117981   1.411   1.856   3.972 -0.6166  0.5126  0.2695
 2174SOL    HW217982   1.559   1.877   4.003 -0.0121  3.1509  0.6907
 2175SOL     OW17983   1.974   1.618  15.336  0.1195 -0.0907  0.3063
 2175SOL    HW117984   1.888   1.600  15.298  0.7760 -1.0669 -0.7223
 2175SOL    HW217985   1.999   1.695  15.284 -0.9388 -0.4635 -0.7507
 2176SOL     OW17986   0.101   4.316   2.564 -0.3867 -0.1962  0.3903
 2176SOL    HW117987   0.119   4.400   2.523 -1.5383 -0.0319  0.2142
 2176SOL    HW217988   0.024   4.293   2.512  0.6779 -1.7746 -0.4837
 2177SOL     OW17989   1.552   3.450   3.603  0.3670 -0.5737 -0.7479
 2177SOL    HW117990   1.630   3.395   3.609  0.5421 -0.3652 -1.0829
 2177SOL    HW217991   1.560   3.487   3.515 -0.4844  0.9595 -0.1918
 2178SOL     OW17992   3.826   1.047  17.684  1.0480  0.2677 -0.1323
 2178SOL    HW117993   3.800   1.119   0.045  0.6244 -1.6723  2.0874
 2178SOL    HW217994   3.909   1.016   0.024  0.9381 -0.1227 -0.2236
 2179SOL     OW17995   1.366   0.110   2.579 -0.0232 -0.7823 -0.3833
 2179SOL    HW117996   1.357   0.061   2.661  0.8313 -0.2519  0.0296
 2179SOL    HW217997   1.286   0.162   2.576  1.5258  1.6973  2.3785
 2180SOL     OW17998   4.475   4.405  13.471 -0.5153  0.1724  0.4133
 2180SOL    HW117999   4.507   4.432  13.385  0.7323 -0.9631  0.5327
 2180SOL    HW218000   4.558   4.374  13.507  0.2334  1.7749  0.0688
 2181SOL     OW18001   1.432   3.456   5.522  0.1853 -0.4010 -0.3953
 2181SOL    HW118002   1.418   3.449   5.427  3.2728 -0.0382 -0.8779
 2181SOL    HW218003   1.362   3.518   5.543 -1.4829 -1.6422 -2.3480
 2182SOL     OW18004   0.936   3.015   6.464  0.4213 -0.2329  0.3328
 2182SOL    HW118005   1.009   2.963   6.498 -0.6739 -1.5976  0.6053
 2182SOL    HW218006   0.903   2.957   6.395  1.9973 -0.1986 -0.4391
 2183SOL     OW18007   4.003   2.276   6.317 -0.4591 -0.0407 -0.6603
 2183SOL    HW118008   4.079   2.327   6.344 -0.3869  0.5392 -1.9752
 2183SOL    HW218009   4.006   2.279   6.222 -0.7201 -0.8489 -0.6967
 2184SOL     OW18010   0.899   0.400  11.748 -0.1877 -0.3098 -0.0229
 2184SOL    HW118011   0.965   0.469  11.757 -0.7519  0.2470 -0.1312
 2184SOL    HW218012   0.824   0.460  11.744  1.2874  1.3761 -2.8671
 2185SOL     OW18013   4.496   2.999  14.734 -0.2540  0.0875 -0.2144
 2185SOL    HW118014   4.545   2.965  14.659 -2.1910  1.4869 -2.1150
 2185SOL    HW218015   4.557   2.994  14.807 -0.6520 -0.8397  0.0682
 2186SOL     OW18016   0.415   3.513  12.514 -0.0716  0.1345 -0.0625
 2186SOL    HW118017   0.330   3.528  12.473  0.1707  0.4271 -0.4545
 2186SOL    HW218018   0.388   3.459  12.588 -1.5879 -0.3866 -0.9885
 2187SOL     OW18019   4.449   1.432  10.056  0.1720 -0.0093  0.2319
 2187SOL    HW118020   4.421   1.347  10.022  0.2665  0.8295 -1.9658
 2187SOL    HW218021   4.372   1.456  10.108 -0.5312 -0.6410 -0.5034
 2188SOL     OW18022   1.879   3.999   4.997  0.4101 -0.1423  0.3736
 2188SOL    HW118023   1.871   3.904   4.988  1.1883  0.1081 -2.6953
 2188SOL    HW218024   1.790   4.028   4.977 -0.1695 -3.4790 -1.8176
 2189SOL     OW18025   4.213   2.220   3.095  0.0498 -0.1021  0.3760
 2189SOL    HW118026   4.266   2.216   3.174  1.2022 -0.3633 -0.4036
 2189SOL    HW218027   4.122   2.241   3.113  0.0981  0.3700  0.0651
 2190SOL     OW18028   1.450   3.242   2.808 -0.4185 -0.1415 -0.0455
 2190SOL    HW118029   1.437   3.253   2.714  1.0747  1.4826 -0.0639
 2190SOL    HW218030   1.363   3.268   2.840  0.1616  0.0874  1.3565
 2191SOL     OW18031   3.284   0.857   0.770  0.4150 -0.0167  0.0077
 2191SOL    HW118032   3.295   0.775   0.723 -0.3676  0.6560 -1.3360
 2191SOL    HW218033   3.330   0.916   0.711 -1.2130  1.6889  0.4278
 2192SOL     OW18034   0.945   2.113   7.608  0.0671  0.4494  0.0100
 2192SOL    HW118035   0.876   2.166   7.567 -0.6259  0.6131  1.4021
 2192SOL    HW218036   0.998   2.094   7.530 -1.2603  1.4385 -1.1393
 2193SOL     OW18037   4.112   1.284  13.116 -0.3304 -0.7098  0.2629
 2193SOL    HW118038   4.179   1.340  13.154 -0.1435  0.1561 -1.3313
 2193SOL    HW218039   4.089   1.337  13.040 -0.6648 -1.1952  0.0204
 2194SOL     OW18040   1.048   4.278   6.589 -0.2272 -0.5264 -0.0433
 2194SOL    HW118041   1.048   4.183   6.583  1.8605 -0.5476  0.3267
 2194SOL    HW218042   1.009   4.281   6.676  4.2403  0.1833  1.8983
 2195SOL     OW18043   3.702   4.095   7.233 -0.4376 -0.0846 -0.1355
 2195SOL    HW118044   3.735   4.036   7.300  1.9659  1.4079  0.0044
 2195SOL    HW218045   3.773   4.159   7.238 -1.8949  1.4927  0.7451
 2196SOL     OW18046   2.051   3.215   5.751  0.1567 -0.0373 -0.3014
 2196SOL    HW118047   1.956   3.214   5.767  0.1680  1.1748 -0.1405
 2196SOL    HW218048   2.071   3.303   5.782 -0.4810 -0.7410  2.1581
 2197SOL     OW18049   2.921   3.082  12.447 -0.3502 -0.5351  0.2855
 2197SOL    HW118050   2.935   3.023  12.521  0.6445  0.8318  1.1772
 2197SOL    HW218051   3.011   3.081  12.414 -0.4231  0.8021  0.0704
 2198SOL     OW18052   3.156   4.567   8.428 -0.3066 -0.0385 -0.3491
 2198SOL    HW118053   3.092   4.539   8.493 -2.3418  2.2726 -1.3672
 2198SOL    HW218054   3.087   4.586   8.365  0.2475  0.2336 -0.8706
 2199SOL     OW18055   0.088   2.093   2.218 -0.2369 -0.1355  0.4675
 2199SOL    HW118056   0.141   2.080   2.139  2.1672  0.4943  1.9534
 2199SOL    HW218057   0.142   2.050   2.285  0.7071 -3.3065 -2.3688
 2200SOL     OW18058   3.689   2.661   6.329  0.3786 -0.2545 -0.4949
 2200SOL    HW118059   3.728   2.673   6.416 -0.0196  0.4409 -0.4169
 2200SOL    HW218060   3.715   2.743   6.289 -1.9971  0.0567 -1.4225
 2201SOL     OW18061   3.794   3.704   6.789 -0.2387 -0.0219  0.2682
 2201SOL    HW118062   3.703   3.674   6.794 -0.5584  0.6927 -1.3476
 2201SOL    HW218063   3.791   3.794   6.822  0.8847 -0.3889  1.3898
 2202SOL     OW18064   0.630   3.503  11.536 -0.4881 -0.0137 -0.0348
 2202SOL    HW118065   0.652   3.547  11.454 -0.8609  2.0672  0.9733
 2202SOL    HW218066   0.720   3.479  11.557 -0.3568  0.2080 -0.3368
 2203SOL     OW18067   1.810   2.938  14.199 -0.4564  0.3328  0.2608
 2203SOL    HW118068   1.788   2.848  14.222  0.1733 -0.2424 -1.4080
 2203SOL    HW218069   1.887   2.911  14.149 -0.7282  0.2147 -0.0945
 2204SOL     OW18070   0.765   4.519  12.025  0.1287  0.5048  0.4361
 2204SOL    HW118071   0.788   4.469  11.946  2.3226  0.3231  1.1777
 2204SOL    HW218072   0.844   4.510  12.079  1.0012  0.3819 -0.8743
 2205SOL     OW18073   0.286   1.906  14.315 -0.4329  0.3474 -0.0872
 2205SOL    HW118074   0.271   1.867  14.229 -1.6026 -1.3151  0.8745
 2205SOL    HW218075   0.257   1.836  14.373  1.4526  0.3569  0.8737
 2206SOL     OW18076   3.224   1.471   3.782 -0.0691 -0.5494 -0.0323
 2206SOL    HW118077   3.261   1.441   3.699  0.5400 -0.0809  0.0721
 2206SOL    HW218078   3.209   1.387   3.825 -1.2645  0.9595  2.4807
 2207SOL     OW18079   2.891   3.930   5.237  0.0612  0.2849 -0.4572
 2207SOL    HW118080   2.888   3.841   5.273  2.0445 -0.3706 -1.8781
 2207SOL    HW218081   2.968   3.962   5.284 -0.6936  1.0467  0.2622
 2208SOL     OW18082   3.889   0.854   1.706  0.1246  0.0885  0.1612
 2208SOL    HW118083   3.838   0.934   1.700  0.7516  0.4548 -0.3323
 2208SOL    HW218084   3.816   0.793   1.715  2.3426 -2.6783 -0.7020
 2209SOL     OW18085   2.273   1.194   2.617  0.7258 -0.4780  0.2171
 2209SOL    HW118086   2.245   1.182   2.526  2.7989  1.3060 -0.6614
 2209SOL    HW218087   2.195   1.212   2.670  0.6431  0.1955 -0.1287
 2210SOL     OW18088   2.154   3.895   4.457  0.4354 -0.4712  0.3963
 2210SOL    HW118089   2.221   3.849   4.408 -0.0984  1.4961 -2.2029
 2210SOL    HW218090   2.131   3.833   4.527 -1.3913  1.9115  1.9300
 2211SOL     OW18091   4.405   3.105   6.608 -0.0640 -0.1227 -0.3660
 2211SOL    HW118092   4.478   3.167   6.607 -0.2789  0.1775  3.1259
 2211SOL    HW218093   4.408   3.069   6.519 -1.2607  0.3352 -0.5889
 2212SOL     OW18094   3.017   3.970   7.241 -0.1666 -0.3228 -0.6666
 2212SOL    HW118095   3.044   3.973   7.333  0.2230  0.6746 -0.8204
 2212SOL    HW218096   3.102   3.949   7.203  1.3635  1.5777  1.6477
 2213SOL     OW18097   3.015   1.723  13.927 -0.2445  0.2094 -0.1964
 2213SOL    HW118098   2.994   1.636  13.893  3.0013 -0.7893  0.3169
 2213SOL    HW218099   2.975   1.786  13.867 -0.2703 -0.0046 -0.4037
 2214SOL     OW18100   2.128   2.385   8.273 -0.1663  0.1425  0.1974
 2214SOL    HW118101   2.223   2.371   8.266 -0.3803 -1.3440  0.1852
 2214SOL    HW218102   2.112   2.445   8.345  3.3363  0.2049  0.9505
 2215SOL     OW18103   1.301   0.882  16.176  0.3252 -0.3577 -0.0718
 2215SOL    HW118104   1.296   0.789  16.199 -0.3384 -0.1220  0.7447
 2215SOL    HW218105   1.397   0.890  16.179  0.2954 -0.6561  2.1312
 2216SOL     OW18106   3.588   3.290   6.296 -0.0049 -0.3582  0.0294
 2216SOL    HW118107   3.647   3.297   6.221  0.6476  0.7875  0.6493
 2216SOL    HW218108   3.505   3.307   6.253  0.2597  2.1962  0.5033
 2217SOL     OW18109   1.346   4.145  17.608 -0.0169 -0.6327 -0.1044
 2217SOL    HW118110   1.371   4.162  17.517 -1.3821  0.9703 -0.1922
 2217SOL    HW218111   1.261   4.106  17.587 -0.2886 -0.8628  1.4298
 2218SOL     OW18112   4.199   3.161  15.789 -0.1516 -0.0841  0.0518
 2218SOL    HW118113   4.126   3.201  15.838 -1.6641 -0.6998 -1.6851
 2218SOL    HW218114   4.147   3.105  15.731  0.3760 -0.6021  0.0889
 2219SOL     OW18115   2.521   0.770   8.773 -0.4969 -0.1945 -0.4281
 2219SOL    HW118116   2.486   0.740   8.857 -0.5868  1.7687  0.2457
 2219SOL    HW218117   2.615   0.777   8.788 -0.7626 -0.6529  1.4527
 2220SOL     OW18118   1.025   1.557   5.441  0.4970 -0.0479 -0.0807
 2220SOL    HW118119   0.959   1.625   5.426  0.6293 -0.4532 -2.4407
 2220SOL    HW218120   1.058   1.541   5.353 -1.5574  1.0917 -1.0440
 2221SOL     OW18121   4.512   2.142  11.500 -0.9475  0.3695  0.3035
 2221SOL    HW118122   4.435   2.105  11.458 -1.3931  2.1991 -0.4785
 2221SOL    HW218123   4.491   2.132  11.593  1.8475  1.4348  1.0682
 2222SOL     OW18124   1.362   0.530  13.883  0.3413 -0.0220 -0.2493
 2222SOL    HW118125   1.309   0.553  13.807 -0.8740  2.4387  1.3416
 2222SOL    HW218126   1.439   0.587  13.880  0.4349 -0.2438 -2.2120
 2223SOL     OW18127   0.884   4.566  15.427  0.1507 -0.4473  0.2997
 2223SOL    HW118128   0.861   4.478  15.458  0.5943 -1.6084 -2.6842
 2223SOL    HW218129   0.975   4.573  15.456  0.0099  0.2113  0.5683
 2224SOL     OW18130   3.213   4.180   9.512 -0.5836 -0.0851 -0.4695
 2224SOL    HW118131   3.124   4.213   9.523 -0.4965  0.2034 -0.6223
 2224SOL    HW218132   3.201   4.145   9.600 -1.2442 -2.3742 -1.4920
 2225SOL     OW18133   3.990   2.438   4.353 -0.2893  0.1780  0.1840
 2225SOL    HW118134   4.037   2.481   4.282 -1.6927  0.5505 -0.5174
 2225SOL    HW218135   4.064   2.401   4.401 -0.3692  1.2471  1.1367
 2226SOL     OW18136   1.613   0.511   4.807  0.3797  0.2318 -0.3801
 2226SOL    HW118137   1.583   0.478   4.892 -2.9852  0.0510 -1.6661
 2226SOL    HW218138   1.567   0.453   4.747  0.8402 -0.8335  0.2820
 2227SOL     OW18139   0.093   3.519   3.200  0.0878  0.3363  0.0854
 2227SOL    HW118140   0.113   3.441   3.149  0.0614 -0.5048  1.3871
 2227SOL    HW218141   0.167   3.512   3.260  0.2757  1.6510  0.0221
 2228SOL     OW18142   4.533   4.337   5.835 -0.2652 -0.0538 -0.3007
 2228SOL    HW118143   4.451   4.306   5.873  1.2870 -0.6830  2.5567
 2228SOL    HW218144   4.510   4.429   5.843  0.9651  0.2898 -0.7382
 2229SOL     OW18145   2.877   1.613   7.830  0.2645  0.4460 -0.0046
 2229SOL    HW118146   2.793   1.638   7.867  1.0439  0.9717  1.4000
 2229SOL    HW218147   2.923   1.689   7.863  1.0171  0.2786 -0.6559
 2230SOL     OW18148   1.828   2.202   3.063 -0.1655 -0.4030  0.2923
 2230SOL    HW118149   1.851   2.129   3.006  0.0815  1.4522 -2.0190
 2230SOL    HW218150   1.853   2.170   3.149 -1.5914 -1.5781  0.2739
 2231SOL     OW18151   2.884   1.264   3.059  0.2760  0.2563  0.0920
 2231SOL    HW118152   2.835   1.182   3.062  0.2023  0.2466 -1.6498
 2231SOL    HW218153   2.975   1.234   3.058  0.4519  0.8756 -1.7581
 2232SOL     OW18154   3.461   2.543   1.334  0.0521 -0.3104  0.8751
 2232SOL    HW118155   3.451   2.630   1.372  0.9900  0.3387 -0.3626
 2232SOL    HW218156   3.430   2.561   1.246  0.0933 -2.5271  0.4161
 2233SOL     OW18157   2.042   3.023   7.027  0.2942  0.1921 -0.0893
 2233SOL    HW118158   2.102   3.096   7.013 -0.8878  1.4223  1.2477
 2233SOL    HW218159   2.006   3.048   7.112 -1.4717 -1.4735 -0.3348
 2234SOL     OW18160   1.751   4.194   6.055  0.0526  0.7043  0.1423
 2234SOL    HW118161   1.692   4.160   6.122 -1.7088 -0.3335 -1.9154
 2234SOL    HW218162   1.772   4.283   6.082 -0.8801  1.0509 -0.3004
 2235SOL     OW18163   0.639   4.237   3.338 -0.3573 -0.1483 -0.0211
 2235SOL    HW118164   0.653   4.277   3.424  0.3615 -2.3893  0.9078
 2235SOL    HW218165   0.563   4.287   3.308  0.4942  2.0123  1.5152
 2236SOL     OW18166   0.234   4.563  11.126  0.6984  0.0923  0.0082
 2236SOL    HW118167   0.220   4.476  11.163  1.3835  1.2639  3.0256
 2236SOL    HW218168   0.228   4.605  11.212  0.2726  4.0477 -1.9598
 2237SOL     OW18169   2.961   2.680   2.221  0.1516 -0.4160  0.3660
 2237SOL    HW118170   2.975   2.754   2.162  1.1378  0.3907  1.5980
 2237SOL    HW218171   2.930   2.615   2.159  4.0326 -3.1531  1.3266
 2238SOL     OW18172   3.808   3.013   8.991 -0.6626 -0.0557 -0.1678
 2238SOL    HW118173   3.854   2.938   9.029  1.4214  0.7161 -1.1289
 2238SOL    HW218174   3.867   3.088   8.998 -0.3810 -0.1992 -0.9669
 2239SOL     OW18175   1.613   3.933   0.854  0.1823  0.0153 -0.3621
 2239SOL    HW118176   1.644   3.926   0.763 -0.6210  2.8350 -0.8801
 2239SOL    HW218177   1.607   3.843   0.885  1.2325  0.0195 -0.1334
 2240SOL     OW18178   1.058   0.974  17.432  0.5764  0.0377  0.7682
 2240SOL    HW118179   1.004   0.968  17.510 -1.3088 -1.5435 -0.6325
 2240SOL    HW218180   1.019   1.054  17.397  0.7044  0.5113  1.7313
 2241SOL     OW18181   3.789   1.984  13.635  0.0735  0.0796  0.1112
 2241SOL    HW118182   3.830   2.058  13.680 -1.0607  0.0638  1.1773
 2241SOL    HW218183   3.858   1.921  13.658  0.4179  0.8746  1.2493
 2242SOL     OW18184   3.085   3.097   4.883  0.0486 -0.1975  0.8021
 2242SOL    HW118185   3.069   3.108   4.789  0.6938 -3.8303  0.2646
 2242SOL    HW218186   3.031   3.167   4.919 -0.4111 -1.4028  2.4320
 2243SOL     OW18187   2.023   3.559   7.288  0.5849  0.4072 -0.3151
 2243SOL    HW118188   2.001   3.651   7.299  1.7848  0.5117  1.1407
 2243SOL    HW218189   2.044   3.566   7.195 -1.0977 -0.8495 -0.7989
 2244SOL     OW18190   0.685   4.273   7.575  0.1964 -0.2218 -0.1301
 2244SOL    HW118191   0.651   4.274   7.486 -0.0794  0.2598 -0.0253
 2244SOL    HW218192   0.606   4.245   7.621  0.5222  1.8137  1.7024
 2245SOL     OW18193   1.724   2.672  16.874  0.0829 -0.6281 -0.9001
 2245SOL    HW118194   1.703   2.700  16.963 -0.0983 -0.7286 -0.9100
 2245SOL    HW218195   1.818   2.659  16.888  0.5003  2.5099 -0.8971
 2246SOL     OW18196   2.864   1.056   7.923  0.3387  0.0072  0.0070
 2246SOL    HW118197   2.825   1.079   7.839  1.0716  0.2096 -0.2763
 2246SOL    HW218198   2.797   0.990   7.938  0.6133  0.0044  1.2194
 2247SOL     OW18199   0.677   2.778   8.900  0.0081 -0.7261 -0.5469
 2247SOL    HW118200   0.713   2.867   8.900 -0.1035 -0.6816 -0.5536
 2247SOL    HW218201   0.726   2.734   8.969  3.0580 -0.1939 -2.3522
 2248SOL     OW18202   3.692   2.202   9.763 -0.1133 -0.3689 -0.0724
 2248SOL    HW118203   3.662   2.128   9.711 -0.5001  0.5697 -1.1708
 2248SOL    HW218204   3.781   2.209   9.729  0.2974  4.1052  1.9167
 2249SOL     OW18205   0.868   3.619   0.054 -0.2354  0.5625  0.2545
 2249SOL    HW118206   0.805   3.672   0.006 -0.9141 -0.6438 -0.1717
 2249SOL    HW218207   0.912   3.687   0.106  0.0049  1.4037 -1.0545
 2250SOL     OW18208   0.822   1.653   1.502 -0.1582  0.4445  0.3934
 2250SOL    HW118209   0.793   1.587   1.566 -1.1426 -1.6791 -2.2702
 2250SOL    HW218210   0.807   1.613   1.417  3.1740  1.7735 -0.7762
 2251SOL     OW18211   2.933   1.558   7.564  0.1438  0.1234  0.0451
 2251SOL    HW118212   2.913   1.567   7.658 -0.6152  2.5624 -0.3705
 2251SOL    HW218213   2.879   1.627   7.527 -0.1193 -0.3414 -0.4473
 2252SOL     OW18214   2.589   4.384   3.665 -0.2723 -0.2087  0.0351
 2252SOL    HW118215   2.600   4.383   3.570  2.4684 -0.7131  0.3707
 2252SOL    HW218216   2.627   4.298   3.685 -2.6935 -1.3908 -0.3810
 2253SOL     OW18217   3.338   3.234   8.792 -0.0298  0.2358  0.2077
 2253SOL    HW118218   3.422   3.210   8.830  0.1944  2.3135  1.0403
 2253SOL    HW218219   3.327   3.175   8.717  0.6904  1.0831 -0.5715
 2254SOL     OW18220   3.468   0.100   3.215  0.1381 -0.0751 -0.3026
 2254SOL    HW118221   3.499   0.137   3.298 -0.5698  0.5158 -0.3032
 2254SOL    HW218222   3.376   0.088   3.236  0.3593  0.1854  0.8139
 2255SOL     OW18223   0.083   0.204   5.380 -0.7036  0.9021 -0.2746
 2255SOL    HW118224   4.721   0.234   5.347 -0.7356  1.1151  0.0088
 2255SOL    HW218225   0.080   0.109   5.369 -3.6639  1.1178 -1.5561
 2256SOL     OW18226   3.922   1.125   4.335 -0.1414  0.2692  0.2586
 2256SOL    HW118227   3.949   1.214   4.357  0.8157  0.4331 -1.5826
 2256SOL    HW218228   3.848   1.099   4.390  0.8537 -0.6170  1.1847
 2257SOL     OW18229   1.315   1.890   3.753 -0.1372  0.0475  0.8788
 2257SOL    HW118230   1.234   1.907   3.703  0.0909  1.7764  1.1008
 2257SOL    HW218231   1.340   1.810   3.706  2.3017  2.3316 -1.6794
 2258SOL     OW18232   3.689   2.034   3.888  0.0744  0.1031 -0.1996
 2258SOL    HW118233   3.673   2.116   3.842  0.0881  0.8409  1.1276
 2258SOL    HW218234   3.658   2.050   3.977  0.1657  2.5132 -0.6193
 2259SOL     OW18235   2.233   3.161   1.966  0.7509 -0.1810 -0.3574
 2259SOL    HW118236   2.304   3.224   1.974  0.8878 -0.4099  0.2543
 2259SOL    HW218237   2.153   3.211   1.984  1.4638  0.6673  0.4601
 2260SOL     OW18238   0.135   0.248   4.804  0.1550 -0.0051 -0.0070
 2260SOL    HW118239   0.121   0.259   4.898 -2.3627  1.4735 -0.5440
 2260SOL    HW218240   0.106   0.334   4.773  0.2240 -0.4908 -1.4169
 2261SOL     OW18241   4.460   2.998   2.052  0.0388  0.1594 -0.1922
 2261SOL    HW118242   4.467   2.923   2.111 -0.8760  0.0246 -0.2625
 2261SOL    HW218243   4.488   2.947   1.976  0.4408  1.4681 -0.9212
 2262SOL     OW18244   2.992   0.337   3.715  0.0431  0.7372  0.6396
 2262SOL    HW118245   2.929   0.401   3.681  0.3206  0.0117 -1.2505
 2262SOL    HW218246   3.067   0.395   3.728  0.7198  0.1409 -0.6197
 2263SOL     OW18247   4.497   1.552   0.445  0.9751 -0.3218  0.2805
 2263SOL    HW118248   4.407   1.562   0.413  1.0144 -1.6976 -0.2860
 2263SOL    HW218249   4.512   1.457   0.448  0.2193 -0.5148 -2.3696
 2264SOL     OW18250   0.115   2.792   2.624 -0.1570  0.0311 -0.5730
 2264SOL    HW118251   0.060   2.717   2.649  0.9749 -0.6055  0.0221
 2264SOL    HW218252   0.201   2.753   2.642 -0.5273  0.2274  1.6783
 2265SOL     OW18253   3.350   3.496   6.456 -0.5914  0.4049 -0.1568
 2265SOL    HW118254   3.397   3.555   6.398  0.4346 -1.0920 -0.8463
 2265SOL    HW218255   3.336   3.420   6.399  0.0847  0.2889 -0.1640
 2266SOL     OW18256   1.676   4.464   2.745 -0.0148  0.1126 -0.7345
 2266SOL    HW118257   1.738   4.416   2.800 -0.7185 -0.3426 -0.3445
 2266SOL    HW218258   1.722   4.543   2.716  0.5207  0.2092  0.3609
 2267SOL     OW18259   1.846   2.959   5.884 -0.6877 -0.5778 -0.1414
 2267SOL    HW118260   1.928   3.003   5.908 -0.5710 -1.0935  0.4364
 2267SOL    HW218261   1.876   2.868   5.889 -0.1199 -0.3602  0.4222
 2268SOL     OW18262   2.196   3.841  15.929  0.5591 -0.1344 -0.6587
 2268SOL    HW118263   2.237   3.924  15.954 -1.3346  0.4029  0.6962
 2268SOL    HW218264   2.203   3.846  15.834 -2.6760 -1.0989 -0.9254
 2269SOL     OW18265   3.648   3.490   0.672  0.2140  0.3589 -0.0695
 2269SOL    HW118266   3.591   3.438   0.728 -0.8640 -0.0775 -1.5501
 2269SOL    HW218267   3.736   3.455   0.682  0.5003  0.7415 -1.1437
 2270SOL     OW18268   1.882   0.049   8.065 -0.1946 -0.1850 -0.0774
 2270SOL    HW118269   1.869   4.700   8.125 -0.1851  0.2842  0.4959
 2270SOL    HW218270   1.853   0.120   8.122 -0.4792 -0.5098  0.1801
 2271SOL     OW18271   3.610   2.492   7.729  0.1523  0.0467  0.1031
 2271SOL    HW118272   3.653   2.431   7.789  0.9452 -0.5327 -1.0512
 2271SOL    HW218273   3.683   2.524   7.678 -1.2514 -0.0331 -1.9728
 2272SOL     OW18274   2.030   0.641   2.948  0.9405 -0.0830 -0.1828
 2272SOL    HW118275   1.944   0.622   2.985  0.7297 -0.7128 -0.9658
 2272SOL    HW218276   2.064   0.676   3.030 -1.5829  0.9232  0.4240
 2273SOL     OW18277   0.605   2.904   7.626  0.1141 -0.5301  0.1200
 2273SOL    HW118278   0.664   2.850   7.678 -0.1655 -0.2414  0.7269
 2273SOL    HW218279   0.641   2.992   7.634  0.8301 -0.8763  0.7227
 2274SOL     OW18280   0.701   4.683   3.529 -0.1793 -0.1413 -0.0005
 2274SOL    HW118281   0.661   0.008   3.456  3.6386  1.6796 -0.8942
 2274SOL    HW218282   0.777   0.017   3.538 -0.0007 -0.5504  1.0762
 2275SOL     OW18283   1.408   4.647  10.840 -0.2716  0.2673 -0.2275
 2275SOL    HW118284   1.396   0.015  10.813  1.7978  1.1147  1.7174
 2275SOL    HW218285   1.377   4.608  10.758  1.9758 -1.0293 -0.4422
 2276SOL     OW18286   2.849   2.070   2.519  0.4237 -0.3883 -0.1478
 2276SOL    HW118287   2.936   2.040   2.545  0.4720 -1.4230 -1.4728
 2276SOL    HW218288   2.792   1.997   2.544 -2.7253  2.7156  1.6026
 2277SOL     OW18289   3.880   3.388   8.400 -0.3445  0.0942 -0.4629
 2277SOL    HW118290   3.897   3.482   8.398 -0.4440  0.1793  2.2593
 2277SOL    HW218291   3.843   3.371   8.487 -2.1281  2.9834 -0.6329
 2278SOL     OW18292   4.128   2.563   3.119  0.1045  0.0136  0.3560
 2278SOL    HW118293   4.149   2.498   3.187  0.6149  1.9602  2.0452
 2278SOL    HW218294   4.081   2.625   3.174 -0.4417 -0.5392  0.5182
 2279SOL     OW18295   1.808   2.243   5.621  0.5557 -0.5229  0.0098
 2279SOL    HW118296   1.815   2.279   5.532 -0.3917  2.0268  0.9844
 2279SOL    HW218297   1.871   2.170   5.629 -0.0954 -1.2105 -1.0802
 2280SOL     OW18298   2.130   3.452   4.108  0.0947 -0.0913 -0.2959
 2280SOL    HW118299   2.132   3.382   4.043  0.0692 -0.1895 -0.1926
 2280SOL    HW218300   2.102   3.528   4.058 -2.4286  0.3022  1.7078
 2281SOL     OW18301   3.704   0.456   7.776 -0.5741  0.6149 -0.4747
 2281SOL    HW118302   3.627   0.412   7.813  1.0368 -1.9844 -0.2143
 2281SOL    HW218303   3.705   0.539   7.825  1.0613  0.7860 -0.8103
 2282SOL     OW18304   2.283   2.603   8.628 -0.4841  0.0946 -0.0281
 2282SOL    HW118305   2.194   2.569   8.615 -0.1805  0.8146 -4.0664
 2282SOL    HW218306   2.280   2.672   8.562  0.9381  2.4686  2.4102
 2283SOL     OW18307   2.592   2.772  11.106 -0.5966  0.2435 -0.2594
 2283SOL    HW118308   2.662   2.829  11.139 -1.3082  0.0770  1.5190
 2283SOL    HW218309   2.515   2.806  11.150 -0.8093 -1.3339  0.5888
 2284SOL     OW18310   0.720   3.679   3.159 -0.5612  0.0703 -0.5060
 2284SOL    HW118311   0.800   3.722   3.188 -0.3929 -0.7646  0.2627
 2284SOL    HW218312   0.758   3.601   3.119 -0.1063  0.4625 -0.8326
 2285SOL     OW18313   4.666   0.677   7.234  0.1386 -0.3708 -0.4511
 2285SOL    HW118314   4.573   0.657   7.241  0.0547 -0.1898 -1.0188
 2285SOL    HW218315   4.669   0.771   7.215 -2.6930 -0.3625 -0.7279
 2286SOL     OW18316   1.146   4.601  15.482  0.2302 -0.0818  0.6441
 2286SOL    HW118317   1.190   4.624  15.400 -2.2541 -0.9414 -0.9535
 2286SOL    HW218318   1.216   4.592  15.546  0.7154 -0.8800 -0.0064
 2287SOL     OW18319   2.258   4.032   3.583 -0.3473  0.3208  0.5230
 2287SOL    HW118320   2.268   4.115   3.536 -1.0878  0.0917 -0.0349
 2287SOL    HW218321   2.255   3.971   3.510 -2.2479 -0.9138  1.6186
 2288SOL     OW18322   0.447   1.512   7.615 -0.4555  0.2020 -0.6523
 2288SOL    HW118323   0.454   1.425   7.654 -3.5076 -0.1429 -0.9193
 2288SOL    HW218324   0.537   1.529   7.585 -1.4012  0.5610 -3.2427
 2289SOL     OW18325   3.755   3.116   7.331 -0.0891  0.5555  0.0443
 2289SOL    HW118326   3.714   3.154   7.253 -2.4945 -0.8393  0.6224
 2289SOL    HW218327   3.678   3.077   7.372  0.8409 -2.3805 -1.0411
 2290SOL     OW18328   3.911   4.677   7.925 -0.3738  0.2406 -0.0721
 2290SOL    HW118329   3.967   4.647   7.997 -1.3477 -3.2757 -0.7775
 2290SOL    HW218330   3.951   0.039   7.907  1.7557 -0.8986 -0.7472
 2291SOL     OW18331   1.662   2.271  14.451  0.1858 -0.7247 -0.0403
 2291SOL    HW118332   1.671   2.204  14.384 -2.8742 -2.3790  1.1903
 2291SOL    HW218333   1.568   2.291  14.460 -0.4319 -2.8617 -1.8524
 2292SOL     OW18334   2.158   3.123   3.712  0.2033  0.0066 -0.1346
 2292SOL    HW118335   2.073   3.129   3.669  0.0339  0.4848  0.2624
 2292SOL    HW218336   2.130   3.138   3.802 -1.3111  0.9330 -0.7465
 2293SOL     OW18337   4.478   1.720  12.955 -0.0398 -0.0354 -0.2714
 2293SOL    HW118338   4.513   1.661  13.022  0.4527 -0.1325 -0.6117
 2293SOL    HW218339   4.490   1.805  12.999 -2.6522 -0.0408  0.4500
 2294SOL     OW18340   2.092   1.643   6.283  0.0904 -0.1120 -0.0025
 2294SOL    HW118341   2.078   1.597   6.200  0.3058  0.6798 -0.4756
 2294SOL    HW218342   2.067   1.579   6.349 -3.2054  1.9216  0.7463
 2295SOL     OW18343   2.704   1.927   5.627  0.4355 -0.1946 -0.6441
 2295SOL    HW118344   2.695   2.001   5.687  1.5183 -0.2680 -0.3881
 2295SOL    HW218345   2.675   1.963   5.544  0.2435 -2.2413 -1.4771
 2296SOL     OW18346   3.126   3.555  17.172  0.2091 -0.6487  0.0223
 2296SOL    HW118347   3.173   3.632  17.204 -0.1078  0.3237 -1.8591
 2296SOL    HW218348   3.067   3.541  17.247  2.0035  0.1046  1.5675
 2297SOL     OW18349   1.974   4.285  14.716  0.2291 -0.3232  0.4756
 2297SOL    HW118350   1.922   4.219  14.669  1.3496 -0.7525 -0.1734
 2297SOL    HW218351   1.916   4.327  14.779  0.2749 -1.2534  1.1399
 2298SOL     OW18352   2.025   1.320  11.314 -0.2969 -0.1584  0.1048
 2298SOL    HW118353   2.031   1.392  11.377  2.2468  0.1441 -0.4533
 2298SOL    HW218354   2.040   1.358  11.227 -0.6800 -1.5034 -0.5613
 2299SOL     OW18355   1.932   2.174   8.462 -0.0444 -0.4382 -0.6783
 2299SOL    HW118356   2.011   2.222   8.487 -0.9732  0.3327  0.7708
 2299SOL    HW218357   1.914   2.132   8.546  1.9046 -2.7043 -1.3986
 2300SOL     OW18358   0.952   2.273   7.042  0.1616  0.1745 -0.3612
 2300SOL    HW118359   0.857   2.266   7.032 -0.4255  2.2541  3.6113
 2300SOL    HW218360   0.955   2.327   7.121  0.8426 -0.2053 -0.1234
 2301SOL     OW18361   0.641   1.771   3.700 -0.4545 -0.4568 -0.4802
 2301SOL    HW118362   0.606   1.782   3.789  0.1841 -1.2030 -0.1299
 2301SOL    HW218363   0.656   1.677   3.709  0.2296 -0.4744 -1.8366
 2302SOL     OW18364   1.163   4.414  17.299  0.0431  0.4953  0.1091
 2302SOL    HW118365   1.135   4.326  17.275 -0.3286  0.9681 -1.1625
 2302SOL    HW218366   1.137   4.465  17.222  2.9046  2.0880  0.1858
 2303SOL     OW18367   0.057   3.907   2.598  0.5641 -0.2558  0.5209
 2303SOL    HW118368   4.685   3.903   2.596  0.4972  0.4524  1.8609
 2303SOL    HW218369   0.081   3.995   2.569 -0.7542  0.0599  0.3891
 2304SOL     OW18370   4.517   1.735   7.555  0.0386  0.8924 -0.0308
 2304SOL    HW118371   4.607   1.703   7.541 -0.2563  0.4018 -0.7713
 2304SOL    HW218372   4.495   1.692   7.638  0.4358  0.7849  0.0223
 2305SOL     OW18373   1.587   4.079   5.419  0.3580 -0.6543 -0.2014
 2305SOL    HW118374   1.525   4.011   5.392  0.3898 -0.2765 -1.2204
 2305SOL    HW218375   1.660   4.018   5.403 -1.2311 -2.6698  0.2123
 2306SOL     OW18376   2.091   3.020   5.982 -0.2508 -0.2464  0.5601
 2306SOL    HW118377   2.174   3.066   5.968 -1.0093  1.3139  1.1952
 2306SOL    HW218378   2.119   2.950   6.041  1.4449 -0.4601 -0.4862
 2307SOL     OW18379   3.290   4.083   6.575  0.0322  0.1539 -0.2192
 2307SOL    HW118380   3.303   4.123   6.661 -1.3712  0.7873 -0.2920
 2307SOL    HW218381   3.196   4.077   6.554 -0.0380 -0.1498  0.1893
 2308SOL     OW18382   3.302   0.389   7.132  0.0609 -0.0122  0.1050
 2308SOL    HW118383   3.298   0.387   7.227 -0.2887  0.3468  0.0978
 2308SOL    HW218384   3.275   0.478   7.110  0.0738 -0.5652 -2.1925
 2309SOL     OW18385   2.080   0.514   5.104 -0.3065 -0.0397  0.6218
 2309SOL    HW118386   2.063   0.420   5.114 -3.3075  0.3654 -0.7988
 2309SOL    HW218387   2.003   0.534   5.051  1.3031  2.6418 -0.7038
 2310SOL     OW18388   3.029   3.971  12.351  0.3969 -0.7815 -0.1463
 2310SOL    HW118389   3.034   3.879  12.323 -1.2185 -1.2550  1.1089
 2310SOL    HW218390   3.121   3.994  12.365 -0.3832  2.2072  0.0469
 2311SOL     OW18391   0.645   0.389   3.064 -0.5581  0.3048  0.2533
 2311SOL    HW118392   0.577   0.449   3.033 -0.5445  0.6478  0.8927
 2311SOL    HW218393   0.652   0.406   3.157 -3.4267  1.0530  0.3467
 2312SOL     OW18394   4.658   1.968  16.940  0.2983  0.4451  0.2950
 2312SOL    HW118395   4.703   2.053  16.943  3.5963 -1.2855 -0.6692
 2312SOL    HW218396   4.696   1.930  17.019  1.3420 -0.3628 -0.6058
 2313SOL     OW18397   2.584   4.059   0.468 -0.0836  0.2933  0.2197
 2313SOL    HW118398   2.651   4.082   0.532  1.7744  0.0433 -1.6065
 2313SOL    HW218399   2.612   4.101   0.386  0.7555 -0.0008  0.3551
 2314SOL     OW18400   1.905   2.031  14.393 -0.1645 -0.3933 -0.1697
 2314SOL    HW118401   1.889   1.950  14.442  0.2717 -0.6675 -0.4863
 2314SOL    HW218402   1.877   1.996  14.309  1.0902  0.6033 -0.9838
 2315SOL     OW18403   2.427   2.581   7.737  0.1201 -0.3360  0.4223
 2315SOL    HW118404   2.447   2.558   7.646 -1.6465 -1.7396  0.3759
 2315SOL    HW218405   2.440   2.676   7.737 -0.2682 -0.2838 -0.2645
 2316SOL     OW18406   2.383   2.827  14.561 -0.0654  0.4291 -0.6194
 2316SOL    HW118407   2.385   2.918  14.532  0.3798  0.8792  0.8392
 2316SOL    HW218408   2.454   2.788  14.510  0.8936 -0.4645  1.4107
 2317SOL     OW18409   0.010   1.290   8.710  0.2896  1.0207 -0.6302
 2317SOL    HW118410   4.642   1.268   8.729  0.6952 -1.2220 -1.2224
 2317SOL    HW218411   0.005   1.371   8.660  1.4419  0.6898 -1.2707
 2318SOL     OW18412   1.805   4.723   9.476  0.2046  0.0894 -0.2242
 2318SOL    HW118413   1.789   4.636   9.439  2.3687 -0.5905  0.4181
 2318SOL    HW218414   1.832   4.701   9.565 -0.4203 -0.2834 -0.1281
 2319SOL     OW18415   4.699   0.890   5.977 -0.2755  0.1176  0.0526
 2319SOL    HW118416   4.704   0.980   5.945 -2.7908  1.3939  3.3070
 2319SOL    HW218417   0.047   0.902   6.040 -0.5088 -2.1164  0.7288
 2320SOL     OW18418   0.471   3.080   7.325  0.3394 -0.0028 -0.0265
 2320SOL    HW118419   0.468   3.175   7.335  0.5978 -0.0985  1.0545
 2320SOL    HW218420   0.420   3.063   7.405  0.9175  1.0247  0.5736
 2321SOL     OW18421   3.740   3.866   3.448  0.0475  0.2570  0.4538
 2321SOL    HW118422   3.747   3.903   3.536  0.4505  0.1168  0.4831
 2321SOL    HW218423   3.712   3.778   3.472 -0.2057 -0.0502 -0.9465
 2322SOL     OW18424   2.116   2.634   7.075 -0.3231 -0.5587  0.5232
 2322SOL    HW118425   2.176   2.577   7.028  0.4561 -0.0947  0.9586
 2322SOL    HW218426   2.033   2.626   7.027 -1.0296 -0.1105  1.6569
 2323SOL     OW18427   3.066   3.927   6.791 -0.2973  0.5737  0.1149
 2323SOL    HW118428   2.985   3.915   6.841  1.5642 -1.7231  2.6096
 2323SOL    HW218429   3.043   3.966   6.707  3.3161  0.6581 -0.8246
 2324SOL     OW18430   1.940   4.587   8.812  0.1032 -0.6097  0.3822
 2324SOL    HW118431   1.864   4.536   8.837  1.1633 -2.1950  0.3322
 2324SOL    HW218432   1.950   4.643   8.889 -1.0230  2.7513 -1.8971
 2325SOL     OW18433   4.218   1.620   5.354 -0.8251 -0.0586  0.8862
 2325SOL    HW118434   4.147   1.684   5.360 -1.0086 -0.2582  0.8258
 2325SOL    HW218435   4.284   1.687   5.334 -1.8294 -0.1839 -2.8871
 2326SOL     OW18436   3.795   3.292   5.428 -0.0205  0.1656  0.2512
 2326SOL    HW118437   3.847   3.373   5.433  0.0291  0.2605 -1.6811
 2326SOL    HW218438   3.854   3.238   5.376 -1.1585 -2.6488  1.8949
 2327SOL     OW18439   3.714   1.414   3.039  0.1849  0.3925 -0.2030
 2327SOL    HW118440   3.741   1.344   3.099 -0.0361  1.0068  0.6260
 2327SOL    HW218441   3.705   1.374   2.953 -0.2181 -1.3391  0.6476
 2328SOL     OW18442   2.086   1.752  10.404  0.1317  0.3956  0.2554
 2328SOL    HW118443   2.152   1.820  10.417 -0.3394  0.8027  0.5128
 2328SOL    HW218444   2.005   1.791  10.373 -0.6819  0.5963  2.6799
 2329SOL     OW18445   2.488   4.711  17.222 -0.2705  0.2265 -0.2569
 2329SOL    HW118446   2.553   4.643  17.243  1.0775  1.7441  0.4709
 2329SOL    HW218447   2.490   4.716  17.127 -0.1307  1.9475 -0.1482
 2330SOL     OW18448   2.385   0.066   6.966  0.1397 -0.1235 -0.2951
 2330SOL    HW118449   2.343   0.142   7.005  0.0278 -0.6603  0.6169
 2330SOL    HW218450   2.478   0.090   6.968  0.3041 -0.6805 -1.0363
 2331SOL     OW18451   3.187   4.158   8.267  0.0381  0.2146 -0.0827
 2331SOL    HW118452   3.232   4.089   8.218  0.8551  0.3294  0.5155
 2331SOL    HW218453   3.188   4.239   8.215 -1.0568 -1.0793 -2.1298
 2332SOL     OW18454   2.258   1.450   7.602 -0.3851  0.2251 -0.1729
 2332SOL    HW118455   2.266   1.539   7.570 -2.2339  1.1884  2.0659
 2332SOL    HW218456   2.275   1.459   7.696 -0.7730 -0.0289 -0.0755
 2333SOL     OW18457   3.665   1.983   4.405  0.0505  0.2645 -0.1942
 2333SOL    HW118458   3.638   2.075   4.398 -1.3095 -0.1921 -0.8792
 2333SOL    HW218459   3.696   1.986   4.496  0.4866 -0.8947 -0.3028
 2334SOL     OW18460   0.005   3.875  12.735 -0.2838  0.3416  0.0003
 2334SOL    HW118461   0.018   3.836  12.649 -2.6560 -2.6200  0.9559
 2334SOL    HW218462   0.093   3.903  12.761  0.0893  0.9549 -1.9448
 2335SOL     OW18463   3.296   1.310   6.459 -0.1124  0.2226 -0.1248
 2335SOL    HW118464   3.258   1.374   6.399  0.9497  1.3428  0.3959
 2335SOL    HW218465   3.364   1.271   6.404 -0.1364  2.9252 -2.0689
 2336SOL     OW18466   2.063   4.705  13.978  0.2396  0.0355  0.4157
 2336SOL    HW118467   1.992   4.651  13.943 -1.3795  1.2524  1.8017
 2336SOL    HW218468   2.100   4.634  14.032 -0.1038  0.0683  0.6973
 2337SOL     OW18469   3.891   1.467   8.361 -0.3702 -0.5960 -0.1136
 2337SOL    HW118470   3.871   1.374   8.369  2.4639 -1.1080  0.8644
 2337SOL    HW218471   3.983   1.463   8.336 -0.4436  0.0723 -0.4998
 2338SOL     OW18472   0.777   2.763   3.844 -0.4875 -1.2856 -0.1449
 2338SOL    HW118473   0.856   2.813   3.820 -1.3387  1.5599  2.9370
 2338SOL    HW218474   0.759   2.800   3.930 -0.9241 -1.3269 -0.2199
 2339SOL     OW18475   1.531   2.777   5.640 -0.1574  0.0669  0.7173
 2339SOL    HW118476   1.595   2.845   5.662 -0.0424 -0.3430  1.6817
 2339SOL    HW218477   1.512   2.804   5.550  1.5232  3.8773  1.5158
 2340SOL     OW18478   4.678   4.299   4.052 -0.0643 -0.1725 -0.3277
 2340SOL    HW118479   4.676   4.223   4.110  0.9162 -1.4472 -1.9738
 2340SOL    HW218480   0.045   4.314   4.025 -0.9564  4.0743 -1.0327
 2341SOL     OW18481   0.350   4.532   4.646 -0.4513  0.2206  0.7616
 2341SOL    HW118482   0.322   4.467   4.710 -1.9874 -0.4935 -0.6243
 2341SOL    HW218483   0.299   4.610   4.669 -2.7264 -0.8905 -0.4543
 2342SOL     OW18484   2.494   1.004   2.648 -0.8066 -0.1115  0.6205
 2342SOL    HW118485   2.446   1.086   2.663 -1.0746 -0.1517 -0.0235
 2342SOL    HW218486   2.425   0.941   2.625 -2.0950  1.7589 -0.6015
 2343SOL     OW18487   0.423   2.366   9.888 -0.1294  1.1108 -0.7622
 2343SOL    HW118488   0.460   2.320   9.812 -1.8771 -0.0377 -0.8900
 2343SOL    HW218489   0.494   2.423   9.919  1.3759 -0.6707 -0.9135
 2344SOL     OW18490   3.025   3.244   2.488 -0.0540 -0.9073  0.0703
 2344SOL    HW118491   2.979   3.312   2.439 -0.0619 -1.8991 -1.2916
 2344SOL    HW218492   2.970   3.170   2.463 -0.5845 -0.4841 -0.0189
 2345SOL     OW18493   1.600   3.468  13.990  0.0925  0.2245  0.0762
 2345SOL    HW118494   1.542   3.440  13.919 -2.0861  0.5443  1.7039
 2345SOL    HW218495   1.643   3.535  13.937  1.4445 -0.7216 -0.0107
 2346SOL     OW18496   3.433   4.557  16.143 -0.2194  0.0782  0.0225
 2346SOL    HW118497   3.514   4.510  16.163 -0.8004 -1.2962 -0.8710
 2346SOL    HW218498   3.384   4.558  16.225 -2.6216  1.0473 -1.3975
 2347SOL     OW18499   1.157   1.099   2.575 -0.7862 -0.1335  0.8581
 2347SOL    HW118500   1.162   1.026   2.637 -1.2029 -0.8953  0.0005
 2347SOL    HW218501   1.161   1.047   2.495 -0.4065  2.2179 -0.6549
 2348SOL     OW18502   4.254   4.638   8.713 -0.1542 -0.0422  0.1037
 2348SOL    HW118503   4.318   4.611   8.648  1.2283 -1.3856  2.0369
 2348SOL    HW218504   4.303   4.672   8.787 -0.4206  1.3819 -0.3767
 2349SOL     OW18505   2.075   4.429   4.256  0.9875 -0.0865  0.0232
 2349SOL    HW118506   2.068   4.431   4.351  0.9537 -1.0148  0.0373
 2349SOL    HW218507   2.107   4.518   4.242  2.4705 -0.8432 -1.3857
 2350SOL     OW18508   0.766   0.999   4.999  0.5060  0.8800 -0.9246
 2350SOL    HW118509   0.757   1.078   5.052  1.2584  1.0788 -1.0869
 2350SOL    HW218510   0.858   1.008   4.972  0.5448 -1.0410 -1.4761
 2351SOL     OW18511   1.509   1.412  12.766  0.0487  0.7379 -0.0568
 2351SOL    HW118512   1.431   1.366  12.735 -0.7152  2.2351 -0.3867
 2351SOL    HW218513   1.470   1.498  12.785  1.1148  1.8833 -2.9645
 2352SOL     OW18514   1.993   4.094   3.344 -0.3326  0.1911  0.5289
 2352SOL    HW118515   1.909   4.050   3.357 -0.2743  0.0615  0.4789
 2352SOL    HW218516   1.982   4.136   3.259 -1.6521 -3.7627 -1.2721
 2353SOL     OW18517   0.564   0.095   3.316 -0.7542 -0.1390 -0.1030
 2353SOL    HW118518   0.590   0.128   3.230 -1.1417  0.4419  0.0064
 2353SOL    HW218519   0.487   0.043   3.293 -1.1582  0.0469  0.8290
 2354SOL     OW18520   3.591   2.941   4.475  0.2904  0.1424  0.5760
 2354SOL    HW118521   3.582   2.946   4.379 -0.3704 -2.3797  0.5123
 2354SOL    HW218522   3.498   2.930   4.494  0.6499 -1.5969  1.3752
 2355SOL     OW18523   3.561   2.974  15.648 -0.8720 -0.5364  0.0609
 2355SOL    HW118524   3.629   2.933  15.595  0.0383  2.0475 -0.7446
 2355SOL    HW218525   3.510   3.021  15.582  1.2363 -0.2499 -1.3487
 2356SOL     OW18526   4.715   1.067   3.886 -0.0908 -0.5785  0.3849
 2356SOL    HW118527   4.636   1.055   3.833  1.4036  0.2870 -2.0729
 2356SOL    HW218528   4.712   1.001   3.955 -2.5059 -1.0617 -0.1946
 2357SOL     OW18529   0.581   0.975  15.559  0.0913 -0.0201  0.3857
 2357SOL    HW118530   0.674   0.974  15.537 -0.4991  0.4924 -2.1369
 2357SOL    HW218531   0.566   1.055  15.609  0.8547  2.2306 -2.9693
 2358SOL     OW18532   4.390   3.648   6.656  0.3453 -0.4458 -0.1488
 2358SOL    HW118533   4.344   3.564   6.656 -0.6187  0.0793  0.3066
 2358SOL    HW218534   4.348   3.683   6.735  1.0387 -0.9235  0.4342
 2359SOL     OW18535   1.989   3.613  14.726 -0.4307 -0.1106 -0.1653
 2359SOL    HW118536   1.973   3.529  14.767 -0.7003 -0.6845 -1.4448
 2359SOL    HW218537   2.027   3.673  14.791  1.3558 -2.8214  1.2790
 2360SOL     OW18538   4.027   3.985   7.239 -0.3067  0.3514  0.5440
 2360SOL    HW118539   3.989   4.022   7.159 -0.2328 -0.8383 -0.0464
 2360SOL    HW218540   3.983   4.034   7.308 -0.5183  2.0356 -0.7990
 2361SOL     OW18541   2.358   3.071   2.757  0.1425 -0.3244 -0.1127
 2361SOL    HW118542   2.268   3.050   2.730  0.1183  0.0557 -0.3305
 2361SOL    HW218543   2.359   3.022   2.840 -1.8834  0.2581  0.2749
 2362SOL     OW18544   2.430   4.225   6.652 -0.8011  0.3046 -0.1707
 2362SOL    HW118545   2.377   4.164   6.703 -0.4619 -0.4169 -0.6864
 2362SOL    HW218546   2.441   4.176   6.571  0.7628 -0.6492  0.6182
 2363SOL     OW18547   1.001   0.881   2.927  0.5107  0.3535 -0.2949
 2363SOL    HW118548   1.020   0.900   3.019 -0.0253  2.1103 -0.5341
 2363SOL    HW218549   0.908   0.864   2.921  0.2522  1.0973  1.4867
 2364SOL     OW18550   2.282   2.723   8.385  0.5134 -0.4387  0.3345
 2364SOL    HW118551   2.340   2.703   8.312 -0.7222 -1.3526 -0.3902
 2364SOL    HW218552   2.310   2.812   8.407  0.5285 -0.5324  0.7046
 2365SOL     OW18553   4.341   0.665   6.143  0.0492 -0.0678 -0.8502
 2365SOL    HW118554   4.386   0.747   6.125  0.0726  0.3999  1.3386
 2365SOL    HW218555   4.380   0.650   6.230 -0.4601 -2.2788 -1.0043
 2366SOL     OW18556   2.440   3.552   3.115 -0.0146  0.0116 -0.1343
 2366SOL    HW118557   2.377   3.565   3.186 -0.7326  2.2804 -1.1870
 2366SOL    HW218558   2.413   3.465   3.085  0.4933 -0.4115  0.6135
 2367SOL     OW18559   0.628   3.907   5.482 -0.0776  0.1074 -0.3070
 2367SOL    HW118560   0.612   3.885   5.574 -1.7508  1.9722 -0.1390
 2367SOL    HW218561   0.669   3.992   5.494  2.2937 -1.5186  2.8910
 2368SOL     OW18562   3.850   0.502   1.980 -0.0757 -0.1646  0.5246
 2368SOL    HW118563   3.843   0.569   2.048  1.6484 -1.0930  1.6111
 2368SOL    HW218564   3.935   0.523   1.943 -1.4933  0.2947 -2.5014
 2369SOL     OW18565   2.541   1.494   7.542  0.2748  0.3466 -0.0328
 2369SOL    HW118566   2.447   1.498   7.523  0.2628  2.0611  0.3988
 2369SOL    HW218567   2.547   1.577   7.590 -0.9337 -0.0479  0.7674
 2370SOL     OW18568   2.469   1.812   0.892  0.1981  0.8629  0.5220
 2370SOL    HW118569   2.461   1.721   0.864  1.6535  0.7502  0.4474
 2370SOL    HW218570   2.386   1.836   0.932  1.4503  1.2472  2.9373
 2371SOL     OW18571   1.071   1.152   5.914 -0.0035 -0.2710 -0.3205
 2371SOL    HW118572   1.100   1.215   5.848  0.7227 -0.4622 -0.1796
 2371SOL    HW218573   1.000   1.107   5.868 -1.1108  0.1148  1.0040
 2372SOL     OW18574   3.293   4.539  16.415  0.1769  0.2581 -0.1743
 2372SOL    HW118575   3.217   4.539  16.473  0.6875 -1.1949  0.5034
 2372SOL    HW218576   3.359   4.500  16.472  0.6900  2.2205  0.5658
 2373SOL     OW18577   3.942   1.878  16.407 -0.0364  0.6517  0.4274
 2373SOL    HW118578   4.001   1.942  16.447  1.1634 -0.0161 -0.2695
 2373SOL    HW218579   3.872   1.908  16.466 -1.1935 -0.6282 -0.3092
 2374SOL     OW18580   3.257   4.345   5.792 -0.4046  0.0528 -0.1893
 2374SOL    HW118581   3.252   4.440   5.802 -1.9186  0.0044 -0.6157
 2374SOL    HW218582   3.171   4.335   5.831  0.3938 -0.0222  1.5423
 2375SOL     OW18583   2.103   2.291   5.407  0.3377 -0.2970  0.2944
 2375SOL    HW118584   2.109   2.197   5.393 -1.3839 -0.3516 -0.1722
 2375SOL    HW218585   2.145   2.326   5.328  0.7004 -0.2003  0.5354
 2376SOL     OW18586   4.213   2.142   3.478  0.3096 -0.5115  0.0557
 2376SOL    HW118587   4.272   2.105   3.412  0.8925 -0.1432  0.3750
 2376SOL    HW218588   4.152   2.073   3.504  0.0284 -0.1781  0.2738
 2377SOL     OW18589   3.185   2.091   1.896  0.8919 -0.0723  0.2085
 2377SOL    HW118590   3.194   2.014   1.840 -3.0994 -1.4804  1.4956
 2377SOL    HW218591   3.276   2.106   1.922  0.1207  1.1873  2.2118
 2378SOL     OW18592   0.069   2.061  13.451 -0.0118 -0.0355  0.1990
 2378SOL    HW118593   0.063   1.994  13.383  1.6416 -1.8299  1.8067
 2378SOL    HW218594   0.148   2.042  13.502 -0.7013  2.5221  2.2488
 2379SOL     OW18595   1.248   4.196   2.941 -0.1452  0.0456  0.0563
 2379SOL    HW118596   1.325   4.248   2.918 -0.4038  0.7964  0.8600
 2379SOL    HW218597   1.224   4.227   3.028  0.5225 -0.6672  0.5068
 2380SOL     OW18598   0.006   3.228   4.172 -0.6973  0.2411  0.0791
 2380SOL    HW118599   0.059   3.251   4.095 -1.9632  3.9001  0.3003
 2380SOL    HW218600   4.646   3.217   4.127 -1.0207 -0.9357  0.9584
 2381SOL     OW18601   1.682   0.171   5.160 -0.3512 -0.2474  0.2179
 2381SOL    HW118602   1.714   0.140   5.245  1.1591  1.7213  0.3546
 2381SOL    HW218603   1.590   0.193   5.174 -0.4712 -0.1796 -0.6497
 2382SOL     OW18604   0.839   4.299   4.947  0.6118 -0.0781  0.0711
 2382SOL    HW118605   0.798   4.323   4.864 -0.0380 -1.2638  0.0485
 2382SOL    HW218606   0.836   4.203   4.951  0.3375 -0.1955 -2.7467
 2383SOL     OW18607   2.638   4.334  15.607 -0.2111  0.2230  0.0826
 2383SOL    HW118608   2.631   4.270  15.536  0.9562 -1.6509  1.6666
 2383SOL    HW218609   2.589   4.406  15.568 -0.5052 -0.2780 -0.4778
 2384SOL     OW18610   1.834   3.122  15.400  0.3601  0.1689 -0.3662
 2384SOL    HW118611   1.777   3.198  15.415 -0.3998 -0.7001  1.1803
 2384SOL    HW218612   1.785   3.049  15.439 -1.5149  0.7273 -1.6888
 2385SOL     OW18613   0.920   4.545  16.888 -0.2862 -0.4528  0.3116
 2385SOL    HW118614   0.976   4.622  16.896  1.7246 -1.7574 -1.1880
 2385SOL    HW218615   0.980   4.479  16.852 -0.7742 -0.1444 -1.1048
 2386SOL     OW18616   1.634   1.051   2.601  0.5401 -0.3796  0.5860
 2386SOL    HW118617   1.623   1.072   2.694 -0.7414 -2.1524  0.8480
 2386SOL    HW218618   1.548   1.050   2.558  0.2396  0.3432  1.1740
 2387SOL     OW18619   3.649   1.591   6.510  0.4260 -0.2076 -0.4713
 2387SOL    HW118620   3.558   1.590   6.542  0.8304  0.6635  0.7135
 2387SOL    HW218621   3.693   1.615   6.592 -1.3082 -1.9277  0.9791
 2388SOL     OW18622   2.870   4.403   6.244 -0.2220  0.5969 -0.2099
 2388SOL    HW118623   2.953   4.412   6.197  0.3463  0.1213  0.7046
 2388SOL    HW218624   2.843   4.495   6.241 -0.1290  0.6388  0.2723
 2389SOL     OW18625   3.120   0.956  16.635  0.0441  0.2870  0.0290
 2389SOL    HW118626   3.161   0.876  16.600  1.0274  0.5143  0.6479
 2389SOL    HW218627   3.150   1.018  16.569 -0.2471 -0.8511 -1.1794
 2390SOL     OW18628   0.476   2.669   4.992 -0.3023  0.3700 -0.2053
 2390SOL    HW118629   0.458   2.666   4.898 -0.4475  2.0199 -0.2209
 2390SOL    HW218630   0.527   2.750   4.994 -0.6212  0.5662 -0.1651
 2391SOL     OW18631   1.917   4.511  14.357 -0.2069  0.2279  0.5994
 2391SOL    HW118632   1.985   4.476  14.414 -1.0913  0.8358  2.0251
 2391SOL    HW218633   1.964   4.499  14.274 -0.5098  1.5891  0.2365
 2392SOL     OW18634   2.202   1.935  14.312  0.0225  0.1083 -0.3279
 2392SOL    HW118635   2.133   1.945  14.378  0.1282 -2.3944  0.1557
 2392SOL    HW218636   2.137   1.950  14.243  1.2420 -0.0123 -1.4983
 2393SOL     OW18637   4.467   4.170   3.909 -0.0415 -0.1227  0.2318
 2393SOL    HW118638   4.401   4.193   3.974  1.4267  0.9334  1.3544
 2393SOL    HW218639   4.540   4.217   3.949 -0.5514  1.0648 -0.2313
 2394SOL     OW18640   1.129   3.242   2.483 -0.3154  0.2619 -0.0917
 2394SOL    HW118641   1.210   3.239   2.432 -0.4738  0.0527 -0.3370
 2394SOL    HW218642   1.151   3.305   2.551 -1.1736  2.8038 -2.1518
 2395SOL     OW18643   3.199   3.925   0.774 -0.9547 -0.8687 -0.0842
 2395SOL    HW118644   3.112   3.889   0.792 -1.4398  0.6966  0.7125
 2395SOL    HW218645   3.207   3.982   0.850  0.2213 -1.7533  0.4465
 2396SOL     OW18646   2.135   0.988  10.703  0.0598 -0.6785  0.1873
 2396SOL    HW118647   2.107   1.045  10.632 -1.6382 -2.2457 -0.3773
 2396SOL    HW218648   2.112   0.904  10.666  0.1344 -0.3125 -0.6859
 2397SOL     OW18649   4.722   1.141   6.182  0.2583  0.2322  0.0954
 2397SOL    HW118650   0.071   1.148   6.120  2.7989  0.7370  3.1625
 2397SOL    HW218651   4.654   1.184   6.130  1.0828  1.6419  0.1849
 2398SOL     OW18652   0.382   1.853   9.603  0.3348  0.4683  0.2094
 2398SOL    HW118653   0.369   1.825   9.693  3.0203 -1.7342 -0.0883
 2398SOL    HW218654   0.288   1.864   9.586  0.6744 -0.0205 -2.0336
 2399SOL     OW18655   0.884   3.775   5.592 -0.4133 -0.3134  0.3689
 2399SOL    HW118656   0.805   3.825   5.571  0.1603  0.5393  0.2510
 2399SOL    HW218657   0.841   3.699   5.632  1.7201 -1.6237  0.1520
 2400SOL     OW18658   3.163   0.186   2.469  0.2433 -0.5039 -0.0661
 2400SOL    HW118659   3.256   0.167   2.461  0.9095  2.1999  1.0571
 2400SOL    HW218660   3.123   0.100   2.475 -1.3789  0.2577  0.1853
 2401SOL     OW18661   3.817   2.757  14.309 -0.6408  0.2537 -0.4407
 2401SOL    HW118662   3.793   2.744  14.217  0.3520 -0.3540 -0.6093
 2401SOL    HW218663   3.796   2.667  14.335  1.3585 -0.7451 -2.3153
 2402SOL     OW18664   1.231   0.849   4.220  0.1839 -0.2236 -0.1687
 2402SOL    HW118665   1.167   0.886   4.159 -1.5675  0.8102  2.2699
 2402SOL    HW218666   1.183   0.822   4.298  1.5440  0.0393  0.7517
 2403SOL     OW18667   0.423   0.991   8.945  0.0238  0.7649  0.2359
 2403SOL    HW118668   0.390   0.930   8.879  2.8372 -0.2132 -0.2420
 2403SOL    HW218669   0.346   1.042   8.971 -1.2815 -0.2290 -1.6752
 2404SOL     OW18670   0.177   2.706   5.771 -0.7734  0.1059 -0.2768
 2404SOL    HW118671   0.147   2.620   5.744 -1.9626 -0.3970  2.6449
 2404SOL    HW218672   0.273   2.697   5.770 -0.8695 -1.0412  1.1945
 2405SOL     OW18673   4.604   3.714  10.815  0.2256  0.1443 -0.1245
 2405SOL    HW118674   4.642   3.636  10.855  2.0466  0.7210 -0.7306
 2405SOL    HW218675   4.532   3.728  10.876 -1.5172  1.8467 -2.5943
 2406SOL     OW18676   3.138   3.620   6.557  0.4296  0.3475 -0.5393
 2406SOL    HW118677   3.183   3.688   6.607 -0.8072  0.0257  1.0108
 2406SOL    HW218678   3.203   3.553   6.537  0.5818  0.3994 -0.2036
 2407SOL     OW18679   1.718   1.087   4.764 -0.3181 -0.9581 -0.5123
 2407SOL    HW118680   1.727   1.168   4.714  0.9763 -1.2102 -0.6798
 2407SOL    HW218681   1.676   1.107   4.848 -1.8465 -1.3984 -1.1743
 2408SOL     OW18682   1.712   1.595   7.559  0.3235  0.6857 -0.0321
 2408SOL    HW118683   1.645   1.591   7.490  0.1672  2.4940 -0.0042
 2408SOL    HW218684   1.786   1.586   7.499  1.4504  2.4694  1.1006
 2409SOL     OW18685   0.124   4.377   7.212  0.3795 -0.3732 -0.2129
 2409SOL    HW118686   0.028   4.376   7.215  0.3867  0.5795  0.4072
 2409SOL    HW218687   0.140   4.292   7.173 -1.0772 -1.0407  0.6281
 2410SOL     OW18688   0.140   1.681   2.470  0.4356  0.0877 -0.3013
 2410SOL    HW118689   0.056   1.671   2.425  0.5810 -2.1241 -0.0821
 2410SOL    HW218690   0.129   1.603   2.525  3.0361  0.5182  0.8069
 2411SOL     OW18691   0.865   4.558   7.894 -0.7563 -0.4381 -0.0406
 2411SOL    HW118692   0.805   4.606   7.838 -2.0400 -1.3116  0.5779
 2411SOL    HW218693   0.894   4.483   7.842  0.7370  0.1865 -0.1256
 2412SOL     OW18694   3.357   3.262   3.423  0.2557 -0.6891 -0.1013
 2412SOL    HW118695   3.330   3.352   3.404  2.3254 -0.1969 -0.6362
 2412SOL    HW218696   3.291   3.239   3.489  1.2406 -3.9095 -0.2350
 2413SOL     OW18697   4.094   0.063   2.116  0.2607 -0.3520 -0.1664
 2413SOL    HW118698   4.041   0.131   2.158  0.3250 -0.0479 -0.5766
 2413SOL    HW218699   4.036   0.015   2.056 -0.4968  0.7542 -0.3119
 2414SOL     OW18700   0.553   3.172   9.539 -0.5287 -0.2443  0.4284
 2414SOL    HW118701   0.575   3.122   9.618 -2.9692 -2.8330 -0.5197
 2414SOL    HW218702   0.481   3.217   9.584 -2.1488  0.3875 -2.7770
 2415SOL     OW18703   2.131   1.509   3.499 -0.3372 -0.5070  0.1211
 2415SOL    HW118704   2.216   1.539   3.531 -0.1615 -0.9280  0.0393
 2415SOL    HW218705   2.125   1.421   3.535 -0.6521 -0.2215  0.7560
 2416SOL     OW18706   0.497   2.967  10.553  0.3184 -0.3586 -0.0801
 2416SOL    HW118707   0.541   3.026  10.614  1.9124 -0.5192 -1.0974
 2416SOL    HW218708   0.571   2.913  10.526 -1.3774 -2.7426 -0.0642
 2417SOL     OW18709   0.047   3.725   5.227  0.6530  0.1378  0.5585
 2417SOL    HW118710   0.023   3.817   5.236  1.4535  0.5159 -1.2798
 2417SOL    HW218711   0.033   3.705   5.135 -1.3366 -0.5881  1.0214
 2418SOL     OW18712   4.454   2.046   2.190  0.3988 -0.0441 -0.0460
 2418SOL    HW118713   4.363   2.022   2.171  0.0411  1.1363  0.1691
 2418SOL    HW218714   4.503   1.980   2.141  0.5093  2.0058 -2.7286
 2419SOL     OW18715   3.046   3.208   4.030 -0.6442 -0.2838 -0.2727
 2419SOL    HW118716   2.979   3.196   4.098  1.0104 -1.5756  1.1387
 2419SOL    HW218717   3.002   3.265   3.967  3.7118  1.2736 -1.9459
 2420SOL     OW18718   0.624   3.267   9.292 -0.3397  0.2829 -0.0230
 2420SOL    HW118719   0.716   3.264   9.320  0.2080 -0.6618 -1.9194
 2420SOL    HW218720   0.589   3.231   9.374  1.3270  0.7780  0.9086
 2421SOL     OW18721   4.058   0.622   1.722  0.4131 -0.3051 -0.1840
 2421SOL    HW118722   4.017   0.584   1.644  0.0950 -1.6472  0.6370
 2421SOL    HW218723   4.025   0.711   1.733 -0.8006 -0.6674 -0.8125
 2422SOL     OW18724   2.830   4.624   3.722 -0.0771 -0.5059 -0.2714
 2422SOL    HW118725   2.918   4.602   3.751 -0.6220 -1.1334  0.9035
 2422SOL    HW218726   2.831   4.580   3.636 -1.3406  0.1792 -0.6410
 2423SOL     OW18727   2.974   3.726   5.860 -0.0248 -0.0491 -0.2571
 2423SOL    HW118728   2.925   3.645   5.876  1.2231 -0.2814  2.3044
 2423SOL    HW218729   2.956   3.741   5.767  0.3584  1.0432 -0.1511
 2424SOL     OW18730   4.548   1.803  15.674  0.2379 -0.4427 -0.3276
 2424SOL    HW118731   4.484   1.870  15.653  0.9128  1.1175  2.5842
 2424SOL    HW218732   4.531   1.784  15.767 -2.1109 -0.3815 -0.7563
 2425SOL     OW18733   0.913   0.246   5.697  0.1719 -0.9823 -0.3432
 2425SOL    HW118734   0.991   0.290   5.661  0.4540 -0.9671  0.2960
 2425SOL    HW218735   0.925   0.247   5.792  1.9109 -1.2935 -0.5608
 2426SOL     OW18736   0.644   0.772   6.169 -0.2153 -0.3249  0.5637
 2426SOL    HW118737   0.732   0.733   6.165  0.1964  0.4166  2.3012
 2426SOL    HW218738   0.662   0.857   6.129 -1.7810  0.2130  1.0238
 2427SOL     OW18739   1.429   0.266   5.242  0.5448  0.1632  1.1096
 2427SOL    HW118740   1.379   0.214   5.305 -1.4935  0.2379 -0.4250
 2427SOL    HW218741   1.450   0.336   5.304  2.0639 -1.8455  2.8613
 2428SOL     OW18742   3.211   2.058   8.273  0.6768 -0.0256 -0.6415
 2428SOL    HW118743   3.222   2.142   8.317  1.0580 -1.8612  2.7609
 2428SOL    HW218744   3.287   2.068   8.216  1.6145  1.0188  0.7998
 2429SOL     OW18745   1.770   1.450   8.105 -0.1606  0.3883  0.3246
 2429SOL    HW118746   1.688   1.402   8.094  0.3811 -1.0841  2.5754
 2429SOL    HW218747   1.741   1.533   8.142 -1.8238  0.0976 -0.3143
 2430SOL     OW18748   0.639   1.778   8.081  0.2960  0.0391 -0.1049
 2430SOL    HW118749   0.695   1.735   8.146 -0.6547 -1.4472 -0.2776
 2430SOL    HW218750   0.565   1.806   8.135  0.6440 -1.2110  1.0325
 2431SOL     OW18751   1.702   1.667  12.735 -0.0801  0.0834 -0.9297
 2431SOL    HW118752   1.607   1.679  12.741  0.0464  1.3631 -1.3963
 2431SOL    HW218753   1.713   1.581  12.775  0.3422  0.7960  0.4944
 2432SOL     OW18754   4.532   1.414   3.290  0.2611  0.5878  0.0506
 2432SOL    HW118755   4.564   1.439   3.203 -0.1778  0.6230 -0.1008
 2432SOL    HW218756   4.600   1.359   3.330 -0.7442 -1.5080 -1.1050
 2433SOL     OW18757   2.986   4.213   3.097  0.4144 -0.6300 -0.0005
 2433SOL    HW118758   2.944   4.159   3.164 -0.3316 -0.3129 -0.2131
 2433SOL    HW218759   2.945   4.296   3.121  2.9847 -0.1376  2.7015
 2434SOL     OW18760   1.686   4.032   0.340  0.1102  0.3373  0.2746
 2434SOL    HW118761   1.744   4.048   0.266 -0.9474 -0.0561 -0.6360
 2434SOL    HW218762   1.612   4.001   0.288  1.2228  0.3087 -1.2653
 2435SOL     OW18763   2.588   2.935  12.927 -0.1308  0.1788  0.1581
 2435SOL    HW118764   2.577   2.840  12.938  0.8358 -0.0351 -0.8153
 2435SOL    HW218765   2.645   2.954  13.001  0.8880 -0.2782 -0.5126
 2436SOL     OW18766   0.615   2.474   4.276  0.3873 -0.0472  0.0791
 2436SOL    HW118767   0.617   2.570   4.275 -0.1659 -0.0336  0.6811
 2436SOL    HW218768   0.546   2.448   4.336  1.2725 -0.5410  0.8775
 2437SOL     OW18769   0.729   1.635   4.070 -0.1728  0.6237  0.4100
 2437SOL    HW118770   0.641   1.620   4.037  0.6230  0.4977 -1.6648
 2437SOL    HW218771   0.776   1.630   3.987 -1.3055  1.4062 -0.2679
 2438SOL     OW18772   3.888   2.140   4.164  0.3097  0.5375 -0.0977
 2438SOL    HW118773   3.810   2.086   4.162  0.4464  0.3400 -0.1075
 2438SOL    HW218774   3.867   2.207   4.098  2.0227  2.8232  1.6514
 2439SOL     OW18775   0.798   0.305  16.340 -0.1604  0.0555 -0.0667
 2439SOL    HW118776   0.742   0.380  16.360  0.1301  0.3478 -0.3681
 2439SOL    HW218777   0.848   0.303  16.421 -1.8610 -1.8755  0.9647
 2440SOL     OW18778   0.572   2.772  13.584  0.3781 -0.0983 -0.4748
 2440SOL    HW118779   0.500   2.714  13.609  0.7282 -0.9252 -1.3995
 2440SOL    HW218780   0.639   2.761  13.651  2.6801  3.3371 -2.1981
 2441SOL     OW18781   0.904   1.007   1.862  0.2807  0.3818 -0.2257
 2441SOL    HW118782   0.814   0.998   1.894 -0.5851 -2.4985 -3.4128
 2441SOL    HW218783   0.953   1.022   1.942  0.2413 -1.8667  0.2187
 2442SOL     OW18784   0.757   0.697   8.869 -0.0184  0.2746  0.6097
 2442SOL    HW118785   0.727   0.771   8.921  1.0242  1.3383 -0.3115
 2442SOL    HW218786   0.696   0.630   8.901 -0.6096  0.4866 -0.0705
 2443SOL     OW18787   0.753   4.506   2.252  0.4093  0.2226 -0.0583
 2443SOL    HW118788   0.838   4.548   2.247 -0.3931  2.1268  1.9718
 2443SOL    HW218789   0.779   4.417   2.227 -1.5041  0.0705 -1.5259
 2444SOL     OW18790   0.898   2.041   8.103 -0.2909  0.1406  0.5884
 2444SOL    HW118791   0.862   1.995   8.028 -1.2082  1.5697  0.1442
 2444SOL    HW218792   0.981   1.995   8.101 -0.6128 -0.4507  0.7768
 2445SOL     OW18793   0.321   3.143  14.487 -0.5722  0.5637  0.4716
 2445SOL    HW118794   0.258   3.209  14.516 -0.4625  0.5350  0.7721
 2445SOL    HW218795   0.266   3.094  14.426 -1.8547  1.4856  0.8893
 2446SOL     OW18796   2.002   3.750  16.108  0.0666 -0.1403  0.0055
 2446SOL    HW118797   2.070   3.770  16.043  0.2008 -0.3695  0.0750
 2446SOL    HW218798   1.938   3.774  16.041 -0.8444 -0.0799  0.8950
 2447SOL     OW18799   2.210   0.179  10.776  0.1010  0.5841 -0.0579
 2447SOL    HW118800   2.285   0.173  10.835 -0.1140 -0.0569  0.1514
 2447SOL    HW218801   2.200   0.274  10.771  0.4885  0.6756  0.7734
 2448SOL     OW18802   3.508   4.343   5.902 -0.4410  0.0429 -0.6811
 2448SOL    HW118803   3.525   4.267   5.957 -0.1223 -0.0086 -0.8496
 2448SOL    HW218804   3.432   4.306   5.856  0.3197 -4.0558  1.3663
 2449SOL     OW18805   1.254   3.962   7.334 -0.4508  0.2791  0.1965
 2449SOL    HW118806   1.228   3.974   7.425 -0.1981 -1.6472  0.5216
 2449SOL    HW218807   1.171   3.967   7.286  0.3436 -0.4586 -1.2492
 2450SOL     OW18808   0.590   3.625   1.404 -0.1760 -0.4276  0.2204
 2450SOL    HW118809   0.534   3.629   1.327  1.0045  0.3630 -0.5920
 2450SOL    HW218810   0.531   3.656   1.472  1.4020  2.0571  0.4922
 2451SOL     OW18811   3.852   3.756   5.565  0.7059 -0.8930  0.0589
 2451SOL    HW118812   3.809   3.831   5.523  2.9856  0.8825  0.8529
 2451SOL    HW218813   3.774   3.709   5.591 -0.4073  0.7510 -0.2953
 2452SOL     OW18814   0.250   1.371   1.780  0.0523 -0.8824 -0.3332
 2452SOL    HW118815   0.289   1.284   1.775  1.4288 -0.3004  0.3139
 2452SOL    HW218816   0.318   1.424   1.821 -1.0176 -0.0179  0.3324
 2453SOL     OW18817   0.091   3.274   8.129 -0.0835 -0.3163 -0.1749
 2453SOL    HW118818   0.086   3.312   8.216 -0.9065 -0.9642  0.0554
 2453SOL    HW218819   0.070   3.184   8.150  0.4338 -0.5803 -0.7728
 2454SOL     OW18820   1.073   2.332  17.288  0.5083  0.0983 -0.0559
 2454SOL    HW118821   1.030   2.329  17.373  0.3562 -1.2594 -0.1815
 2454SOL    HW218822   1.086   2.238  17.271  0.1873  0.6107 -3.0377
 2455SOL     OW18823   3.454   1.809   0.260  0.7168 -0.3448  0.1108
 2455SOL    HW118824   3.433   1.795   0.167  3.1774 -0.4235 -0.4267
 2455SOL    HW218825   3.387   1.872   0.285 -1.9603 -2.6494 -1.2797
 2456SOL     OW18826   1.437   0.995   4.320 -0.2663 -0.4336  0.5261
 2456SOL    HW118827   1.455   1.078   4.276  0.1764  0.0359  1.5798
 2456SOL    HW218828   1.372   0.958   4.261 -0.5438 -0.1046  0.6264
 2457SOL     OW18829   4.360   1.635   2.137  0.2794 -0.4583  0.2661
 2457SOL    HW118830   4.302   1.688   2.191  0.8357  2.2290 -1.7645
 2457SOL    HW218831   4.309   1.555   2.130 -0.8400  0.2508  0.2468
 2458SOL     OW18832   0.929   0.933   4.683  0.1757 -0.0028 -0.2611
 2458SOL    HW118833   0.960   1.023   4.673  0.5444 -0.0021  0.9234
 2458SOL    HW218834   0.870   0.939   4.758  1.8379  0.1578  1.0167
 2459SOL     OW18835   4.418   3.137  16.882  0.0769  0.3926  0.1296
 2459SOL    HW118836   4.418   3.230  16.904  2.6753  0.6170 -0.7732
 2459SOL    HW218837   4.478   3.139  16.807 -1.1773 -1.4589 -0.9185
 2460SOL     OW18838   1.472   2.465   5.411  0.5358 -0.0680 -0.3483
 2460SOL    HW118839   1.493   2.470   5.504 -0.7025  1.4234 -0.1416
 2460SOL    HW218840   1.494   2.554   5.383 -0.6847  0.4510  0.3571
 2461SOL     OW18841   1.519   2.047   6.470  0.0657  0.0481  0.2965
 2461SOL    HW118842   1.582   1.977   6.484 -0.4536 -0.4014  0.3701
 2461SOL    HW218843   1.582   2.110   6.436  0.7657 -0.4403  0.7011
 2462SOL     OW18844   3.064   0.141   1.139  0.1981 -0.5403  0.7376
 2462SOL    HW118845   3.085   0.225   1.097 -1.6669 -0.5011 -0.1188
 2462SOL    HW218846   3.013   0.171   1.214  0.1456 -0.7296  0.7775
 2463SOL     OW18847   0.619   3.905  11.172 -0.1459 -0.2617  0.1330
 2463SOL    HW118848   0.593   3.996  11.181 -2.2430 -0.8827  0.5209
 2463SOL    HW218849   0.691   3.901  11.110 -0.0554  0.3708  0.1993
 2464SOL     OW18850   0.722   2.871  11.228  0.5222 -0.1722  0.3942
 2464SOL    HW118851   0.663   2.840  11.297  0.2379 -1.4147 -0.4017
 2464SOL    HW218852   0.768   2.936  11.281  0.4667  1.4121 -1.4988
 2465SOL     OW18853   3.688   3.730  13.766  1.2110 -0.1884  0.0798
 2465SOL    HW118854   3.737   3.734  13.684  0.9170  0.7445 -0.0454
 2465SOL    HW218855   3.738   3.667  13.818 -0.1742 -0.8464  0.6169
 2466SOL     OW18856   0.554   0.593  15.866  0.2978 -0.3821  0.4530
 2466SOL    HW118857   0.525   0.638  15.786  1.2892  0.8492  0.7815
 2466SOL    HW218858   0.631   0.647  15.886 -1.0169  0.7929  2.4227
 2467SOL     OW18859   4.369   1.907   8.344 -0.5626 -0.1619  0.3523
 2467SOL    HW118860   4.414   1.850   8.407  2.4424  1.1777 -0.5940
 2467SOL    HW218861   4.443   1.926   8.286 -0.6128  0.1300  0.3868
 2468SOL     OW18862   0.449   3.666  13.213 -0.3770  0.1002  0.2169
 2468SOL    HW118863   0.452   3.616  13.295 -0.7979 -0.6167 -0.2064
 2468SOL    HW218864   0.356   3.687  13.207 -0.6745 -1.3320 -0.1638
 2469SOL     OW18865   0.478   3.021  13.471 -0.1553 -0.4259  0.4960
 2469SOL    HW118866   0.383   3.013  13.483 -0.0826  0.3777  1.6463
 2469SOL    HW218867   0.512   2.943  13.515 -1.9876 -1.4635  0.1060
 2470SOL     OW18868   0.417   0.639   4.708  0.2000 -0.0612  0.1131
 2470SOL    HW118869   0.503   0.667   4.742 -0.0774  0.4472  0.4096
 2470SOL    HW218870   0.395   0.712   4.651  0.5954  0.3021  0.4238
 2471SOL     OW18871   4.423   2.474   7.883 -0.1747  0.7330  0.7461
 2471SOL    HW118872   4.471   2.543   7.930  0.7439 -0.7458  1.9982
 2471SOL    HW218873   4.333   2.472   7.914 -0.6766  1.6480 -0.6808
 2472SOL     OW18874   2.177   2.931  17.511 -0.0116  0.1810 -0.6572
 2472SOL    HW118875   2.173   3.021  17.543 -0.1227  0.6851 -2.0892
 2472SOL    HW218876   2.121   2.895  17.579  0.4452 -1.5087 -1.1768
 2473SOL     OW18877   1.110   0.524   3.521 -0.1815  0.3848  0.0014
 2473SOL    HW118878   1.099   0.581   3.596  1.1421  2.4353 -1.3658
 2473SOL    HW218879   1.117   0.588   3.450  1.2290 -0.1379 -0.3388
 2474SOL     OW18880   4.194   2.989   8.087  0.2593 -0.0011  0.0191
 2474SOL    HW118881   4.217   3.077   8.059  2.2468  1.1815  5.3542
 2474SOL    HW218882   4.103   2.991   8.056  0.9350 -0.2790 -1.9457
 2475SOL     OW18883   1.756   2.394   0.444  0.6416 -0.1864  0.0970
 2475SOL    HW118884   1.839   2.416   0.487  0.6436  1.1819 -0.5864
 2475SOL    HW218885   1.715   2.479   0.426  0.2004 -0.5903 -0.8028
 2476SOL     OW18886   2.406   1.067   6.661 -0.2186  0.3133 -0.0759
 2476SOL    HW118887   2.355   1.077   6.580 -0.0553 -0.4150 -0.2605
 2476SOL    HW218888   2.397   1.152   6.704  0.6225  0.1710  0.3628
 2477SOL     OW18889   2.271   4.279   2.078  0.1000 -0.0453 -0.2379
 2477SOL    HW118890   2.306   4.346   2.019 -0.6310  1.0424  0.5540
 2477SOL    HW218891   2.205   4.237   2.023  0.5247 -0.1399 -0.6848
 2478SOL     OW18892   1.955   0.097  12.530  0.4815 -0.9147 -0.1001
 2478SOL    HW118893   1.960   0.173  12.472 -2.9200  1.6877  3.0043
 2478SOL    HW218894   2.023   0.117  12.593 -0.1920  0.8390  0.0652
 2479SOL     OW18895   2.645   3.779   4.966 -0.5073  0.0742  0.2236
 2479SOL    HW118896   2.570   3.838   4.959 -0.7220 -0.1462  0.6846
 2479SOL    HW218897   2.647   3.750   4.874  2.3334 -0.3539  0.4147
 2480SOL     OW18898   2.532   2.604   9.410  0.5618 -0.0634 -0.3986
 2480SOL    HW118899   2.483   2.522   9.405  0.4800 -0.0500  0.1245
 2480SOL    HW218900   2.479   2.644   9.479  2.3347  1.1297  0.2978
 2481SOL     OW18901   1.695   4.530  15.222  0.9718 -0.0721  0.0465
 2481SOL    HW118902   1.682   4.610  15.172  0.0730  0.0839  0.5337
 2481SOL    HW218903   1.791   4.532  15.218  1.0033  0.1063  0.8118
 2482SOL     OW18904   1.973   0.803   6.723  0.1671  0.2009  0.5281
 2482SOL    HW118905   1.980   0.802   6.627 -2.3965  1.8372  0.3073
 2482SOL    HW218906   1.878   0.810   6.737 -0.0788  0.7356 -1.3166
 2483SOL     OW18907   1.983   4.060   6.011 -0.3784  0.4814 -0.8082
 2483SOL    HW118908   1.911   4.123   6.008  0.3517  1.2682 -1.8788
 2483SOL    HW218909   1.944   3.993   6.067  0.4942 -1.8297 -2.9840
 2484SOL     OW18910   3.121   3.698  16.914  0.4123 -0.6518 -0.2088
 2484SOL    HW118911   3.049   3.644  16.882 -1.1876  1.7174 -0.5947
 2484SOL    HW218912   3.167   3.636  16.971 -0.4691  1.7317  3.0936
 2485SOL     OW18913   1.315   4.669   7.507 -0.9060  0.3860  0.3121
 2485SOL    HW118914   1.409   4.660   7.522 -0.7614 -2.6578 -2.4636
 2485SOL    HW218915   1.296   0.015   7.570  2.7033 -1.3785  3.3380
 2486SOL     OW18916   0.931   2.450   5.140  0.2179 -0.1689 -0.4781
 2486SOL    HW118917   0.838   2.470   5.125 -0.8072 -2.0346  3.3837
 2486SOL    HW218918   0.971   2.536   5.150  0.5909 -0.4473  0.3682
 2487SOL     OW18919   1.190   4.437   6.282  0.0118  0.0872  0.1219
 2487SOL    HW118920   1.136   4.435   6.203  1.0099 -1.2575 -0.5192
 2487SOL    HW218921   1.223   4.527   6.287 -1.0527  0.3284  2.9951
 2488SOL     OW18922   3.688   2.311   2.150  0.9215 -0.2437  0.1288
 2488SOL    HW118923   3.742   2.357   2.215  0.1099  1.4905 -0.4418
 2488SOL    HW218924   3.652   2.235   2.197  0.8199 -0.2344  0.0653
 2489SOL     OW18925   3.161   4.186   5.586  0.2146 -0.1156  0.5092
 2489SOL    HW118926   3.208   4.257   5.629 -1.0808 -0.3610  2.3047
 2489SOL    HW218927   3.220   4.151   5.519 -2.3536  0.4070 -2.0122
 2490SOL     OW18928   3.159   1.208   5.155 -0.3876  0.0023  0.3669
 2490SOL    HW118929   3.250   1.218   5.128 -0.8455  2.6536 -0.1951
 2490SOL    HW218930   3.170   1.138   5.219 -2.1171 -2.1496 -1.7303
 2491SOL     OW18931   1.203   2.344  14.405 -0.3381 -0.1501  0.4435
 2491SOL    HW118932   1.134   2.393  14.360 -1.2550 -2.7750 -1.0525
 2491SOL    HW218933   1.208   2.394  14.486  0.8011 -1.5949  1.2731
 2492SOL     OW18934   1.524   3.641  10.255  0.4599 -0.0931  0.3480
 2492SOL    HW118935   1.557   3.713  10.202  0.2996  1.2551  2.0859
 2492SOL    HW218936   1.573   3.646  10.337  0.6231  0.1650  0.2358
 2493SOL     OW18937   4.645   0.259   8.829 -0.0008 -0.0098  0.3933
 2493SOL    HW118938   4.680   0.213   8.753 -3.0223  1.3579 -1.7992
 2493SOL    HW218939   4.656   0.185   8.889  0.8742 -1.0522 -1.0451
 2494SOL     OW18940   3.910   0.868   4.852  0.0648 -0.6450 -0.4888
 2494SOL    HW118941   3.920   0.804   4.782 -4.7311 -2.7125  0.7457
 2494SOL    HW218942   3.879   0.814   4.925 -2.2138  1.8147  0.3687
 2495SOL     OW18943   3.411   4.386   8.126  0.5879  0.1477 -0.5373
 2495SOL    HW118944   3.488   4.332   8.110 -0.0196 -2.1318  3.9881
 2495SOL    HW218945   3.355   4.375   8.049  1.2999 -0.1034 -1.0192
 2496SOL     OW18946   0.503   2.746   0.066 -0.6321 -0.0269  0.5536
 2496SOL    HW118947   0.439   2.683   0.036  1.3356 -0.8720 -1.8190
 2496SOL    HW218948   0.550   2.744  17.679  0.7831 -1.2850  1.3838
 2497SOL     OW18949   2.917   2.186   8.042  0.0314 -0.1558 -0.5305
 2497SOL    HW118950   2.891   2.253   8.104  0.7614  0.6259 -1.0700
 2497SOL    HW218951   2.922   2.109   8.099 -0.1424  0.1557 -0.0936
 2498SOL     OW18952   2.076   2.768   4.823  0.1588  0.0061 -0.4607
 2498SOL    HW118953   2.071   2.755   4.917 -2.8731  2.7115 -0.2266
 2498SOL    HW218954   2.135   2.697   4.798 -0.9052 -0.3064 -2.0939
 2499SOL     OW18955   0.762   0.591   1.103 -0.1900  0.6153 -0.1173
 2499SOL    HW118956   0.820   0.596   1.178 -0.4259 -3.0034  0.2823
 2499SOL    HW218957   0.725   0.505   1.121 -0.0885  0.3659 -1.0915
 2500SOL     OW18958   4.181   1.455   5.121  0.0916  0.5592  0.2928
 2500SOL    HW118959   4.182   1.493   5.209 -4.7426  0.2575  0.4816
 2500SOL    HW218960   4.268   1.414   5.123  0.2401  0.8902  0.5617
 2501SOL     OW18961   2.548   2.353   9.122 -0.1086  0.1501  0.2506
 2501SOL    HW118962   2.619   2.376   9.062  0.7788  1.5377  1.8236
 2501SOL    HW218963   2.568   2.266   9.156 -0.6470  0.6027  1.7134
 2502SOL     OW18964   3.435   0.300   2.030 -0.8153 -0.1511  0.7206
 2502SOL    HW118965   3.369   0.246   2.073 -1.0774 -2.0903 -2.1017
 2502SOL    HW218966   3.508   0.238   2.025  1.1661  2.2128  0.2121
 2503SOL     OW18967   3.543   0.938   0.578 -0.1169  0.0296 -0.2842
 2503SOL    HW118968   3.455   0.969   0.555 -0.4029  0.3013  1.1762
 2503SOL    HW218969   3.576   1.013   0.626  0.8899  0.6168 -1.8950
 2504SOL     OW18970   1.973   0.303   4.023  0.3547  0.3237 -0.7789
 2504SOL    HW118971   2.056   0.315   4.070 -0.3880  0.3545  0.5417
 2504SOL    HW218972   1.984   0.209   4.011  0.0039  0.2235 -0.3321
 2505SOL     OW18973   0.205   4.299  11.317  0.1782  0.1635  0.0638
 2505SOL    HW118974   0.227   4.319  11.408 -0.6417  1.1039  0.0650
 2505SOL    HW218975   0.111   4.298  11.334 -0.1038  1.2626 -1.4706
 2506SOL     OW18976   1.827   4.405   6.724  0.3719 -0.2331  0.0441
 2506SOL    HW118977   1.857   4.484   6.768  0.5139 -0.7461  0.8702
 2506SOL    HW218978   1.908   4.355   6.736  1.3446  1.6464  1.2809
 2507SOL     OW18979   3.498   4.251  13.793  0.2420 -0.2071 -0.4209
 2507SOL    HW118980   3.557   4.177  13.809 -1.6927 -2.0252 -1.6437
 2507SOL    HW218981   3.413   4.209  13.808  0.0420  1.2101  2.4287
 2508SOL     OW18982   3.580   2.839  16.910  0.5016 -0.8135 -0.5292
 2508SOL    HW118983   3.595   2.819  16.817 -0.0274  3.7052 -1.5624
 2508SOL    HW218984   3.566   2.933  16.899  1.6740 -0.0819  4.1520
 2509SOL     OW18985   1.311   2.729   7.031  0.1050  0.0389  0.1483
 2509SOL    HW118986   1.248   2.703   7.099  1.8012 -1.1734  1.2685
 2509SOL    HW218987   1.391   2.718   7.082 -0.2624 -2.6181  0.1865
 2510SOL     OW18988   0.749   1.896   7.068  0.4816  0.0475 -0.5686
 2510SOL    HW118989   0.679   1.962   7.066 -1.5239 -2.0928 -0.3371
 2510SOL    HW218990   0.800   1.938   6.999  1.2877 -0.2474 -0.1597
 2511SOL     OW18991   2.493   3.454   8.154 -0.2519  0.0261  0.0598
 2511SOL    HW118992   2.548   3.480   8.228 -0.1751 -2.0889  0.7626
 2511SOL    HW218993   2.558   3.433   8.087 -1.1798 -2.5357 -0.0657
 2512SOL     OW18994   3.416   3.554   6.083 -0.3509  0.0027 -0.2922
 2512SOL    HW118995   3.507   3.528   6.067 -0.2906 -0.4493  0.7299
 2512SOL    HW218996   3.367   3.541   6.002  0.8586  0.2788 -1.0643
 2513SOL     OW18997   2.663   1.615   5.615  1.0142  0.0143 -0.3858
 2513SOL    HW118998   2.680   1.707   5.594 -1.4415  0.3838 -0.7689
 2513SOL    HW218999   2.738   1.587   5.667  1.4758  1.5681 -0.2184
 2514SOL     OW19000   2.996   0.394   2.473  0.2283  0.2729  0.9703
 2514SOL    HW119001   3.073   0.342   2.451  0.8786  0.4654  2.8061
 2514SOL    HW219002   2.975   0.429   2.386 -0.8651 -2.3824  0.1785
 2515SOL     OW19003   2.641   3.372   3.650 -0.6785  0.3851 -0.4346
 2515SOL    HW119004   2.634   3.297   3.591 -0.2072  0.3124 -0.3984
 2515SOL    HW219005   2.554   3.375   3.689 -0.1851  2.5985  0.4715
 2516SOL     OW19006   2.109   0.018   6.644 -0.3338 -0.1449 -0.5466
 2516SOL    HW119007   2.204   0.006   6.645 -0.4414 -0.7181  2.6227
 2516SOL    HW219008   2.101   0.101   6.691  1.0614 -0.1024 -0.3873
 2517SOL     OW19009   1.932   4.416   0.666  0.1437 -0.2017 -0.2197
 2517SOL    HW119010   1.884   4.370   0.734 -0.5112  1.5575  0.5081
 2517SOL    HW219011   1.934   4.509   0.687 -2.5093 -0.5403  1.5295
 2518SOL     OW19012   1.205   2.788   2.644  0.7916 -0.2252  0.4081
 2518SOL    HW119013   1.262   2.712   2.632 -0.4346 -1.2078  0.7624
 2518SOL    HW219014   1.267   2.848   2.686  0.1020  0.8731 -0.1647
 2519SOL     OW19015   4.202   2.543   8.611 -0.1539 -0.0809  0.0551
 2519SOL    HW119016   4.106   2.545   8.612 -0.1004  3.4968 -1.6184
 2519SOL    HW219017   4.212   2.580   8.523 -1.0197 -0.4644 -0.2111
 2520SOL     OW19018   0.718   4.613  16.719  0.2480 -0.0229 -0.1492
 2520SOL    HW119019   0.797   4.592  16.769 -1.7572  0.0902  3.0682
 2520SOL    HW219020   0.673   4.529  16.735 -0.1488  0.4095  1.0549
 2521SOL     OW19021   3.216   4.278   1.902 -0.0055  0.4281  1.0389
 2521SOL    HW119022   3.131   4.237   1.890 -0.7653  1.3227  3.4400
 2521SOL    HW219023   3.265   4.237   1.830 -1.8682  0.1372 -0.0477
 2522SOL     OW19024   2.398   3.172  13.937 -0.7303  0.1758  0.2963
 2522SOL    HW119025   2.334   3.118  13.891 -1.0056 -0.8609  1.8994
 2522SOL    HW219026   2.429   3.229  13.867  0.2472  1.2962  1.6371
 2523SOL     OW19027   2.459   1.286   9.858 -0.5915  0.0715 -0.0096
 2523SOL    HW119028   2.548   1.276   9.823 -1.7069 -2.5187 -2.1702
 2523SOL    HW219029   2.433   1.368   9.817  0.0805  1.1849  1.7843
 2524SOL     OW19030   2.278   3.575   9.306  0.0163 -0.0853  0.0406
 2524SOL    HW119031   2.233   3.491   9.298  0.6730 -0.5767  1.4472
 2524SOL    HW219032   2.245   3.597   9.393  1.4117  0.0491  0.5490
 2525SOL     OW19033   1.959   1.580   0.300  0.2479  0.8834  0.0240
 2525SOL    HW119034   1.869   1.548   0.304  0.9063 -1.0762 -0.6449
 2525SOL    HW219035   1.994   1.544   0.381 -0.4615  0.6010  0.2051
 2526SOL     OW19036   0.426   0.570   6.659  0.8094  0.4011 -0.2039
 2526SOL    HW119037   0.406   0.660   6.686  2.0243  0.8383 -0.7418
 2526SOL    HW219038   0.445   0.520   6.738 -1.6518  3.1129  2.1258
 2527SOL     OW19039   4.656   2.223  11.919  0.0286  0.0963  0.1548
 2527SOL    HW119040   4.652   2.159  11.991  0.9456  1.9725  1.8850
 2527SOL    HW219041   4.591   2.184  11.861 -1.4351 -2.5237  3.5716
 2528SOL     OW19042   4.073   1.841   7.348 -0.8342 -0.0979  0.2661
 2528SOL    HW119043   4.010   1.791   7.297  1.0054 -1.8907 -0.2601
 2528SOL    HW219044   4.121   1.764   7.377 -1.8310 -1.0805 -0.6731
 2529SOL     OW19045   3.683   0.900   9.032  0.1820 -0.0377 -0.1843
 2529SOL    HW119046   3.648   0.909   9.120  3.5719  2.0721  0.9451
 2529SOL    HW219047   3.777   0.908   9.052  0.2129  0.3667 -0.5091
 2530SOL     OW19048   1.495   3.739  11.432  0.2424 -0.1834  0.6523
 2530SOL    HW119049   1.494   3.834  11.422 -0.1289 -0.1268  1.2394
 2530SOL    HW219050   1.530   3.738  11.521  0.8692  1.5721  0.4316
 2531SOL     OW19051   3.117   1.213   1.760 -0.3689 -0.8729 -0.1581
 2531SOL    HW119052   3.099   1.121   1.740 -1.7992 -0.9767  1.6089
 2531SOL    HW219053   3.210   1.210   1.780 -0.5799  2.2055  1.2458
 2532SOL     OW19054   1.294   1.910   0.035  0.1757 -0.2955  0.6317
 2532SOL    HW119055   1.217   1.891   0.089  0.8507 -0.5111  1.5102
 2532SOL    HW219056   1.364   1.907   0.100  1.9516 -0.2230 -1.2951
 2533SOL     OW19057   3.973   2.518  14.318  0.7438 -0.0722 -0.0546
 2533SOL    HW119058   4.022   2.599  14.306 -0.4395  0.8386  1.2720
 2533SOL    HW219059   3.971   2.493  14.226 -0.3899  1.5724 -0.4820
 2534SOL     OW19060   4.396   1.573   7.758 -0.1173  0.5482  0.2218
 2534SOL    HW119061   4.304   1.571   7.730  0.1136  0.8425 -0.5670
 2534SOL    HW219062   4.397   1.597   7.851  1.9993  1.3196 -0.0029
 2535SOL     OW19063   0.240   1.900   0.652 -0.3492 -0.3391 -0.2585
 2535SOL    HW119064   0.195   1.971   0.605 -1.2985 -1.9096 -1.7396
 2535SOL    HW219065   0.322   1.895   0.602  0.1369  1.2205  0.3878
 2536SOL     OW19066   1.451   3.075   3.232 -0.0507 -0.2236  0.3271
 2536SOL    HW119067   1.391   3.015   3.278 -0.8768 -0.8072 -1.4916
 2536SOL    HW219068   1.446   3.043   3.141 -1.7458  1.2200 -0.0885
 2537SOL     OW19069   1.545   4.364  10.472  0.2341  0.5851  0.7777
 2537SOL    HW119070   1.596   4.298  10.518  1.0645  1.9435  1.8256
 2537SOL    HW219071   1.483   4.303  10.432 -1.8586  1.6249  2.3675
 2538SOL     OW19072   4.162   2.317   0.788 -0.1047 -0.2029 -0.0533
 2538SOL    HW119073   4.125   2.405   0.778 -0.6955 -0.4953 -0.3908
 2538SOL    HW219074   4.251   2.315   0.751 -0.3753  2.1264 -0.8583
 2539SOL     OW19075   1.115   2.792   4.454 -0.4397  0.0073  0.4415
 2539SOL    HW119076   1.114   2.729   4.382  1.2490  1.0936 -0.5121
 2539SOL    HW219077   1.207   2.812   4.469 -0.2355 -0.9272  0.4763
 2540SOL     OW19078   0.152   4.170   4.618 -0.1935 -0.1737 -0.0458
 2540SOL    HW119079   0.081   4.118   4.655 -0.2138 -0.9630 -1.1683
 2540SOL    HW219080   0.228   4.117   4.643 -0.5555 -0.7362 -0.1443
 2541SOL     OW19081   2.514   2.768  10.832  0.8448 -0.0270  0.1705
 2541SOL    HW119082   2.549   2.777  10.921 -0.5656 -1.3786  0.8563
 2541SOL    HW219083   2.464   2.687  10.843 -1.5280  1.2199 -1.5411
 2542SOL     OW19084   1.191   3.250  15.149  0.3099  0.5883  0.2573
 2542SOL    HW119085   1.154   3.253  15.061  0.2186 -0.9115  0.2447
 2542SOL    HW219086   1.253   3.319  15.129 -1.0566  2.3647  2.1975
 2543SOL     OW19087   1.217   3.000   3.364 -0.1037 -0.0719 -0.1305
 2543SOL    HW119088   1.151   3.053   3.409  0.2754  0.5890 -0.3570
 2543SOL    HW219089   1.175   2.928   3.317  0.0272  1.0280 -1.9299
 2544SOL     OW19090   4.062   2.340   5.739  0.1053  0.1184  0.2565
 2544SOL    HW119091   4.101   2.288   5.669  0.5859  0.1962  0.4637
 2544SOL    HW219092   4.111   2.422   5.739  2.4007 -1.2449 -0.0027
 2545SOL     OW19093   4.536   1.531  14.727 -0.7127  0.4108  0.1897
 2545SOL    HW119094   4.447   1.566  14.714 -0.4931  0.3628 -1.4290
 2545SOL    HW219095   4.557   1.532  14.820  3.2468 -1.0131 -0.7036
 2546SOL     OW19096   0.377   0.799   7.489 -0.7485  0.6375 -0.3784
 2546SOL    HW119097   0.425   0.874   7.455  0.2223  0.8760  1.4797
 2546SOL    HW219098   0.417   0.729   7.437  3.0184  1.9909  0.7039
 2547SOL     OW19099   4.287   2.874   3.216 -0.3464  0.3656 -0.4534
 2547SOL    HW119100   4.344   2.945   3.186 -0.1220  0.8831  1.2158
 2547SOL    HW219101   4.229   2.867   3.140 -2.0853  1.7027  0.7700
 2548SOL     OW19102   3.566   2.767  13.847 -0.0047 -0.0475  0.0838
 2548SOL    HW119103   3.538   2.721  13.767 -0.0828 -0.6852  0.4820
 2548SOL    HW219104   3.473   2.772  13.868 -0.4647 -0.3657 -1.8776
 2549SOL     OW19105   1.265   0.485   9.122 -0.6812 -0.2611 -0.2364
 2549SOL    HW119106   1.175   0.476   9.089  0.0166 -3.6670 -1.1944
 2549SOL    HW219107   1.258   0.447   9.209  0.1236 -1.1575 -0.5634
 2550SOL     OW19108   3.694   1.286   4.119  0.2013 -0.3547 -0.0439
 2550SOL    HW119109   3.662   1.281   4.209  1.8973  0.5581  0.6120
 2550SOL    HW219110   3.715   1.378   4.106  1.9713 -0.8859 -1.0568
 2551SOL     OW19111   3.780   3.702   2.526 -0.2519 -0.2348 -0.6731
 2551SOL    HW119112   3.749   3.642   2.458 -2.3978 -0.5513  0.5726
 2551SOL    HW219113   3.831   3.762   2.472  0.5731  0.1121  0.5015
 2552SOL     OW19114   1.332   4.025   5.818  0.4057  0.3051 -0.2627
 2552SOL    HW119115   1.258   4.085   5.814  0.4129  0.4433  1.6992
 2552SOL    HW219116   1.402   4.090   5.826 -0.4449  1.0185  1.3150
 2553SOL     OW19117   0.407   2.905   2.858 -0.4645  0.0259 -0.7672
 2553SOL    HW119118   0.416   2.997   2.885 -0.5635  0.3243 -1.7324
 2553SOL    HW219119   0.447   2.908   2.771 -0.9095 -2.2397 -1.0439
 2554SOL     OW19120   0.016   0.092   3.624  0.1495  0.5007  0.3078
 2554SOL    HW119121   4.685   0.015   3.639 -2.4423  2.4252  0.6085
 2554SOL    HW219122   0.085   0.060   3.565 -1.9730 -1.3808 -1.1183
 2555SOL     OW19123   1.837   0.468   8.978  0.0742 -0.6535  0.1539
 2555SOL    HW119124   1.774   0.406   8.942 -0.9267  0.8803 -0.7398
 2555SOL    HW219125   1.800   0.551   8.946 -0.9138 -0.9746  0.4631
 2556SOL     OW19126   0.291   2.411  10.980 -0.0541  0.1313  0.1448
 2556SOL    HW119127   0.362   2.419  11.045  0.5438 -0.6740 -0.4132
 2556SOL    HW219128   0.252   2.498  10.970  0.7699  0.4269 -0.5269
 2557SOL     OW19129   3.832   4.430  17.096 -0.1545 -0.4457  0.7155
 2557SOL    HW119130   3.883   4.350  17.109  0.8765  0.5491  2.8838
 2557SOL    HW219131   3.863   4.455  17.009 -0.8952 -0.7366  0.3741
 2558SOL     OW19132   4.429   2.882   8.171  0.4197  0.7146 -0.3717
 2558SOL    HW119133   4.335   2.874   8.153  0.4046  0.8255 -0.3395
 2558SOL    HW219134   4.420   2.907   8.263  1.9432  0.6429 -0.2090
 2559SOL     OW19135   2.252   3.590   8.697 -0.2141  0.2241  0.1693
 2559SOL    HW119136   2.186   3.599   8.765  2.2367  0.4629  2.4977
 2559SOL    HW219137   2.331   3.559   8.741 -1.4103 -3.3690 -0.1940
 2560SOL     OW19138   0.947   0.974   0.419 -0.1330  0.2185 -0.2188
 2560SOL    HW119139   0.899   0.914   0.362  0.7289  1.7840 -2.5825
 2560SOL    HW219140   1.034   0.934   0.417  0.2141  0.7939  3.2337
 2561SOL     OW19141   2.102   2.704   5.602 -0.5772  0.2768 -0.3954
 2561SOL    HW119142   2.152   2.786   5.603 -2.8720  1.6513  2.5061
 2561SOL    HW219143   2.153   2.648   5.660 -1.5243  0.5445  0.6854
 2562SOL     OW19144   1.616   0.639   0.893 -0.0066  0.1258 -0.2360
 2562SOL    HW119145   1.594   0.547   0.911  0.8456 -0.4583 -2.1854
 2562SOL    HW219146   1.540   0.691   0.920  0.7249  0.5200  1.0615
 2563SOL     OW19147   3.894   2.324  12.677  0.6993  0.1198  1.0243
 2563SOL    HW119148   3.954   2.395  12.654  0.9268 -0.3346  0.2474
 2563SOL    HW219149   3.814   2.366  12.708 -0.3862 -1.9495  1.0256
 2564SOL     OW19150   0.269   1.245  11.411  0.3802 -0.3432 -0.3173
 2564SOL    HW119151   0.332   1.312  11.437 -0.1650 -0.4690  1.3424
 2564SOL    HW219152   0.248   1.210  11.498 -1.0217  0.4234 -0.3535
 2565SOL     OW19153   2.710   1.330  10.107 -0.0606  0.5889 -0.1276
 2565SOL    HW119154   2.766   1.401  10.140 -1.8353  0.1874  3.6871
 2565SOL    HW219155   2.667   1.376  10.035 -2.5560 -0.2019  0.8930
 2566SOL     OW19156   0.135   1.802   2.184  0.0520  0.4333  0.0436
 2566SOL    HW119157   0.131   1.845   2.269 -1.3039  2.7451 -1.1759
 2566SOL    HW219158   0.213   1.843   2.147  2.6130 -3.6076  0.8946
 2567SOL     OW19159   0.850   3.248  10.882  0.0690  0.0458 -0.4128
 2567SOL    HW119160   0.937   3.261  10.920 -0.7440 -0.4092  1.5578
 2567SOL    HW219161   0.804   3.208  10.955 -0.8549 -0.2622 -1.1607
 2568SOL     OW19162   3.258   0.217   4.394  0.1418  0.5768  0.1825
 2568SOL    HW119163   3.173   0.210   4.438  0.5366  1.4586  1.0698
 2568SOL    HW219164   3.264   0.133   4.348 -0.2532  0.8583 -0.3799
 2569SOL     OW19165   3.399   0.415   5.185 -0.4327 -0.0683 -0.7523
 2569SOL    HW119166   3.382   0.475   5.258 -3.1857 -1.1039 -0.5142
 2569SOL    HW219167   3.317   0.364   5.188 -0.6734  0.3778  0.4393
 2570SOL     OW19168   1.785   3.638  13.868 -0.2180 -0.4630 -0.8997
 2570SOL    HW119169   1.798   3.667  13.777 -1.0755 -0.4644 -1.0183
 2570SOL    HW219170   1.711   3.693  13.893  0.0713 -0.4049 -0.1632
 2571SOL     OW19171   3.182   1.288  15.971 -0.3536  0.0816  0.0070
 2571SOL    HW119172   3.123   1.213  15.970 -1.4817  0.9579  1.5850
 2571SOL    HW219173   3.237   1.264  16.046 -1.5153  0.1726  0.8823
 2572SOL     OW19174   4.023   1.122   8.216  0.0039  0.4653  0.5037
 2572SOL    HW119175   3.940   1.147   8.255  0.2962 -2.9355  3.2502
 2572SOL    HW219176   4.009   1.110   8.122  1.2394 -0.6670  0.4670
 2573SOL     OW19177   0.917   3.714   8.097 -0.2437 -0.0368 -0.0744
 2573SOL    HW119178   0.939   3.806   8.113  1.0078 -0.5466  1.1493
 2573SOL    HW219179   1.004   3.685   8.070  0.0240  0.5659  0.1534
 2574SOL     OW19180   0.909   1.135   3.118  0.2953 -0.0442 -0.2738
 2574SOL    HW119181   0.947   1.155   3.203  0.4739 -2.2040  0.1655
 2574SOL    HW219182   0.867   1.050   3.133 -2.7764  1.9083  2.0476
 2575SOL     OW19183   4.122   0.846   8.327  0.0167 -0.3195 -0.0473
 2575SOL    HW119184   4.078   0.929   8.308  0.6362  0.0051 -0.0589
 2575SOL    HW219185   4.212   0.879   8.336  0.3410 -1.5244  0.9547
 2576SOL     OW19186   1.475   2.747   6.244 -0.4594  0.0349  0.8016
 2576SOL    HW119187   1.570   2.734   6.253 -0.4029 -0.3144 -0.3185
 2576SOL    HW219188   1.465   2.782   6.155 -0.3051 -0.1011  0.7305
 2577SOL     OW19189   1.678   3.047  10.878  0.1309  1.1228  0.1674
 2577SOL    HW119190   1.693   3.106  10.804  0.9696  1.5758  0.7012
 2577SOL    HW219191   1.692   3.117  10.942  0.6790  0.5564  0.6608
 2578SOL     OW19192   1.809   3.601  13.596  0.2178 -0.0757  0.0984
 2578SOL    HW119193   1.782   3.610  13.505 -1.6978  0.9189  0.7572
 2578SOL    HW219194   1.812   3.505  13.596 -0.3275 -0.0909 -0.9672
 2579SOL     OW19195   3.135   1.614   5.524  0.2399 -0.1900 -0.0523
 2579SOL    HW119196   3.188   1.653   5.454  1.2977 -0.4974  0.5722
 2579SOL    HW219197   3.168   1.663   5.599  2.0473  0.9370 -1.5669
 2580SOL     OW19198   1.007   4.140  12.230  0.6547 -0.2169 -0.6989
 2580SOL    HW119199   1.068   4.209  12.203 -0.1639  0.4433 -0.8399
 2580SOL    HW219200   1.073   4.078  12.263 -0.2698  0.1341  1.7935
 2581SOL     OW19201   2.538   1.347   6.072 -0.2991  0.0264 -0.6240
 2581SOL    HW119202   2.490   1.425   6.043  0.0474 -0.3105 -2.1317
 2581SOL    HW219203   2.627   1.381   6.067 -0.3538  0.1270 -0.9632
 2582SOL     OW19204   4.045   1.513   2.883 -0.1155 -0.5920  0.0417
 2582SOL    HW119205   4.012   1.487   2.798 -1.1629  0.8918 -0.0103
 2582SOL    HW219206   4.033   1.432   2.932 -1.2809 -0.5974 -0.2469
 2583SOL     OW19207   4.024   0.577  11.656 -0.0080  0.2187  0.1544
 2583SOL    HW119208   3.967   0.524  11.600  0.3110  0.6351 -0.5620
 2583SOL    HW219209   3.950   0.633  11.680  0.5960  1.3852 -0.7560
 2584SOL     OW19210   1.347   1.064   7.847 -0.0428  0.4189 -0.1008
 2584SOL    HW119211   1.280   1.127   7.877 -0.6213  0.7245 -2.0464
 2584SOL    HW219212   1.354   1.089   7.755 -0.5493  2.2070  0.3328
 2585SOL     OW19213   3.099   0.736   9.595 -0.1474 -0.3026 -0.2610
 2585SOL    HW119214   3.188   0.722   9.562 -0.6837 -1.9289 -1.0005
 2585SOL    HW219215   3.071   0.645   9.586 -0.8043  0.3393 -5.0976
 2586SOL     OW19216   3.002   2.303  12.361  0.2943 -0.3420 -1.1316
 2586SOL    HW119217   2.988   2.266  12.448  0.6412 -0.3974 -1.0978
 2586SOL    HW219218   3.013   2.217  12.320  0.6362 -0.4877 -0.7393
 2587SOL     OW19219   1.542   0.925   9.002 -0.3177  0.1242  0.2432
 2587SOL    HW119220   1.501   0.996   9.052  2.1603  0.5721  1.6474
 2587SOL    HW219221   1.489   0.854   9.038 -0.2123 -0.4768 -0.7675
 2588SOL     OW19222   2.577   2.951   5.312  0.0636 -0.0399  0.4034
 2588SOL    HW119223   2.528   2.959   5.394  1.3237 -2.2323  1.3739
 2588SOL    HW219224   2.509   2.917   5.254 -0.6575  0.3074  1.0535
 2589SOL     OW19225   3.050   2.835   6.012 -0.3441 -0.1491  0.0085
 2589SOL    HW119226   2.964   2.810   6.047  0.0850 -2.0482 -0.3401
 2589SOL    HW219227   3.069   2.902   6.078  0.2405 -0.0008 -0.3060
 2590SOL     OW19228   0.432   2.298   1.712  0.0105  0.3533  0.4366
 2590SOL    HW119229   0.339   2.304   1.735 -0.7533 -1.1102 -2.2363
 2590SOL    HW219230   0.449   2.206   1.731  0.6314 -0.4659 -3.9269
 2591SOL     OW19231   4.358   2.799   7.395 -0.0262  0.0991 -0.1501
 2591SOL    HW119232   4.400   2.749   7.466  2.4763 -0.9192 -2.3579
 2591SOL    HW219233   4.380   2.741   7.322  0.6844 -0.8932  0.8423
 2592SOL     OW19234   1.488   3.311   4.631 -0.1238  0.2057  0.0914
 2592SOL    HW119235   1.408   3.347   4.593 -0.1170  2.7425  2.4301
 2592SOL    HW219236   1.513   3.242   4.570  1.2358 -0.2069  1.1168
 2593SOL     OW19237   1.330   4.050  16.004 -0.4465 -0.2326  0.5763
 2593SOL    HW119238   1.394   4.068  16.073  0.5736  0.7196 -0.6204
 2593SOL    HW219239   1.286   4.135  16.010  0.2164  0.0711  1.1154
 2594SOL     OW19240   3.586   0.906   8.400  0.5850  0.4072 -0.1288
 2594SOL    HW119241   3.597   0.945   8.487 -3.2525  1.8085 -0.2754
 2594SOL    HW219242   3.492   0.916   8.385  0.4413 -1.3432 -0.3729
 2595SOL     OW19243   2.847   0.476  13.422  0.4168 -0.0899 -0.3303
 2595SOL    HW119244   2.787   0.408  13.453 -0.5132  0.5617 -0.7272
 2595SOL    HW219245   2.856   0.534  13.498  0.1966  0.0457 -0.4069
 2596SOL     OW19246   3.506   3.204   8.103 -0.0197  0.2865 -0.0167
 2596SOL    HW119247   3.448   3.180   8.031  1.9866 -1.8835 -0.8925
 2596SOL    HW219248   3.480   3.140   8.169  0.2570  0.3305  0.1376
 2597SOL     OW19249   3.211   3.563   3.942 -0.0103 -0.3565  0.1196
 2597SOL    HW119250   3.122   3.557   3.978  0.7285 -0.5205  1.9481
 2597SOL    HW219251   3.257   3.574   4.025  3.8683 -2.2641 -1.7974
 2598SOL     OW19252   1.459   4.400   7.636  0.0146 -0.0920  0.0485
 2598SOL    HW119253   1.377   4.360   7.668 -0.9268  0.6702 -1.4123
 2598SOL    HW219254   1.493   4.446   7.713  0.5709  3.7013 -2.4710
 2599SOL     OW19255   4.495   4.186  11.082 -0.0358  0.4385 -0.1375
 2599SOL    HW119256   4.469   4.218  10.996 -0.9528 -4.2921 -1.6713
 2599SOL    HW219257   4.590   4.176  11.074 -0.0246 -0.3210  0.9016
 2600SOL     OW19258   0.484   2.038   3.719  0.8147  0.0769  0.8854
 2600SOL    HW119259   0.432   2.036   3.639  2.1579  0.0268  0.0137
 2600SOL    HW219260   0.568   2.069   3.686  0.0894  2.0693  0.9033
 2601SOL     OW19261   0.339   1.255  16.087  0.3232  0.1786 -0.1637
 2601SOL    HW119262   0.322   1.347  16.066  0.1790  0.2862  0.4215
 2601SOL    HW219263   0.278   1.214  16.026 -0.1628  1.2154 -0.3715
 2602SOL     OW19264   0.041   3.242  10.643 -0.1655 -0.3568  0.1665
 2602SOL    HW119265   4.697   3.268  10.581  1.0733 -0.2075 -1.1172
 2602SOL    HW219266   4.719   3.180  10.701 -0.4976  0.2679  0.5666
 2603SOL     OW19267   4.214   0.803   3.762  0.0823  0.2749 -0.7951
 2603SOL    HW119268   4.267   0.839   3.833 -1.1507  0.7936 -0.1381
 2603SOL    HW219269   4.255   0.841   3.684  0.9816  1.8873  0.4461
 2604SOL     OW19270   2.334   0.806  14.434 -0.4872  0.1925 -0.5412
 2604SOL    HW119271   2.322   0.711  14.438  0.3722  0.0404 -1.6811
 2604SOL    HW219272   2.424   0.816  14.465 -0.1476 -0.9198 -1.1681
 2605SOL     OW19273   0.341   2.624   6.753 -0.2834 -0.1480 -0.3962
 2605SOL    HW119274   0.423   2.638   6.705  0.0686 -1.0654 -0.0680
 2605SOL    HW219275   0.383   2.633   6.839 -0.2191  1.2775 -0.5686
 2606SOL     OW19276   4.380   3.118  10.148  0.3517 -0.4443 -0.1532
 2606SOL    HW119277   4.334   3.164  10.078 -1.1167 -0.3948  0.8564
 2606SOL    HW219278   4.299   3.106  10.197 -0.2389 -0.4348 -1.1362
 2607SOL     OW19279   0.295   2.475   5.509 -0.2506 -0.1636 -0.3436
 2607SOL    HW119280   0.202   2.493   5.519 -0.5693 -1.5466 -0.8719
 2607SOL    HW219281   0.301   2.389   5.468  0.3990 -0.1591 -0.2647
 2608SOL     OW19282   1.522   4.582   0.300  0.4511 -0.2575  0.3918
 2608SOL    HW119283   1.427   4.583   0.285  1.0140 -1.9646 -3.1576
 2608SOL    HW219284   1.520   4.677   0.312  2.1710  0.0257 -1.5925
 2609SOL     OW19285   3.851   2.924   2.233 -0.3054 -0.0097  0.2137
 2609SOL    HW119286   3.916   2.928   2.163  1.2890  2.1876  1.7965
 2609SOL    HW219287   3.866   3.013   2.265  0.6806  0.0722 -0.4796
 2610SOL     OW19288   1.797   0.032   7.802 -0.3830 -0.3089  0.9628
 2610SOL    HW119289   1.815   0.040   7.896  1.5616  1.9412  0.3998
 2610SOL    HW219290   1.829   0.117   7.770 -1.5818 -1.5370 -3.4971
 2611SOL     OW19291   1.723   2.287   7.754 -0.0138 -0.6957  0.6364
 2611SOL    HW119292   1.698   2.238   7.675  1.6379 -3.9416  2.1063
 2611SOL    HW219293   1.763   2.212   7.799 -0.1361 -0.8215  0.5348
 2612SOL     OW19294   2.766   3.150   6.413  0.0283  0.1445 -0.3497
 2612SOL    HW119295   2.848   3.131   6.458 -0.8786  0.8070  1.6168
 2612SOL    HW219296   2.792   3.138   6.322 -0.8219  0.3918 -0.6278
 2613SOL     OW19297   0.980   3.902  10.262  0.1705 -0.4283 -0.8859
 2613SOL    HW119298   0.886   3.887  10.261  0.1898 -0.3378 -4.2318
 2613SOL    HW219299   1.009   3.847  10.335  1.2607 -0.5739 -1.4192
 2614SOL     OW19300   2.111   2.972  12.622  0.0067 -0.3243  0.4058
 2614SOL    HW119301   2.071   3.051  12.656 -1.2453 -0.4876 -0.7075
 2614SOL    HW219302   2.181   2.953  12.684 -0.5078  0.5567  1.2423
 2615SOL     OW19303   1.596   4.409  10.016 -0.1412  0.1384 -0.6803
 2615SOL    HW119304   1.677   4.452  10.043 -0.5105  0.0308  0.6036
 2615SOL    HW219305   1.536   4.481  10.036 -0.0153  0.4523 -1.4374
 2616SOL     OW19306   0.170   0.117   3.090 -0.4794 -0.0917  0.1565
 2616SOL    HW119307   0.100   0.074   3.041 -0.1425 -0.5679  0.0904
 2616SOL    HW219308   0.123   0.175   3.150  0.2484  1.2663 -0.5811
 2617SOL     OW19309   0.088   2.455   9.189 -1.0479 -0.7645 -0.3922
 2617SOL    HW119310   0.027   2.397   9.234 -0.3505 -0.0414  1.4736
 2617SOL    HW219311   0.171   2.445   9.234  0.0595  1.3527 -1.9416
 2618SOL     OW19312   3.854   3.395   6.707 -0.3076  0.1024  0.2064
 2618SOL    HW119313   3.780   3.402   6.646 -0.9482  0.3720  1.0032
 2618SOL    HW219314   3.844   3.473   6.763  0.0709  0.8165 -0.7201
 2619SOL     OW19315   2.004   0.797   2.315 -0.1150  0.3077 -0.2037
 2619SOL    HW119316   2.027   0.884   2.280  1.1456  0.5511  1.2621
 2619SOL    HW219317   1.936   0.827   2.375  0.0547 -0.8839  0.5708
 2620SOL     OW19318   3.976   4.646   9.781 -0.4799 -0.1317  0.2002
 2620SOL    HW119319   3.918   4.674   9.710  1.3357 -0.0969 -1.2701
 2620SOL    HW219320   4.062   4.673   9.749 -1.1254  1.0456 -0.5489
 2621SOL     OW19321   2.544   1.790   3.117 -0.3496  0.2304  0.0904
 2621SOL    HW119322   2.583   1.877   3.110 -0.2471  0.1697 -0.0870
 2621SOL    HW219323   2.564   1.758   3.029 -0.5981  1.4747 -0.4091
 2622SOL     OW19324   0.604   1.195   4.266 -0.4326  0.1924  0.0300
 2622SOL    HW119325   0.543   1.257   4.307 -1.0469 -0.3019 -0.1473
 2622SOL    HW219326   0.649   1.239   4.194 -0.9924  0.4763 -0.1402
 2623SOL     OW19327   1.471   1.642  13.459  0.1625  0.5113  0.0815
 2623SOL    HW119328   1.555   1.596  13.458 -0.0617  0.1015  0.1836
 2623SOL    HW219329   1.492   1.734  13.475  0.3060  0.6509 -0.8874
 2624SOL     OW19330   0.568   2.833   2.483 -0.4739 -0.0321 -0.9823
 2624SOL    HW119331   0.568   2.834   2.387  1.1265 -0.1900 -0.9852
 2624SOL    HW219332   0.476   2.812   2.503 -0.2044  0.5663  0.8547
 2625SOL     OW19333   4.701   2.509   5.604  0.0243  0.1531 -0.1672
 2625SOL    HW119334   4.682   2.425   5.646 -1.6156  1.8399  2.4318
 2625SOL    HW219335   4.616   2.552   5.599  0.2792  0.7162  0.3010
 2626SOL     OW19336   0.244   1.846   4.949  0.1901 -0.0095 -0.3350
 2626SOL    HW119337   0.263   1.934   4.981  0.9044 -0.1133 -0.4940
 2626SOL    HW219338   0.152   1.846   4.921  0.1347  1.1791 -0.1229
 2627SOL     OW19339   1.434   3.303  11.199  0.2380  0.3960  0.2731
 2627SOL    HW119340   1.387   3.295  11.282  3.0046 -2.6483  1.5063
 2627SOL    HW219341   1.405   3.394  11.184  0.8646  0.3244 -1.3535
 2628SOL     OW19342   2.850   4.688   9.885 -0.4722  0.5384  0.0545
 2628SOL    HW119343   2.893   4.623   9.830 -0.3237  0.1066  0.6802
 2628SOL    HW219344   2.899   0.046   9.874 -0.0118  0.1974 -0.3926
 2629SOL     OW19345   0.005   3.471   4.736  0.4296 -0.0924 -0.0062
 2629SOL    HW119346   0.074   3.442   4.795 -1.4688 -0.5897  1.9679
 2629SOL    HW219347   0.032   3.442   4.649  2.3237 -3.1886  1.6111
 2630SOL     OW19348   3.558   2.052   2.789  0.0550 -0.4736 -0.1167
 2630SOL    HW119349   3.558   2.134   2.741 -2.0404 -0.4584 -0.0880
 2630SOL    HW219350   3.466   2.035   2.812 -0.0828 -0.2737 -0.5337
 2631SOL     OW19351   4.535   1.001   2.814 -0.0755 -0.3005  0.0785
 2631SOL    HW119352   4.509   1.076   2.760  0.5374 -0.5747 -0.6043
 2631SOL    HW219353   4.627   1.019   2.831  0.0018  0.9645 -1.6932
 2632SOL     OW19354   3.902   1.833   7.094 -0.3916  0.0024 -0.3927
 2632SOL    HW119355   3.985   1.823   7.048 -0.3771 -0.5787 -0.2286
 2632SOL    HW219356   3.864   1.909   7.049 -2.0168  0.7301  2.2157
 2633SOL     OW19357   3.782   1.797   5.292 -0.2608  0.7124  0.2528
 2633SOL    HW119358   3.767   1.798   5.387 -0.5982  0.1466  0.2040
 2633SOL    HW219359   3.722   1.730   5.258  0.6755 -0.7161  1.3576
 2634SOL     OW19360   2.906   0.910  11.114 -0.2183  0.0491 -0.2400
 2634SOL    HW119361   2.847   0.890  11.041  0.4310 -1.3007 -0.3822
 2634SOL    HW219362   2.853   0.900  11.193 -0.4353  0.8825 -0.2763
 2635SOL     OW19363   2.843   3.049   2.457 -0.4466  0.1758  0.7899
 2635SOL    HW119364   2.762   3.047   2.508 -0.9660  0.2758 -0.0473
 2635SOL    HW219365   2.831   2.963   2.415  0.5698 -0.1436  1.1467
 2636SOL     OW19366   0.146   0.471   2.703  0.0388  0.2429  0.4969
 2636SOL    HW119367   0.164   0.412   2.775 -0.7090 -0.9845 -0.3202
 2636SOL    HW219368   0.051   0.470   2.688  0.2781  0.9700 -1.1375
 2637SOL     OW19369   2.227   1.247   8.029  0.6084  0.9526  0.0694
 2637SOL    HW119370   2.316   1.213   8.026  0.4688  0.6941 -1.1720
 2637SOL    HW219371   2.205   1.224   8.120 -0.4371  2.9649  0.3191
 2638SOL     OW19372   4.144   4.291  13.647  0.1189 -0.0937  0.2451
 2638SOL    HW119373   4.067   4.248  13.686  1.3671 -0.0670  2.7542
 2638SOL    HW219374   4.105   4.318  13.564 -1.4122 -3.3715 -0.1184
 2639SOL     OW19375   2.931   2.648   6.362 -0.1876 -0.2402  0.4464
 2639SOL    HW119376   2.887   2.562   6.366  0.4572 -0.6417 -1.0965
 2639SOL    HW219377   3.010   2.610   6.399 -0.8970 -0.9402  1.2651
 2640SOL     OW19378   3.581   4.705   2.716  0.2395 -0.2330  0.3062
 2640SOL    HW119379   3.607   4.615   2.695 -1.2880 -0.8416  1.1002
 2640SOL    HW219380   3.607   0.023   2.634 -0.9210 -0.7993 -0.3498
 2641SOL     OW19381   1.126   3.945  15.884 -0.3845  0.0331  0.3835
 2641SOL    HW119382   1.100   3.870  15.938  1.5451 -0.8558  0.0720
 2641SOL    HW219383   1.207   3.983  15.917  0.4660 -2.3934  1.1461
 2642SOL     OW19384   0.823   1.390  16.220 -0.4072  0.5544 -0.1284
 2642SOL    HW119385   0.798   1.380  16.312  1.2160 -3.1869 -0.1080
 2642SOL    HW219386   0.811   1.300  16.189  3.6726 -0.5894  1.6016
 2643SOL     OW19387   4.606   4.602   6.096 -0.4021 -0.1077  0.9596
 2643SOL    HW119388   4.668   4.675   6.099 -0.4761 -0.0421  0.8845
 2643SOL    HW219389   4.617   4.556   6.179 -0.6793  0.6195  1.4075
 2644SOL     OW19390   3.851   4.120   8.139  0.0864 -0.2831 -0.8642
 2644SOL    HW119391   3.801   4.202   8.145 -1.4331 -1.2689 -0.1295
 2644SOL    HW219392   3.879   4.092   8.226 -3.0459  1.9858  0.8753
 2645SOL     OW19393   2.793   0.303   6.151 -0.4821 -0.0001 -0.2686
 2645SOL    HW119394   2.784   0.295   6.246  0.3454  1.1473 -0.1011
 2645SOL    HW219395   2.794   0.398   6.144  0.5996  0.1246  1.7430
 2646SOL     OW19396   2.560   0.778   8.510 -0.3589 -0.1587  0.0223
 2646SOL    HW119397   2.576   0.684   8.514 -0.0737 -0.0933  0.4854
 2646SOL    HW219398   2.530   0.799   8.599 -0.3897  0.0625 -0.0402
 2647SOL     OW19399   1.423   3.332   2.538  0.2962  0.1621  0.1332
 2647SOL    HW119400   1.410   3.426   2.546  2.9980  0.4785  0.8330
 2647SOL    HW219401   1.493   3.318   2.474  2.8419 -0.5814  3.0727
 2648SOL     OW19402   1.120   3.399   0.210  0.4903  0.1683 -0.2267
 2648SOL    HW119403   1.078   3.423   0.293  0.9157  0.9593 -0.2419
 2648SOL    HW219404   1.155   3.317   0.244  2.7751  0.8987 -0.8193
 2649SOL     OW19405   2.792   4.188   5.193 -0.0923 -0.7139 -0.0687
 2649SOL    HW119406   2.811   4.214   5.283 -2.4534  1.5751 -0.2456
 2649SOL    HW219407   2.819   4.096   5.198  0.8930 -0.4777 -0.8477
 2650SOL     OW19408   0.383   1.773   9.859 -0.0628 -0.4257  0.2627
 2650SOL    HW119409   0.353   1.775   9.950 -0.5387 -1.0513  0.1280
 2650SOL    HW219410   0.445   1.700   9.866  1.6531  1.2504  2.5737
 2651SOL     OW19411   3.302   3.902   9.412 -0.3657  0.0036 -0.1679
 2651SOL    HW119412   3.335   3.909   9.322 -0.9922 -1.4718 -0.5334
 2651SOL    HW219413   3.289   3.996   9.420 -1.4461 -0.0716 -0.9520
 2652SOL     OW19414   2.931   2.477   5.568  0.0065  0.1545  0.2021
 2652SOL    HW119415   2.992   2.549   5.551 -0.2438  0.1012 -0.9654
 2652SOL    HW219416   2.915   2.439   5.481  1.8278  0.4245 -0.2601
 2653SOL     OW19417   3.104   1.155   0.413 -0.4483  0.2041  0.1004
 2653SOL    HW119418   3.162   1.130   0.484  1.2770  0.3723 -1.2580
 2653SOL    HW219419   3.019   1.151   0.457 -0.3052  0.5921  0.4102
 2654SOL     OW19420   3.070   0.430   1.538  0.2208  0.1069  0.1636
 2654SOL    HW119421   3.046   0.343   1.572  0.5867  0.1465  0.5247
 2654SOL    HW219422   3.019   0.427   1.458 -0.8396  0.7069  0.8167
 2655SOL     OW19423   0.220   3.127   5.722 -0.8996 -0.2964 -0.4738
 2655SOL    HW119424   0.205   3.206   5.774  0.4748  1.2824 -2.4707
 2655SOL    HW219425   0.310   3.138   5.691 -0.3231 -0.5313  1.1239
 2656SOL     OW19426   2.640   2.990  13.827  0.2590  0.9521  0.0733
 2656SOL    HW119427   2.649   3.082  13.853  2.2002  0.8262 -0.1599
 2656SOL    HW219428   2.655   2.951  13.913 -0.1782 -0.1445 -0.3590
 2657SOL     OW19429   2.724   2.022   7.837  0.1798  0.1163  0.0372
 2657SOL    HW119430   2.798   1.962   7.826 -1.9889 -2.5544 -0.0266
 2657SOL    HW219431   2.676   1.994   7.915  0.1749  0.8909  0.3197
 2658SOL     OW19432   1.013   1.428   6.034 -0.0067 -0.3124 -0.3302
 2658SOL    HW119433   1.011   1.379   5.951  3.5694 -0.7265 -0.1952
 2658SOL    HW219434   1.062   1.365   6.087 -0.2379 -1.8760 -1.9876
 2659SOL     OW19435   2.849   0.907  13.542 -0.0312 -0.2212 -0.0479
 2659SOL    HW119436   2.811   0.936  13.459 -1.7511  1.3146  1.2720
 2659SOL    HW219437   2.938   0.932  13.520 -0.6792  0.2465 -2.1682
 2660SOL     OW19438   3.908   4.152   6.345 -0.0011 -0.0182 -0.0331
 2660SOL    HW119439   3.862   4.102   6.278 -1.2460  1.5648 -0.3683
 2660SOL    HW219440   3.872   4.239   6.327  1.1810  0.4904  0.0809
 2661SOL     OW19441   3.210   4.697   9.933  0.5632  0.4871 -0.3196
 2661SOL    HW119442   3.154   4.720   9.859 -0.6494  1.7249  0.9701
 2661SOL    HW219443   3.205   4.601   9.932  1.4675  0.4454 -0.9508
 2662SOL     OW19444   3.446   3.155  12.684 -0.8851  0.3626  0.3523
 2662SOL    HW119445   3.387   3.199  12.745 -0.3550 -0.2872  1.3378
 2662SOL    HW219446   3.493   3.104  12.750 -0.5236 -1.6068 -1.4065
 2663SOL     OW19447   3.156   1.141   8.905 -0.0801 -0.1864 -0.1652
 2663SOL    HW119448   3.079   1.169   8.955  0.3471 -0.1404  0.4719
 2663SOL    HW219449   3.176   1.063   8.957  0.8601 -0.2500 -0.6297
 2664SOL     OW19450   4.163   1.614   6.559  0.2046 -0.1090  0.6864
 2664SOL    HW119451   4.078   1.572   6.555  1.1096 -1.9611  1.1105
 2664SOL    HW219452   4.147   1.686   6.497 -1.1728 -1.1330 -0.1283
 2665SOL     OW19453   0.149   3.552   2.052 -0.0270  0.0664 -0.3395
 2665SOL    HW119454   0.241   3.544   2.027 -0.1837  0.1657 -0.9507
 2665SOL    HW219455   0.144   3.642   2.083 -1.3262  0.2943 -1.1999
 2666SOL     OW19456   4.660   3.714   9.231  0.0278  0.2801 -0.0605
 2666SOL    HW119457   4.609   3.719   9.312 -1.0374  2.2596 -0.8571
 2666SOL    HW219458   0.009   3.662   9.266 -0.0988 -0.0990 -0.3535
 2667SOL     OW19459   3.827   3.109   6.337  0.2093  0.3055 -0.0211
 2667SOL    HW119460   3.821   3.163   6.416 -0.5643  0.8659 -0.4694
 2667SOL    HW219461   3.868   3.165   6.272  3.0304 -0.3140  1.2214
 2668SOL     OW19462   1.490   4.331  15.190 -0.2954 -0.1359 -0.2838
 2668SOL    HW119463   1.567   4.386  15.206 -0.3139  0.1640 -1.2029
 2668SOL    HW219464   1.417   4.390  15.209  0.6499  1.3951 -1.3800
 2669SOL     OW19465   0.368   0.349   1.935 -0.1377 -0.3969 -0.4938
 2669SOL    HW119466   0.391   0.421   1.876 -1.1267  2.6567  2.8181
 2669SOL    HW219467   0.314   0.406   1.990 -0.4137  1.0248 -2.2141
 2670SOL     OW19468   3.110   3.606  13.046 -0.2533 -0.1437  0.3743
 2670SOL    HW119469   3.060   3.538  12.999 -1.8589  0.7790  0.7531
 2670SOL    HW219470   3.145   3.653  12.970 -0.7929 -0.9580 -0.3866
 2671SOL     OW19471   4.054   1.865   3.468 -0.1200 -0.6607  0.2447
 2671SOL    HW119472   4.127   1.811   3.437 -0.5049 -1.7785  1.2588
 2671SOL    HW219473   4.000   1.888   3.393 -1.0182  0.0885  1.1255
 2672SOL     OW19474   0.618   3.565   3.680  0.5209 -0.5767  0.9466
 2672SOL    HW119475   0.690   3.615   3.718 -0.2537  1.2404  0.0393
 2672SOL    HW219476   0.614   3.594   3.588  1.4482  1.4951  1.5462
 2673SOL     OW19477   4.294   3.128   3.087  0.0987  0.2738 -0.1159
 2673SOL    HW119478   4.206   3.096   3.067  0.3877  1.2344 -2.8691
 2673SOL    HW219479   4.331   3.114   3.000  1.6590  1.0237  0.4333
 2674SOL     OW19480   3.895   2.790   8.732 -0.4622 -0.2284  0.3134
 2674SOL    HW119481   3.960   2.859   8.741  0.2804 -0.8846 -0.0095
 2674SOL    HW219482   3.890   2.779   8.637 -1.5373 -3.5499  0.7459
 2675SOL     OW19483   0.325   1.141   5.455 -0.1623 -0.3196  0.4313
 2675SOL    HW119484   0.392   1.159   5.521  0.5456  0.9028 -0.6098
 2675SOL    HW219485   0.244   1.109   5.494 -0.6874  1.9351  1.2016
 2676SOL     OW19486   3.148   1.666   2.463  0.3826 -0.5800  0.3126
 2676SOL    HW119487   3.054   1.645   2.459  0.2099  0.4909 -1.3199
 2676SOL    HW219488   3.169   1.711   2.381 -1.3716 -0.9047 -0.3260
 2677SOL     OW19489   4.373   3.146   4.617  0.5521 -0.1953  0.1041
 2677SOL    HW119490   4.416   3.229   4.598  1.1710 -1.0620 -2.2600
 2677SOL    HW219491   4.398   3.101   4.537 -1.8755 -0.0208 -0.7525
 2678SOL     OW19492   1.692   0.855   4.071  0.1057 -0.1238 -0.7074
 2678SOL    HW119493   1.625   0.916   4.042 -1.6750 -2.1886 -0.9554
 2678SOL    HW219494   1.707   0.798   3.996 -0.5959 -0.3848 -0.6469
 2679SOL     OW19495   2.944   3.904   3.571 -0.6463  0.3210  0.0550
 2679SOL    HW119496   2.867   3.875   3.522 -0.0372 -0.9611 -0.1471
 2679SOL    HW219497   2.924   3.997   3.582 -4.0744 -0.3487 -0.5615
 2680SOL     OW19498   1.254   4.551   2.458  0.4787  0.6752 -0.0026
 2680SOL    HW119499   1.267   4.595   2.542  1.6666  2.0599 -0.9183
 2680SOL    HW219500   1.320   4.593   2.402  0.1546 -0.1828 -1.0350
 2681SOL     OW19501   1.697   3.794  16.487  0.7704 -0.2283  0.4146
 2681SOL    HW119502   1.646   3.747  16.421  3.0875 -1.9225 -0.1618
 2681SOL    HW219503   1.703   3.879  16.442  0.6342  0.1085  1.0353
 2682SOL     OW19504   3.663   0.300   9.049 -0.1163  0.2853 -0.6271
 2682SOL    HW119505   3.669   0.256   8.964 -0.5095  0.0047 -0.5056
 2682SOL    HW219506   3.595   0.251   9.095 -0.5411  0.1085 -1.4451
 2683SOL     OW19507   3.121   0.329  15.457  0.3536  0.2473  0.0667
 2683SOL    HW119508   3.038   0.340  15.503  1.0057 -2.1950  1.8336
 2683SOL    HW219509   3.082   0.319  15.370 -0.9764  1.9597  0.4669
 2684SOL     OW19510   3.849   2.963  17.613  0.6232  0.0799  0.1353
 2684SOL    HW119511   3.886   3.026  17.550 -0.1283 -2.7891 -3.1745
 2684SOL    HW219512   3.824   3.025  17.682 -2.7545 -1.9954  0.7757
 2685SOL     OW19513   4.693   1.153   7.640 -0.6611 -0.0858 -0.2612
 2685SOL    HW119514   4.668   1.126   7.551  1.0309  0.5269 -0.9238
 2685SOL    HW219515   4.643   1.234   7.647 -2.4732 -1.1225 -1.0482
 2686SOL     OW19516   0.521   1.826   4.973  0.4796  0.1241 -0.2413
 2686SOL    HW119517   0.426   1.812   4.965  0.2245  0.9407  1.3554
 2686SOL    HW219518   0.536   1.879   4.895  0.5745  0.2979 -0.1042
 2687SOL     OW19519   4.144   1.313   7.234  0.2114 -0.0838 -0.2373
 2687SOL    HW119520   4.114   1.375   7.169 -1.8566 -0.5806  0.2361
 2687SOL    HW219521   4.155   1.237   7.177 -0.9116 -1.4423  1.3391
 2688SOL     OW19522   3.290   0.626   8.812 -0.2078  0.3856  0.3810
 2688SOL    HW119523   3.364   0.610   8.870  1.4360  1.7509 -1.3273
 2688SOL    HW219524   3.294   0.550   8.753  1.2171 -0.7012  1.9130
 2689SOL     OW19525   1.389   1.320   2.255  0.5486 -1.1781  0.1914
 2689SOL    HW119526   1.311   1.375   2.251  2.0427  0.9316 -0.0208
 2689SOL    HW219527   1.456   1.381   2.225  0.1257 -1.3153 -1.0331
 2690SOL     OW19528   4.268   1.535   9.811 -0.0771  0.6232  0.3501
 2690SOL    HW119529   4.256   1.567   9.900 -1.0382 -0.3393  0.5689
 2690SOL    HW219530   4.287   1.620   9.770  1.8776  0.3292  0.6191
 2691SOL     OW19531   4.016   1.191   2.636  0.2708 -0.7154 -0.6369
 2691SOL    HW119532   4.025   1.280   2.601  1.5211  0.0947  1.7909
 2691SOL    HW219533   4.088   1.193   2.699  0.0690 -1.8755 -0.3682
 2692SOL     OW19534   3.274   0.018   0.673  0.4737  0.5396 -0.0637
 2692SOL    HW119535   3.215   0.061   0.736 -0.0060 -0.9836  0.5188
 2692SOL    HW219536   3.208   4.699   0.619  0.2268 -0.1547  0.8002
 2693SOL     OW19537   1.952   1.719   4.485  0.1566  0.2003  0.0979
 2693SOL    HW119538   2.013   1.742   4.415  0.6842  1.9046  1.1150
 2693SOL    HW219539   1.964   1.795   4.542 -0.6765 -0.1924  0.8153
 2694SOL     OW19540   2.047   4.397   6.491 -0.4646 -0.3384 -0.4329
 2694SOL    HW119541   2.014   4.381   6.580  0.0678  0.0956 -0.1528
 2694SOL    HW219542   2.123   4.449   6.516 -1.2554  1.3430 -1.5870
 2695SOL     OW19543   1.422   1.216   7.128 -0.4462  0.1118  0.0709
 2695SOL    HW119544   1.415   1.139   7.071  3.0574  1.0109 -1.6326
 2695SOL    HW219545   1.508   1.243   7.096 -0.8762  1.0449 -0.2883
 2696SOL     OW19546   2.984   0.858   8.502 -0.1885 -0.1820 -0.2642
 2696SOL    HW119547   3.019   0.864   8.591 -0.7710 -1.0658  0.0295
 2696SOL    HW219548   2.955   0.767   8.492  2.9160 -1.2565  0.6287
 2697SOL     OW19549   3.635   3.989  13.897  0.2620  0.1432  1.0204
 2697SOL    HW119550   3.604   4.040  13.972 -0.5396 -0.2623  0.9565
 2697SOL    HW219551   3.689   3.922  13.938 -0.2971 -2.2313 -2.1292
 2698SOL     OW19552   4.399   0.550  10.516 -0.2895  0.0646 -0.6114
 2698SOL    HW119553   4.467   0.488  10.543 -1.2188 -0.6759  0.0039
 2698SOL    HW219554   4.462   0.611  10.478  0.4881 -0.6342 -0.4513
 2699SOL     OW19555   1.734   3.989   2.021  0.3737 -0.3249  0.5603
 2699SOL    HW119556   1.753   3.955   1.934 -0.5594  0.4545  0.0489
 2699SOL    HW219557   1.644   4.016   2.001  0.2367 -0.6344  0.7585
 2700SOL     OW19558   4.468   2.736   6.632  0.2341  0.0325 -0.5070
 2700SOL    HW119559   4.466   2.646   6.600  0.9365 -0.5321  1.0489
 2700SOL    HW219560   4.501   2.729   6.722 -0.2018  0.4903 -0.3143
 2701SOL     OW19561   0.658   4.333  15.290  0.2611 -0.5195 -0.4316
 2701SOL    HW119562   0.599   4.280  15.237 -0.2782 -1.3304  0.9849
 2701SOL    HW219563   0.594   4.370  15.350  2.2979 -1.3458  2.2771
 2702SOL     OW19564   4.154   2.982   4.440 -0.0061  0.2747  0.0231
 2702SOL    HW119565   4.161   2.938   4.355  0.5477 -0.5726  0.5126
 2702SOL    HW219566   4.165   2.906   4.498 -1.7414  0.3865  0.4945
 2703SOL     OW19567   3.552   0.388   8.641  0.3372 -0.2428 -0.3567
 2703SOL    HW119568   3.564   0.482   8.628  1.2080 -0.5064 -1.5460
 2703SOL    HW219569   3.457   0.387   8.641  0.3447 -0.6777 -0.2530
 2704SOL     OW19570   0.018   2.244   0.281  0.0863  0.8963 -0.3445
 2704SOL    HW119571   0.052   2.316   0.333 -3.0706  1.4323  1.0021
 2704SOL    HW219572   4.647   2.252   0.268 -0.1134  1.3042  1.3966
 2705SOL     OW19573   3.868   0.304   2.871  0.2079  0.2175  1.0055
 2705SOL    HW119574   3.788   0.252   2.873  0.0810  0.4266  1.6948
 2705SOL    HW219575   3.926   0.233   2.844  0.7565  0.8054  0.6363
 2706SOL     OW19576   1.535   4.664   4.897 -0.4802 -0.5527  0.2175
 2706SOL    HW119577   1.605   4.675   4.832 -1.0508 -1.9012 -0.6308
 2706SOL    HW219578   1.503   0.029   4.911 -2.8962 -1.4796  0.4676
 2707SOL     OW19579   2.825   0.314   5.048  0.6922  0.2371 -0.1404
 2707SOL    HW119580   2.763   0.298   5.118  0.7349 -1.0601 -0.3969
 2707SOL    HW219581   2.780   0.262   4.981 -0.1293 -0.7054  1.1609
 2708SOL     OW19582   1.290   0.187   7.638  0.1256  0.0412  0.4589
 2708SOL    HW119583   1.223   0.200   7.705  0.0774 -1.7581  0.7524
 2708SOL    HW219584   1.360   0.201   7.701  0.2552 -0.4011  0.4168
 2709SOL     OW19585   3.838   2.494   5.560 -0.3286  0.2479 -0.1596
 2709SOL    HW119586   3.855   2.428   5.627 -0.3898 -0.0333 -0.4209
 2709SOL    HW219587   3.775   2.446   5.506 -0.9901 -0.3399  1.1175
 2710SOL     OW19588   0.876   2.459   6.487 -0.3169 -0.2236 -0.4611
 2710SOL    HW119589   0.871   2.549   6.519 -2.6906  0.4614 -2.7523
 2710SOL    HW219590   0.915   2.409   6.559 -0.0035 -0.0017 -0.4777
 2711SOL     OW19591   2.004   3.961   7.492  0.0765  0.8235  0.1089
 2711SOL    HW119592   2.040   3.928   7.409  0.5171  0.3414  0.4981
 2711SOL    HW219593   1.958   4.037   7.456 -0.8641  0.4171  0.4484
 2712SOL     OW19594   4.297   0.853  16.881 -0.4476 -0.3631  0.0609
 2712SOL    HW119595   4.387   0.875  16.857 -0.0817  1.9620  3.5337
 2712SOL    HW219596   4.271   0.781  16.824  0.0384  0.7271 -1.5520
 2713SOL     OW19597   3.278   2.865   2.424 -0.1087 -0.0911 -0.0762
 2713SOL    HW119598   3.190   2.834   2.445  0.2781 -0.7744  0.5454
 2713SOL    HW219599   3.330   2.828   2.495 -1.5267 -0.6421  0.6781
 2714SOL     OW19600   3.921   0.574   2.819  0.2660 -0.2498  0.0845
 2714SOL    HW119601   3.884   0.487   2.835 -0.8312  0.1430 -0.3719
 2714SOL    HW219602   3.869   0.601   2.744  1.3253  0.5763 -0.3596
 2715SOL     OW19603   1.025   1.998   6.350  0.2756 -0.0086 -0.0385
 2715SOL    HW119604   1.089   1.959   6.410 -0.5371  4.3558  3.6287
 2715SOL    HW219605   0.989   1.915   6.317  0.7802 -0.5758  0.8480
 2716SOL     OW19606   4.472   2.517   9.064  0.0789  0.0437 -0.1335
 2716SOL    HW119607   4.380   2.511   9.090  0.6170  0.2114  1.7895
 2716SOL    HW219608   4.511   2.538   9.148 -2.8870 -1.0467  1.5155
 2717SOL     OW19609   1.202   0.957   3.146  0.0502 -0.1221 -0.1619
 2717SOL    HW119610   1.221   1.044   3.111 -0.0761 -0.2809 -0.6340
 2717SOL    HW219611   1.271   0.905   3.104  0.5786  0.1784  0.3350
 2718SOL     OW19612   2.267   1.083  12.592 -0.4456 -0.8808 -0.2610
 2718SOL    HW119613   2.222   1.121  12.668 -0.6927 -2.9550  0.6513
 2718SOL    HW219614   2.199   1.071  12.526  0.3955 -0.8070 -1.1449
 2719SOL     OW19615   1.329   4.553   1.144 -0.0394  0.0009  0.3651
 2719SOL    HW119616   1.242   4.541   1.106  0.1473 -0.8664  0.2102
 2719SOL    HW219617   1.346   4.465   1.178  0.5557 -0.3435 -0.8218
 2720SOL     OW19618   2.720   2.558   7.982 -0.3222 -0.6879 -0.2324
 2720SOL    HW119619   2.638   2.522   7.948  0.1828 -2.0849  0.0134
 2720SOL    HW219620   2.764   2.561   7.897 -2.8964  0.6672 -1.5263
 2721SOL     OW19621   2.139   1.770   6.696 -0.4165 -0.2666  0.1436
 2721SOL    HW119622   2.131   1.829   6.771  1.0011 -1.4215  1.2021
 2721SOL    HW219623   2.052   1.731   6.691 -0.7302  0.4761 -0.2291
 2722SOL     OW19624   3.038   1.414   7.894 -0.1528  0.2263 -0.1719
 2722SOL    HW119625   3.110   1.433   7.834  0.1075 -0.9041 -0.2275
 2722SOL    HW219626   2.973   1.478   7.867  0.9971  1.1070 -0.8331
 2723SOL     OW19627   0.651   4.213  11.904 -0.2883 -0.9296  0.1326
 2723SOL    HW119628   0.720   4.231  11.841 -0.4366 -1.5698 -0.2200
 2723SOL    HW219629   0.669   4.122  11.931  2.6585 -0.6120 -0.7449
 2724SOL     OW19630   0.318   3.897   5.834 -0.0398 -0.2148 -0.1253
 2724SOL    HW119631   0.353   3.816   5.871  1.2423  0.0752 -0.6866
 2724SOL    HW219632   0.224   3.879   5.835  0.3253 -2.2324 -2.0878
 2725SOL     OW19633   0.522   1.742   1.612  0.0979 -0.1904  0.0310
 2725SOL    HW119634   0.566   1.825   1.592 -2.2979  0.8968 -0.7233
 2725SOL    HW219635   0.596   1.687   1.635  0.2374  0.4343  1.0554
 2726SOL     OW19636   1.072   0.068   3.496  0.2546  0.7691  0.6519
 2726SOL    HW119637   1.082   4.720   3.558 -2.4403 -0.1847 -0.0437
 2726SOL    HW219638   1.086   0.035   3.407 -1.8631 -0.7651  0.9134
 2727SOL     OW19639   3.727   2.271  14.298 -0.1580 -0.0954 -0.1016
 2727SOL    HW119640   3.818   2.288  14.274 -0.1137  0.3553  0.4006
 2727SOL    HW219641   3.738   2.200  14.361  2.2090 -1.4820 -2.0654
 2728SOL     OW19642   1.031   3.186   6.160 -0.5331 -0.4118  0.2598
 2728SOL    HW119643   0.966   3.117   6.147 -1.4111  0.1151  1.8094
 2728SOL    HW219644   1.085   3.165   6.084  0.2819  3.7847 -0.3331
 2729SOL     OW19645   2.228   2.597   5.848 -0.6044  0.6110 -0.3142
 2729SOL    HW119646   2.248   2.685   5.878 -2.2328  0.9925 -0.3303
 2729SOL    HW219647   2.307   2.555   5.881 -0.0455  1.3004 -0.7909
 2730SOL     OW19648   0.189   0.031   4.689  0.0587  0.3778 -0.5020
 2730SOL    HW119649   0.095   0.021   4.671 -0.2008  0.2524  0.9064
 2730SOL    HW219650   0.189   0.117   4.730  2.4781 -0.5679  1.4706
 2731SOL     OW19651   0.680   1.200  13.893 -0.3684 -0.1925  0.1224
 2731SOL    HW119652   0.637   1.116  13.901 -0.6510  0.0851  1.5142
 2731SOL    HW219653   0.607   1.247  13.854 -0.1981  2.0672  2.4893
 2732SOL     OW19654   1.596   3.560   0.227  0.1197 -0.2755 -0.4615
 2732SOL    HW119655   1.551   3.622   0.170 -2.0856 -0.8741  0.6292
 2732SOL    HW219656   1.677   3.609   0.242  0.5695 -1.1538 -0.0314
 2733SOL     OW19657   1.929   2.606   0.412 -0.1421 -0.3165 -0.0083
 2733SOL    HW119658   2.025   2.604   0.417 -0.1543 -2.0142 -0.3157
 2733SOL    HW219659   1.914   2.687   0.460  0.8905  0.6850 -1.3655
 2734SOL     OW19660   2.681   2.747   3.656  1.1080 -0.1886  0.3539
 2734SOL    HW119661   2.726   2.781   3.579  1.4038 -0.6205  0.3360
 2734SOL    HW219662   2.749   2.725   3.720  0.7550  1.0888  1.1609
 2735SOL     OW19663   1.727   2.749   7.380  0.4148 -0.1622 -0.2022
 2735SOL    HW119664   1.771   2.664   7.374 -0.5444 -0.6955  0.2724
 2735SOL    HW219665   1.755   2.796   7.301  0.9856 -1.8465 -1.0049
 2736SOL     OW19666   1.362   4.437  14.571 -0.1049 -0.0503  0.0747
 2736SOL    HW119667   1.351   4.400  14.483  2.2150  0.1201 -0.2619
 2736SOL    HW219668   1.449   4.403  14.590 -0.2878 -0.7497 -0.3265
 2737SOL     OW19669   3.486   0.542  15.090  0.4036 -0.2796 -0.5848
 2737SOL    HW119670   3.560   0.482  15.096  0.4701 -0.0628  0.8544
 2737SOL    HW219671   3.417   0.481  15.118 -1.6642  2.4791  0.2860
 2738SOL     OW19672   3.822   4.183   2.342  0.2514  0.5391 -0.1619
 2738SOL    HW119673   3.915   4.165   2.356 -0.2391 -1.1774  0.8027
 2738SOL    HW219674   3.825   4.249   2.273  0.0455  1.2254  0.4911
 2739SOL     OW19675   0.476   1.106   0.929  0.1245 -0.3528  0.0464
 2739SOL    HW119676   0.538   1.083   0.999 -1.1320 -2.2882  0.5207
 2739SOL    HW219677   0.400   1.132   0.981 -1.0346 -0.5210 -1.5790
 2740SOL     OW19678   4.283   0.578   8.488 -0.0964 -0.6427 -0.2033
 2740SOL    HW119679   4.354   0.613   8.433  1.2945 -2.8363  0.1739
 2740SOL    HW219680   4.269   0.638   8.561  0.2205 -1.9950  0.9690
 2741SOL     OW19681   1.284   1.207   3.113  0.0249 -0.1320 -0.6107
 2741SOL    HW119682   1.351   1.274   3.124 -1.0220  0.9565 -0.8549
 2741SOL    HW219683   1.202   1.256   3.110 -0.5271 -0.9067  1.6545
 2742SOL     OW19684   0.865   0.382   8.344 -0.1379 -0.0782 -0.0877
 2742SOL    HW119685   0.888   0.448   8.279 -1.1395 -0.1535 -0.5270
 2742SOL    HW219686   0.771   0.397   8.359  0.1700  1.9214 -0.1711
 2743SOL     OW19687   3.053   2.238  10.218  0.2566 -0.2255  0.0028
 2743SOL    HW119688   3.001   2.173  10.170  0.8311 -0.9244  0.3179
 2743SOL    HW219689   3.057   2.190  10.301  1.7975 -0.2161 -0.0569
 2744SOL     OW19690   0.139   1.653   1.205 -0.1090 -0.3222  0.3142
 2744SOL    HW119691   0.172   1.707   1.277 -1.2295  3.3515 -1.9064
 2744SOL    HW219692   0.048   1.680   1.199  0.0194  0.0315 -0.0559
 2745SOL     OW19693   1.004   0.330   8.944 -0.3666 -0.3369  0.1098
 2745SOL    HW119694   0.959   0.371   9.018 -0.9433  3.2987 -2.2569
 2745SOL    HW219695   0.954   0.379   8.879 -1.3214 -0.2390  0.9070
 2746SOL     OW19696   1.749   3.306  12.908  0.8291  0.4449  0.5151
 2746SOL    HW119697   1.701   3.388  12.918  1.8235  1.1903 -0.7586
 2746SOL    HW219698   1.689   3.257  12.852  0.4197  2.0689 -0.4591
 2747SOL     OW19699   0.334   2.059   4.420 -0.2315  0.3450 -0.0983
 2747SOL    HW119700   0.331   2.131   4.357  0.6395  1.2684  0.8948
 2747SOL    HW219701   0.256   2.006   4.405 -0.5234  1.0322 -0.9828
 2748SOL     OW19702   3.691   3.256   5.679  0.7475 -0.0073 -0.4377
 2748SOL    HW119703   3.724   3.331   5.729  3.1737 -2.0166  0.9795
 2748SOL    HW219704   3.729   3.262   5.592  1.3002 -0.3315 -0.2163
 2749SOL     OW19705   0.970   0.156   8.385 -0.6411 -0.8594  0.4512
 2749SOL    HW119706   0.987   0.144   8.292  0.9438 -2.4288  0.9229
 2749SOL    HW219707   0.911   0.231   8.378  2.4315  1.5133 -0.1625
 2750SOL     OW19708   3.139   2.987   3.178  0.3678 -0.2519  0.1709
 2750SOL    HW119709   3.183   3.071   3.163 -1.5589  0.7156 -0.0729
 2750SOL    HW219710   3.130   2.954   3.088  0.6948 -3.0293  1.1570
 2751SOL     OW19711   3.728   0.734   8.835  0.4553 -0.5070 -0.3903
 2751SOL    HW119712   3.805   0.699   8.880 -0.4151 -0.9323  0.7654
 2751SOL    HW219713   3.694   0.801   8.893  1.2578 -0.7401  0.3436
 2752SOL     OW19714   0.994   3.014   4.980 -0.3004  0.4583  0.1120
 2752SOL    HW119715   1.018   3.092   5.030 -0.0073  0.0938  0.5374
 2752SOL    HW219716   0.913   3.050   4.944 -0.4242 -0.7257 -0.7820
 2753SOL     OW19717   1.385   4.641   4.294 -0.7918 -0.2609 -0.2342
 2753SOL    HW119718   1.363   4.692   4.372 -1.0084  2.9146 -2.3849
 2753SOL    HW219719   1.441   4.703   4.249 -0.4897 -1.7117 -1.8513
 2754SOL     OW19720   0.421   1.082   8.114  0.2180  0.1154 -0.5035
 2754SOL    HW119721   0.513   1.057   8.104  0.6682  1.9037 -0.8909
 2754SOL    HW219722   0.386   1.054   8.029  1.5296  1.2618 -1.4178
 2755SOL     OW19723   0.578   4.394   5.092 -0.3165  0.7139 -0.0280
 2755SOL    HW119724   0.627   4.464   5.135  0.9302  1.0124 -1.9265
 2755SOL    HW219725   0.652   4.358   5.043 -1.1702  1.5330 -1.9327
 2756SOL     OW19726   3.880   1.092  11.398  0.0745  0.4688 -0.0402
 2756SOL    HW119727   3.834   1.123  11.476  1.6581 -0.7942  1.3924
 2756SOL    HW219728   3.875   0.997  11.407 -0.8805  0.4224 -1.0145
 2757SOL     OW19729   1.794   0.863   2.070  0.3744  0.0631 -0.6382
 2757SOL    HW119730   1.699   0.864   2.060  0.4060 -0.0002 -0.9666
 2757SOL    HW219731   1.794   0.935   2.133 -1.2244  0.2884 -0.8790
 2758SOL     OW19732   0.145   4.604  14.919 -0.4193  0.3483  0.2985
 2758SOL    HW119733   0.226   4.635  14.879 -1.8615 -0.9923 -3.7263
 2758SOL    HW219734   0.085   4.631  14.850  1.5042  1.6999 -0.8287
 2759SOL     OW19735   3.479   3.913   0.785  0.1248  0.0516 -0.4768
 2759SOL    HW119736   3.387   3.922   0.761  0.5440  0.3735 -1.9740
 2759SOL    HW219737   3.511   3.871   0.705 -1.6747 -0.7714 -0.7859
 2760SOL     OW19738   0.090   0.629   8.775  0.1254 -0.1024  0.1259
 2760SOL    HW119739   0.140   0.567   8.721 -0.4924  0.3138 -0.9212
 2760SOL    HW219740   0.162   0.677   8.815  0.2425 -0.5259  0.4356
 2761SOL     OW19741   3.245   3.621   2.945 -0.4527  0.4765  0.3035
 2761SOL    HW119742   3.293   3.638   3.026  2.1880  3.1016 -1.8117
 2761SOL    HW219743   3.166   3.674   2.952 -2.0311 -1.9219  0.7605
 2762SOL     OW19744   0.502   4.009  14.884  0.1988 -0.5100 -0.5095
 2762SOL    HW119745   0.567   3.969  14.942 -0.0362  1.1506  0.8912
 2762SOL    HW219746   0.505   3.953  14.806  0.1761 -0.9842 -0.1676
 2763SOL     OW19747   1.201   2.216   6.223  0.2823 -0.3756  0.1399
 2763SOL    HW119748   1.248   2.223   6.306 -2.1296 -1.1714  1.5928
 2763SOL    HW219749   1.137   2.147   6.242 -1.6403  1.4471  0.2451
 2764SOL     OW19750   0.944   3.925   3.580  0.2029  0.7988 -0.5572
 2764SOL    HW119751   1.009   3.959   3.519  2.2811  0.3313  1.3979
 2764SOL    HW219752   0.875   3.955   3.522 -1.4022 -1.3556  0.2041
 2765SOL     OW19753   4.506   1.628   6.854 -0.0233  0.5228 -0.2140
 2765SOL    HW119754   4.472   1.694   6.915 -2.1544  0.0030 -0.8698
 2765SOL    HW219755   4.552   1.693   6.800 -1.0043  1.1203 -0.3260
 2766SOL     OW19756   0.710   1.900   9.031 -0.2072 -0.5771 -0.9770
 2766SOL    HW119757   0.651   1.973   9.052  1.4210  0.4147  0.0571
 2766SOL    HW219758   0.791   1.943   9.056  0.2548 -2.9425  1.5555
 2767SOL     OW19759   4.030   4.588   2.742 -0.1235  0.1401  0.7733
 2767SOL    HW119760   4.013   4.499   2.773  1.0497 -0.3074  0.1371
 2767SOL    HW219761   4.016   4.633   2.825  1.0802  0.0046  1.0431
 2768SOL     OW19762   3.185   3.470   8.786 -0.1295 -0.6577  0.2978
 2768SOL    HW119763   3.226   3.515   8.712 -1.7341  1.5131  0.7197
 2768SOL    HW219764   3.254   3.407   8.804  1.3933  1.5006  2.0748
 2769SOL     OW19765   0.431   1.447   8.538 -0.1698  0.4044  0.0269
 2769SOL    HW119766   0.415   1.395   8.460 -0.3379  0.7271 -0.1548
 2769SOL    HW219767   0.452   1.380   8.603 -1.5776 -0.7244 -0.6755
 2770SOL     OW19768   0.169   4.330   8.998 -0.5002  0.0257  0.5661
 2770SOL    HW119769   0.106   4.354   8.931 -0.7197 -3.3822 -0.4315
 2770SOL    HW219770   0.241   4.293   8.946  0.7204 -0.6291  2.7084
 2771SOL     OW19771   1.703   3.208   3.972  0.8263 -0.4154 -0.3734
 2771SOL    HW119772   1.609   3.226   3.971  0.1160 -4.1409  1.2255
 2771SOL    HW219773   1.705   3.146   4.044 -0.0457 -0.4813 -0.4093
 2772SOL     OW19774   3.014   3.492  14.048  0.1036 -0.1471 -0.2484
 2772SOL    HW119775   2.977   3.404  14.056  0.1217 -0.0184  1.1466
 2772SOL    HW219776   3.002   3.513  13.955  1.4122  0.8984 -0.1701
 2773SOL     OW19777   4.536   2.714  10.029  0.4137 -0.5663 -0.4029
 2773SOL    HW119778   4.502   2.631  10.061 -0.2463  0.2859  1.0913
 2773SOL    HW219779   4.581   2.694   9.947 -0.0461  0.7780 -0.9975
 2774SOL     OW19780   4.096   4.552   3.902 -0.4583 -0.3838 -0.5948
 2774SOL    HW119781   4.100   4.629   3.959  0.5095 -1.9078  1.4078
 2774SOL    HW219782   4.051   4.595   3.830  0.0949 -0.2074 -0.8341
 2775SOL     OW19783   4.401   0.947   6.035 -0.3822 -0.1461 -0.0760
 2775SOL    HW119784   4.491   0.955   6.067 -1.4043  0.0791  2.7821
 2775SOL    HW219785   4.430   0.929   5.946 -0.7203 -2.7332  0.3442
 2776SOL     OW19786   2.212   2.046   1.669  0.2446 -0.2351 -0.3524
 2776SOL    HW119787   2.240   2.051   1.760  0.9686 -0.8380 -0.5425
 2776SOL    HW219788   2.295   2.026   1.627  0.3845 -2.1379  0.8161
 2777SOL     OW19789   3.394   3.323  10.631  0.6178 -0.3241  0.3665
 2777SOL    HW119790   3.342   3.243  10.639 -3.9756  2.7122  1.1460
 2777SOL    HW219791   3.326   3.390  10.631  2.2387  1.3347  0.5320
 2778SOL     OW19792   0.036   2.575  11.937  0.4687 -0.6672 -0.5892
 2778SOL    HW119793   0.109   2.548  11.993  0.5270  3.0205  1.0836
 2778SOL    HW219794   0.079   2.637  11.878 -0.2448  0.8607  0.5281
 2779SOL     OW19795   0.319   4.084   7.491  0.1653 -0.6760 -0.2061
 2779SOL    HW119796   0.256   4.016   7.515  0.1850 -0.5890  0.0951
 2779SOL    HW219797   0.290   4.104   7.402 -2.3246  2.4390  1.2792
 2780SOL     OW19798   0.484   2.121   2.413 -0.1585  0.5034  0.2591
 2780SOL    HW119799   0.499   2.147   2.504  0.0207  2.2163 -0.2550
 2780SOL    HW219800   0.547   2.181   2.373 -1.4213  1.0887 -0.8383
 2781SOL     OW19801   3.075   3.834   3.016  0.2279 -0.3091 -0.2967
 2781SOL    HW119802   2.983   3.861   3.007 -0.2290 -1.8176 -0.1481
 2781SOL    HW219803   3.117   3.891   3.080 -0.7705  1.3815 -1.1536
 2782SOL     OW19804   2.813   3.585   3.683 -0.3952 -0.9288  0.5394
 2782SOL    HW119805   2.786   3.661   3.735 -1.1951  0.8198 -2.4277
 2782SOL    HW219806   2.729   3.551   3.651 -0.0797  0.1655 -1.4535
 2783SOL     OW19807   3.420   2.277   6.914 -0.2572 -0.4903  1.0368
 2783SOL    HW119808   3.467   2.231   6.844  1.2446 -1.9933  3.0395
 2783SOL    HW219809   3.385   2.204   6.965 -0.2509 -0.8437  0.5348
 2784SOL     OW19810   3.748   3.548   7.081 -0.4288  0.1812 -0.2333
 2784SOL    HW119811   3.779   3.543   7.171 -1.0411  0.9222  0.0248
 2784SOL    HW219812   3.820   3.498   7.043 -1.0295 -0.8608 -0.0170
 2785SOL     OW19813   3.874   0.175   5.348  0.0124 -0.4227 -0.8242
 2785SOL    HW119814   3.853   0.200   5.438  1.3935 -1.2123 -0.2811
 2785SOL    HW219815   3.903   0.262   5.320  0.9971 -0.2086  0.8294
 2786SOL     OW19816   3.494   1.737  15.985 -0.0809 -0.4151  0.0828
 2786SOL    HW119817   3.411   1.691  15.971  0.2756 -1.4138  1.2242
 2786SOL    HW219818   3.468   1.828  15.974  0.4015 -0.4416 -1.2364
 2787SOL     OW19819   3.641   1.144   7.680  0.2942 -0.3432  0.5024
 2787SOL    HW119820   3.596   1.229   7.684  2.5673  0.8064  2.1661
 2787SOL    HW219821   3.611   1.087   7.750  2.3928 -0.7589  1.0475
 2788SOL     OW19822   1.931   1.701   2.946 -0.0664  0.0966 -0.4300
 2788SOL    HW119823   1.952   1.610   2.967 -1.3263  0.4072  2.0960
 2788SOL    HW219824   1.967   1.716   2.858  0.8584 -1.8342 -0.3835
 2789SOL     OW19825   1.035   2.922  11.142 -0.3741  0.3936  0.1110
 2789SOL    HW119826   1.071   2.979  11.210  1.6279 -2.0408  1.1007
 2789SOL    HW219827   1.070   2.837  11.171  1.6844  0.2994 -2.5908
 2790SOL     OW19828   3.501   0.298   1.110 -0.0870  0.1101 -0.7915
 2790SOL    HW119829   3.470   0.379   1.069 -1.9801  0.0815  0.5489
 2790SOL    HW219830   3.594   0.310   1.091 -0.6085  2.5431 -1.8224
 2791SOL     OW19831   2.640   2.265   5.398  0.1767  0.1452  0.9197
 2791SOL    HW119832   2.586   2.326   5.348  1.2784  1.5474  1.4503
 2791SOL    HW219833   2.607   2.177   5.379  2.7498 -0.9585  1.5441
 2792SOL     OW19834   2.357   1.639   6.499 -0.1761 -0.1695  0.1268
 2792SOL    HW119835   2.372   1.577   6.570 -0.6920 -1.3441 -0.7948
 2792SOL    HW219836   2.313   1.709   6.547  0.7500  1.2399 -1.0625
 2793SOL     OW19837   0.077   2.223   2.760  0.0223 -0.0732 -0.1942
 2793SOL    HW119838   0.102   2.287   2.694 -2.3167  0.3474 -0.6594
 2793SOL    HW219839   0.091   2.136   2.721  1.2157 -1.2305  2.7881
 2794SOL     OW19840   0.209   2.834   6.323 -0.2448 -0.1877  0.1623
 2794SOL    HW119841   0.130   2.782   6.306  0.9272 -1.6422 -0.8853
 2794SOL    HW219842   0.249   2.825   6.236 -1.4904 -2.9367 -0.1541
 2795SOL     OW19843   0.629   4.027   8.167  0.1810  0.0476  0.0721
 2795SOL    HW119844   0.641   3.975   8.087 -0.7368 -0.7522  0.4522
 2795SOL    HW219845   0.544   3.990   8.193 -0.0408  0.7527  0.3307
 2796SOL     OW19846   0.458   2.609   5.354 -0.1333  0.1718  0.0150
 2796SOL    HW119847   0.382   2.663   5.333  0.2017 -0.2032 -2.1705
 2796SOL    HW219848   0.416   2.546   5.412  1.6197 -2.1081 -1.2318
 2797SOL     OW19849   2.129   0.863   3.831 -0.3584 -0.2265 -0.5070
 2797SOL    HW119850   2.133   0.820   3.746 -1.1909 -0.2364 -0.5406
 2797SOL    HW219851   2.162   0.793   3.887 -1.7064 -1.5614 -1.3878
 2798SOL     OW19852   2.544   3.679  17.460 -0.4728 -0.8679  0.3250
 2798SOL    HW119853   2.478   3.711  17.521 -0.7719  0.3944 -0.6447
 2798SOL    HW219854   2.597   3.758  17.446 -2.1952 -0.0428 -1.5319
 2799SOL     OW19855   4.135   0.440   1.382  0.1629  0.0116 -0.1425
 2799SOL    HW119856   4.201   0.504   1.353  0.4138  0.4196  1.3314
 2799SOL    HW219857   4.191   0.368   1.409 -0.3498  0.5523  2.3979
 2800SOL     OW19858   4.011   0.589   1.164  0.2218  0.7440 -0.0995
 2800SOL    HW119859   4.076   0.531   1.125  0.9373  1.3727  0.1594
 2800SOL    HW219860   3.951   0.601   1.091 -0.9569  0.5047  0.8231
 2801SOL     OW19861   1.162   0.274   2.558  0.1347  0.2231 -0.1541
 2801SOL    HW119862   1.084   0.298   2.608  0.0004  2.3769 -1.4374
 2801SOL    HW219863   1.138   0.310   2.473  2.0805 -1.8845 -1.5869
 2802SOL     OW19864   2.996   1.814   5.239 -0.1014  0.0839  0.0263
 2802SOL    HW119865   2.956   1.867   5.308 -1.2343  1.1666 -1.4602
 2802SOL    HW219866   3.032   1.881   5.182  1.6010  0.2289  1.2701
 2803SOL     OW19867   4.478   0.324   0.724  0.1496  0.2699 -0.4940
 2803SOL    HW119868   4.557   0.304   0.675  1.0038  0.9895  0.5837
 2803SOL    HW219869   4.468   0.415   0.695  2.2368 -0.3442 -3.0316
 2804SOL     OW19870   0.673   3.644   0.305 -0.0801  0.4433  0.1048
 2804SOL    HW119871   0.745   3.628   0.243  0.8035 -1.2593  1.5877
 2804SOL    HW219872   0.599   3.594   0.271 -0.9568  0.6736  1.6851
 2805SOL     OW19873   0.890   2.349   3.001 -0.0973  0.2628  0.4481
 2805SOL    HW119874   0.836   2.283   2.957  1.0574 -0.7460  0.5131
 2805SOL    HW219875   0.836   2.363   3.079  0.7174 -0.4725  1.1437
 2806SOL     OW19876   0.647   3.070  10.732 -0.1589  0.3876  0.1169
 2806SOL    HW119877   0.713   3.135  10.710  0.3125 -0.6116 -1.4330
 2806SOL    HW219878   0.655   3.064  10.827 -0.5123  1.7988  0.2396
 2807SOL     OW19879   3.018   0.263   5.979 -0.2562  0.2965  0.7749
 2807SOL    HW119880   3.086   0.290   6.040  1.7522 -2.3887 -0.2624
 2807SOL    HW219881   2.940   0.256   6.034  0.0250  0.7092  1.2302
 2808SOL     OW19882   4.394   1.853   1.537  0.1238 -0.6610 -0.1396
 2808SOL    HW119883   4.311   1.871   1.492 -2.1706 -0.6038  4.1112
 2808SOL    HW219884   4.429   1.770   1.507  1.1001 -0.1566 -0.4001
 2809SOL     OW19885   3.210   0.403   9.443  0.5679 -0.1913 -0.1851
 2809SOL    HW119886   3.146   0.467   9.410  1.0426  0.4325  0.0979
 2809SOL    HW219887   3.158   0.348   9.503 -0.8667  1.5781  0.1985
 2810SOL     OW19888   1.184   4.275  14.746  0.1774 -0.3015 -0.2231
 2810SOL    HW119889   1.214   4.302  14.659  1.0502  1.1059  0.5243
 2810SOL    HW219890   1.103   4.324  14.753 -0.5225 -1.3941 -0.6400
 2811SOL     OW19891   2.223   1.070   1.085 -0.0510 -0.0327 -0.4116
 2811SOL    HW119892   2.155   1.009   1.057  0.8798  0.1658 -3.1417
 2811SOL    HW219893   2.177   1.141   1.040 -1.3930 -0.9148 -0.4467
 2812SOL     OW19894   3.028   0.008   0.043 -0.1504 -0.3857  0.6967
 2812SOL    HW119895   3.103   0.057   0.076  2.1551 -4.2389  1.1675
 2812SOL    HW219896   2.959   0.067   0.074 -1.4152 -1.5425  0.0498
 2813SOL     OW19897   4.201   1.700   3.710  0.0772 -0.8975  0.0495
 2813SOL    HW119898   4.158   1.639   3.769 -1.7014 -1.1174 -1.4719
 2813SOL    HW219899   4.130   1.763   3.713  0.7569 -0.1700  0.8214
 2814SOL     OW19900   3.018   2.204  12.638 -0.1725 -0.1472 -0.3917
 2814SOL    HW119901   3.060   2.125  12.605  0.6438 -0.8192  2.2936
 2814SOL    HW219902   3.092   2.263  12.652  0.2649 -0.8601  0.2722
 2815SOL     OW19903   1.067   0.670   2.506 -0.2064  0.1446  0.3435
 2815SOL    HW119904   0.999   0.605   2.523 -1.5584  0.8133 -2.4206
 2815SOL    HW219905   1.013   0.739   2.468 -1.3154 -0.3602  1.0180
 2816SOL     OW19906   0.378   1.758  12.290 -0.1005  0.3768 -0.0626
 2816SOL    HW119907   0.410   1.824  12.229 -3.2689  4.4716  2.7227
 2816SOL    HW219908   0.374   1.674  12.245 -0.6226  1.5875 -2.2330
 2817SOL     OW19909   4.176   3.679   7.566 -0.3528 -0.2910  0.1485
 2817SOL    HW119910   4.223   3.755   7.601 -1.3632 -0.7067  2.4377
 2817SOL    HW219911   4.139   3.636   7.644 -0.1927 -2.2348 -0.8434
 2818SOL     OW19912   2.158   2.471  15.795 -0.1059 -0.2403 -0.4572
 2818SOL    HW119913   2.245   2.455  15.832 -0.9556  0.2695  1.8039
 2818SOL    HW219914   2.098   2.400  15.819 -1.4471  0.8915 -0.5008
 2819SOL     OW19915   0.954   2.861   1.660  0.3023  0.2684 -0.0405
 2819SOL    HW119916   0.915   2.874   1.747  0.2931 -2.9318  0.4336
 2819SOL    HW219917   1.036   2.910   1.671  0.5832 -0.3456  0.6730
 2820SOL     OW19918   2.119   3.317   1.567 -0.7570 -0.0893 -0.0087
 2820SOL    HW119919   2.129   3.401   1.613  1.4594 -0.6880  0.6228
 2820SOL    HW219920   2.029   3.307   1.537 -1.2413  2.1732  0.6942
 2821SOL     OW19921   0.312   0.035  14.694 -0.5850  0.4248  0.1755
 2821SOL    HW119922   0.350   0.032  14.782 -0.8586 -0.4860  0.2606
 2821SOL    HW219923   0.238   0.096  14.697  0.7548  1.9757  2.2527
 2822SOL     OW19924   3.702   0.106   7.628  0.5201  0.5578 -0.1451
 2822SOL    HW119925   3.765   0.067   7.688 -1.2816 -1.6253  0.3260
 2822SOL    HW219926   3.712   0.052   7.550  0.8052  1.9413 -1.0776
 2823SOL     OW19927   0.395   3.198   4.078 -0.6699  0.4914 -0.1154
 2823SOL    HW119928   0.487   3.183   4.099 -0.3190  3.7105  0.6857
 2823SOL    HW219929   0.377   3.280   4.124 -0.0583  0.5380  0.0460
 2824SOL     OW19930   2.899   1.566   5.325 -0.2432 -0.1513 -0.1170
 2824SOL    HW119931   2.823   1.537   5.275 -0.7681 -0.1917  0.6985
 2824SOL    HW219932   2.933   1.648   5.291 -1.2436 -1.1465 -3.5594
 2825SOL     OW19933   0.247   4.684   6.869  0.9265 -0.2035 -0.1328
 2825SOL    HW119934   0.285   4.625   6.934  1.1076 -0.3390 -0.3604
 2825SOL    HW219935   0.169   4.632   6.846  1.0085 -1.0465  1.4535
 2826SOL     OW19936   0.906   1.158   3.903 -1.0592 -0.1864  0.5595
 2826SOL    HW119937   0.840   1.191   3.963 -3.2783 -3.3660 -0.1264
 2826SOL    HW219938   0.945   1.240   3.873 -1.9496 -0.0791 -0.3154
 2827SOL     OW19939   0.270   0.543   3.277 -0.1313 -0.8399 -0.0005
 2827SOL    HW119940   0.175   0.547   3.289  0.1555  0.4876  1.7247
 2827SOL    HW219941   0.297   0.461   3.318 -1.7403 -0.6604  1.4079
 2828SOL     OW19942   3.525   3.572   6.778 -0.9734 -0.6187 -0.0682
 2828SOL    HW119943   3.484   3.650   6.743 -0.0695  0.7727  1.9442
 2828SOL    HW219944   3.482   3.494   6.742  0.0117 -1.9078  1.5049
 2829SOL     OW19945   2.564   0.034   8.157 -0.6308  0.0659  0.1917
 2829SOL    HW119946   2.537   4.718   8.239  2.3018 -1.0397  0.6195
 2829SOL    HW219947   2.657   0.056   8.167 -0.4249 -0.4509 -0.5875
 2830SOL     OW19948   3.843   1.267  13.203 -0.3343  0.6361 -0.9198
 2830SOL    HW119949   3.826   1.292  13.112  1.6056 -1.2746 -1.7925
 2830SOL    HW219950   3.935   1.243  13.201 -0.5071 -0.1556  0.6962
 2831SOL     OW19951   1.722   4.409   0.306  0.0475 -0.3625  0.4116
 2831SOL    HW119952   1.682   4.363   0.232 -0.5573  3.0748 -1.3918
 2831SOL    HW219953   1.639   4.444   0.336  0.4585 -0.2774  1.4373
 2832SOL     OW19954   2.846   2.707   6.926  0.4266 -0.0674 -0.0098
 2832SOL    HW119955   2.817   2.757   7.003  2.4788  0.2205  0.5640
 2832SOL    HW219956   2.938   2.731   6.914  0.9440 -2.2651 -0.4735
 2833SOL     OW19957   0.054   3.268   1.076 -0.1746  0.4014 -0.8557
 2833SOL    HW119958   0.050   3.224   1.161 -1.3434  0.1754 -1.0225
 2833SOL    HW219959   0.052   3.189   1.021 -0.7147 -0.3995  0.3318
 2834SOL     OW19960   0.002   4.577  11.817 -0.0983  0.3447  0.0481
 2834SOL    HW119961   4.717   4.624  11.900 -0.6619  0.0917  0.1301
 2834SOL    HW219962   4.640   4.534  11.819  0.7776 -1.3261  1.6300
 2835SOL     OW19963   2.830   0.699  10.769 -0.4558  0.5419 -0.6240
 2835SOL    HW119964   2.778   0.744  10.836  0.1731  1.8264 -0.9889
 2835SOL    HW219965   2.768   0.638  10.731 -0.9013 -0.6877  2.0773
 2836SOL     OW19966   3.187   0.368   8.195  0.5086  0.1347 -0.0734
 2836SOL    HW119967   3.193   0.273   8.194 -0.5015  0.0811 -1.4126
 2836SOL    HW219968   3.228   0.400   8.114 -0.9369  1.2948 -0.3550
 2837SOL     OW19969   0.030   4.601  12.090 -0.6351  0.5800  0.5121
 2837SOL    HW119970   0.122   4.611  12.113 -0.3558  1.1347 -0.9017
 2837SOL    HW219971   0.004   4.537  12.157 -0.1983 -0.6894 -0.5523
 2838SOL     OW19972   3.585   0.930  12.016 -0.2379  0.1126  0.1481
 2838SOL    HW119973   3.580   0.894  12.104  0.2474 -0.2264  0.0318
 2838SOL    HW219974   3.560   1.022  12.031  0.0980 -0.0964  1.9799
 2839SOL     OW19975   4.585   3.672   3.831 -0.4747 -0.2888 -0.1656
 2839SOL    HW119976   4.643   3.676   3.754 -1.0101 -3.4063 -0.7476
 2839SOL    HW219977   4.575   3.767   3.835 -2.1221 -0.5085  0.8069
 2840SOL     OW19978   2.843   4.229  15.999 -0.3466  0.0644 -0.0411
 2840SOL    HW119979   2.844   4.213  15.904  2.1239  2.0395 -0.3327
 2840SOL    HW219980   2.913   4.287  16.027  1.1507 -1.6990 -0.1343
 2841SOL     OW19981   1.488   4.375   8.956  0.9634 -0.7508  0.7106
 2841SOL    HW119982   1.405   4.423   8.950  1.3784 -0.4483 -2.4899
 2841SOL    HW219983   1.466   4.292   8.914  0.7661  1.2002 -3.0257
 2842SOL     OW19984   4.351   0.601   8.092 -0.0665 -0.0096  0.3132
 2842SOL    HW119985   4.329   0.628   8.181  1.0532  1.2325  0.2091
 2842SOL    HW219986   4.440   0.634   8.080  0.0465 -0.5538 -0.3536
 2843SOL     OW19987   3.355   2.312  13.470 -0.0999 -0.2771  0.4784
 2843SOL    HW119988   3.306   2.394  13.461  1.1749  0.5491  1.1667
 2843SOL    HW219989   3.355   2.289  13.377  1.5179 -3.0777  1.1609
 2844SOL     OW19990   0.036   3.440   1.682 -0.7415 -0.0803  0.8242
 2844SOL    HW119991   0.089   3.434   1.603  1.4873  0.2463  2.2886
 2844SOL    HW219992   0.109   3.431   1.743  1.6305 -0.2292 -2.0515
 2845SOL     OW19993   1.461   0.161   6.365 -0.7414 -0.8680  0.2472
 2845SOL    HW119994   1.534   0.180   6.306 -1.7581 -0.5260 -0.8953
 2845SOL    HW219995   1.462   0.236   6.425 -0.2009 -1.8993  1.5328
 2846SOL     OW19996   2.421   1.550   5.729 -0.1569 -0.1456 -0.2213
 2846SOL    HW119997   2.511   1.555   5.698  0.3853  1.7181  1.7043
 2846SOL    HW219998   2.422   1.567   5.823 -0.0751 -0.2972 -0.1941
 2847SOL     OW19999   0.045   2.934   2.023  0.5232 -0.5701 -0.1508
 2847SOL    HW120000   0.085   2.847   2.031 -0.0562 -0.9215 -1.0231
 2847SOL    HW220001   0.019   2.951   2.114 -1.4116 -0.3353 -0.7402
 2848SOL     OW20002   4.054   4.651   6.320  0.4451  0.1024 -0.0202
 2848SOL    HW120003   4.101   4.651   6.237  0.9296 -0.0499  0.2556
 2848SOL    HW220004   4.053   4.560   6.350 -1.1071  0.4537  0.9818
 2849SOL     OW20005   2.366   4.175   8.734 -0.0940 -0.3583 -0.4771
 2849SOL    HW120006   2.435   4.198   8.672 -0.8821  0.3533 -1.0901
 2849SOL    HW220007   2.411   4.141   8.812  1.8088  0.4497 -1.2168
 2850SOL     OW20008   2.381   0.982   1.305 -0.2237  0.0456 -0.2290
 2850SOL    HW120009   2.435   1.060   1.320  0.2401 -0.2597 -0.3023
 2850SOL    HW220010   2.322   0.996   1.231  1.8586 -1.6159 -2.2193
 2851SOL     OW20011   1.739   3.463   4.124 -0.1998 -0.0165  0.7860
 2851SOL    HW120012   1.681   3.402   4.079 -0.3324 -0.1668  1.1614
 2851SOL    HW220013   1.753   3.535   4.062 -2.2501 -0.9822 -0.7646
 2852SOL     OW20014   2.329   1.478   7.883  0.6367  0.4398 -0.1980
 2852SOL    HW120015   2.397   1.442   7.827 -1.9666 -0.4304 -2.8478
 2852SOL    HW220016   2.308   1.403   7.939 -1.3201  0.4652 -0.8657
 2853SOL     OW20017   4.443   1.850   8.654 -0.0050 -0.4535  0.5102
 2853SOL    HW120018   4.500   1.925   8.638 -0.5549 -0.1526 -0.0005
 2853SOL    HW220019   4.448   1.859   8.750 -0.7762  0.3376  0.4694
 2854SOL     OW20020   3.340   1.084   6.214 -0.6280  0.2157 -0.5705
 2854SOL    HW120021   3.286   1.150   6.171 -0.0249 -1.2472 -3.5777
 2854SOL    HW220022   3.427   1.091   6.173 -0.8121  0.4059 -0.9255
 2855SOL     OW20023   4.700   0.040   8.591 -0.0941 -0.7161 -0.0452
 2855SOL    HW120024   0.054   0.011   8.544 -0.0086 -1.5044  0.5767
 2855SOL    HW220025   4.686   0.129   8.559  1.3655 -1.7401 -3.5325
 2856SOL     OW20026   4.545   4.604  11.527  0.3056 -0.2729  0.0598
 2856SOL    HW120027   4.470   4.664  11.527  3.0776  3.1889 -0.7329
 2856SOL    HW220028   4.502   4.518  11.524  0.9219 -0.5443 -1.0553
 2857SOL     OW20029   2.633   2.374  16.336 -0.0956  0.1935 -0.3736
 2857SOL    HW120030   2.702   2.327  16.290  0.8300  1.2905 -0.0913
 2857SOL    HW220031   2.610   2.312  16.405  0.6579 -0.9711 -1.1666
 2858SOL     OW20032   2.371   1.560   3.617 -0.3078 -0.8059 -0.2045
 2858SOL    HW120033   2.431   1.574   3.690  0.8636  1.6183 -1.6094
 2858SOL    HW220034   2.374   1.466   3.604  1.1814 -0.6730 -0.9078
 2859SOL     OW20035   2.531   1.125  17.671 -0.5430  0.1398  0.0640
 2859SOL    HW120036   2.484   1.046  17.643  1.4886 -0.1836 -2.4705
 2859SOL    HW220037   2.595   1.127  17.600 -0.3701  0.2082  0.2220
 2860SOL     OW20038   4.395   4.279   8.564  0.1859 -0.0842 -0.5816
 2860SOL    HW120039   4.460   4.210   8.547  1.7332  1.1495  0.4001
 2860SOL    HW220040   4.398   4.290   8.659 -0.6537  0.1896 -0.5848
 2861SOL     OW20041   0.010   2.202   7.248 -0.1539  0.6333 -0.6776
 2861SOL    HW120042   0.002   2.211   7.153  0.2950 -1.6361 -0.9228
 2861SOL    HW220043   0.087   2.257   7.263 -0.6175  0.9363  0.5501
 2862SOL     OW20044   2.098   4.580  13.366 -0.1790 -0.0347  0.0621
 2862SOL    HW120045   2.048   4.647  13.412 -0.6550 -1.0782  1.0781
 2862SOL    HW220046   2.176   4.633  13.347 -1.1373  1.5371  0.4886
 2863SOL     OW20047   4.255   2.750  14.774 -0.1920 -0.1103 -0.4481
 2863SOL    HW120048   4.349   2.736  14.782 -0.5069 -0.5930  2.7023
 2863SOL    HW220049   4.216   2.669  14.808  1.7581 -0.9716 -0.2614
 2864SOL     OW20050   0.736   3.757   6.096  0.6619 -0.5406 -0.3681
 2864SOL    HW120051   0.652   3.803   6.096  0.2954 -1.2244 -2.0369
 2864SOL    HW220052   0.800   3.826   6.112  0.2214 -0.2480  0.1409
 2865SOL     OW20053   3.832   3.845   3.702 -0.0403 -0.5152  0.2874
 2865SOL    HW120054   3.779   3.857   3.780 -0.6177  2.0137 -0.4824
 2865SOL    HW220055   3.921   3.857   3.735  0.6392 -1.2072 -1.2906
 2866SOL     OW20056   2.234   0.288   7.060 -0.1889  0.0912  0.3932
 2866SOL    HW120057   2.186   0.369   7.080  0.8132  0.8937 -0.4332
 2866SOL    HW220058   2.281   0.275   7.142  0.8600 -1.3273 -0.4364
 2867SOL     OW20059   0.487   2.649   3.051 -0.3062  0.2543  0.1644
 2867SOL    HW120060   0.496   2.603   2.967 -3.0738 -0.0440  0.0198
 2867SOL    HW220061   0.496   2.573   3.109 -0.7938 -0.2095 -0.3658
 2868SOL     OW20062   3.197   2.278   1.393 -0.2664  0.1400 -0.2566
 2868SOL    HW120063   3.165   2.199   1.349 -1.2127 -1.1301  2.6945
 2868SOL    HW220064   3.204   2.334   1.316  3.1996  0.5632  0.3737
 2869SOL     OW20065   4.316   3.450   8.192  0.1167 -0.3160  0.1728
 2869SOL    HW120066   4.346   3.460   8.101  1.9332 -0.1760  0.7749
 2869SOL    HW220067   4.401   3.462   8.235 -0.0935 -1.0559  0.7785
 2870SOL     OW20068   3.080   2.151  11.908 -0.1232 -0.2460 -0.2351
 2870SOL    HW120069   3.122   2.176  11.826  3.1554 -2.7493  0.6936
 2870SOL    HW220070   2.997   2.198  11.896  0.1524  0.2768 -0.0665
 2871SOL     OW20071   1.506   0.657   8.057 -0.6194  0.0838  0.6231
 2871SOL    HW120072   1.457   0.720   8.110  2.0574  2.1640  0.6470
 2871SOL    HW220073   1.524   0.597   8.130 -2.4421  0.7422  1.6270
 2872SOL     OW20074   0.527   1.264   2.198 -0.1498  0.0781  0.1866
 2872SOL    HW120075   0.515   1.344   2.251  0.5227 -1.2643  2.3698
 2872SOL    HW220076   0.448   1.211   2.209  0.1901 -0.4366  0.1076
 2873SOL     OW20077   0.973   3.124   3.695 -0.4718  0.2628 -0.3240
 2873SOL    HW120078   0.885   3.089   3.680  0.4106 -1.9702 -0.1846
 2873SOL    HW220079   1.021   3.048   3.726 -2.1542 -0.1305  1.2999
 2874SOL     OW20080   4.707   4.091   1.976 -0.1499  0.7065  0.4240
 2874SOL    HW120081   4.643   4.146   1.932 -1.7546 -1.7592 -0.3568
 2874SOL    HW220082   4.693   4.102   2.070  0.5240 -0.0467  0.6162
 2875SOL     OW20083   3.147   2.579   2.421  0.3021  0.1934  0.1688
 2875SOL    HW120084   3.072   2.601   2.366 -0.2679 -1.7366  0.2014
 2875SOL    HW220085   3.161   2.492   2.384 -1.2341 -0.2357  0.6010
 2876SOL     OW20086   3.798   4.378   6.724 -0.2960 -0.0786  0.6080
 2876SOL    HW120087   3.872   4.438   6.729  0.2270 -0.7127  0.3925
 2876SOL    HW220088   3.766   4.364   6.813 -1.2169  0.5903  0.3898
 2877SOL     OW20089   2.114   1.483   6.071 -0.3731  0.5098  0.3253
 2877SOL    HW120090   2.192   1.469   6.125 -1.9548  1.6123  2.9039
 2877SOL    HW220091   2.160   1.484   5.987  1.5613 -0.4171  1.3883
 2878SOL     OW20092   0.376   3.496   3.260  1.0206  0.2288  0.3390
 2878SOL    HW120093   0.369   3.466   3.169 -1.0214 -2.9162  1.5524
 2878SOL    HW220094   0.370   3.588   3.236  1.3623  0.6279  1.8037
 2879SOL     OW20095   1.086   2.453   2.839  0.4162  0.3555  0.2323
 2879SOL    HW120096   1.164   2.431   2.890  0.0904 -1.9979 -0.2921
 2879SOL    HW220097   1.011   2.418   2.888  0.2597 -0.8900 -0.8972
 2880SOL     OW20098   1.506   0.867  14.279 -0.1597 -0.0937  0.3100
 2880SOL    HW120099   1.540   0.805  14.344  0.7021 -0.3296 -0.3685
 2880SOL    HW220100   1.427   0.824  14.247  0.4508 -0.0629 -1.2368
 2881SOL     OW20101   0.174   3.364   3.713 -0.5217 -0.4599  0.3233
 2881SOL    HW120102   0.230   3.437   3.685 -1.0267  1.0446  3.2250
 2881SOL    HW220103   0.223   3.288   3.681  1.3309  0.5955  0.6534
 2882SOL     OW20104   0.237   0.018   2.304 -0.2905 -0.2305  0.0664
 2882SOL    HW120105   0.294   4.665   2.307 -0.4075 -0.2820  0.9724
 2882SOL    HW220106   0.299   0.078   2.263 -0.6310  1.5697  2.1905
 2883SOL     OW20107   1.769   1.868   9.173 -0.1501  0.1006  0.4044
 2883SOL    HW120108   1.837   1.919   9.130 -1.8634  0.4045 -1.9023
 2883SOL    HW220109   1.730   1.846   9.088 -0.1938 -0.9099  0.6759
 2884SOL     OW20110   1.682   3.579  12.027  0.3148 -0.2196 -0.1127
 2884SOL    HW120111   1.717   3.592  12.115 -2.0104 -0.6514  0.8723
 2884SOL    HW220112   1.721   3.655  11.984 -0.6374  0.0144 -0.5627
 2885SOL     OW20113   4.243   4.644  16.671  0.5041  0.0770 -0.2340
 2885SOL    HW120114   4.336   4.656  16.649  0.7439  0.5745  1.0747
 2885SOL    HW220115   4.215   0.011  16.659 -1.4727 -0.5854 -0.6234
 2886SOL     OW20116   0.987   1.416   8.586 -0.4534  0.1881  0.8448
 2886SOL    HW120117   0.910   1.396   8.639 -1.6360  1.3148 -0.4447
 2886SOL    HW220118   1.056   1.378   8.640  0.3586 -1.7159 -1.5147
 2887SOL     OW20119   4.054   3.917   6.071  0.4353  0.1301  0.5202
 2887SOL    HW120120   4.079   4.009   6.077  1.1154  0.0416 -1.1005
 2887SOL    HW220121   3.987   3.918   6.139  0.3446 -0.9720  0.4418
 2888SOL     OW20122   1.089   2.620  11.917  0.4548 -0.4255  0.3819
 2888SOL    HW120123   1.066   2.565  11.842  1.2922  1.4609 -1.2841
 2888SOL    HW220124   1.020   2.602  11.980  0.0961  2.1466  0.7237
 2889SOL     OW20125   3.899   0.438   9.151  0.2178  0.1236 -0.5970
 2889SOL    HW120126   3.828   0.388   9.111  1.5300 -0.5686 -2.0695
 2889SOL    HW220127   3.891   0.423   9.245  0.5521 -0.3336 -0.6395
 2890SOL     OW20128   3.859   2.333   7.818  0.4328 -0.2775  0.2007
 2890SOL    HW120129   3.938   2.381   7.793  1.4741 -2.3437 -0.5581
 2890SOL    HW220130   3.884   2.240   7.822 -2.1729 -0.9537  0.4012
 2891SOL     OW20131   0.442   4.112   5.248 -0.1456  0.2757 -0.0342
 2891SOL    HW120132   0.412   4.203   5.251 -1.2709 -0.0502 -1.2362
 2891SOL    HW220133   0.362   4.061   5.258  0.3503  0.0081  2.6107
 2892SOL     OW20134   2.010   3.388  17.158 -0.0643 -0.3689 -0.5723
 2892SOL    HW120135   1.966   3.354  17.235  2.2802  1.7797  1.7118
 2892SOL    HW220136   2.099   3.360  17.178  0.1496  1.3640  0.8569
 2893SOL     OW20137   2.357   3.806  12.930  0.3466  0.5779 -0.3171
 2893SOL    HW120138   2.452   3.816  12.928  0.4314 -0.3236 -0.7420
 2893SOL    HW220139   2.349   3.721  12.887 -0.2770  0.8918 -0.8156
 2894SOL     OW20140   0.058   4.575   4.318 -0.0514 -0.2753 -0.4302
 2894SOL    HW120141   0.044   4.639   4.388 -0.1769  0.5617 -1.2030
 2894SOL    HW220142   4.693   4.578   4.281  0.4053 -2.2796 -1.6934
 2895SOL     OW20143   4.701   1.227   6.505  0.7059 -0.4718  0.5824
 2895SOL    HW120144   0.055   1.278   6.532  0.5225  0.2789 -0.3185
 2895SOL    HW220145   4.671   1.280   6.431  3.5926  0.1096 -0.1884
 2896SOL     OW20146   3.892   2.158   9.506 -0.4135  0.5278 -0.2250
 2896SOL    HW120147   3.939   2.076   9.493 -1.8051 -0.6312  1.9344
 2896SOL    HW220148   3.911   2.190   9.594 -0.8068 -0.4006  0.1969
 2897SOL     OW20149   3.887   0.704   4.634  0.0961  0.6451 -0.5421
 2897SOL    HW120150   3.810   0.647   4.637  0.5462  0.1332  1.2399
 2897SOL    HW220151   3.886   0.725   4.540 -0.6752  2.6769 -0.0723
 2898SOL     OW20152   4.036   0.010   3.687  0.3594 -0.3118  0.0775
 2898SOL    HW120153   4.039   4.702   3.596 -0.5294  2.2631 -0.8490
 2898SOL    HW220154   3.942   0.026   3.699  0.1272 -0.0194 -1.9818
 2899SOL     OW20155   4.054   1.745   9.221 -0.3839 -0.1049  0.2661
 2899SOL    HW120156   4.088   1.816   9.275 -0.7891  0.6123 -0.4217
 2899SOL    HW220157   4.097   1.669   9.261 -2.6289  0.0486  2.9246
 2900SOL     OW20158   1.184   2.340  15.915 -0.0432 -0.4213  0.1510
 2900SOL    HW120159   1.113   2.392  15.952 -0.0206  1.3637 -2.3534
 2900SOL    HW220160   1.236   2.318  15.993  0.3328  0.6027  0.1817
 2901SOL     OW20161   0.414   2.286   7.167 -0.6417  0.0059 -1.1055
 2901SOL    HW120162   0.372   2.334   7.095 -1.7324 -0.3739 -0.7233
 2901SOL    HW220163   0.361   2.317   7.240  0.6657  0.4527 -0.3530
 2902SOL     OW20164   1.890   0.315   4.374 -0.1852 -0.0895 -0.5080
 2902SOL    HW120165   1.917   0.350   4.458  0.6981 -1.1800 -0.3520
 2902SOL    HW220166   1.799   0.290   4.393  1.2634 -3.3539  2.0316
 2903SOL     OW20167   2.083   0.518   7.079  0.6861  0.2185 -0.5237
 2903SOL    HW120168   2.042   0.532   6.994  0.1213  2.7224  0.1698
 2903SOL    HW220169   2.081   0.608   7.112  0.9455 -0.7119  2.0794
 2904SOL     OW20170   1.836   4.259  17.504 -0.0142 -0.2154  0.0067
 2904SOL    HW120171   1.841   4.304  17.420  0.5475 -0.9778 -0.3721
 2904SOL    HW220172   1.774   4.322  17.540 -0.0080  1.7373 -3.3816
 2905SOL     OW20173   4.398   0.488  11.682 -0.4893  0.5478  0.1700
 2905SOL    HW120174   4.455   0.518  11.611  0.4307 -0.6304  0.3997
 2905SOL    HW220175   4.447   0.407  11.696 -1.0042  0.1635 -0.2702
 2906SOL     OW20176   4.709   2.312   4.319  0.0786  0.1961  0.5483
 2906SOL    HW120177   4.624   2.353   4.333 -0.4579 -0.4843 -0.7465
 2906SOL    HW220178   0.032   2.394   4.303 -2.2741  1.5314  0.6104
 2907SOL     OW20179   4.250   4.366  12.320  0.0226  0.0780  0.3141
 2907SOL    HW120180   4.176   4.415  12.355  1.1535  1.9821  0.0257
 2907SOL    HW220181   4.279   4.423  12.249 -0.5230  0.8018  0.6713
 2908SOL     OW20182   1.905   1.958   4.607  0.0334  0.3396  0.0953
 2908SOL    HW120183   1.813   1.983   4.606 -0.3108 -0.8773  2.3781
 2908SOL    HW220184   1.951   2.041   4.622 -0.4930  0.6118  0.1956
 2909SOL     OW20185   0.261   3.125   0.696  0.5662 -0.0541 -0.0512
 2909SOL    HW120186   0.326   3.192   0.675  1.6889 -0.4910  2.0525
 2909SOL    HW220187   0.294   3.109   0.784 -0.2220 -1.6837 -0.0571
 2910SOL     OW20188   1.465   2.269  17.118  0.7608  0.1158 -0.1769
 2910SOL    HW120189   1.370   2.270  17.114  0.7122 -0.8635  0.7671
 2910SOL    HW220190   1.493   2.204  17.053 -0.7065  0.5723 -1.2491
 2911SOL     OW20191   1.390   0.592   8.528 -0.4268 -0.6891 -0.0226
 2911SOL    HW120192   1.295   0.603   8.534 -0.1704  0.9981  1.0263
 2911SOL    HW220193   1.422   0.640   8.604  0.4228 -0.1164 -0.7572
 2912SOL     OW20194   1.046   3.406  17.596 -0.6707 -0.4352 -0.1583
 2912SOL    HW120195   1.137   3.409  17.564 -0.2414  0.7677  1.2234
 2912SOL    HW220196   1.042   3.492  17.637 -2.0249 -1.0752  1.0207
 2913SOL     OW20197   0.667   3.823   7.994  0.1035 -0.1208  0.5749
 2913SOL    HW120198   0.747   3.790   8.035 -0.3464  0.3158  1.7749
 2913SOL    HW220199   0.596   3.762   8.015  0.3794 -0.2179  1.2300
 2914SOL     OW20200   0.653   0.216   6.087 -0.8491  0.6862 -0.9419
 2914SOL    HW120201   0.689   0.241   6.172  2.2562  1.2038 -2.4081
 2914SOL    HW220202   0.655   0.121   6.077  2.2565  0.4227  2.2269
 2915SOL     OW20203   4.421   1.610   9.050  0.3185  0.3682 -0.3560
 2915SOL    HW120204   4.465   1.528   9.029  1.4821  1.3304 -1.6079
 2915SOL    HW220205   4.489   1.640   9.110 -0.5891  0.1648  0.7902
 2916SOL     OW20206   3.487   0.997   8.846  0.1451  0.3235  0.1050
 2916SOL    HW120207   3.527   0.949   8.918 -0.4749 -0.2993  0.0310
 2916SOL    HW220208   3.400   1.006   8.886  0.0621 -1.7260  0.3793
 2917SOL     OW20209   4.722   2.750  10.994  0.3329  0.2892 -0.1256
 2917SOL    HW120210   0.080   2.716  10.959  0.1787  0.5323 -0.7183
 2917SOL    HW220211   4.659   2.741  10.923 -1.2481 -3.5370  1.7660
 2918SOL     OW20212   0.707   3.897  10.238  0.0189 -0.2329  0.7719
 2918SOL    HW120213   0.696   3.967  10.302 -1.5340 -0.2376  0.5191
 2918SOL    HW220214   0.642   3.829  10.257  1.1710 -0.6964  3.0773
 2919SOL     OW20215   3.780   3.289  12.775  0.0845 -0.1817  0.2502
 2919SOL    HW120216   3.741   3.213  12.731 -0.4768 -0.2954  0.9361
 2919SOL    HW220217   3.863   3.249  12.803 -0.1438 -0.0843  1.0807
 2920SOL     OW20218   2.336   4.015   7.290  0.3285  0.2661 -0.1064
 2920SOL    HW120219   2.394   4.081   7.252  0.4599 -0.1355 -0.6026
 2920SOL    HW220220   2.251   4.060   7.287 -0.9505 -2.3910 -3.4444
 2921SOL     OW20221   0.395   1.736   2.413  0.2541  0.1649 -0.0427
 2921SOL    HW120222   0.310   1.705   2.444  0.2420 -1.7356 -1.9950
 2921SOL    HW220223   0.380   1.830   2.401 -0.5112  0.0158 -0.3003
 2922SOL     OW20224   0.483   1.859   0.538  0.3385  0.3176  0.3359
 2922SOL    HW120225   0.480   1.914   0.459 -2.3302  0.3485  0.4573
 2922SOL    HW220226   0.505   1.774   0.499  1.1963  1.2189 -1.1761
 2923SOL     OW20227   3.623   0.945   3.387 -0.3665 -0.1876 -0.4926
 2923SOL    HW120228   3.681   1.013   3.421  0.8241 -0.9007 -1.0873
 2923SOL    HW220229   3.535   0.978   3.406 -0.4292 -0.1572 -0.8402
 2924SOL     OW20230   4.087   1.430  10.902 -0.0854  0.5152  0.2845
 2924SOL    HW120231   4.178   1.403  10.906 -0.4159 -0.8213 -1.4766
 2924SOL    HW220232   4.069   1.409  10.811  1.2004  1.3751 -0.1654
 2925SOL     OW20233   3.083   3.753  13.476 -0.2808 -0.4093 -0.3602
 2925SOL    HW120234   3.064   3.801  13.395 -0.3069  0.1875 -0.0057
 2925SOL    HW220235   3.170   3.717  13.458 -0.3579 -1.9127  2.3453
 2926SOL     OW20236   2.237   0.165  10.181  0.3734  0.4600  0.1798
 2926SOL    HW120237   2.269   0.099  10.119 -0.8147  0.0012  0.0526
 2926SOL    HW220238   2.261   0.129  10.266 -1.8188 -1.2301  0.0677
 2927SOL     OW20239   0.379   0.318   5.351  0.2946 -0.4064 -0.4735
 2927SOL    HW120240   0.424   0.331   5.435 -0.7866 -1.5350  0.2876
 2927SOL    HW220241   0.289   0.312   5.383 -0.1679  2.2236 -1.2576
 2928SOL     OW20242   4.605   2.224  13.565  0.6822  0.5051  0.7538
 2928SOL    HW120243   4.632   2.316  13.558  0.1759  0.5303 -0.9944
 2928SOL    HW220244   4.686   2.178  13.542  0.4131  0.5558 -0.3068
 2929SOL     OW20245   3.592   3.861  17.672  0.7948  0.3993 -0.0024
 2929SOL    HW120246   3.673   3.855  17.622  1.3640 -1.5718  1.1284
 2929SOL    HW220247   3.597   3.951   0.008 -0.9911  0.3993  0.2994
 2930SOL     OW20248   0.831   3.975  10.856  0.1893  0.5301  0.0116
 2930SOL    HW120249   0.784   4.038  10.910 -1.1933 -0.5667  0.0901
 2930SOL    HW220250   0.889   4.035  10.808  2.9700 -1.1458  1.2496
 2931SOL     OW20251   1.718   1.256   7.147 -0.2739  0.3050 -0.2807
 2931SOL    HW120252   1.762   1.263   7.062  2.8524  1.2694  1.4085
 2931SOL    HW220253   1.735   1.168   7.179  0.0472 -0.1296 -1.6622
 2932SOL     OW20254   3.149   2.269  11.616  0.1378 -0.6951 -0.3278
 2932SOL    HW120255   3.070   2.219  11.596 -1.6486  1.9126  0.1994
 2932SOL    HW220256   3.131   2.362  11.605 -0.0220 -0.6059  0.6588
 2933SOL     OW20257   1.894   3.527   9.198 -0.3250  0.1732  0.3960
 2933SOL    HW120258   1.801   3.537   9.218 -0.4576 -1.3558  0.5389
 2933SOL    HW220259   1.898   3.542   9.103 -1.1240 -4.5792 -0.3754
 2934SOL     OW20260   2.603   0.568   2.134  0.3709  0.2489  0.0438
 2934SOL    HW120261   2.564   0.598   2.217  3.3677 -0.4252  1.6870
 2934SOL    HW220262   2.663   0.636   2.104  1.1928 -0.3000  0.4533
 2935SOL     OW20263   0.154   1.160   7.128 -0.3495  0.1725 -0.0141
 2935SOL    HW120264   0.205   1.221   7.076 -0.4662  0.1484 -0.1561
 2935SOL    HW220265   0.087   1.226   7.146 -1.7271 -1.5460  1.2167
 2936SOL     OW20266   4.176   3.848   8.205  0.6036 -0.4764 -0.7805
 2936SOL    HW120267   4.091   3.887   8.187  1.2042  0.7883 -0.8133
 2936SOL    HW220268   4.177   3.869   8.298 -1.3133 -2.2845 -0.3370
 2937SOL     OW20269   2.987   4.543   7.351 -0.8596 -0.6057  0.1136
 2937SOL    HW120270   3.050   4.482   7.387  1.6613  1.3109 -1.0694
 2937SOL    HW220271   2.949   4.485   7.285 -1.4978 -0.9683  0.8080
 2938SOL     OW20272   0.701   2.555   5.074  0.3811  0.2948 -0.1855
 2938SOL    HW120273   0.713   2.647   5.096  0.1876 -0.0315  1.2807
 2938SOL    HW220274   0.614   2.564   5.034  0.7345 -0.6993 -1.1815
 2939SOL     OW20275   2.812   1.386   6.022  0.3230  0.3551  0.0542
 2939SOL    HW120276   2.875   1.458   6.027  0.5475  0.1813 -0.3421
 2939SOL    HW220277   2.795   1.366   5.930  2.3431  2.1611 -0.7135
 2940SOL     OW20278   4.618   1.132  11.038  0.1603  0.0104 -0.5038
 2940SOL    HW120279   4.702   1.123  10.994  0.7770 -0.5220  0.7968
 2940SOL    HW220280   4.631   1.212  11.089  0.6102  0.8240 -1.8711
 2941SOL     OW20281   3.064   4.581   4.909  0.1511 -0.1490  0.4126
 2941SOL    HW120282   3.136   4.540   4.958  1.1118 -1.7648 -2.3510
 2941SOL    HW220283   2.994   4.528   4.947  0.0927  0.3454  0.9998
 2942SOL     OW20284   4.170   2.703   8.855 -0.3266 -0.0187 -0.3973
 2942SOL    HW120285   4.158   2.786   8.810  0.5061 -0.4168 -1.3591
 2942SOL    HW220286   4.198   2.642   8.787  0.7823  0.5371 -0.4263
 2943SOL     OW20287   0.320   3.706   0.597 -0.2661  0.2841  0.3363
 2943SOL    HW120288   0.386   3.772   0.616 -0.3619  0.3062  0.5834
 2943SOL    HW220289   0.376   3.644   0.551  0.8176  0.5649  1.2763
 2944SOL     OW20290   0.941   0.330   3.439  0.1849 -0.2492  0.7967
 2944SOL    HW120291   0.995   0.378   3.502  0.1659 -0.2630  0.8235
 2944SOL    HW220292   0.967   0.238   3.448  0.6659 -0.2800 -0.9754
 2945SOL     OW20293   4.160   3.047  10.291  0.6131 -0.0072 -0.6893
 2945SOL    HW120294   4.143   2.968  10.241  1.4082  0.8683 -2.3445
 2945SOL    HW220295   4.175   3.001  10.374  0.0429  2.0089  0.5248
 2946SOL     OW20296   1.837   4.105   7.261 -0.0290 -0.6751 -0.4637
 2946SOL    HW120297   1.842   4.169   7.190 -1.9150  0.0120  0.0194
 2946SOL    HW220298   1.838   4.021   7.216  3.8363 -2.1129  2.3558
 2947SOL     OW20299   3.596   1.269   8.276  0.8751 -0.1378 -0.0226
 2947SOL    HW120300   3.510   1.244   8.242  0.6533 -1.3769  1.3963
 2947SOL    HW220301   3.649   1.189   8.268 -0.6923 -1.2929  1.1008
 2948SOL     OW20302   2.940   3.815  12.701 -0.2271 -0.0128 -0.2768
 2948SOL    HW120303   3.017   3.851  12.656  1.3389  0.2145  2.5482
 2948SOL    HW220304   2.982   3.747  12.753 -1.7961  1.4243  2.8412
 2949SOL     OW20305   2.863   4.612   7.758  0.4428  0.0605 -0.0531
 2949SOL    HW120306   2.904   4.671   7.821  1.9393  0.9021 -1.8252
 2949SOL    HW220307   2.783   4.586   7.802  0.3248  0.9756  0.2778
 2950SOL     OW20308   0.446   1.775   3.897 -0.3202 -0.0656 -0.3097
 2950SOL    HW120309   0.374   1.770   3.834 -1.5511 -0.1277  1.1065
 2950SOL    HW220310   0.403   1.817   3.972  0.4828  0.4768 -0.1430
 2951SOL     OW20311   1.281   2.396   2.182  0.1946  0.4536 -0.5021
 2951SOL    HW120312   1.343   2.350   2.125  0.4850  1.1104 -0.7084
 2951SOL    HW220313   1.211   2.429   2.125  0.9556  1.8426 -0.6126
 2952SOL     OW20314   3.698   0.730   6.462  0.1390  0.3307  0.4269
 2952SOL    HW120315   3.652   0.807   6.495 -3.5902 -2.1200  0.8296
 2952SOL    HW220316   3.628   0.695   6.408  0.3843  0.8998 -0.2555
 2953SOL     OW20317   1.280   3.568  11.904 -0.3324 -0.3899 -0.2273
 2953SOL    HW120318   1.363   3.538  11.866  0.5229  0.8184  0.6681
 2953SOL    HW220319   1.299   3.568  11.998 -0.0126 -1.4056 -0.2948
 2954SOL     OW20320   1.825   3.383  16.956 -0.2813 -0.0928 -0.1189
 2954SOL    HW120321   1.886   3.375  17.030 -1.2750  0.4181  0.7635
 2954SOL    HW220322   1.789   3.470  16.971 -0.5903 -0.2849  0.2840
 2955SOL     OW20323   1.371   3.183   7.672 -0.2209 -0.8627 -0.1713
 2955SOL    HW120324   1.403   3.237   7.744  1.7151 -1.2918 -0.7167
 2955SOL    HW220325   1.310   3.237   7.621 -2.4542 -3.0623  0.1444
 2956SOL     OW20326   2.557   1.201   4.947 -0.2514  0.2770  0.2471
 2956SOL    HW120327   2.556   1.233   5.037 -1.4558  0.9224 -0.0071
 2956SOL    HW220328   2.643   1.159   4.941 -0.1997  0.4132  0.0324
 2957SOL     OW20329   1.960   2.582  14.676 -0.1687 -0.1922 -0.0112
 2957SOL    HW120330   1.985   2.651  14.614 -0.8116 -1.3474 -1.5724
 2957SOL    HW220331   1.890   2.625  14.725 -4.0139 -2.4671 -3.4673
 2958SOL     OW20332   2.903   0.188  10.755 -0.1788  0.5720 -0.6549
 2958SOL    HW120333   2.933   0.278  10.742 -2.0602  1.3114  0.0830
 2958SOL    HW220334   2.891   0.167  10.662 -1.1679 -1.9942  0.0401
 2959SOL     OW20335   1.460   4.440   4.704  0.4941 -0.0631  0.0009
 2959SOL    HW120336   1.415   4.461   4.786  0.7308 -0.6104  0.2711
 2959SOL    HW220337   1.515   4.363   4.715 -0.3608 -0.6714  0.0652
 2960SOL     OW20338   0.654   3.183   7.620 -0.3067 -0.1370 -0.2733
 2960SOL    HW120339   0.708   3.208   7.695 -2.1591  0.9801  0.6895
 2960SOL    HW220340   0.569   3.225   7.637  0.1843  1.4725 -1.7133
 2961SOL     OW20341   0.187   0.895   7.032  0.8564 -0.2604  1.0352
 2961SOL    HW120342   0.213   0.987   7.034 -0.9589  0.2539  0.6585
 2961SOL    HW220343   0.269   0.846   7.038  2.7396  2.9198  1.3603
 2962SOL     OW20344   1.353   4.321   1.321 -0.5167 -0.3537 -0.1850
 2962SOL    HW120345   1.281   4.285   1.270 -0.7161  0.6935 -0.6424
 2962SOL    HW220346   1.312   4.347   1.404  0.5653 -0.8254  0.4926
 2963SOL     OW20347   2.128   4.496  14.162  0.6364 -0.0537 -0.5162
 2963SOL    HW120348   2.222   4.486  14.173  0.5373 -0.8886 -0.3962
 2963SOL    HW220349   2.094   4.412  14.133 -2.8565  1.4738 -0.8582
 2964SOL     OW20350   0.504   1.066  11.703  0.0415 -0.5783 -0.2440
 2964SOL    HW120351   0.537   1.099  11.619 -0.2539  0.0456 -0.1088
 2964SOL    HW220352   0.413   1.094  11.701  0.3620  0.2511 -3.2782
 2965SOL     OW20353   1.432   3.360   4.901  0.5960 -0.0811 -0.2793
 2965SOL    HW120354   1.421   3.376   4.807 -0.0609 -1.4841 -0.4503
 2965SOL    HW220355   1.415   3.266   4.911 -1.0076  0.2168 -0.2618
 2966SOL     OW20356   2.980   2.241   5.717  0.5068  0.8457  0.4543
 2966SOL    HW120357   2.983   2.307   5.647 -2.7957  0.4184 -0.0905
 2966SOL    HW220358   3.052   2.180   5.696 -0.3934 -0.9864  2.7093
 2967SOL     OW20359   3.844   2.210   8.518  0.1825 -0.9168 -0.2699
 2967SOL    HW120360   3.783   2.226   8.590  1.8100 -2.3393  1.4096
 2967SOL    HW220361   3.776   2.188   8.453 -0.8001 -1.2349  0.8697
 2968SOL     OW20362   1.317   1.657   7.244  0.1015 -0.1788 -0.5235
 2968SOL    HW120363   1.283   1.738   7.206  0.4053 -0.1159 -0.6621
 2968SOL    HW220364   1.314   1.595   7.171  0.0235 -1.5343  0.6178
 2969SOL     OW20365   4.195   4.139   6.421  0.3605  0.4782  0.6103
 2969SOL    HW120366   4.215   4.066   6.478  0.1251  0.0271  0.1152
 2969SOL    HW220367   4.112   4.112   6.381  2.6919 -3.0537 -1.8269
 2970SOL     OW20368   0.782   0.900  14.717 -0.4343 -0.8835 -0.1714
 2970SOL    HW120369   0.872   0.930  14.703 -1.1985  1.3227 -0.3258
 2970SOL    HW220370   0.770   0.846  14.639  1.7165 -1.9356  0.2266
 2971SOL     OW20371   0.573   1.668   3.277 -0.1162 -0.2830  0.2971
 2971SOL    HW120372   0.585   1.748   3.329 -0.2573 -0.3289  0.4023
 2971SOL    HW220373   0.648   1.614   3.303 -1.0497 -0.7682  1.9674
 2972SOL     OW20374   1.050   1.641   8.430  0.5686 -0.4635 -0.2956
 2972SOL    HW120375   1.030   1.714   8.489 -2.9173 -0.7580 -1.1258
 2972SOL    HW220376   0.998   1.573   8.473  2.6208 -2.5797 -1.1535
 2973SOL     OW20377   3.190   2.262   6.308  0.7639 -0.1836  0.0255
 2973SOL    HW120378   3.095   2.253   6.304  0.8233 -1.0267  0.3507
 2973SOL    HW220379   3.213   2.169   6.317 -0.1733 -0.4398 -0.2661
 2974SOL     OW20380   3.109   3.885   4.751 -0.5777  0.3859  0.2284
 2974SOL    HW120381   3.100   3.937   4.671  1.6847 -0.4066 -0.5421
 2974SOL    HW220382   3.022   3.888   4.790  0.5804 -1.4004  2.9445
 2975SOL     OW20383   1.743   3.873  17.328 -0.0371  0.0680  0.2679
 2975SOL    HW120384   1.658   3.849  17.293  1.1470 -3.6573 -0.0702
 2975SOL    HW220385   1.714   3.953  17.371  4.2615  0.0073  3.3601
 2976SOL     OW20386   4.639   0.525  11.190 -0.2039 -0.2418 -0.5259
 2976SOL    HW120387   4.672   0.499  11.104 -1.6424  0.8459 -1.4184
 2976SOL    HW220388   4.544   0.527  11.178  0.0061  2.0939 -1.8235
 2977SOL     OW20389   4.457   1.088  16.629 -0.0168  0.3247  0.4816
 2977SOL    HW120390   4.400   1.138  16.571  0.5037  1.0389  0.5790
 2977SOL    HW220391   4.486   1.160  16.685 -2.0018  1.1619  0.4333
 2978SOL     OW20392   1.078   3.497  10.382  0.5036  0.0483 -0.8956
 2978SOL    HW120393   1.142   3.532  10.321  2.3094 -3.2395 -0.9053
 2978SOL    HW220394   1.034   3.578  10.407  0.0070  0.3268 -2.6442
 2979SOL     OW20395   2.261   0.437   3.817  0.2534 -0.0447  0.5187
 2979SOL    HW120396   2.338   0.463   3.767 -0.0072  1.5905  0.9574
 2979SOL    HW220397   2.226   0.356   3.779 -1.8567  1.7924 -1.4371
 2980SOL     OW20398   0.434   4.190   8.570  0.2240  0.4198  0.2275
 2980SOL    HW120399   0.515   4.171   8.618 -0.1874 -0.4153  0.6013
 2980SOL    HW220400   0.409   4.100   8.547 -1.4032  0.6206  1.2388
 2981SOL     OW20401   2.036   4.128   7.797  0.0367 -0.5435 -0.2186
 2981SOL    HW120402   2.017   4.120   7.703 -2.1252  2.0117  0.0114
 2981SOL    HW220403   2.028   4.036   7.823 -1.0961 -0.1109  0.9372
 2982SOL     OW20404   1.467   4.594   3.034  0.6289 -0.0243 -0.0684
 2982SOL    HW120405   1.513   4.548   2.963  2.0024 -0.7751  1.2807
 2982SOL    HW220406   1.455   4.682   2.999 -0.0373 -0.0586  0.0850
 2983SOL     OW20407   0.347   1.482   3.299  0.4356 -0.2768  0.1229
 2983SOL    HW120408   0.354   1.554   3.362  2.4118 -0.2928 -0.0944
 2983SOL    HW220409   0.420   1.486   3.237  1.0460  3.3780  1.0320
 2984SOL     OW20410   4.420   3.678   5.270  0.3886  0.2424 -0.3119
 2984SOL    HW120411   4.484   3.609   5.286  2.2116  2.4609  1.9820
 2984SOL    HW220412   4.342   3.648   5.316  0.0975  0.6219 -0.5619
 2985SOL     OW20413   2.987   4.217   8.423 -0.0561  0.6081  0.0219
 2985SOL    HW120414   3.061   4.179   8.375 -0.3777 -1.0571  0.8676
 2985SOL    HW220415   3.026   4.265   8.496  0.8298  0.9739 -0.6811
 2986SOL     OW20416   0.251   1.301   2.433 -0.6997 -0.0446  0.3707
 2986SOL    HW120417   0.225   1.355   2.508 -1.0531  1.1454 -0.6194
 2986SOL    HW220418   0.282   1.220   2.474 -0.8683 -1.6459 -2.7290
 2987SOL     OW20419   0.801   1.904   2.757  0.0785  0.0390 -0.2660
 2987SOL    HW120420   0.764   1.830   2.709 -2.3117  2.1873 -1.7578
 2987SOL    HW220421   0.759   1.887   2.841  1.9175 -0.1378  0.6210
 2988SOL     OW20422   3.117   1.803  11.895  0.4520 -0.3060 -0.5135
 2988SOL    HW120423   3.070   1.828  11.975 -1.6936 -1.1102 -1.4980
 2988SOL    HW220424   3.065   1.843  11.825 -1.0999 -0.2045  0.6886
 2989SOL     OW20425   1.688   3.928   0.602 -0.1216 -0.5847  0.2571
 2989SOL    HW120426   1.767   3.873   0.597  0.8171  0.6090  2.2399
 2989SOL    HW220427   1.694   3.967   0.514  0.2562 -3.0041 -0.8084
 2990SOL     OW20428   2.977   4.702   2.508 -0.7841 -0.0780  0.2074
 2990SOL    HW120429   2.901   4.665   2.553 -0.5686 -0.0029  0.6337
 2990SOL    HW220430   2.959   4.681   2.417 -0.9962 -1.6797  0.6123
 2991SOL     OW20431   2.451   3.322  12.288 -0.1842 -0.0798  0.5208
 2991SOL    HW120432   2.511   3.284  12.352 -1.3365 -1.9666  0.4612
 2991SOL    HW220433   2.401   3.388  12.336 -0.4602 -0.8676  1.3210
 2992SOL     OW20434   0.807   3.361   0.061 -0.1607  0.1464 -0.2837
 2992SOL    HW120435   0.900   3.355   0.038  0.1865 -0.1904  1.1979
 2992SOL    HW220436   0.798   3.455   0.046  2.0936  0.5199  0.6668
 2993SOL     OW20437   3.254   4.215   2.938 -0.2495 -0.5480  0.1299
 2993SOL    HW120438   3.162   4.208   2.964  0.0581  0.3034  1.4156
 2993SOL    HW220439   3.282   4.263   3.015 -2.8847  2.7792 -0.9698
 2994SOL     OW20440   0.281   1.512   0.774  0.1647 -0.4075 -0.0757
 2994SOL    HW120441   0.242   1.560   0.702 -0.2237  0.3500  0.6382
 2994SOL    HW220442   0.220   1.537   0.844  0.2698  2.1603 -0.9039
 2995SOL     OW20443   0.087   0.740  11.191 -0.5651 -0.0828  0.2765
 2995SOL    HW120444   0.160   0.682  11.210  1.5249  1.8554 -1.7065
 2995SOL    HW220445   0.012   0.681  11.185 -1.2092  0.6689  0.8541
 2996SOL     OW20446   4.635   4.238   0.740  0.1624 -0.3700  0.9469
 2996SOL    HW120447   4.633   4.298   0.814 -3.1507 -1.1244  1.4867
 2996SOL    HW220448   4.596   4.291   0.669 -0.9944  0.8053  2.4496
 2997SOL     OW20449   3.137   1.933  12.627 -0.3060 -0.1778  0.3080
 2997SOL    HW120450   3.069   1.866  12.622 -0.0054 -0.5270  0.9695
 2997SOL    HW220451   3.192   1.909  12.552  0.2570 -0.5281  0.8317
 2998SOL     OW20452   1.722   1.430  11.192  0.2549  0.1978 -0.4170
 2998SOL    HW120453   1.754   1.413  11.103 -1.5860 -3.1962 -0.4367
 2998SOL    HW220454   1.702   1.523  11.180 -1.5998 -0.5468 -2.8817
 2999SOL     OW20455   3.844   0.479   1.584 -0.3266  0.3249  0.2244
 2999SOL    HW120456   3.820   0.550   1.644 -0.8184  0.6302 -0.3375
 2999SOL    HW220457   3.764   0.429   1.599 -0.3181 -0.0213 -0.8701
 3000SOL     OW20458   3.590   2.337   1.857  0.2196 -0.3793 -0.2035
 3000SOL    HW120459   3.528   2.273   1.890 -1.7144 -0.0322 -3.1532
 3000SOL    HW220460   3.635   2.359   1.939 -2.6956  3.4360  0.3615
 3001SOL     OW20461   4.373   0.321   7.382  0.2602 -0.0201 -0.2882
 3001SOL    HW120462   4.324   0.392   7.340  0.4414 -0.5162 -1.3194
 3001SOL    HW220463   4.341   0.307   7.471 -0.1244  0.8721 -0.2829
 3002SOL     OW20464   2.271   1.884   7.233  0.0024 -0.4388 -0.8764
 3002SOL    HW120465   2.297   1.805   7.280 -0.3575 -1.4679 -2.4213
 3002SOL    HW220466   2.278   1.946   7.306  0.7595 -1.2453 -0.2583
 3003SOL     OW20467   3.232   1.273  12.222 -0.0064 -0.6921 -0.5046
 3003SOL    HW120468   3.197   1.272  12.311 -2.8421 -0.0899 -1.6302
 3003SOL    HW220469   3.171   1.213  12.178 -0.6386 -0.4008 -0.0182
 3004SOL     OW20470   3.472   2.598   7.233 -0.1358  0.4651  0.3670
 3004SOL    HW120471   3.512   2.585   7.319  0.5051  2.0711  0.3161
 3004SOL    HW220472   3.408   2.664   7.258  0.1307  0.8474  0.0467
 3005SOL     OW20473   0.442   1.501   1.945 -0.3453  0.1878 -0.0878
 3005SOL    HW120474   0.478   1.590   1.936  0.7963 -0.3456 -0.7472
 3005SOL    HW220475   0.471   1.479   2.033  1.8001 -2.6263 -1.5152
 3006SOL     OW20476   0.214   3.258   0.379 -0.2228  0.4435  0.1415
 3006SOL    HW120477   0.221   3.329   0.316  0.5054 -0.9801 -1.4009
 3006SOL    HW220478   0.302   3.221   0.384 -0.7139 -0.5918  1.1054
 3007SOL     OW20479   0.086   1.410   5.472 -0.2465  0.1317 -0.4688
 3007SOL    HW120480   0.015   1.459   5.431  1.4355  2.4922 -0.5614
 3007SOL    HW220481   0.163   1.436   5.421 -0.2867  1.2729  0.0376
 3008SOL     OW20482   0.640   4.164   5.548  0.4879 -0.1115  0.5611
 3008SOL    HW120483   0.634   4.259   5.537  1.5106 -0.2498 -1.1668
 3008SOL    HW220484   0.545   4.153   5.552  0.3081  0.8643 -0.7485
 3009SOL     OW20485   4.531   3.807   2.663 -0.4214 -0.2126 -0.7239
 3009SOL    HW120486   4.514   3.714   2.678  1.4512 -0.8322 -2.4278
 3009SOL    HW220487   4.441   3.837   2.649  0.2532  2.0636 -0.0880
 3010SOL     OW20488   0.610   4.326   8.994 -0.0161  0.2282  0.2195
 3010SOL    HW120489   0.623   4.391   9.064 -4.0765 -1.7530  2.8050
 3010SOL    HW220490   0.556   4.377   8.934 -1.8705 -1.1408  0.7526
 3011SOL     OW20491   0.188   1.603   8.203  0.5221  0.3794  0.1362
 3011SOL    HW120492   0.117   1.552   8.242  0.6036 -0.2052 -0.4759
 3011SOL    HW220493   0.190   1.575   8.112 -2.7426 -1.6752  0.6820
 3012SOL     OW20494   0.522   2.421   4.691 -0.3043 -0.0923 -0.3404
 3012SOL    HW120495   0.613   2.407   4.718 -0.1330 -0.6240 -1.2120
 3012SOL    HW220496   0.520   2.513   4.664 -0.7558 -0.6511 -2.2210
 3013SOL     OW20497   1.764   2.800   9.937 -0.3418 -0.2940  0.4410
 3013SOL    HW120498   1.710   2.820  10.014 -0.1998  0.3171  0.3828
 3013SOL    HW220499   1.855   2.798   9.964 -0.7779 -2.2790  1.7647
 3014SOL     OW20500   0.112   0.281   3.283  0.2152 -0.4896  0.4996
 3014SOL    HW120501   0.192   0.308   3.330  1.6783 -0.9494 -1.7056
 3014SOL    HW220502   0.048   0.329   3.335  0.5217  1.3368 -0.7987
 3015SOL     OW20503   3.551   4.275   1.581  0.4287  0.0025  0.3322
 3015SOL    HW120504   3.542   4.237   1.494  1.2891 -0.0746  0.2757
 3015SOL    HW220505   3.576   4.363   1.554 -0.5462  0.0149 -0.5403
 3016SOL     OW20506   4.274   0.378   7.639 -0.2123 -0.1343 -0.3576
 3016SOL    HW120507   4.289   0.371   7.734  0.1896  1.0745 -0.3321
 3016SOL    HW220508   4.180   0.365   7.636 -0.1610 -0.5003 -0.4848
 3017SOL     OW20509   1.548   0.874  13.629 -0.0966  0.1678 -0.5956
 3017SOL    HW120510   1.477   0.876  13.565 -0.5681 -0.1660 -0.0813
 3017SOL    HW220511   1.626   0.883  13.574  0.1926  0.6437 -0.1066
 3018SOL     OW20512   3.324   3.538   4.564  0.0193  0.0431  0.0320
 3018SOL    HW120513   3.304   3.482   4.489  1.3604 -1.4836  0.8244
 3018SOL    HW220514   3.399   3.492   4.601  0.4649  0.2087 -0.6652
 3019SOL     OW20515   1.253   1.975  13.815  0.4570 -0.0115  0.9507
 3019SOL    HW120516   1.240   1.886  13.848  0.8492  0.4335  2.3251
 3019SOL    HW220517   1.200   2.015  13.884  0.9798  0.8995  0.8240
 3020SOL     OW20518   1.280   3.685   5.561 -0.2968  0.2887  0.2159
 3020SOL    HW120519   1.338   3.751   5.524  0.0709 -0.2018 -0.0901
 3020SOL    HW220520   1.209   3.690   5.496 -0.2125  1.0653  0.1886
 3021SOL     OW20521   0.568   4.688   3.753  0.6953  0.6361 -0.4830
 3021SOL    HW120522   0.606   4.670   3.667  1.2629  2.6064 -0.6605
 3021SOL    HW220523   0.590   0.058   3.759 -1.9255  1.1424  1.4823
 3022SOL     OW20524   4.393   2.746   4.463 -0.0814 -0.1985 -0.3451
 3022SOL    HW120525   4.333   2.761   4.536 -1.2007 -1.8406 -0.9305
 3022SOL    HW220526   4.377   2.829   4.420 -0.7930  0.3955  1.0456
 3023SOL     OW20527   4.597   3.072   7.978  0.0625  0.0777 -0.2459
 3023SOL    HW120528   4.536   3.068   8.051  0.2561  0.5546 -0.0630
 3023SOL    HW220529   4.680   3.041   8.015  0.6748  1.6282 -0.3235
 3024SOL     OW20530   2.123   2.083  16.085  0.5244  0.4464  0.0791
 3024SOL    HW120531   2.037   2.092  16.127  1.5785 -1.3007  2.5892
 3024SOL    HW220532   2.138   1.990  16.098  2.2995  0.5315 -1.4359
 3025SOL     OW20533   4.430   2.048   1.310  0.4779  0.6141 -0.1218
 3025SOL    HW120534   4.377   1.975   1.343  0.6563  0.9297  0.8836
 3025SOL    HW220535   4.455   2.027   1.220  1.4015  2.0749 -0.2103
 3026SOL     OW20536   0.138   3.773   2.905  0.5609  0.3797  0.8259
 3026SOL    HW120537   0.178   3.792   2.820 -0.2288  0.3627  0.4451
 3026SOL    HW220538   0.161   3.853   2.952 -0.2319  0.0038  1.8741
 3027SOL     OW20539   2.248   0.545   8.536  0.0424  0.1533  0.0929
 3027SOL    HW120540   2.186   0.506   8.598  0.3827  2.9587  2.1800
 3027SOL    HW220541   2.326   0.541   8.591 -0.2526  0.5658  0.5418
 3028SOL     OW20542   1.856   1.785   6.344  0.7319 -0.6470 -0.0793
 3028SOL    HW120543   1.883   1.874   6.320 -0.0642 -0.2927  0.3174
 3028SOL    HW220544   1.942   1.744   6.338  0.3019 -1.4419 -0.7736
 3029SOL     OW20545   4.650   3.462  10.893 -0.4891  0.5651  0.4301
 3029SOL    HW120546   4.658   3.399  10.964 -1.2010 -1.5999 -1.4350
 3029SOL    HW220547   4.561   3.450  10.861 -0.2260  1.5186 -0.6768
 3030SOL     OW20548   4.513   1.802  15.937 -0.4679  0.4004  0.5826
 3030SOL    HW120549   4.530   1.896  15.940  0.0393  0.3914 -1.9778
 3030SOL    HW220550   4.542   1.775  16.024  1.7072 -2.3166 -0.9619
 3031SOL     OW20551   3.433   3.790  13.825  0.1017  0.2907  0.1672
 3031SOL    HW120552   3.519   3.749  13.813 -1.3466 -3.2888  1.9254
 3031SOL    HW220553   3.460   3.878  13.850  2.2005 -0.3631  0.2030
 3032SOL     OW20554   0.124   4.163   0.584  0.0723 -0.4678  0.1848
 3032SOL    HW120555   0.039   4.181   0.625 -0.7337 -1.4133 -1.0641
 3032SOL    HW220556   0.084   4.105   0.518 -0.2578  0.5083 -0.4806
 3033SOL     OW20557   1.198   0.021   6.582 -0.2105 -0.1509 -0.1229
 3033SOL    HW120558   1.227   0.100   6.628  0.3459  0.4162 -1.4304
 3033SOL    HW220559   1.228   4.666   6.629  2.0071  0.6672 -0.1685
 3034SOL     OW20560   3.081   1.818  16.562 -0.2739 -0.3599  0.2845
 3034SOL    HW120561   3.158   1.874  16.578  1.7593 -2.4826 -2.2356
 3034SOL    HW220562   3.030   1.855  16.634 -0.7483 -1.9853  0.7836
 3035SOL     OW20563   3.328   0.412   4.598 -0.0748 -0.6956 -0.4611
 3035SOL    HW120564   3.361   0.336   4.551 -0.8703 -2.1574  1.3734
 3035SOL    HW220565   3.373   0.412   4.682  0.7127 -2.2364 -0.8838
 3036SOL     OW20566   1.682   0.800   7.917 -0.5422 -0.1079  0.3582
 3036SOL    HW120567   1.626   0.823   7.843 -0.1486  1.4356  0.5435
 3036SOL    HW220568   1.626   0.735   7.959 -0.5930  0.5729  1.3416
 3037SOL     OW20569   0.749   4.577  10.913  0.4030 -0.0684 -0.3212
 3037SOL    HW120570   0.744   4.520  10.990 -1.3265 -0.1507 -0.4942
 3037SOL    HW220571   0.785   4.514  10.851  2.5493 -0.7631  1.6352
 3038SOL     OW20572   1.288   2.076   5.533  0.6016  0.1828  0.0708
 3038SOL    HW120573   1.230   2.002   5.550  0.6263  0.4479  1.3215
 3038SOL    HW220574   1.364   2.024   5.507  0.3025  0.7694 -1.8988
 3039SOL     OW20575   0.220   1.920   7.844 -0.2064  0.2597 -0.1571
 3039SOL    HW120576   0.286   1.985   7.866  1.5088 -1.5744  0.0880
 3039SOL    HW220577   0.277   1.845   7.832  1.6402  2.0884 -2.8516
 3040SOL     OW20578   2.146   3.532   5.355 -0.0555  0.3328  0.5519
 3040SOL    HW120579   2.230   3.558   5.317 -2.3233  2.5140 -2.9822
 3040SOL    HW220580   2.162   3.572   5.440  5.6449 -3.0801  1.0857
 3041SOL     OW20581   0.406   3.933   8.500  0.3871 -0.2657 -0.0690
 3041SOL    HW120582   0.357   3.861   8.539 -0.6889 -0.3108 -1.4881
 3041SOL    HW220583   0.392   3.908   8.408 -0.4298  0.2238 -0.0871
 3042SOL     OW20584   3.716   1.890  15.795  0.1993  0.4333 -0.0729
 3042SOL    HW120585   3.808   1.876  15.774  1.3909  2.2733  3.9729
 3042SOL    HW220586   3.673   1.855  15.716 -1.1478  0.4179  0.6643
 3043SOL     OW20587   3.995   0.682   3.058 -0.2657  0.3993  0.0862
 3043SOL    HW120588   3.965   0.600   3.096 -1.0937 -0.5313 -2.5353
 3043SOL    HW220589   3.961   0.667   2.969  0.4286 -0.5934 -0.0109
 3044SOL     OW20590   0.979   4.163   4.326  0.0445 -0.0140 -0.1601
 3044SOL    HW120591   0.999   4.104   4.399  0.6024  1.5147  0.9419
 3044SOL    HW220592   0.948   4.109   4.254  1.4854  0.7051 -1.3387
 3045SOL     OW20593   3.980   3.119   2.745  0.1430  0.3207 -0.1886
 3045SOL    HW120594   4.023   3.038   2.718  1.1140  0.9037 -0.3837
 3045SOL    HW220595   3.889   3.101   2.768 -0.1597  0.0372 -1.6120
 3046SOL     OW20596   2.609   2.586   6.563  0.0457  0.0755 -0.0680
 3046SOL    HW120597   2.613   2.509   6.507 -1.5975 -0.9283  1.2222
 3046SOL    HW220598   2.514   2.600   6.568  0.3336  1.7317  0.8722
 3047SOL     OW20599   1.145   4.558   2.960 -0.6646 -0.0159 -0.0483
 3047SOL    HW120600   1.073   4.498   2.941  0.9355 -1.8258 -0.3780
 3047SOL    HW220601   1.191   4.509   3.028  1.4144  1.7063 -0.1983
 3048SOL     OW20602   0.520   2.033   9.447 -0.1624 -0.1138 -0.2853
 3048SOL    HW120603   0.477   1.963   9.496 -1.0431 -0.2250 -1.2226
 3048SOL    HW220604   0.570   1.982   9.384  0.8115  1.7686 -1.0354
 3049SOL     OW20605   1.310   4.370   0.075  0.0993 -0.0751  0.2675
 3049SOL    HW120606   1.263   4.404  17.695 -0.8509 -0.9971  0.4327
 3049SOL    HW220607   1.298   4.276   0.058  0.8622 -0.4251  1.6711
 3050SOL     OW20608   1.218   3.505  17.002 -0.4094 -0.0168 -0.5103
 3050SOL    HW120609   1.263   3.480  16.921  1.5480  0.0725  0.5503
 3050SOL    HW220610   1.148   3.561  16.970 -1.5675 -0.7291  0.7591
 3051SOL     OW20611   0.813   3.612  14.575 -0.0069  0.2848  0.3703
 3051SOL    HW120612   0.871   3.675  14.531 -1.6221  1.5387  0.0359
 3051SOL    HW220613   0.803   3.659  14.657 -2.6790 -2.3458  1.5230
 3052SOL     OW20614   0.438   1.578   1.426 -0.7281 -0.2641  0.2291
 3052SOL    HW120615   0.471   1.628   1.501  0.6712 -0.1835 -0.4455
 3052SOL    HW220616   0.487   1.496   1.432  1.0560  0.6882 -1.4155
 3053SOL     OW20617   3.021   1.386  17.569  0.5692 -0.5433 -0.4585
 3053SOL    HW120618   3.017   1.311  17.509 -0.5756 -0.5983 -0.3135
 3053SOL    HW220619   2.940   1.385  17.620  0.2287 -0.5367 -0.9956
 3054SOL     OW20620   2.583   1.770   5.321 -0.2293 -0.1496  0.2405
 3054SOL    HW120621   2.524   1.801   5.391 -0.0713  1.3599 -0.2858
 3054SOL    HW220622   2.612   1.852   5.281 -0.1818 -0.1362  0.3027
 3055SOL     OW20623   0.321   2.822   1.589 -0.4675  0.1541  0.2094
 3055SOL    HW120624   0.329   2.726   1.585  2.0080  0.3624  0.1840
 3055SOL    HW220625   0.250   2.828   1.653 -0.2513 -1.3171  0.6016
 3056SOL     OW20626   1.597   2.882   1.792 -0.0923 -0.9242 -0.2053
 3056SOL    HW120627   1.609   2.908   1.701  4.2204  0.0164  0.6643
 3056SOL    HW220628   1.508   2.847   1.784 -1.3855  1.9099  1.6400
 3057SOL     OW20629   3.083   2.874   7.946  0.0584  0.0286  0.0156
 3057SOL    HW120630   3.031   2.860   7.868 -0.4031 -0.9562  0.5019
 3057SOL    HW220631   3.033   2.952   7.971  2.6054  1.1948  1.5184
 3058SOL     OW20632   2.534   3.830  13.842 -0.0844 -0.1730 -0.5805
 3058SOL    HW120633   2.624   3.797  13.835 -0.2471 -1.2044  2.4109
 3058SOL    HW220634   2.552   3.921  13.866 -1.5587  0.6541 -2.6195
 3059SOL     OW20635   2.002   1.830   7.275  0.5038  0.1602 -0.2711
 3059SOL    HW120636   2.066   1.832   7.203  0.9640 -0.3812  0.1157
 3059SOL    HW220637   2.015   1.740   7.306  1.1176 -0.2221 -1.6192
 3060SOL     OW20638   2.147   2.380   7.519  0.5495  0.2032 -0.1397
 3060SOL    HW120639   2.090   2.427   7.580  2.7545 -0.0014  2.0734
 3060SOL    HW220640   2.170   2.304   7.573 -0.7158 -0.6338 -0.7701
 3061SOL     OW20641   0.550   3.474  17.414 -0.1484 -0.3965  0.5452
 3061SOL    HW120642   0.502   3.443  17.338  1.4072 -0.0275 -0.5888
 3061SOL    HW220643   0.525   3.566  17.411  2.3914  0.3265  0.7887
 3062SOL     OW20644   2.321   0.056   8.581 -0.0197 -0.9544 -0.4272
 3062SOL    HW120645   2.339   0.016   8.667  0.9867 -2.4448 -1.3419
 3062SOL    HW220646   2.237   0.099   8.598 -1.1846 -3.7500  0.9544
 3063SOL     OW20647   1.318   1.362   1.474  0.3376  0.4293  0.3431
 3063SOL    HW120648   1.314   1.453   1.501  0.3855 -0.0363  1.8972
 3063SOL    HW220649   1.408   1.331   1.488 -0.1413  0.1205  2.6050
 3064SOL     OW20650   0.294   3.754   3.510 -0.0331 -0.1061 -0.5246
 3064SOL    HW120651   0.267   3.826   3.453  0.7663  0.3411 -0.3388
 3064SOL    HW220652   0.387   3.777   3.517  0.6722 -3.6425  1.4143
 3065SOL     OW20653   2.211   0.864   6.992 -0.2577  0.1024  0.2491
 3065SOL    HW120654   2.184   0.953   7.011 -1.3387  0.7845 -4.3912
 3065SOL    HW220655   2.157   0.820   7.057 -3.3387  1.3691 -1.4476
 3066SOL     OW20656   4.521   0.466   2.910  0.5907  0.0541  0.0298
 3066SOL    HW120657   4.599   0.440   2.959  0.2420 -0.3513  0.3608
 3066SOL    HW220658   4.470   0.521   2.970  1.1956  1.7470 -1.0181
 3067SOL     OW20659   2.817   1.520   1.506 -0.2301 -0.3151 -0.6208
 3067SOL    HW120660   2.908   1.542   1.526  0.0786 -1.0800 -1.1827
 3067SOL    HW220661   2.806   1.568   1.424  0.0637 -2.5861 -1.9943
 3068SOL     OW20662   3.842   2.878   2.511 -0.1242 -0.2124 -0.2102
 3068SOL    HW120663   3.889   2.795   2.515 -1.8819 -1.1709  0.5117
 3068SOL    HW220664   3.870   2.902   2.423  0.2533 -1.6379 -0.4736
 3069SOL     OW20665   2.409   3.191  12.581  0.1002 -0.0395 -0.2100
 3069SOL    HW120666   2.364   3.241  12.649 -0.2311 -0.8845  0.1876
 3069SOL    HW220667   2.499   3.175  12.610 -0.6960 -2.7465  0.7561
 3070SOL     OW20668   2.750   1.550  10.452 -0.4008 -0.0311  0.1386
 3070SOL    HW120669   2.753   1.643  10.472  1.5194 -0.0902  0.0623
 3070SOL    HW220670   2.790   1.553  10.365 -1.0857 -0.4432 -0.1967
 3071SOL     OW20671   4.508   3.155   0.997  0.4532 -0.4881 -0.4839
 3071SOL    HW120672   4.502   3.060   1.013  0.0082 -0.3850 -0.0308
 3071SOL    HW220673   4.416   3.180   1.009  1.0913  1.0243  1.2574
 3072SOL     OW20674   1.228   1.729  13.937  0.2026  0.1209  0.4922
 3072SOL    HW120675   1.267   1.682  13.863 -1.6047  0.9733 -1.0012
 3072SOL    HW220676   1.185   1.663  13.992  0.2985 -0.0398  0.3725
 3073SOL     OW20677   2.267   1.742   5.058 -0.0365 -0.1650 -0.1941
 3073SOL    HW120678   2.279   1.737   5.153  0.9627 -0.2293 -0.3278
 3073SOL    HW220679   2.280   1.652   5.028 -0.5119  0.0385 -0.9962
 3074SOL     OW20680   0.000   4.298   9.938  0.4197 -0.2621 -0.2071
 3074SOL    HW120681   4.680   4.230   9.887  0.6363 -0.3437 -0.2833
 3074SOL    HW220682   0.086   4.266   9.964  0.4481 -0.7131 -0.8579
 3075SOL     OW20683   0.113   0.342   5.627 -0.3582 -0.5779 -0.3387
 3075SOL    HW120684   0.032   0.390   5.611  0.5509  0.6213 -1.3329
 3075SOL    HW220685   0.097   0.273   5.562 -2.2628  0.5736 -1.0951
 3076SOL     OW20686   2.256   1.443  14.589 -0.0017 -0.4084 -0.7329
 3076SOL    HW120687   2.306   1.409  14.663  0.8727  0.3709 -0.9517
 3076SOL    HW220688   2.175   1.467  14.634 -0.0112 -1.0062 -0.4359
 3077SOL     OW20689   4.474   1.538  15.036  0.6231 -0.4967  0.1415
 3077SOL    HW120690   4.467   1.633  15.027 -0.8842 -0.7281 -1.0385
 3077SOL    HW220691   4.391   1.521  15.080  0.8688  0.6198  1.0570
 3078SOL     OW20692   0.009   0.998   4.722  0.0152  0.0371  0.2411
 3078SOL    HW120693   0.092   0.998   4.769  0.4126  0.9454 -0.4676
 3078SOL    HW220694   4.700   1.082   4.752 -1.8475 -0.2260 -0.9996
 3079SOL     OW20695   2.304   4.453  16.857 -0.2392  0.1999 -0.1379
 3079SOL    HW120696   2.325   4.423  16.945  0.4103  1.0007 -0.0228
 3079SOL    HW220697   2.308   4.367  16.814  2.5430  0.4458 -0.3662
 3080SOL     OW20698   3.878   1.535   6.204 -0.2609 -0.1166 -0.5555
 3080SOL    HW120699   3.784   1.529   6.190 -0.5865  0.7967  1.2600
 3080SOL    HW220700   3.900   1.606   6.145  2.5379 -1.5948 -1.3054
 3081SOL     OW20701   1.743   2.709   7.662 -0.5696 -0.0374  0.4873
 3081SOL    HW120702   1.654   2.675   7.670 -0.3251 -0.3210  2.0933
 3081SOL    HW220703   1.734   2.731   7.569  3.0189  0.1709  0.1719
 3082SOL     OW20704   4.453   2.050   7.397  0.3451  0.3774  0.2954
 3082SOL    HW120705   4.386   2.107   7.359  0.5045  0.7022  0.4931
 3082SOL    HW220706   4.506   2.019   7.324 -1.0357  0.3523 -0.6888
 3083SOL     OW20707   2.466   3.337   5.343 -0.3522 -0.1409 -0.5495
 3083SOL    HW120708   2.424   3.259   5.306 -0.4967  0.7204 -2.1898
 3083SOL    HW220709   2.433   3.347   5.432 -0.0504  0.3061 -0.4877
 3084SOL     OW20710   3.552   1.414   7.649  0.1144  0.7408 -0.3326
 3084SOL    HW120711   3.618   1.482   7.635  2.2171 -1.0105  0.9529
 3084SOL    HW220712   3.530   1.398   7.557 -1.3342 -1.7371  0.4635
 3085SOL     OW20713   2.828   4.327   7.252  0.1617 -0.2303  0.4188
 3085SOL    HW120714   2.808   4.236   7.272  0.5820 -0.2001  0.9711
 3085SOL    HW220715   2.747   4.361   7.292  0.9187  0.0158  1.7416
 3086SOL     OW20716   3.153   4.048   4.534  0.2085 -0.6814 -0.2182
 3086SOL    HW120717   3.230   4.103   4.548  0.2074 -1.0659  1.2249
 3086SOL    HW220718   3.155   4.039   4.439 -1.4116 -0.2137 -0.3092
 3087SOL     OW20719   1.165   1.284   7.874  0.4823 -0.4001  0.6308
 3087SOL    HW120720   1.190   1.342   7.946  1.7913 -0.3017  0.0854
 3087SOL    HW220721   1.237   1.312   7.819  0.3668 -0.1679  0.5980
 3088SOL     OW20722   0.203   0.680   6.360  0.6417 -0.2199 -0.0488
 3088SOL    HW120723   0.268   0.662   6.292  1.7579  1.2535  0.6212
 3088SOL    HW220724   0.164   0.758   6.321 -1.1965 -0.9399  0.3428
 3089SOL     OW20725   2.472   2.084   9.682 -0.1850  0.2435 -0.0563
 3089SOL    HW120726   2.412   2.057   9.612  0.0719  0.0548 -0.2050
 3089SOL    HW220727   2.423   2.058   9.759 -0.8065  0.8509 -0.2482
 3090SOL     OW20728   2.126   4.152   3.823  0.0240  0.3263  0.3473
 3090SOL    HW120729   2.198   4.215   3.826 -1.1179  1.6920 -0.9651
 3090SOL    HW220730   2.149   4.104   3.743  1.4238 -1.5657  1.8866
 3091SOL     OW20731   4.161   2.233  14.639  0.1789  0.0579  0.2069
 3091SOL    HW120732   4.195   2.281  14.715 -0.0535  0.3650  0.1177
 3091SOL    HW220733   4.080   2.280  14.620  0.3783  0.8378  1.2765
 3092SOL     OW20734   4.605   4.708   6.593  0.1551 -0.5891  0.3088
 3092SOL    HW120735   4.694   4.694   6.559  0.4597 -0.7942  1.1799
 3092SOL    HW220736   4.614   0.080   6.589  1.3227 -0.8288 -3.0212
 3093SOL     OW20737   0.897   0.722  16.432 -0.0535 -0.3562  0.4000
 3093SOL    HW120738   0.830   0.657  16.455 -0.9710  1.2100  2.1851
 3093SOL    HW220739   0.839   0.796  16.418 -1.4976 -1.4570  0.5180
 3094SOL     OW20740   3.612   2.330   9.977  0.1146 -0.0915  0.2510
 3094SOL    HW120741   3.628   2.294   9.890  0.5889 -0.4057  0.4656
 3094SOL    HW220742   3.548   2.270  10.015 -1.5851  0.2227 -2.1342
 3095SOL     OW20743   4.399   1.298   5.053 -0.5244 -0.4251  0.8299
 3095SOL    HW120744   4.410   1.218   5.103 -0.7114 -1.0724 -0.1674
 3095SOL    HW220745   4.413   1.272   4.962 -1.7113  2.1176 -0.0975
 3096SOL     OW20746   4.092   3.809   2.115  0.3397  0.4466 -0.3222
 3096SOL    HW120747   4.115   3.822   2.024  0.0858  0.9262 -0.3174
 3096SOL    HW220748   4.164   3.848   2.164 -0.1873  2.4991 -1.2008
 3097SOL     OW20749   3.299   2.907  16.333  0.1707  0.5447  0.2469
 3097SOL    HW120750   3.260   2.988  16.299  0.9471  1.8705  2.4628
 3097SOL    HW220751   3.227   2.857  16.373  1.0629  0.3981  1.6952
 3098SOL     OW20752   3.494   1.908  15.160  0.3641 -0.3166  0.2725
 3098SOL    HW120753   3.571   1.915  15.104  0.1358 -1.5266 -0.1814
 3098SOL    HW220754   3.442   1.955  15.095 -0.0239  0.3541  1.0565
 3099SOL     OW20755   3.578   3.305  13.153  0.0295  0.2524 -0.4055
 3099SOL    HW120756   3.528   3.356  13.089 -2.2032 -0.9741  0.3847
 3099SOL    HW220757   3.543   3.216  13.146  0.1413 -0.0133  2.3784
 3100SOL     OW20758   3.298   0.988   7.740 -0.0446  0.5593  0.2763
 3100SOL    HW120759   3.311   0.898   7.769  0.2916 -0.4116 -2.8422
 3100SOL    HW220760   3.230   1.020   7.800 -2.2441 -2.4354 -0.6313
 3101SOL     OW20761   1.084   1.932   0.472 -0.0772  0.5096 -0.3420
 3101SOL    HW120762   1.055   1.857   0.524 -1.3943  0.9211 -0.4613
 3101SOL    HW220763   1.176   1.953   0.487 -0.1536  0.1628  0.6483
 3102SOL     OW20764   1.146   2.991  14.965 -0.1638  0.2161 -0.6171
 3102SOL    HW120765   1.180   3.037  15.042  0.5480 -0.4096 -0.5557
 3102SOL    HW220766   1.122   3.065  14.910  0.0378  0.2712 -0.6312
 3103SOL     OW20767   1.448   2.873   5.390  0.0216 -0.1626  0.1253
 3103SOL    HW120768   1.461   2.809   5.320 -4.2001  0.3513 -1.1168
 3103SOL    HW220769   1.533   2.914   5.373 -0.7149  0.8308 -1.2105
 3104SOL     OW20770   1.843   0.110  17.267  0.2600  0.0723 -0.1118
 3104SOL    HW120771   1.829   0.026  17.223  1.2547  0.5731 -1.3716
 3104SOL    HW220772   1.930   0.111  17.307  1.1337 -0.5481 -2.0132
 3105SOL     OW20773   0.980   2.782  13.332 -0.3777 -0.4028  0.2243
 3105SOL    HW120774   0.959   2.717  13.399 -1.6369 -0.8565 -0.6073
 3105SOL    HW220775   0.957   2.727  13.258 -0.5082 -0.8924  0.6282
 3106SOL     OW20776   0.312   1.326   6.960  0.7963  0.1206 -0.0076
 3106SOL    HW120777   0.365   1.404   6.977 -1.9341  2.0294 -0.2571
 3106SOL    HW220778   0.383   1.262   6.952  0.3503 -0.3986  0.1720
 3107SOL     OW20779   0.387   4.095   6.177 -0.2104  0.3408 -0.1126
 3107SOL    HW120780   0.411   4.154   6.249  0.1689  0.0877 -0.0311
 3107SOL    HW220781   0.356   4.017   6.222  2.1117 -1.1740 -1.1122
 3108SOL     OW20782   2.903   1.485  13.847  0.1195  0.3187  0.3344
 3108SOL    HW120783   2.899   1.415  13.782  0.7535 -2.1845  2.9822
 3108SOL    HW220784   2.840   1.458  13.914 -0.7541  1.1202 -0.1842
 3109SOL     OW20785   1.842   3.431   8.484  0.3250  0.0943 -0.3542
 3109SOL    HW120786   1.862   3.505   8.427  0.2341 -0.1309 -0.6785
 3109SOL    HW220787   1.931   3.400   8.503 -0.3612 -0.3045  2.2029
 3110SOL     OW20788   1.499   4.640  12.689 -0.4233 -0.3348 -0.4352
 3110SOL    HW120789   1.441   4.715  12.671 -0.4999 -0.5234 -0.9619
 3110SOL    HW220790   1.580   4.659  12.642  0.3714 -2.6230  0.0230
 3111SOL     OW20791   3.814   2.168   3.591  0.5082 -0.2751  0.6576
 3111SOL    HW120792   3.723   2.171   3.621  0.8367  0.8885  1.5312
 3111SOL    HW220793   3.796   2.184   3.499  0.5444 -0.2272  0.6588
 3112SOL     OW20794   4.352   2.553   2.378  0.2492  0.1418  0.2722
 3112SOL    HW120795   4.272   2.522   2.420  1.1407  0.0554  1.9058
 3112SOL    HW220796   4.387   2.472   2.341 -0.1198 -0.2881  0.8675
 3113SOL     OW20797   2.528   2.208   7.787  0.3464 -0.1502  0.4213
 3113SOL    HW120798   2.604   2.162   7.824  0.2360 -1.2690 -0.7669
 3113SOL    HW220799   2.516   2.292   7.831 -1.1088  1.7696 -3.7268
 3114SOL     OW20800   2.725   0.838   4.424  0.6168  0.2840 -0.6948
 3114SOL    HW120801   2.630   0.836   4.419  0.5467 -0.1156  1.0505
 3114SOL    HW220802   2.746   0.838   4.517  0.8954  2.0373 -0.7500
 3115SOL     OW20803   2.902   1.218  12.290  0.5123  0.4334 -0.1858
 3115SOL    HW120804   2.920   1.225  12.384  0.5194 -0.5647 -0.1156
 3115SOL    HW220805   2.822   1.270  12.288  0.1231 -0.1578  0.2300
 3116SOL     OW20806   2.701   3.715   2.395  0.3359  0.1475 -0.0907
 3116SOL    HW120807   2.762   3.701   2.468  1.3288  0.3998 -0.8580
 3116SOL    HW220808   2.648   3.791   2.418 -3.2706 -2.5599  0.5344
 3117SOL     OW20809   3.074   1.934   2.607  0.1016 -0.2584 -0.2377
 3117SOL    HW120810   3.102   1.843   2.622  1.4001 -0.0305 -1.3361
 3117SOL    HW220811   3.156   1.983   2.606  0.7260 -1.3000 -0.2391
 3118SOL     OW20812   1.810   0.877   5.651 -0.4615 -0.2591  0.1536
 3118SOL    HW120813   1.771   0.799   5.691  6.1777 -2.0178  3.3276
 3118SOL    HW220814   1.883   0.835   5.605 -2.0741 -1.7306 -1.0757
 3119SOL     OW20815   0.049   2.641   6.610  0.4347 -0.2871  0.2249
 3119SOL    HW120816   0.048   2.546   6.621  1.4208 -0.4420 -1.0100
 3119SOL    HW220817   0.068   2.647   6.704  0.7824 -2.0318  0.2639
 3120SOL     OW20818   3.829   1.420   5.573 -0.6811  0.5672  0.5806
 3120SOL    HW120819   3.764   1.472   5.526  1.2057 -0.0455 -2.7511
 3120SOL    HW220820   3.820   1.331   5.539  1.6003  1.1485 -1.5853
 3121SOL     OW20821   0.478   1.992   0.940  0.2643  0.1339  0.3564
 3121SOL    HW120822   0.547   1.964   1.001  0.5591 -0.8227 -0.4241
 3121SOL    HW220823   0.507   1.936   0.868  0.7422  0.1041  0.5685
 3122SOL     OW20824   2.285   4.315   0.437 -0.0067  0.6743  0.0021
 3122SOL    HW120825   2.361   4.354   0.395  0.5700  0.7946  1.1417
 3122SOL    HW220826   2.326   4.304   0.523  0.2549 -1.9211 -0.4564
 3123SOL     OW20827   0.652   0.627   8.510  0.0874  0.6263 -0.1906
 3123SOL    HW120828   0.571   0.655   8.552 -1.7719 -1.2611 -2.4966
 3123SOL    HW220829   0.644   0.674   8.426  0.3895  0.0590 -0.5377
 3124SOL     OW20830   2.976   3.525  11.971 -0.0991 -0.5540 -0.5819
 3124SOL    HW120831   2.958   3.484  12.056  0.9753 -0.5316 -0.3428
 3124SOL    HW220832   2.956   3.616  11.991  1.7872 -0.7015  1.9240
 3125SOL     OW20833   3.544   4.631   2.160  0.3671  0.3623 -0.1312
 3125SOL    HW120834   3.476   4.589   2.107  1.4402 -1.3242 -0.1653
 3125SOL    HW220835   3.607   4.561   2.177 -0.0579  0.5082  1.9754
 3126SOL     OW20836   1.565   4.577   7.092  0.0879  0.7879 -0.6711
 3126SOL    HW120837   1.520   4.630   7.157  1.9976  0.1524  1.1668
 3126SOL    HW220838   1.631   4.531   7.143 -1.8695  0.2006  1.3049
 3127SOL     OW20839   4.214   3.774   5.467 -0.5035  0.3028 -0.1249
 3127SOL    HW120840   4.206   3.714   5.540 -1.2104  0.1865 -0.3071
 3127SOL    HW220841   4.239   3.857   5.508  1.5567 -0.3359 -0.0756
 3128SOL     OW20842   1.535   1.226   1.543  0.4355  0.5988  0.0268
 3128SOL    HW120843   1.595   1.181   1.603  0.1309  0.4104  0.1865
 3128SOL    HW220844   1.543   1.162   1.473 -0.7235 -0.1446  0.5921
 3129SOL     OW20845   4.664   2.039   7.974 -0.0964 -0.5599  0.2481
 3129SOL    HW120846   4.681   2.117   7.921 -0.8656 -0.5404  0.0355
 3129SOL    HW220847   4.590   2.066   8.028 -0.5866  0.1691 -0.7891
 3130SOL     OW20848   0.761   0.636   9.650  0.1361  0.0347  0.4197
 3130SOL    HW120849   0.789   0.545   9.654 -1.2675 -0.4711 -0.9925
 3130SOL    HW220850   0.837   0.672   9.695  0.1237 -0.5212  0.8897
 3131SOL     OW20851   1.723   4.384  17.254  0.2330 -0.7364 -0.0988
 3131SOL    HW120852   1.713   4.454  17.318  2.9654  0.0246 -0.5023
 3131SOL    HW220853   1.781   4.430  17.192 -0.2264  1.6689  1.2751
 3132SOL     OW20854   1.987   0.790   6.449 -0.2609  0.1834 -0.1735
 3132SOL    HW120855   1.917   0.836   6.404  1.4172  0.8125 -2.1236
 3132SOL    HW220856   2.060   0.815   6.393  0.0740 -0.0615  0.1522
 3133SOL     OW20857   0.654   3.723   2.653  0.4417 -0.2462 -0.4300
 3133SOL    HW120858   0.631   3.810   2.686  3.0641  0.4419 -0.4148
 3133SOL    HW220859   0.750   3.720   2.649  0.2238 -0.5611 -4.8929
 3134SOL     OW20860   1.699   0.216   6.243 -0.4711 -0.0432 -0.0582
 3134SOL    HW120861   1.772   0.213   6.304 -1.1603 -0.1052  0.7564
 3134SOL    HW220862   1.755   0.208   6.165 -0.1822  2.6940 -0.1289
 3135SOL     OW20863   1.921   0.715   8.026  0.1040  0.3486 -0.2902
 3135SOL    HW120864   1.830   0.716   7.996 -0.6641 -0.6569  1.9352
 3135SOL    HW220865   1.923   0.624   8.058  0.6132  0.4492 -0.0373
 3136SOL     OW20866   0.887   3.310  12.182 -0.0053  0.0750  0.2511
 3136SOL    HW120867   0.799   3.333  12.152 -0.2050  0.4672  1.1406
 3136SOL    HW220868   0.899   3.221  12.146  1.2601  0.5223 -0.4257
 3137SOL     OW20869   0.124   4.598   8.405  0.3556  0.2189  0.0886
 3137SOL    HW120870   0.115   4.548   8.324  2.0458  0.4729 -0.2601
 3137SOL    HW220871   0.216   4.624   8.411  0.7638 -1.0328 -0.7562
 3138SOL     OW20872   3.273   3.343   7.797  0.4210 -0.4880 -0.5768
 3138SOL    HW120873   3.186   3.311   7.821  0.2454 -0.2403 -0.8736
 3138SOL    HW220874   3.290   3.318   7.707  0.0388  0.8751 -1.0354
 3139SOL     OW20875   1.966   3.103   7.286  0.0555 -0.1378  0.3625
 3139SOL    HW120876   1.981   3.186   7.331 -2.6427  0.6717 -0.2476
 3139SOL    HW220877   1.935   3.050   7.360  1.9288  0.8254  1.8239
 3140SOL     OW20878   3.000   0.844   5.518 -0.4266 -0.6843  0.4673
 3140SOL    HW120879   2.994   0.752   5.491 -1.6568 -0.9859  1.7407
 3140SOL    HW220880   3.095   0.851   5.525 -0.3073 -0.1618 -1.9563
 3141SOL     OW20881   1.004   0.084   6.240  0.2466  0.1060 -0.4229
 3141SOL    HW120882   1.092   0.055   6.266  0.0775 -0.7672 -0.8198
 3141SOL    HW220883   0.978   4.720   6.210  1.6373 -0.8689  1.1826
 3142SOL     OW20884   3.038   0.898   6.536 -0.5732  0.1289 -0.0953
 3142SOL    HW120885   3.056   0.992   6.532 -1.0026  0.2834  1.6359
 3142SOL    HW220886   3.126   0.862   6.544 -0.7043 -0.1972 -0.1397
 3143SOL     OW20887   2.870   1.733   6.507 -0.5306  0.8056 -0.4129
 3143SOL    HW120888   2.874   1.825   6.534 -0.0596  1.0549 -1.2989
 3143SOL    HW220889   2.800   1.745   6.443 -0.6304  2.1796 -0.0453
 3144SOL     OW20890   1.993   4.107   0.577  0.6476 -0.2664 -0.0736
 3144SOL    HW120891   2.002   4.195   0.615  0.2951 -0.3034  0.0999
 3144SOL    HW220892   1.998   4.124   0.483  0.0125 -0.2101 -0.0952
 3145SOL     OW20893   1.705   0.042  12.579 -0.1089  0.0615 -0.1743
 3145SOL    HW120894   1.798   0.041  12.556 -0.5910 -2.3353 -2.0309
 3145SOL    HW220895   1.681   0.102  12.509  0.5706  1.6718  0.9765
 3146SOL     OW20896   1.268   2.839   8.309  0.1061 -0.2304  0.3859
 3146SOL    HW120897   1.258   2.931   8.334 -0.4719 -0.2317  0.1710
 3146SOL    HW220898   1.248   2.841   8.215 -0.1892  0.9250  0.4782
 3147SOL     OW20899   0.036   0.579   3.401  0.2225 -0.3697  0.0517
 3147SOL    HW120900   4.681   0.630   3.381  0.6155 -0.2729 -1.2924
 3147SOL    HW220901   0.027   0.558   3.494 -0.1575 -1.0819 -0.1486
 3148SOL     OW20902   1.764   1.862   4.324 -0.0067 -0.7183 -0.3568
 3148SOL    HW120903   1.806   1.829   4.404 -1.1007 -0.1594  0.4352
 3148SOL    HW220904   1.689   1.802   4.330  0.0455 -0.9889 -2.3277
 3149SOL     OW20905   1.829   1.773   1.636  0.1081  0.8817  0.6910
 3149SOL    HW120906   1.816   1.716   1.560 -0.6491  1.5260  0.3290
 3149SOL    HW220907   1.766   1.734   1.697  0.9105 -1.2843  0.1277
 3150SOL     OW20908   3.142   2.657   1.910 -0.2362  0.4503  0.0145
 3150SOL    HW120909   3.116   2.584   1.967  1.8230 -0.1755  0.1485
 3150SOL    HW220910   3.091   2.723   1.958  0.9815  2.5354 -1.5948
 3151SOL     OW20911   1.003   1.662   5.937 -0.5874  0.4223  0.8833
 3151SOL    HW120912   0.926   1.627   5.892 -0.0669  1.4484 -0.8015
 3151SOL    HW220913   1.017   1.586   5.993  0.5739  0.9239  1.2782
 3152SOL     OW20914   0.801   3.746   3.768 -0.6759  0.6747 -0.8023
 3152SOL    HW120915   0.830   3.770   3.856 -1.2686 -0.0843 -0.3951
 3152SOL    HW220916   0.823   3.818   3.709  1.7821  0.0844 -0.6028
 3153SOL     OW20917   1.022   3.065   1.143 -0.2964 -0.1912 -0.2335
 3153SOL    HW120918   1.040   3.070   1.048  0.6099 -1.3328 -0.1267
 3153SOL    HW220919   1.113   3.066   1.173  0.5332  0.1290 -2.7211
 3154SOL     OW20920   4.239   3.776   0.755 -0.0361 -0.0328  0.0870
 3154SOL    HW120921   4.277   3.691   0.778 -2.2156 -0.5992  1.6391
 3154SOL    HW220922   4.307   3.838   0.781 -0.1960  0.3506 -0.3972
 3155SOL     OW20923   4.628   2.848  12.723 -0.2462 -0.0546 -0.7806
 3155SOL    HW120924   4.680   2.793  12.782 -2.6867 -1.3801  0.1225
 3155SOL    HW220925   4.654   2.938  12.742  0.5790 -0.6186  0.8470
 3156SOL     OW20926   3.462   1.403   6.802  0.2348 -0.1671 -0.1662
 3156SOL    HW120927   3.428   1.417   6.714 -0.1418 -0.3315 -0.0505
 3156SOL    HW220928   3.526   1.473   6.797 -1.9063  1.8267  0.3347
 3157SOL     OW20929   1.790   1.006   7.224  0.0607  0.1198  0.2995
 3157SOL    HW120930   1.883   1.024   7.210 -0.5680  1.8585 -1.6368
 3157SOL    HW220931   1.774   0.958   7.143  0.8073 -0.3932  0.4525
 3158SOL     OW20932   2.933   2.014   8.246  0.0441 -0.4534 -0.1588
 3158SOL    HW120933   2.928   1.920   8.265 -0.6390 -0.2457  0.6845
 3158SOL    HW220934   3.024   2.038   8.261  0.2831 -1.8633  0.5804
 3159SOL     OW20935   0.854   2.643   4.526 -0.3235  0.6708 -0.4049
 3159SOL    HW120936   0.800   2.670   4.451 -1.4811 -3.1978 -0.9794
 3159SOL    HW220937   0.942   2.659   4.490  0.8748 -2.4418  1.1888
 3160SOL     OW20938   4.118   4.207   8.918 -0.3898 -0.5910 -0.4838
 3160SOL    HW120939   4.075   4.249   8.843  1.8628  2.0271 -0.3070
 3160SOL    HW220940   4.170   4.135   8.882 -0.3520 -0.9152  0.2272
 3161SOL     OW20941   2.830   0.098   8.209 -0.2986 -0.2244 -0.2848
 3161SOL    HW120942   2.856   0.162   8.275 -1.1285 -1.1191  0.8989
 3161SOL    HW220943   2.883   0.022   8.234  0.7626  1.4420  2.4795
 3162SOL     OW20944   1.463   4.593   7.843 -0.7593  0.0446 -0.4518
 3162SOL    HW120945   1.462   4.652   7.919  1.6950 -1.4345  0.7391
 3162SOL    HW220946   1.388   4.537   7.865  0.0711 -1.5887 -1.8293
 3163SOL     OW20947   1.293   2.538   4.543  0.8488  0.2426  0.0966
 3163SOL    HW120948   1.283   2.553   4.637 -1.1096 -2.3599  0.3002
 3163SOL    HW220949   1.373   2.485   4.545  1.3990  1.1180  1.3328
 3164SOL     OW20950   1.285   0.731   3.694 -0.6800  0.0810 -0.9069
 3164SOL    HW120951   1.324   0.806   3.739  0.0337 -0.2261 -1.0070
 3164SOL    HW220952   1.328   0.719   3.609 -1.3897 -1.5148 -1.0498
 3165SOL     OW20953   3.682   4.282   2.927  0.4063  0.4813  0.1110
 3165SOL    HW120954   3.701   4.188   2.925  1.9855  0.8136  0.0164
 3165SOL    HW220955   3.652   4.302   3.016  1.1041 -0.7587  0.6336
 3166SOL     OW20956   3.494   2.815   1.390 -0.6572 -0.3706  0.8775
 3166SOL    HW120957   3.433   2.794   1.319  0.2999 -2.6796  0.7445
 3166SOL    HW220958   3.496   2.911   1.397  2.8802 -0.3221 -1.0811
 3167SOL     OW20959   2.800   3.938   7.717  0.2688 -0.4355 -0.6008
 3167SOL    HW120960   2.881   3.895   7.745 -0.6699 -1.3049  0.7620
 3167SOL    HW220961   2.835   4.010   7.665  2.6502 -0.0403  1.5383
 3168SOL     OW20962   1.106   1.608   4.239  0.3067  0.0447  0.0689
 3168SOL    HW120963   1.152   1.628   4.158  0.5403 -0.6730  0.0266
 3168SOL    HW220964   1.159   1.655   4.304 -1.5677  0.4122  1.3314
 3169SOL     OW20965   1.394   3.934   8.424  0.5467  0.1523  0.5027
 3169SOL    HW120966   1.415   4.026   8.407  0.7333  0.3401  1.7816
 3169SOL    HW220967   1.463   3.913   8.487  0.0440 -1.6211  0.4476
 3170SOL     OW20968   2.327   2.015   1.925 -0.1592 -0.3515 -0.3557
 3170SOL    HW120969   2.377   1.993   2.004 -2.8027 -0.9524  1.1579
 3170SOL    HW220970   2.290   1.927   1.918  0.3896 -0.5245 -1.1153
 3171SOL     OW20971   0.710   2.584   2.004  0.7361 -0.4232 -0.0593
 3171SOL    HW120972   0.773   2.619   2.066 -0.9739 -1.4624  2.2782
 3171SOL    HW220973   0.767   2.521   1.959 -1.5052 -0.3801 -3.0058
 3172SOL     OW20974   3.276   4.529   1.535  0.1371  0.4775 -0.0928
 3172SOL    HW120975   3.205   4.586   1.504  0.8510 -0.4350 -3.3789
 3172SOL    HW220976   3.296   4.476   1.458  6.3125  1.4988  0.8300
 3173SOL     OW20977   1.155   0.779   3.339  0.5980  0.0883  0.1312
 3173SOL    HW120978   1.243   0.761   3.371  1.0926 -3.0426 -3.0690
 3173SOL    HW220979   1.169   0.866   3.302  2.5569 -0.1588  0.2985
 3174SOL     OW20980   0.363   3.752   2.351 -0.3181 -0.6819 -0.1468
 3174SOL    HW120981   0.306   3.676   2.354 -0.8144 -0.3092 -0.0512
 3174SOL    HW220982   0.358   3.774   2.444  1.0211 -1.0469  0.0021
 3175SOL     OW20983   4.063   1.104   6.544  0.1769  0.3628 -0.0170
 3175SOL    HW120984   4.150   1.142   6.555 -0.0007  1.3963 -2.1755
 3175SOL    HW220985   4.070   1.036   6.611 -0.0777 -0.4916 -0.8458
 3176SOL     OW20986   2.954   3.446   7.495 -0.0163  0.4455  0.0599
 3176SOL    HW120987   2.943   3.466   7.402  0.5285  0.8384  0.0835
 3176SOL    HW220988   3.021   3.507   7.526 -2.3429  2.0776  1.9013
 3177SOL     OW20989   3.280   3.345   4.895  0.2154 -0.4103  0.3616
 3177SOL    HW120990   3.198   3.387   4.920  0.5605  1.8804 -2.3527
 3177SOL    HW220991   3.321   3.427   4.867  2.7088 -1.6812  0.2217
 3178SOL     OW20992   0.302   0.572   1.419  0.5270  0.3103 -0.0622
 3178SOL    HW120993   0.291   0.659   1.458 -0.1373 -0.3810  1.2947
 3178SOL    HW220994   0.236   0.520   1.465 -0.3269  2.0026  0.6305
 3179SOL     OW20995   2.758   1.010   0.696 -0.0115  0.3730 -0.1893
 3179SOL    HW120996   2.734   1.061   0.618  0.1264 -3.3473 -2.6704
 3179SOL    HW220997   2.828   0.954   0.663  0.8522  2.0673 -1.1805
 3180SOL     OW20998   2.031   3.627   8.863 -0.2529  0.5763  0.1528
 3180SOL    HW120999   1.943   3.630   8.823 -0.5363 -1.5664  0.5974
 3180SOL    HW221000   2.043   3.714   8.900  0.8147  0.4882  0.0097
 3181SOL     OW21001   2.529   4.219   7.183  0.1810 -0.0841 -0.4174
 3181SOL    HW121002   2.598   4.167   7.225  0.1560  1.4075  1.4475
 3181SOL    HW221003   2.546   4.311   7.205  0.4076 -0.1180 -0.4475
 3182SOL     OW21004   1.626   2.210  17.337  0.2165  0.1002 -0.7604
 3182SOL    HW121005   1.587   2.237  17.254 -3.4225 -0.6466  0.6718
 3182SOL    HW221006   1.709   2.182  17.300 -0.5666 -1.5373 -1.2480
 3183SOL     OW21007   2.183   0.648   9.394  0.8875  0.5088 -0.0638
 3183SOL    HW121008   2.125   0.692   9.455 -0.4548 -2.2294  0.6125
 3183SOL    HW221009   2.262   0.698   9.416  0.6825  0.6226  0.3908
 3184SOL     OW21010   2.569   1.373   4.335 -0.0815  0.1780 -0.3728
 3184SOL    HW121011   2.581   1.295   4.281 -1.5909  1.6714 -2.8595
 3184SOL    HW221012   2.657   1.412   4.341  0.2722 -0.2797 -2.6633
 3185SOL     OW21013   2.288   3.028  14.163 -0.7176 -0.0817 -0.2937
 3185SOL    HW121014   2.299   2.967  14.090  0.9180 -2.8033  2.2291
 3185SOL    HW221015   2.330   3.104  14.124  1.9198 -1.8421 -0.9250
 3186SOL     OW21016   2.008   4.277  11.985 -0.2964  0.3354 -0.4983
 3186SOL    HW121017   2.060   4.357  11.987  1.3504 -0.7724  1.1240
 3186SOL    HW221018   2.069   4.209  12.013 -0.6359  1.3212  2.6388
 3187SOL     OW21019   3.412   2.503   2.472  0.1848  0.3323 -0.0024
 3187SOL    HW121020   3.341   2.539   2.419  1.0518  1.7316 -0.1957
 3187SOL    HW221021   3.448   2.586   2.501 -1.2109  1.5425 -1.7369
 3188SOL     OW21022   0.682   0.663   3.214 -0.1608  0.5213 -0.2080
 3188SOL    HW121023   0.592   0.666   3.245 -0.3209 -3.4668 -0.2527
 3188SOL    HW221024   0.701   0.578   3.253 -0.9188  1.0556  1.3013
 3189SOL     OW21025   3.254   4.505  13.442 -0.7691 -0.0837  0.2575
 3189SOL    HW121026   3.219   4.416  13.443  1.4510 -0.9902 -2.4922
 3189SOL    HW221027   3.182   4.547  13.394 -0.9270  1.4515  1.8253
 3190SOL     OW21028   2.117   4.129   4.881  0.0135  0.0615  0.6818
 3190SOL    HW121029   2.104   4.222   4.861 -2.6152 -0.7710 -1.5658
 3190SOL    HW221030   2.103   4.090   4.795  0.1963  1.3757  0.0584
 3191SOL     OW21031   1.901   0.675   5.987  0.3091  0.2175  0.2412
 3191SOL    HW121032   1.868   0.616   6.055 -0.3296 -1.1498 -1.2650
 3191SOL    HW221033   1.829   0.738   5.989 -0.6440 -0.9423  2.1144
 3192SOL     OW21034   0.627   1.445   5.590 -0.2401 -0.0065  0.0987
 3192SOL    HW121035   0.551   1.503   5.595 -1.2056 -1.3590  1.4203
 3192SOL    HW221036   0.684   1.495   5.649 -1.1942  1.0173  0.1593
 3193SOL     OW21037   0.967   3.037   2.389  0.5608 -0.1288 -0.0437
 3193SOL    HW121038   0.898   3.048   2.323  0.6629 -3.2327 -0.6833
 3193SOL    HW221039   1.007   3.124   2.393  0.3425 -0.0332  0.0910
 3194SOL     OW21040   2.802   2.027   8.718  0.1800 -0.5520  0.2904
 3194SOL    HW121041   2.799   2.007   8.811 -0.4961  1.7469  0.7681
 3194SOL    HW221042   2.797   1.943   8.673  1.4843  0.6152 -2.0476
 3195SOL     OW21043   0.187   4.459   1.904  0.4950 -0.7455  0.1331
 3195SOL    HW121044   0.217   4.534   1.853 -2.1521  1.0324  1.2006
 3195SOL    HW221045   0.153   4.405   1.832  0.0268 -1.1179  0.6322
 3196SOL     OW21046   3.365   3.076   1.425  0.5677 -0.0648 -0.0714
 3196SOL    HW121047   3.313   3.004   1.390 -1.2463  0.8320  0.7565
 3196SOL    HW221048   3.289   3.134   1.432 -0.0841 -0.9174 -0.0275
 3197SOL     OW21049   2.045   3.865   7.870 -0.0059 -0.0107 -0.3683
 3197SOL    HW121050   2.116   3.857   7.807  0.3372  0.5662 -0.0463
 3197SOL    HW221051   2.101   3.894   7.942 -1.1026  2.1658 -0.3909
 3198SOL     OW21052   0.269   0.341   4.298 -0.5893 -0.6033 -0.4133
 3198SOL    HW121053   0.185   0.310   4.264 -1.9340 -0.4925  2.8294
 3198SOL    HW221054   0.247   0.433   4.290 -0.7272 -0.4052  2.4478
 3199SOL     OW21055   2.984   0.180   1.588 -0.1752 -0.2896  0.5408
 3199SOL    HW121056   3.039   0.120   1.537  2.3534 -0.8397  3.8768
 3199SOL    HW221057   2.997   0.140   1.674 -0.4340 -1.6414 -0.0496
 3200SOL     OW21058   1.725   1.728   1.393 -0.6441 -0.6047  0.6041
 3200SOL    HW121059   1.727   1.699   1.302 -4.0666 -0.7664  0.5843
 3200SOL    HW221060   1.636   1.706   1.421 -1.6556  0.8485 -1.5158
 3201SOL     OW21061   2.550   0.583   3.761 -0.6770  0.7067  0.4717
 3201SOL    HW121062   2.639   0.562   3.732 -0.5060  0.1791  1.3997
 3201SOL    HW221063   2.541   0.533   3.842  0.1633 -1.0674 -0.5350
 3202SOL     OW21064   4.681   3.782  10.171 -0.0774  0.2276  0.5807
 3202SOL    HW121065   0.036   3.781  10.227 -0.0653 -1.2543  0.5446
 3202SOL    HW221066   4.656   3.690  10.160  0.8478 -0.1044  1.1792
 3203SOL     OW21067   3.379   1.904  11.062 -0.2385 -0.0405 -0.4375
 3203SOL    HW121068   3.326   1.936  10.989 -3.4931 -1.6641  1.2019
 3203SOL    HW221069   3.453   1.963  11.050  0.2137 -0.1535  1.8995
 3204SOL     OW21070   0.155   0.237  11.259 -0.1013 -0.2826 -0.5400
 3204SOL    HW121071   0.210   0.184  11.201  0.8576 -0.6963  0.7704
 3204SOL    HW221072   0.213   0.268  11.328 -0.9337  2.0351 -0.8763
 3205SOL     OW21073   0.280   3.709  14.721  0.3471 -0.1473 -0.3012
 3205SOL    HW121074   0.363   3.755  14.707 -0.4841  1.9615  1.5886
 3205SOL    HW221075   0.217   3.756  14.667 -1.5812 -0.5815  1.5951
 3206SOL     OW21076   0.350   4.611  10.885 -0.5388 -0.9708 -0.7103
 3206SOL    HW121077   0.314   4.590  10.971  2.3964 -3.1613 -0.0429
 3206SOL    HW221078   0.283   4.661  10.836  1.2334  0.4489 -1.6957
 3207SOL     OW21079   1.000   3.366  15.664  0.1042 -0.3904  0.5411
 3207SOL    HW121080   1.018   3.377  15.571 -1.4582  1.2045  0.4346
 3207SOL    HW221081   1.078   3.313  15.681  0.6716 -0.0341 -0.9502
 3208SOL     OW21082   4.172   4.351   8.438 -0.6383  0.1895 -0.1829
 3208SOL    HW121083   4.242   4.328   8.499 -0.8753 -2.9434 -1.0683
 3208SOL    HW221084   4.215   4.423   8.393 -0.5631 -1.1750 -2.2727
 3209SOL     OW21085   3.908   3.579   9.299  0.0443 -0.5162 -0.3104
 3209SOL    HW121086   3.908   3.498   9.248  0.9086 -1.3525  1.0134
 3209SOL    HW221087   3.929   3.535   9.381 -1.7337  0.3712  0.6135
 3210SOL     OW21088   4.585   4.405   9.324 -0.3776 -0.2103  0.4222
 3210SOL    HW121089   4.493   4.404   9.353 -1.1969 -0.5320 -2.2310
 3210SOL    HW221090   4.604   4.313   9.308 -1.9996 -0.8847  2.3184
 3211SOL     OW21091   2.937   2.286   9.099 -0.3855  0.3395  0.3922
 3211SOL    HW121092   2.958   2.357   9.038  0.5746  1.2644  1.7908
 3211SOL    HW221093   3.024   2.253   9.121 -0.3363  0.8461  0.9603
 3212SOL     OW21094   1.670   4.522   5.107  0.6128  0.1570  0.4949
 3212SOL    HW121095   1.701   4.445   5.060  2.1251  0.8958  0.2546
 3212SOL    HW221096   1.622   4.564   5.036  4.3829 -0.9531 -2.7252
 3213SOL     OW21097   0.708   4.718   2.558  0.1350  0.3928 -0.7204
 3213SOL    HW121098   0.776   4.653   2.543  1.2138  1.4339 -0.4056
 3213SOL    HW221099   0.634   4.658   2.565  2.1573 -1.8126  1.7193
 3214SOL     OW21100   2.193   0.648   7.937  0.1121  0.2384  0.0665
 3214SOL    HW121101   2.119   0.674   7.992 -1.4135 -1.0441 -1.3872
 3214SOL    HW221102   2.242   0.730   7.936  0.0957  0.2532  0.6065
 3215SOL     OW21103   0.640   1.720  14.666  0.5767  0.0861 -0.7407
 3215SOL    HW121104   0.593   1.789  14.618  1.8900  1.0497 -0.6383
 3215SOL    HW221105   0.567   1.664  14.693  1.9020 -1.9216 -1.3803
 3216SOL     OW21106   0.540   3.350   6.187  0.0031  0.1720  0.6898
 3216SOL    HW121107   0.571   3.265   6.155  0.5437  0.0441  1.5493
 3216SOL    HW221108   0.607   3.409   6.152  0.0383 -1.2043 -1.5040
 3217SOL     OW21109   1.111   0.288   9.703  0.1444  0.1266 -0.6065
 3217SOL    HW121110   1.160   0.346   9.645  1.4764 -1.1677 -0.7645
 3217SOL    HW221111   1.153   0.204   9.685 -1.9663 -1.7430  3.2883
 3218SOL     OW21112   0.304   0.880   5.763  0.4120 -0.0076 -0.0745
 3218SOL    HW121113   0.302   0.972   5.788 -2.4922 -0.3130  0.7504
 3218SOL    HW221114   0.381   0.844   5.809 -0.6606 -0.2906  1.4966
 3219SOL     OW21115   3.974   2.645  13.613  0.0135 -0.1003 -0.2226
 3219SOL    HW121116   3.968   2.740  13.598 -4.2361 -0.0203  2.1096
 3219SOL    HW221117   4.028   2.624  13.536  1.4523 -0.8614  1.0057
 3220SOL     OW21118   0.749   0.784   2.151 -0.0310 -0.5990 -0.2496
 3220SOL    HW121119   0.738   0.742   2.066  1.4986  0.1481 -0.8215
 3220SOL    HW221120   0.661   0.811   2.178 -0.3438 -1.9144  0.0081
 3221SOL     OW21121   0.061   1.338   0.568  0.0226 -0.0213 -0.1898
 3221SOL    HW121122   0.089   1.417   0.614 -1.3555 -1.2630  2.8001
 3221SOL    HW221123   0.147   1.305   0.542  1.3483  2.2751  1.2905
 3222SOL     OW21124   1.552   0.094   2.397  0.1498  0.1725 -0.4654
 3222SOL    HW121125   1.480   0.111   2.458  1.1067  0.7229  0.5161
 3222SOL    HW221126   1.583   0.012   2.436  0.6058 -0.0529 -1.3163
 3223SOL     OW21127   3.558   3.193   9.656  0.1757 -0.1591  0.1907
 3223SOL    HW121128   3.545   3.243   9.575 -2.7270 -3.0126 -1.0661
 3223SOL    HW221129   3.528   3.260   9.717  0.5860  2.5087 -2.4896
 3224SOL     OW21130   0.932   3.476   9.440 -0.5740  0.2279 -0.3766
 3224SOL    HW121131   0.928   3.388   9.403  0.6954  0.1211 -0.2424
 3224SOL    HW221132   0.976   3.521   9.368 -1.6084 -0.7410 -1.6244
 3225SOL     OW21133   2.659   3.665   9.199  0.6461 -0.2171  0.1584
 3225SOL    HW121134   2.706   3.597   9.248  0.5149  1.6222  2.8336
 3225SOL    HW221135   2.718   3.676   9.124 -0.1124 -0.2528 -0.4434
 3226SOL     OW21136   4.132   2.189   8.053 -0.1179 -0.6467  0.6173
 3226SOL    HW121137   4.072   2.150   8.117 -1.6254 -1.7735 -1.4813
 3226SOL    HW221138   4.129   2.282   8.075  0.1986  0.3466 -3.6169
 3227SOL     OW21139   3.389   4.066   5.841 -0.0207 -0.0418  0.5252
 3227SOL    HW121140   3.333   4.106   5.774  0.4597  0.3586  0.3599
 3227SOL    HW221141   3.343   4.076   5.925 -0.0454 -0.3736  0.5491
 3228SOL     OW21142   4.648   1.073   7.394  0.2289  0.3318 -0.1366
 3228SOL    HW121143   4.577   1.017   7.362 -0.5188 -0.0589  2.1316
 3228SOL    HW221144   4.700   0.997   7.424 -0.9102 -0.3018  0.2371
 3229SOL     OW21145   1.342   3.145   6.908  0.7042  0.3410  0.1221
 3229SOL    HW121146   1.261   3.194   6.894 -0.7459 -2.0967 -0.0336
 3229SOL    HW221147   1.314   3.060   6.874 -1.9789  1.6097 -0.8890
 3230SOL     OW21148   1.962   3.073  15.160 -0.0303 -0.0548  0.3689
 3230SOL    HW121149   2.035   3.128  15.186 -0.0842 -0.4709  1.4073
 3230SOL    HW221150   1.900   3.094  15.230 -0.9845 -1.8392  0.0766
 3231SOL     OW21151   3.611   1.062   8.622  0.6057 -0.4352 -0.2595
 3231SOL    HW121152   3.581   1.048   8.711  2.5474  1.5890  0.7077
 3231SOL    HW221153   3.617   1.157   8.627  0.8579 -0.3966 -1.2651
 3232SOL     OW21154   2.689   1.066   6.612 -0.3971  0.1140  0.8080
 3232SOL    HW121155   2.701   1.080   6.518 -0.2366  0.7936  0.9302
 3232SOL    HW221156   2.595   1.052   6.620 -0.2903 -1.2501 -0.3437
 3233SOL     OW21157   3.082   1.938  14.513  0.1505 -0.6185 -0.8971
 3233SOL    HW121158   3.013   1.873  14.528  0.2904 -0.0984  1.8430
 3233SOL    HW221159   3.033   2.020  14.513 -3.0373 -2.5371  1.1656
 3234SOL     OW21160   2.798   1.346   7.376  0.5532  0.0864 -0.1113
 3234SOL    HW121161   2.758   1.426   7.410  1.3057  1.0877 -1.5921
 3234SOL    HW221162   2.884   1.359   7.415  0.2776 -4.0436  1.9557
 3235SOL     OW21163   0.231   1.848   0.915  0.0237  0.2233  0.1028
 3235SOL    HW121164   0.304   1.901   0.949  1.3447 -2.0466  0.7551
 3235SOL    HW221165   0.226   1.866   0.821 -1.5298  2.1979  0.5722
 3236SOL     OW21166   0.498   0.871   2.258 -0.0861  0.2601  0.0783
 3236SOL    HW121167   0.546   0.925   2.321 -3.2324  0.9143  1.8803
 3236SOL    HW221168   0.444   0.943   2.224  1.5237  1.2654 -0.3713
 3237SOL     OW21169   0.889   2.114   0.436 -0.0092 -0.4709  0.2679
 3237SOL    HW121170   0.960   2.052   0.455  1.6562  1.6077  0.7992
 3237SOL    HW221171   0.853   2.135   0.522  1.0254 -1.1424  0.8632
 3238SOL     OW21172   3.056   0.110   3.569 -0.0145 -0.6367 -0.0904
 3238SOL    HW121173   3.072   0.051   3.644 -1.1750 -0.1126  0.5601
 3238SOL    HW221174   3.036   0.186   3.623  0.5831 -1.3111  1.1059
 3239SOL     OW21175   3.366   0.865   1.053 -0.0240 -0.0327 -0.1711
 3239SOL    HW121176   3.341   0.839   0.964 -0.0720  0.5001 -0.3100
 3239SOL    HW221177   3.278   0.871   1.091  1.3706 -0.7724  3.2341
 3240SOL     OW21178   4.455   2.481   0.557  0.1450 -0.6032 -0.0670
 3240SOL    HW121179   4.550   2.493   0.553  0.2138 -0.8862  0.6710
 3240SOL    HW221180   4.444   2.387   0.545  1.1366 -0.7866  0.4415
 3241SOL     OW21181   3.436   1.764   4.635 -0.6372 -0.0654 -0.3262
 3241SOL    HW121182   3.355   1.758   4.585 -1.3916 -2.1076  1.1403
 3241SOL    HW221183   3.416   1.830   4.701 -1.1301  0.2001 -0.7428
 3242SOL     OW21184   3.902   2.769   5.588  0.2894  0.0067  0.0192
 3242SOL    HW121185   3.823   2.780   5.535  0.1708 -0.0741  0.1820
 3242SOL    HW221186   3.908   2.676   5.610 -2.2729 -0.1616  0.0142
 3243SOL     OW21187   1.667   0.162   2.754  0.3309  0.0478  1.1366
 3243SOL    HW121188   1.575   0.164   2.780 -0.5695  0.0026 -2.0348
 3243SOL    HW221189   1.695   0.079   2.792  2.5904  0.1341 -0.2905
 3244SOL     OW21190   2.499   3.635  12.621  0.0387  0.6945 -0.9432
 3244SOL    HW121191   2.462   3.601  12.540 -0.1128 -1.4086  0.0091
 3244SOL    HW221192   2.442   3.589  12.683  0.5506  0.3253 -0.7535
 3245SOL     OW21193   2.892   1.591   2.444 -0.4180  0.0869  0.2357
 3245SOL    HW121194   2.807   1.594   2.488 -0.5786 -0.0892 -0.0671
 3245SOL    HW221195   2.885   1.505   2.404  0.1292  0.7332 -1.2569
 3246SOL     OW21196   1.316   1.085   1.269  0.0022 -0.0436  0.1032
 3246SOL    HW121197   1.377   1.150   1.235 -0.3187 -1.0410 -2.4279
 3246SOL    HW221198   1.367   1.028   1.327  0.7057  1.6161  1.1015
 3247SOL     OW21199   2.925   4.054  16.245  0.1859 -0.4060 -0.5131
 3247SOL    HW121200   2.948   4.133  16.295  0.2962 -1.6163  1.3554
 3247SOL    HW221201   3.000   4.055  16.186  0.8088 -0.2817  0.2715
 3248SOL     OW21202   0.743   3.145  12.416  0.1995 -0.2635  0.2112
 3248SOL    HW121203   0.686   3.077  12.451 -0.7056 -0.4319 -1.5702
 3248SOL    HW221204   0.699   3.180  12.338  1.6897 -1.3320 -1.0936
 3249SOL     OW21205   2.393   1.032  16.333  0.2726 -0.1548 -0.0324
 3249SOL    HW121206   2.423   1.077  16.254  0.9367 -0.6979 -0.0795
 3249SOL    HW221207   2.473   1.015  16.381  0.0769 -0.7768  0.0675
 3250SOL     OW21208   3.196   4.274   0.306  0.5778  0.5284  0.0931
 3250SOL    HW121209   3.278   4.239   0.343  1.1955  0.1477 -1.6379
 3250SOL    HW221210   3.199   4.256   0.212 -0.0682 -1.6842  0.4826
 3251SOL     OW21211   2.653   3.372  12.568  0.1899  0.6531  0.3400
 3251SOL    HW121212   2.749   3.375  12.572  0.2081 -1.2928  1.0471
 3251SOL    HW221213   2.637   3.450  12.621 -1.6627  0.6137 -0.1576
 3252SOL     OW21214   2.742   3.732  13.440  0.3616  0.0026  0.0966
 3252SOL    HW121215   2.663   3.777  13.409 -1.3351 -2.7101  0.5051
 3252SOL    HW221216   2.787   3.807  13.479  0.8655 -0.9395  1.3175
 3253SOL     OW21217   4.069   1.490   7.032  0.3281 -0.0851 -0.2837
 3253SOL    HW121218   4.120   1.478   6.952  0.9652  0.8805 -0.0328
 3253SOL    HW221219   4.129   1.546   7.081  2.1986 -1.0557 -1.4587
 3254SOL     OW21220   3.753   3.914   8.744 -0.0218  0.2564  0.0578
 3254SOL    HW121221   3.677   3.861   8.720 -1.0478  0.9892  1.7000
 3254SOL    HW221222   3.828   3.857   8.730  1.4126  2.1234  0.1826
 3255SOL     OW21223   2.051   4.267   6.787 -0.1790  0.0396  0.0162
 3255SOL    HW121224   2.092   4.181   6.796  2.9964  1.4915 -0.5329
 3255SOL    HW221225   2.120   4.326   6.758  0.3433 -0.8435 -0.5192
 3256SOL     OW21226   2.083   0.737   7.224  0.1408  0.2715 -0.3284
 3256SOL    HW121227   2.147   0.729   7.296 -1.0206 -0.7371  0.5855
 3256SOL    HW221228   2.005   0.703   7.268  1.1156  0.3992  1.5220
 3257SOL     OW21229   3.277   3.266  15.616  0.5341  0.8463  0.5035
 3257SOL    HW121230   3.286   3.174  15.643 -0.5502  0.2479 -1.1926
 3257SOL    HW221231   3.220   3.290  15.690  1.5514  3.6486  0.3485
 3258SOL     OW21232   2.277   2.155  14.583  0.0403  0.0965  0.3096
 3258SOL    HW121233   2.269   2.238  14.536 -2.2329 -1.5346 -2.1444
 3258SOL    HW221234   2.347   2.110  14.536 -0.8188 -1.4935  0.5472
 3259SOL     OW21235   2.981   0.245   4.409  0.1068  0.2494  0.7033
 3259SOL    HW121236   2.939   0.257   4.494  1.4871  1.0426  1.2738
 3259SOL    HW221237   2.908   0.213   4.356  0.1713  0.4873  0.4720
 3260SOL     OW21238   4.372   2.548   7.223 -0.5589 -0.1376 -0.5958
 3260SOL    HW121239   4.286   2.529   7.259 -0.4229  4.3681  2.1836
 3260SOL    HW221240   4.369   2.507   7.137  1.4882 -0.3403 -0.5895
 3261SOL     OW21241   1.502   1.656  17.595  0.6687  0.0479  0.2826
 3261SOL    HW121242   1.452   1.575  17.588  0.8612 -0.0056 -0.4611
 3261SOL    HW221243   1.588   1.627  17.564  0.7397 -1.7269  2.1679
 3262SOL     OW21244   0.561   0.289   5.091  0.0613 -0.6520 -0.4600
 3262SOL    HW121245   0.577   0.383   5.104 -0.8146 -0.8163  1.7963
 3262SOL    HW221246   0.486   0.273   5.149  0.4653 -0.4792  0.1059
 3263SOL     OW21247   1.893   3.307   8.192 -0.3785 -0.8053 -0.0509
 3263SOL    HW121248   1.820   3.304   8.255 -0.5731  0.7646 -0.1934
 3263SOL    HW221249   1.851   3.279   8.111 -1.2376  0.7124 -0.1400
 3264SOL     OW21250   4.192   3.124   6.052  0.2111 -0.3235  0.6916
 3264SOL    HW121251   4.161   3.178   5.979  1.6677 -2.1366 -1.2404
 3264SOL    HW221252   4.163   3.036   6.026 -1.6537 -0.1456  2.1066
 3265SOL     OW21253   2.991   1.981   4.510 -0.0986  0.3589 -0.5070
 3265SOL    HW121254   2.906   1.937   4.516 -0.0115  0.4900  1.8495
 3265SOL    HW221255   2.991   2.036   4.588 -0.8053  0.1523 -0.3550
 3266SOL     OW21256   2.535   1.760   9.216 -0.6353 -0.1988  0.0362
 3266SOL    HW121257   2.474   1.687   9.215 -1.9043  0.8705  1.1130
 3266SOL    HW221258   2.478   1.825   9.256  1.5266 -0.0388  2.8616
 3267SOL     OW21259   2.237   0.665   3.962 -0.5774 -0.2462 -0.6953
 3267SOL    HW121260   2.271   0.649   4.050 -1.3405 -1.7943 -0.6736
 3267SOL    HW221261   2.217   0.578   3.926 -0.6432 -0.4545 -0.1584
 3268SOL     OW21262   2.080   0.982   8.680 -1.2027 -0.3028 -0.2150
 3268SOL    HW121263   2.136   1.050   8.642 -0.2925 -1.5494 -1.0754
 3268SOL    HW221264   2.150   0.920   8.701 -0.7032  0.5597  0.7148
 3269SOL     OW21265   2.130   1.145   5.899  0.9124  0.4496  0.0156
 3269SOL    HW121266   2.126   1.230   5.855 -0.3121  0.4005  0.0302
 3269SOL    HW221267   2.130   1.094   5.818  1.5915 -0.1010  0.3679
 3270SOL     OW21268   2.803   3.607  12.472 -0.0598 -0.0092  0.0969
 3270SOL    HW121269   2.833   3.681  12.524  0.8119 -2.3385  2.9068
 3270SOL    HW221270   2.712   3.613  12.501  0.3081 -0.9754  1.4317
 3271SOL     OW21271   2.528   1.344   0.145 -0.3911 -0.2153 -0.2381
 3271SOL    HW121272   2.440   1.378   0.130 -0.6280 -0.7259  0.0247
 3271SOL    HW221273   2.527   1.268   0.087 -0.7781  0.4324 -1.0914
 3272SOL     OW21274   2.196   2.494   6.297  0.4688 -0.3650 -0.3241
 3272SOL    HW121275   2.279   2.496   6.250 -0.6799  0.7959 -2.2915
 3272SOL    HW221276   2.200   2.580   6.338 -1.9777  0.4127 -1.7075
 3273SOL     OW21277   1.370   0.366   8.913 -0.4756  0.3099  0.2271
 3273SOL    HW121278   1.323   0.448   8.902 -1.5014  0.0106  2.3697
 3273SOL    HW221279   1.320   0.319   8.980  0.4397 -1.5505 -0.3730
 3274SOL     OW21280   2.932   0.414   5.780  0.4467  0.3110 -0.4092
 3274SOL    HW121281   2.982   0.355   5.836  2.0983  0.1464 -2.0624
 3274SOL    HW221282   2.944   0.377   5.692  0.0533 -1.2163  0.1770
 3275SOL     OW21283   1.472   3.397   9.639 -0.9354 -0.0685  0.4559
 3275SOL    HW121284   1.546   3.339   9.622 -0.4868  1.5532 -3.2243
 3275SOL    HW221285   1.511   3.479   9.671  0.4353 -0.0738 -1.2047
 3276SOL     OW21286   3.780   0.854  11.534 -1.1976 -0.3962 -0.2824
 3276SOL    HW121287   3.808   0.815  11.450 -1.9301  0.5216 -0.9559
 3276SOL    HW221288   3.684   0.861  11.527 -1.1169  1.6965  0.9175
 3277SOL     OW21289   1.634   3.660   8.526 -0.0618  0.3822 -0.6538
 3277SOL    HW121290   1.542   3.636   8.511 -0.5464  0.9849  1.2801
 3277SOL    HW221291   1.681   3.620   8.453 -1.2493  0.6745 -1.5901
 3278SOL     OW21292   0.120   2.020  15.286  0.0637 -0.0307 -0.1738
 3278SOL    HW121293   0.171   2.099  15.266  0.6674 -0.6392 -1.0621
 3278SOL    HW221294   0.192   1.957  15.296 -0.1865 -0.2180  0.4330
 3279SOL     OW21295   3.216   2.122   6.026 -0.1922  0.0782 -0.1119
 3279SOL    HW121296   3.215   2.216   6.047  2.0472 -0.3044  1.7394
 3279SOL    HW221297   3.146   2.092   6.084  0.3812  1.1714  1.1280
 3280SOL     OW21298   0.305   1.056   3.005 -0.4664 -0.0880 -0.5892
 3280SOL    HW121299   0.392   1.040   3.044 -1.2188  0.1367  1.2120
 3280SOL    HW221300   0.303   1.141   2.961  0.2859 -0.4625 -1.3467
 3281SOL     OW21301   0.121   3.796   6.191  0.1917  0.3781  0.0669
 3281SOL    HW121302   0.069   3.720   6.218 -0.6089  0.0994 -2.2110
 3281SOL    HW221303   0.093   3.804   6.100  1.2691 -0.1923 -0.3115
 3282SOL     OW21304   1.342   2.179   8.396  0.0810  0.2942  0.2839
 3282SOL    HW121305   1.284   2.251   8.420 -0.4143  0.1226 -0.4157
 3282SOL    HW221306   1.383   2.206   8.314 -1.0607 -1.2875 -0.8080
 3283SOL     OW21307   1.475   0.097   0.899  0.0693 -0.4100 -0.6093
 3283SOL    HW121308   1.528   0.130   0.827  1.2407 -2.3044 -0.5967
 3283SOL    HW221309   1.478   0.167   0.964  2.4763  0.0193 -1.2081
 3284SOL     OW21310   1.165   1.463   8.080 -0.2457 -0.5765 -0.8316
 3284SOL    HW121311   1.169   1.547   8.124 -1.2584 -1.3170  0.6919
 3284SOL    HW221312   1.075   1.437   8.101 -0.4508  0.3542 -0.5772
 3285SOL     OW21313   0.682   1.967   6.643  0.4569 -0.0053 -0.3234
 3285SOL    HW121314   0.671   2.035   6.576  3.0699 -0.5728 -1.2926
 3285SOL    HW221315   0.749   1.917   6.597  0.7534  3.8928 -4.1741
 3286SOL     OW21316   2.819   3.935  14.824  1.2411 -0.3744 -0.1242
 3286SOL    HW121317   2.870   4.011  14.850 -0.0056  0.6215 -0.5568
 3286SOL    HW221318   2.739   3.983  14.803  0.2543 -0.9571  2.3589
 3287SOL     OW21319   2.609   3.700   4.703 -0.1807  0.3988 -0.4366
 3287SOL    HW121320   2.614   3.610   4.671  0.2671 -0.4292  1.9319
 3287SOL    HW221321   2.520   3.710   4.672 -0.2715  0.9704  0.0146
 3288SOL     OW21322   3.315   3.013  15.716  0.5514 -0.0132  0.6327
 3288SOL    HW121323   3.309   3.020  15.811 -1.3163  1.6223  0.3933
 3288SOL    HW221324   3.407   2.990  15.700  0.4061  1.0499 -1.6817
 3289SOL     OW21325   0.989   3.984   8.123  0.3155  0.3088  0.4603
 3289SOL    HW121326   1.079   4.007   8.147 -0.0242  0.6463  1.3952
 3289SOL    HW221327   0.966   4.038   8.047  1.0740 -1.3036 -0.9053
 3290SOL     OW21328   3.405   4.477   7.524  0.6092 -0.7601  0.6784
 3290SOL    HW121329   3.412   4.567   7.493 -3.5325 -0.5441  0.3537
 3290SOL    HW221330   3.431   4.417   7.454  1.2193  1.3987 -0.9197
 3291SOL     OW21331   4.456   0.752   8.307  0.0929  0.1140 -0.0021
 3291SOL    HW121332   4.440   0.847   8.303  0.8955  0.2578  0.1257
 3291SOL    HW221333   4.546   0.745   8.275  1.0187 -0.5068  2.7489
 3292SOL     OW21334   3.039   1.995  15.788  0.3227 -0.0856  0.3719
 3292SOL    HW121335   3.131   2.012  15.766  0.7712 -0.0063  2.2887
 3292SOL    HW221336   3.006   1.961  15.705  2.4889 -1.5402  0.1080
 3293SOL     OW21337   0.059   0.868   4.449  0.7379  0.1542 -0.3051
 3293SOL    HW121338   0.063   0.918   4.531  0.4388  0.8520 -0.7090
 3293SOL    HW221339   0.144   0.824   4.445  0.9820  0.6006 -0.0225
 3294SOL     OW21340   2.829   0.519   7.409  1.0094 -0.1588  0.2932
 3294SOL    HW121341   2.758   0.485   7.463  1.3932  0.2756  1.0732
 3294SOL    HW221342   2.881   0.565   7.475 -0.0807 -0.8161  1.6061
 3295SOL     OW21343   1.222   4.410   7.958 -0.5601  0.1104 -0.4313
 3295SOL    HW121344   1.290   4.343   7.966 -0.7171 -0.0013 -0.0730
 3295SOL    HW221345   1.172   4.379   8.033 -0.1280  0.8923  0.1872
 3296SOL     OW21346   4.579   2.696   5.985  0.5443  0.3738 -0.2510
 3296SOL    HW121347   4.663   2.741   5.992  0.4099  0.8974 -2.1123
 3296SOL    HW221348   4.547   2.715   6.073  1.2257 -3.9788  0.9437
 3297SOL     OW21349   0.383   0.960   6.512  0.0429  0.3243  0.2728
 3297SOL    HW121350   0.304   0.911   6.490 -0.1819  0.4257  0.8701
 3297SOL    HW221351   0.450   0.893   6.501 -2.2228 -1.6700 -1.2943
 3298SOL     OW21352   2.130   1.227   7.257  0.4868 -0.5211  0.6430
 3298SOL    HW121353   2.103   1.186   7.175 -0.7349  0.5446  0.5071
 3298SOL    HW221354   2.218   1.252   7.228  0.9660 -1.3527  1.4210
 3299SOL     OW21355   4.358   0.258   1.427 -0.2493 -0.0915 -0.7820
 3299SOL    HW121356   4.406   0.242   1.346  3.9822 -0.6428  1.8316
 3299SOL    HW221357   4.356   0.169   1.464  0.9553  0.3375  0.3102
 3300SOL     OW21358   3.319   2.794   8.078 -0.9423  0.9697 -0.0837
 3300SOL    HW121359   3.341   2.702   8.093 -0.4161  0.7714 -2.0372
 3300SOL    HW221360   3.233   2.782   8.038 -1.0529 -0.1357  0.4971
 3301SOL     OW21361   2.477   4.092   6.436 -0.5869 -0.1195  0.0351
 3301SOL    HW121362   2.396   4.085   6.386 -0.2286  0.1601 -0.5741
 3301SOL    HW221363   2.529   4.012   6.421 -1.2254 -0.6856  0.8315
 3302SOL     OW21364   2.798   3.848   4.594  0.0896 -0.3359 -0.6431
 3302SOL    HW121365   2.745   3.877   4.519 -0.3532  0.8636  0.1336
 3302SOL    HW221366   2.734   3.794   4.641 -0.4344 -0.8164 -1.9065
 3303SOL     OW21367   0.230   2.748   0.904 -0.4761  0.5595  0.0237
 3303SOL    HW121368   0.231   2.653   0.919  2.4893  0.5505 -0.2275
 3303SOL    HW221369   0.292   2.765   0.975 -0.5907 -0.4428  0.3653
 3304SOL     OW21370   3.500   4.664   0.774 -0.4165 -0.6266  0.3233
 3304SOL    HW121371   3.517   0.022   0.821  2.2628 -1.3248  0.5217
 3304SOL    HW221372   3.421   4.690   0.726 -1.2192 -2.4725  0.6432
 3305SOL     OW21373   1.480   2.686   7.235  0.0995 -0.7173 -0.2087
 3305SOL    HW121374   1.452   2.722   7.319 -0.4735  0.4287 -0.8964
 3305SOL    HW221375   1.564   2.731   7.226 -0.1032 -0.5316 -1.1894
 3306SOL     OW21376   1.228   1.522  14.745 -0.8242  0.2430  0.0580
 3306SOL    HW121377   1.289   1.478  14.685 -2.7036  1.9861 -3.1053
 3306SOL    HW221378   1.181   1.562  14.671 -0.6037 -0.2383 -0.3483
 3307SOL     OW21379   0.278   3.498   6.212 -0.2143 -0.0578  0.3535
 3307SOL    HW121380   0.290   3.526   6.303  1.2188  0.3359  0.0525
 3307SOL    HW221381   0.348   3.434   6.204 -1.6247 -1.3516 -1.5046
 3308SOL     OW21382   3.199   0.427   3.329 -0.0089 -0.6028 -0.1913
 3308SOL    HW121383   3.162   0.496   3.273  2.7005  1.7947  0.9645
 3308SOL    HW221384   3.291   0.454   3.335 -0.1420  0.6777 -3.8149
 3309SOL     OW21385   1.659   2.088  14.783  0.2172  0.2406 -0.1487
 3309SOL    HW121386   1.639   2.026  14.712 -0.9739  1.5222 -0.9432
 3309SOL    HW221387   1.566   2.087  14.806  0.1097  0.3629 -0.5773
 3310SOL     OW21388   4.094   0.159   2.720 -0.2367  0.0856  0.2323
 3310SOL    HW121389   4.134   0.076   2.692  0.1754  0.1105  0.7494
 3310SOL    HW221390   4.162   0.217   2.687  0.5324 -0.3674  1.0278
 3311SOL     OW21391   0.234   2.861   2.389  0.0979  0.3512 -0.4753
 3311SOL    HW121392   0.235   2.957   2.387  0.3788  0.2779 -2.9273
 3311SOL    HW221393   0.179   2.851   2.467  2.0080  1.0352  0.9761
 3312SOL     OW21394   2.444   4.571   1.373 -0.2803  0.6399  0.4297
 3312SOL    HW121395   2.464   4.638   1.308  1.4796 -1.3385 -1.0562
 3312SOL    HW221396   2.503   4.593   1.445  0.8296  0.8277 -0.5541
 3313SOL     OW21397   0.375   2.153   7.877  0.9838 -0.4197  0.3503
 3313SOL    HW121398   0.369   2.139   7.782  0.5450  2.3311 -0.0481
 3313SOL    HW221399   0.462   2.116   7.892  1.2255  0.5478  1.3831
 3314SOL     OW21400   0.985   3.887   2.152 -0.3724 -0.1745  0.0721
 3314SOL    HW121401   0.942   3.817   2.104 -0.5872  1.1084 -1.5765
 3314SOL    HW221402   1.062   3.909   2.099  0.6338  0.4376  1.7529
 3315SOL     OW21403   4.183   2.803   4.635 -0.1441  0.0130 -0.4736
 3315SOL    HW121404   4.207   2.862   4.706  1.0138 -0.9927 -0.0380
 3315SOL    HW221405   4.115   2.746   4.673 -2.2054  1.8918 -1.3311
 3316SOL     OW21406   2.437   0.041  11.791 -0.2553 -0.1431 -0.1004
 3316SOL    HW121407   2.462   0.015  11.702  0.6261  0.4000 -0.0099
 3316SOL    HW221408   2.482   0.124  11.807 -0.3955  0.2284 -1.5362
 3317SOL     OW21409   2.525   1.223   8.072  0.3296 -0.1374 -0.2706
 3317SOL    HW121410   2.589   1.288   8.042 -0.7440  0.6943 -0.7593
 3317SOL    HW221411   2.484   1.270   8.144 -2.1499  1.3727 -2.6785
 3318SOL     OW21412   4.680   4.040   2.264  0.6511 -0.0516  0.0940
 3318SOL    HW121413   4.635   4.123   2.283  0.6195  0.2393 -1.2189
 3318SOL    HW221414   4.635   3.989   2.331 -0.9372 -0.8898 -1.6092
 3319SOL     OW21415   2.212   3.104  15.305 -0.0795  0.1178  0.3567
 3319SOL    HW121416   2.166   3.099  15.389  1.1130  1.8915  1.1040
 3319SOL    HW221417   2.296   3.129  15.343  1.7977 -0.0672 -3.6701
 3320SOL     OW21418   1.329   4.581   2.744  0.1494  0.7276  0.0450
 3320SOL    HW121419   1.374   4.500   2.765 -1.6805 -0.0757  0.8105
 3320SOL    HW221420   1.267   4.589   2.816  0.2148  0.7915  0.0932
 3321SOL     OW21421   1.388   3.099   6.147  0.1101  0.6766  0.1627
 3321SOL    HW121422   1.320   3.091   6.214 -0.9224  0.0634 -0.9551
 3321SOL    HW221423   1.464   3.096   6.205 -0.7112 -0.9031  1.1429
 3322SOL     OW21424   3.065   0.972   6.163  0.2438  0.0496  0.0305
 3322SOL    HW121425   3.152   0.982   6.201  0.9134  1.3916 -1.8558
 3322SOL    HW221426   3.079   0.946   6.072  2.9400 -0.3031  0.5528
 3323SOL     OW21427   3.208   1.109  16.429 -0.2791  0.5104 -0.2058
 3323SOL    HW121428   3.190   1.201  16.411  1.5406  1.1746  1.3110
 3323SOL    HW221429   3.303   1.101  16.414 -0.0860 -1.9892  2.3041
 3324SOL     OW21430   2.575   1.923   8.041 -0.3616  0.0873 -0.4008
 3324SOL    HW121431   2.640   1.858   8.066 -0.6785  0.1629  0.6172
 3324SOL    HW221432   2.511   1.916   8.112  1.5727  1.5564  1.4743
 3325SOL     OW21433   0.228   2.706   7.873  0.7287  0.4385 -0.5034
 3325SOL    HW121434   0.257   2.618   7.896  3.0874  1.8265  1.8832
 3325SOL    HW221435   0.243   2.751   7.956  0.3821  0.1381 -0.2763
 3326SOL     OW21436   3.710   2.926  14.702  0.3545 -0.0340  0.1991
 3326SOL    HW121437   3.800   2.901  14.722 -0.6795 -2.9856  1.0416
 3326SOL    HW221438   3.713   2.935  14.606 -2.2243 -0.8881  0.0271
 3327SOL     OW21439   3.739   4.338   1.845 -0.3899 -0.0018 -0.5106
 3327SOL    HW121440   3.727   4.245   1.861  0.8468 -0.1973 -0.7211
 3327SOL    HW221441   3.671   4.354   1.780 -1.0035  1.2781  0.4479
 3328SOL     OW21442   1.462   1.222   5.670  0.2447  0.1739  0.2667
 3328SOL    HW121443   1.435   1.179   5.750  0.5476 -1.2475 -0.3976
 3328SOL    HW221444   1.524   1.161   5.630  0.9454 -0.0508  1.6996
 3329SOL     OW21445   3.334   3.305   6.782  0.6284 -0.1695 -0.3691
 3329SOL    HW121446   3.335   3.308   6.878 -2.5170 -2.1516 -0.2654
 3329SOL    HW221447   3.390   3.228   6.775  0.0182 -0.4658 -1.8127
 3330SOL     OW21448   4.429   0.084   7.593 -0.0376  0.1347 -0.3990
 3330SOL    HW121449   4.447   0.137   7.671 -1.9385  0.0474  0.1105
 3330SOL    HW221450   4.418   0.143   7.519 -1.2885 -0.2842 -0.5545
 3331SOL     OW21451   1.742   3.429   2.418 -0.2573 -0.1420  0.1050
 3331SOL    HW121452   1.725   3.342   2.382  0.5382 -1.7030  3.5148
 3331SOL    HW221453   1.832   3.431   2.385 -0.1381  0.0041  0.4371
 3332SOL     OW21454   0.528   0.730   6.464 -1.2000  0.3662 -0.1713
 3332SOL    HW121455   0.539   0.692   6.377 -0.6509 -2.5031  1.1740
 3332SOL    HW221456   0.505   0.648   6.507  0.0993 -1.2049 -2.4378
 3333SOL     OW21457   3.293   4.333   9.316  0.6025 -0.4761 -0.6521
 3333SOL    HW121458   3.260   4.279   9.387 -0.8201 -0.1662 -1.0806
 3333SOL    HW221459   3.218   4.337   9.257 -0.9406 -0.6054  1.3359
 3334SOL     OW21460   0.329   0.712   2.442  0.3882 -0.3936 -0.4339
 3334SOL    HW121461   0.245   0.699   2.397 -0.5785 -0.5618  1.3740
 3334SOL    HW221462   0.378   0.754   2.372 -2.5055  1.4590 -1.3466
 3335SOL     OW21463   0.512   2.679   8.249 -0.0977  0.6105  0.3167
 3335SOL    HW121464   0.481   2.616   8.183  0.9653  0.9335 -0.4898
 3335SOL    HW221465   0.573   2.624   8.297  2.4304  2.0487 -1.2153
 3336SOL     OW21466   0.486   3.477   0.214 -0.0550 -0.1029 -0.1338
 3336SOL    HW121467   0.394   3.483   0.186  0.4541 -1.9806 -2.2422
 3336SOL    HW221468   0.509   3.408   0.151 -2.8872 -0.7811 -0.4608
 3337SOL     OW21469   0.686   2.597  12.542  0.1089  0.5222  0.0671
 3337SOL    HW121470   0.746   2.564  12.475  1.0006  2.8197 -0.2707
 3337SOL    HW221471   0.629   2.522  12.558  0.3229  0.0280 -1.5291
 3338SOL     OW21472   2.837   2.233   9.383  0.3733  0.3073 -0.2477
 3338SOL    HW121473   2.809   2.244   9.292 -0.3250  1.2609  0.0800
 3338SOL    HW221474   2.918   2.280   9.362  0.5108 -0.3116 -1.0757
 3339SOL     OW21475   2.438   3.527   9.088  0.1536 -0.1942  0.1356
 3339SOL    HW121476   2.518   3.556   9.131 -0.8299 -0.6761  2.3021
 3339SOL    HW221477   2.368   3.564   9.142 -0.1752  1.7225 -1.6038
 3340SOL     OW21478   1.970   0.103   2.451 -0.0523  0.1685  0.1790
 3340SOL    HW121479   1.942   0.031   2.507 -0.4969  0.9252  0.9335
 3340SOL    HW221480   2.044   0.058   2.409 -1.7550 -2.2750 -0.2108
 3341SOL     OW21481   4.005   1.174  13.651 -0.0060 -0.1140 -0.1190
 3341SOL    HW121482   4.009   1.236  13.578 -0.6564 -0.6040 -0.5760
 3341SOL    HW221483   3.928   1.120  13.632 -0.8757  1.0811  0.0366
 3342SOL     OW21484   3.050   2.578   4.045  0.2427  0.3073  0.5264
 3342SOL    HW121485   3.030   2.549   4.134  0.8701  0.7146  0.8035
 3342SOL    HW221486   3.079   2.495   4.009  0.0768  0.6015 -0.2724
 3343SOL     OW21487   2.984   0.657   0.400 -0.0566  0.7690  0.3108
 3343SOL    HW121488   2.893   0.682   0.406 -0.3176 -0.1533  0.2697
 3343SOL    HW221489   2.989   0.627   0.309 -2.5147  2.1191 -0.2377
 3344SOL     OW21490   2.909   0.776  15.008  0.1464 -0.2033 -0.3165
 3344SOL    HW121491   2.945   0.722  15.077 -0.9127 -1.7983 -1.0049
 3344SOL    HW221492   2.986   0.828  14.986  0.3055 -1.5852 -3.0650
 3345SOL     OW21493   2.095   3.019   0.662 -0.2083 -0.7944  0.0298
 3345SOL    HW121494   2.065   3.024   0.753  1.8720 -2.3751  0.7883
 3345SOL    HW221495   2.145   3.100   0.656  0.2240 -1.2017 -1.9103
 3346SOL     OW21496   1.506   2.158   6.845  0.0720  0.0712  0.7433
 3346SOL    HW121497   1.508   2.115   6.760 -0.8209 -0.0479  0.7820
 3346SOL    HW221498   1.528   2.092   6.910  0.7716 -1.5400 -1.1439
 3347SOL     OW21499   1.282   0.094   4.495  0.2108  0.2860  0.3022
 3347SOL    HW121500   1.312   0.125   4.580 -0.2502  2.3789 -0.2897
 3347SOL    HW221501   1.223   0.024   4.523 -1.1446  0.7108 -1.4412
 3348SOL     OW21502   4.051   3.903  10.553  0.3748 -0.6509 -0.7785
 3348SOL    HW121503   4.147   3.905  10.555  0.3598 -2.4367  1.5647
 3348SOL    HW221504   4.049   3.813  10.587  0.4578  0.2268  1.5349
 3349SOL     OW21505   4.249   0.209   6.988 -0.7653 -0.5981  0.2780
 3349SOL    HW121506   4.171   0.261   6.969  0.1812  0.9056  0.5156
 3349SOL    HW221507   4.230   0.168   7.072 -0.2950  1.0333  1.1770
 3350SOL     OW21508   3.586   1.293  13.611 -0.0903 -0.1293  0.2440
 3350SOL    HW121509   3.661   1.337  13.651  0.3359 -0.3281 -0.3281
 3350SOL    HW221510   3.574   1.333  13.524 -2.3542 -0.5332  0.3821
 3351SOL     OW21511   1.627   1.790   6.580 -0.4528  0.0305  0.1094
 3351SOL    HW121512   1.717   1.759   6.579 -0.8517 -1.1134 -0.7642
 3351SOL    HW221513   1.619   1.837   6.663  2.4003 -0.3016  0.5754
 3352SOL     OW21514   0.058   2.877   5.961 -0.3261  0.8250  0.3716
 3352SOL    HW121515   0.106   2.820   5.902 -1.4854  1.5553 -1.3014
 3352SOL    HW221516   0.130   2.935   5.984 -1.5831  2.1306  1.0537
 3353SOL     OW21517   2.857   0.892  16.606 -0.1964  0.3463  1.0707
 3353SOL    HW121518   2.939   0.914  16.651  1.4346  0.4897 -1.9576
 3353SOL    HW221519   2.873   0.797  16.607 -1.2963  0.1303 -3.5393
 3354SOL     OW21520   0.260   0.236   0.324  0.1850  0.4243 -0.1395
 3354SOL    HW121521   0.250   0.166   0.259  0.2516  1.0212 -0.8034
 3354SOL    HW221522   0.289   0.193   0.404 -1.5869  0.4534  0.4959
 3355SOL     OW21523   1.028   3.369  15.401  0.2250  0.3233 -0.1787
 3355SOL    HW121524   0.937   3.399  15.395 -0.9652 -2.9725  1.2326
 3355SOL    HW221525   1.050   3.435  15.336 -1.8811  0.0615 -1.1628
 3356SOL     OW21526   2.410   2.860   6.757 -0.1273  0.0879  0.3202
 3356SOL    HW121527   2.411   2.906   6.841 -1.6539 -1.8881  1.3862
 3356SOL    HW221528   2.402   2.935   6.698 -0.2340 -0.2555 -0.0947
 3357SOL     OW21529   1.244   1.758  13.354  0.5905 -0.0441 -0.0356
 3357SOL    HW121530   1.305   1.821  13.392 -1.8426  1.2633  1.7201
 3357SOL    HW221531   1.303   1.682  13.352  1.4099  0.6321 -0.8581
 3358SOL     OW21532   4.506   0.312   6.671 -1.0063  0.0437  0.1241
 3358SOL    HW121533   4.596   0.306   6.639 -1.1254  0.9383 -0.3875
 3358SOL    HW221534   4.512   0.265   6.754  1.4342  1.1313  0.5397
 3359SOL     OW21535   2.581   1.981  14.656 -0.0769 -0.1450 -0.1298
 3359SOL    HW121536   2.669   1.954  14.629 -0.2497  0.6751 -1.4873
 3359SOL    HW221537   2.542   1.984  14.568  0.8230 -1.2630 -0.5708
 3360SOL     OW21538   1.079   2.295  10.852 -0.2826  0.6922 -0.7940
 3360SOL    HW121539   0.987   2.320  10.841  0.7824  3.3012 -3.6559
 3360SOL    HW221540   1.080   2.199  10.843  0.9290  0.7457 -1.2355
 3361SOL     OW21541   1.051   2.097   6.689  0.1129 -0.8708  0.9819
 3361SOL    HW121542   1.143   2.074   6.705  0.7416  1.0600  0.1422
 3361SOL    HW221543   1.041   2.112   6.595  0.6607  2.4153  1.4503
 3362SOL     OW21544   2.579   1.680   4.932  0.2646  0.2189  0.4701
 3362SOL    HW121545   2.640   1.621   4.887  0.9835  2.5923 -1.6554
 3362SOL    HW221546   2.493   1.644   4.913  0.0448  1.0425 -0.0479
 3363SOL     OW21547   3.498   2.547   5.656 -0.1987  0.6012 -0.1184
 3363SOL    HW121548   3.518   2.546   5.749  0.1925  1.4815 -0.1970
 3363SOL    HW221549   3.553   2.476   5.622 -0.4554 -0.1307  1.0330
 3364SOL     OW21550   0.247   0.782   2.956  0.0772  0.4260  0.5060
 3364SOL    HW121551   0.310   0.784   2.884 -0.3249  1.3478  0.1835
 3364SOL    HW221552   0.274   0.860   3.005  4.2704  1.5425 -3.6849
 3365SOL     OW21553   3.708   3.667   4.114 -0.5583  0.7971 -0.4090
 3365SOL    HW121554   3.732   3.733   4.179  1.2534 -1.7929  1.5590
 3365SOL    HW221555   3.662   3.600   4.165  0.7973 -0.8867 -1.3812
 3366SOL     OW21556   3.623   2.886   3.911 -0.4602  0.5960  0.3285
 3366SOL    HW121557   3.565   2.845   3.847  2.1547  1.4127 -2.5582
 3366SOL    HW221558   3.572   2.965   3.932  0.0687  1.1097 -0.3343
 3367SOL     OW21559   3.760   3.825   7.835 -0.4772 -0.2329 -0.4790
 3367SOL    HW121560   3.740   3.766   7.907 -1.5779  0.2443 -0.3967
 3367SOL    HW221561   3.746   3.766   7.761 -2.7769  1.3227 -1.2844
 3368SOL     OW21562   4.182   0.863   9.618  0.1317 -0.0863 -0.2656
 3368SOL    HW121563   4.205   0.845   9.709 -1.2700 -1.5051 -0.1911
 3368SOL    HW221564   4.124   0.788   9.601  1.6648 -1.7404  1.9182
 3369SOL     OW21565   0.907   1.263   7.529  0.4834 -1.0204 -0.3282
 3369SOL    HW121566   0.857   1.298   7.602  1.4211 -1.8707  0.7281
 3369SOL    HW221567   0.954   1.337   7.491 -1.6479 -0.2937 -1.5334
 3370SOL     OW21568   1.160   3.367   7.559  0.0813  0.4510  0.1654
 3370SOL    HW121569   1.143   3.331   7.472  0.3165 -0.0689  0.3358
 3370SOL    HW221570   1.154   3.461   7.542 -0.1862  0.1182 -1.6125
 3371SOL     OW21571   3.925   4.195   7.422  0.0666 -0.1795  0.0090
 3371SOL    HW121572   3.941   4.271   7.366  2.1457 -0.3208  0.3806
 3371SOL    HW221573   3.846   4.225   7.466 -0.3172  3.3507 -3.0415
 3372SOL     OW21574   0.675   2.393   7.127  0.1027  0.0029 -0.0356
 3372SOL    HW121575   0.700   2.460   7.190 -1.9183 -1.8511  2.7619
 3372SOL    HW221576   0.586   2.366   7.151  0.1721 -0.2407 -0.0552
 3373SOL     OW21577   4.086   0.473   8.646 -0.4567  0.0249  0.4192
 3373SOL    HW121578   4.111   0.382   8.661  0.1040  0.6377  3.1745
 3373SOL    HW221579   4.161   0.492   8.589 -2.3501  1.0536 -1.7769
 3374SOL     OW21580   1.718   1.173  15.731 -0.2869 -0.2510  0.1533
 3374SOL    HW121581   1.788   1.195  15.670 -0.7238  1.6257  0.3234
 3374SOL    HW221582   1.766   1.122  15.797 -0.5894 -1.3588 -0.4891
 3375SOL     OW21583   0.196   3.526  16.844  0.8394  0.0911  0.2992
 3375SOL    HW121584   0.201   3.431  16.843 -0.3919  0.0534 -1.7079
 3375SOL    HW221585   0.156   3.549  16.760  1.5894  1.0844  0.2106
 3376SOL     OW21586   3.582   1.494   6.287  0.5056 -0.6387 -0.7198
 3376SOL    HW121587   3.619   1.529   6.368  1.8802 -3.4871 -0.1050
 3376SOL    HW221588   3.557   1.407   6.317 -2.8742  0.9453  1.0746
 3377SOL     OW21589   3.851   0.895   8.667  0.2827 -0.2330 -0.2830
 3377SOL    HW121590   3.804   0.826   8.714  0.3684  0.1012  0.3008
 3377SOL    HW221591   3.774   0.946   8.641 -0.1228 -0.6999  0.0098
 3378SOL     OW21592   3.942   0.162   8.535 -0.4354  0.0219  0.1447
 3378SOL    HW121593   4.021   0.114   8.510  0.7251  1.1757  1.6386
 3378SOL    HW221594   3.934   0.219   8.458  2.1778 -1.5625 -1.3094
 3379SOL     OW21595   3.606   2.728   4.149 -0.2163  0.2614 -0.1985
 3379SOL    HW121596   3.677   2.757   4.206  2.3010 -1.5901 -2.3796
 3379SOL    HW221597   3.609   2.772   4.064 -0.9541 -1.2472 -1.0002
 3380SOL     OW21598   0.162   2.185   9.542 -0.1450 -0.0698  0.1923
 3380SOL    HW121599   0.140   2.273   9.512  2.6343  0.5309 -0.0965
 3380SOL    HW221600   0.258   2.189   9.547 -0.1249  1.2659 -1.0280
 3381SOL     OW21601   1.814   2.824   8.204  0.0803 -0.6593 -0.6286
 3381SOL    HW121602   1.851   2.880   8.272 -1.6271  1.4455 -1.4273
 3381SOL    HW221603   1.721   2.835   8.223  0.0442 -1.2801 -0.4658
 3382SOL     OW21604   2.884   4.182   5.444 -0.4672 -0.5971 -0.6245
 3382SOL    HW121605   2.886   4.154   5.535  0.1953  2.4374  0.3260
 3382SOL    HW221606   2.976   4.179   5.417 -0.8129  0.7863 -1.9807
 3383SOL     OW21607   2.306   3.401   4.559 -0.4047 -0.3403  0.3854
 3383SOL    HW121608   2.242   3.402   4.488  0.7176  1.1613 -0.6250
 3383SOL    HW221609   2.261   3.352   4.627 -1.0753  0.1840  0.3166
 3384SOL     OW21610   1.246   2.275   3.496 -0.1908  0.6626  0.4348
 3384SOL    HW121611   1.194   2.243   3.570  0.4911  0.1599  0.6892
 3384SOL    HW221612   1.212   2.214   3.430 -1.5314  3.2741 -1.2977
 3385SOL     OW21613   0.841   1.939   5.558  0.0775  0.0874 -0.7306
 3385SOL    HW121614   0.865   2.029   5.578 -2.1308 -0.0119  2.4315
 3385SOL    HW221615   0.803   1.912   5.642  0.9583  1.5790  0.1386
 3386SOL     OW21616   2.481   1.083  14.322  0.2522  0.3665  0.1454
 3386SOL    HW121617   2.400   1.054  14.365  1.3914  2.4465  3.6497
 3386SOL    HW221618   2.459   1.174  14.304  0.2731  0.1992 -0.7471
 3387SOL     OW21619   1.814   0.833   3.390 -0.7872 -0.3324 -0.1076
 3387SOL    HW121620   1.869   0.762   3.422  0.3269 -0.6079 -2.6378
 3387SOL    HW221621   1.787   0.856   3.478  0.5198  0.8256 -0.0041
 3388SOL     OW21622   1.582   1.866   6.845  0.1650 -0.1532 -0.1490
 3388SOL    HW121623   1.624   1.802   6.902  0.3687  1.4084  1.4504
 3388SOL    HW221624   1.486   1.858   6.849  0.0316  0.6187 -1.7507
 3389SOL     OW21625   4.266   0.681   8.823 -0.2908 -0.3808 -0.0889
 3389SOL    HW121626   4.349   0.668   8.778  0.0112 -0.3824  0.4721
 3389SOL    HW221627   4.199   0.696   8.757 -0.3416  0.4278  0.1441
 3390SOL     OW21628   3.756   0.543   5.772  0.5142  0.7478  0.6202
 3390SOL    HW121629   3.694   0.603   5.815 -0.3556  1.4052 -1.5207
 3390SOL    HW221630   3.833   0.575   5.819  1.0772  1.0340 -0.4753
 3391SOL     OW21631   2.714   3.229  13.947 -0.0778  0.0615 -0.4131
 3391SOL    HW121632   2.762   3.254  13.868  1.0067 -3.1224 -0.7861
 3391SOL    HW221633   2.640   3.288  13.937  2.0276  2.8445  0.5518
 3392SOL     OW21634   2.650   3.541   8.390  0.2941  0.3553 -0.1045
 3392SOL    HW121635   2.605   3.568   8.470  1.0763 -0.7415  0.6988
 3392SOL    HW221636   2.728   3.597   8.394 -0.1572  0.9063  1.1680
 3393SOL     OW21637   4.321   3.563   8.539  0.1737 -0.2185  0.0789
 3393SOL    HW121638   4.302   3.621   8.465  0.1355 -0.5621 -0.1850
 3393SOL    HW221639   4.346   3.631   8.601 -1.0939  2.3678 -2.2779
 3394SOL     OW21640   4.622   3.032   2.780  0.2810 -0.1847  0.0766
 3394SOL    HW121641   4.604   2.945   2.815  1.5407 -0.6149 -0.3368
 3394SOL    HW221642   4.714   3.039   2.806  0.6026  1.0492 -1.3446
 3395SOL     OW21643   2.150   1.623  16.159  0.0839 -0.0862 -0.3545
 3395SOL    HW121644   2.153   1.689  16.089 -1.3305 -2.6862 -2.8121
 3395SOL    HW221645   2.064   1.583  16.152 -0.9254  1.7760  1.6303
 3396SOL     OW21646   1.722   4.133   2.604  0.1755  0.2273  0.1508
 3396SOL    HW121647   1.719   4.150   2.510 -2.4832  0.9135  0.3503
 3396SOL    HW221648   1.801   4.079   2.604  0.6953  0.9894  1.8383
 3397SOL     OW21649   0.968   4.120   1.072  0.5532 -0.1834 -0.5383
 3397SOL    HW121650   0.958   4.025   1.075 -0.9715 -0.0342 -0.9468
 3397SOL    HW221651   0.915   4.149   1.146  0.4149  0.1507 -0.7698
 3398SOL     OW21652   1.314   2.438  14.780  0.0077  0.0128 -0.3153
 3398SOL    HW121653   1.258   2.430  14.703 -0.9465  0.7249  0.3065
 3398SOL    HW221654   1.291   2.523  14.816 -1.0536 -0.0940 -0.7577
 3399SOL     OW21655   3.446   0.561   1.904  0.3149 -0.0452  0.3192
 3399SOL    HW121656   3.384   0.564   1.831 -0.4667 -1.2628  0.9361
 3399SOL    HW221657   3.461   0.469   1.927  0.0516 -0.4544 -1.1145
 3400SOL     OW21658   4.123   0.167  16.628  0.2070 -0.0584 -0.4131
 3400SOL    HW121659   4.118   0.175  16.533 -0.8631  1.8321 -0.1939
 3400SOL    HW221660   4.192   0.233  16.639  0.8642 -0.3929 -2.4141
 3401SOL     OW21661   1.656   4.495   5.365  0.4414  0.1327 -0.0453
 3401SOL    HW121662   1.643   4.520   5.274  0.0565 -1.7232 -0.4917
 3401SOL    HW221663   1.739   4.543   5.366 -2.0777  4.5319  1.3657
 3402SOL     OW21664   3.797   0.798   4.009 -0.7553 -0.6665  0.1889
 3402SOL    HW121665   3.886   0.827   4.032 -0.5948 -0.6217 -0.4965
 3402SOL    HW221666   3.750   0.879   4.027 -0.8740 -0.8578  0.7586
 3403SOL     OW21667   2.488   2.501   0.251 -0.3729  0.5673  0.1297
 3403SOL    HW121668   2.396   2.491   0.226 -0.0441 -1.6652 -0.1639
 3403SOL    HW221669   2.515   2.541   0.168  1.0130 -3.7102 -1.4770
 3404SOL     OW21670   1.101   2.087  17.105  0.3607  0.6069 -0.3221
 3404SOL    HW121671   1.121   2.046  17.021  1.7497  0.3813  0.1209
 3404SOL    HW221672   1.121   2.177  17.078  0.8092  0.4558 -0.5067
 3405SOL     OW21673   0.320   2.877   8.092 -0.0689 -0.0900  0.3889
 3405SOL    HW121674   0.386   2.823   8.137  1.9191 -0.4648 -3.0111
 3405SOL    HW221675   0.369   2.952   8.059 -1.2563  0.5745  0.1535
 3406SOL     OW21676   0.298   0.186   7.679 -0.0045 -0.7963 -0.0100
 3406SOL    HW121677   0.250   0.113   7.640 -0.1367  0.3946 -2.1212
 3406SOL    HW221678   0.332   0.134   7.751 -0.2157 -3.6611 -1.9727
 3407SOL     OW21679   1.254   4.596   7.251  0.3896  0.3016 -0.2874
 3407SOL    HW121680   1.292   4.631   7.332 -2.6791  0.8666  0.9279
 3407SOL    HW221681   1.236   4.679   7.206  0.4839 -0.3907 -1.5784
 3408SOL     OW21682   2.874   4.614   9.246  0.1697 -0.2181  0.3254
 3408SOL    HW121683   2.807   4.606   9.314 -1.3414 -0.6115 -1.1978
 3408SOL    HW221684   2.832   4.550   9.188 -0.1118 -0.4769  0.8164
 3409SOL     OW21685   1.742   4.360  12.156  0.1069  0.0802  0.2581
 3409SOL    HW121686   1.747   4.456  12.154  3.1458 -0.1309 -2.3382
 3409SOL    HW221687   1.791   4.339  12.235  0.7152 -1.7565 -0.6260
 3410SOL     OW21688   1.542   1.492  14.857 -0.6200 -0.0224 -0.3197
 3410SOL    HW121689   1.504   1.495  14.945 -0.8579  0.8681 -0.4548
 3410SOL    HW221690   1.534   1.581  14.822 -1.0750 -0.9756 -2.6761
 3411SOL     OW21691   2.583   1.828   7.605  0.0006  0.1546  0.1413
 3411SOL    HW121692   2.520   1.786   7.663  1.1718 -2.2927 -0.3423
 3411SOL    HW221693   2.617   1.893   7.667 -2.2974  0.5039  1.0348
 3412SOL     OW21694   0.250   3.974  12.771  0.1460 -0.7601 -0.1087
 3412SOL    HW121695   0.287   3.907  12.714  1.6229  1.8944 -2.2906
 3412SOL    HW221696   0.288   3.966  12.858  1.7455 -2.1552 -0.9246
 3413SOL     OW21697   1.471   1.451   4.869 -0.6790 -0.2614 -0.5582
 3413SOL    HW121698   1.453   1.357   4.868  1.5826 -0.7026 -0.0210
 3413SOL    HW221699   1.542   1.462   4.806  0.2379  0.5820  0.6387
 3414SOL     OW21700   4.511   0.375   9.962 -0.1340  0.8510 -0.1595
 3414SOL    HW121701   4.429   0.329   9.981  1.1450 -1.8873 -1.1839
 3414SOL    HW221702   4.579   0.316   9.997 -1.6733 -1.9685 -1.9097
 3415SOL     OW21703   2.395   0.956   7.492  0.3383  0.3184  0.5385
 3415SOL    HW121704   2.442   1.027   7.448  1.0041 -0.6822 -0.3664
 3415SOL    HW221705   2.312   0.997   7.517  0.9580  2.3562 -0.7273
 3416SOL     OW21706   2.331   3.136   5.975  0.0265 -1.5032 -0.0848
 3416SOL    HW121707   2.361   3.218   6.013  0.1267 -1.0648 -1.0987
 3416SOL    HW221708   2.411   3.107   5.931  0.0167  0.0071 -1.0843
 3417SOL     OW21709   1.255   4.482   8.934 -0.8995 -0.1919  0.1531
 3417SOL    HW121710   1.184   4.474   8.996 -2.2085 -0.8469 -1.4286
 3417SOL    HW221711   1.209   4.481   8.850 -1.3795 -0.8319  0.4251
 3418SOL     OW21712   1.698   2.205  16.833  0.5141 -0.1959 -0.1437
 3418SOL    HW121713   1.695   2.298  16.858 -0.0280 -0.1612 -0.3269
 3418SOL    HW221714   1.621   2.166  16.875  1.4494  0.0077  1.7656
 3419SOL     OW21715   2.110   3.007  13.381 -0.2969  0.4008  0.1231
 3419SOL    HW121716   2.193   2.982  13.342 -0.2599 -0.2951  0.6465
 3419SOL    HW221717   2.145   3.046  13.461  1.2157 -0.6953 -0.0203
 3420SOL     OW21718   0.849   4.459  13.612  0.3248  0.6328 -0.9493
 3420SOL    HW121719   0.912   4.388  13.620 -1.0162 -0.3500  0.9806
 3420SOL    HW221720   0.771   4.409  13.587  0.7192  0.5500 -2.0420
 3421SOL     OW21721   0.254   2.018   2.693  0.0396 -0.0377 -0.0751
 3421SOL    HW121722   0.322   2.084   2.679  1.9048 -1.6849  1.2398
 3421SOL    HW221723   0.294   1.960   2.757  0.7966  0.0985 -0.4254
 3422SOL     OW21724   2.027   3.180   2.513  0.3059  0.6316 -0.1167
 3422SOL    HW121725   2.084   3.104   2.527  1.5172  0.6666 -4.7221
 3422SOL    HW221726   2.004   3.165   2.422  0.7656 -0.2454 -0.0825
 3423SOL     OW21727   0.301   4.126   7.199 -0.2913 -0.1952  0.2345
 3423SOL    HW121728   0.346   4.168   7.126 -1.4365  0.9645  0.2078
 3423SOL    HW221729   0.232   4.084   7.146  0.7882  0.1592 -1.4501
 3424SOL     OW21730   2.970   1.731   8.818  0.3677 -0.2890 -0.2335
 3424SOL    HW121731   2.889   1.697   8.779  0.8936 -0.3387 -1.2796
 3424SOL    HW221732   2.937   1.794   8.882  1.3955  0.3215 -0.3226
 3425SOL     OW21733   0.225   4.153  15.250 -0.2388 -0.0771 -0.1246
 3425SOL    HW121734   0.189   4.178  15.164  0.4757  2.1510  0.2137
 3425SOL    HW221735   0.209   4.060  15.233 -1.8050 -0.2481  2.3953
 3426SOL     OW21736   0.854   4.094   9.512 -0.4728  0.1347 -0.1729
 3426SOL    HW121737   0.865   4.057   9.599 -0.9172  3.2749  1.2430
 3426SOL    HW221738   0.932   4.148   9.501 -0.5636 -0.1751 -2.3525
 3427SOL     OW21739   3.703   3.138   5.011 -0.2195 -0.0588 -0.0326
 3427SOL    HW121740   3.734   3.176   4.929 -0.7148 -1.6838 -0.9790
 3427SOL    HW221741   3.609   3.135   4.992 -1.0611  0.0366  4.0770
 3428SOL     OW21742   0.793   3.252   6.448 -0.1857 -0.1503 -0.2696
 3428SOL    HW121743   0.857   3.185   6.470  1.3556  1.6225  0.6299
 3428SOL    HW221744   0.853   3.303   6.394 -1.2160  0.4889 -0.8031
 3429SOL     OW21745   0.858   1.767  14.483  0.2294  0.2581 -0.4999
 3429SOL    HW121746   0.783   1.809  14.525  0.8954 -0.6766  1.6330
 3429SOL    HW221747   0.909   1.837  14.442  1.6209 -0.5361 -0.1278
 3430SOL     OW21748   0.938   0.925  11.232  0.2940  0.4382 -0.6234
 3430SOL    HW121749   0.962   0.939  11.324 -0.0453 -0.7185 -0.3560
 3430SOL    HW221750   1.029   0.917  11.202  0.7399  1.1120  0.5619
 3431SOL     OW21751   1.856   2.359   1.046 -0.0042  0.2079 -0.0080
 3431SOL    HW121752   1.866   2.287   1.108  4.6330  0.1140 -0.8881
 3431SOL    HW221753   1.932   2.327   0.998 -1.1372 -0.6589 -1.2014
 3432SOL     OW21754   1.086   2.721   5.932  0.3401 -0.3348 -0.6885
 3432SOL    HW121755   1.114   2.681   6.014  0.7866  0.3642 -0.5002
 3432SOL    HW221756   1.092   2.642   5.879 -1.7149 -1.2683  0.4378
 3433SOL     OW21757   4.193   3.560   4.147  0.4381 -0.5952  0.2299
 3433SOL    HW121758   4.156   3.627   4.089 -0.1226  0.3474  1.6841
 3433SOL    HW221759   4.137   3.486   4.123 -0.1342 -0.1186  0.0639
 3434SOL     OW21760   0.016   2.445   0.532 -0.4289 -0.3047  0.1736
 3434SOL    HW121761   0.028   2.531   0.571  0.5772  0.3495 -1.5461
 3434SOL    HW221762   0.105   2.426   0.503 -0.2605 -0.8090  1.0297
 3435SOL     OW21763   2.245   3.253   0.722 -0.2988  0.1954 -0.0573
 3435SOL    HW121764   2.167   3.307   0.737 -0.9949 -0.9007  0.3221
 3435SOL    HW221765   2.319   3.313   0.722  1.5461 -2.1288  1.4930
 3436SOL     OW21766   0.342   1.376   2.884 -0.2840  1.1941  0.6838
 3436SOL    HW121767   0.383   1.363   2.970 -0.9609  1.5616  1.0659
 3436SOL    HW221768   0.374   1.464   2.864  0.1278  0.2194 -2.8560
 3437SOL     OW21769   1.023   4.107   2.419  0.2533  0.3772 -0.1802
 3437SOL    HW121770   0.944   4.073   2.378  1.9247 -2.2270 -1.2167
 3437SOL    HW221771   1.042   4.179   2.359 -0.5749  1.0790  0.3932
 3438SOL     OW21772   1.275   4.442   4.117  0.5214 -0.1201  0.7306
 3438SOL    HW121773   1.325   4.475   4.192 -1.1618 -0.0884  1.8319
 3438SOL    HW221774   1.262   4.524   4.068 -1.6013 -1.3031 -0.6709
 3439SOL     OW21775   3.014   2.338  11.190  0.0853  0.8288  0.4710
 3439SOL    HW121776   2.994   2.314  11.280 -2.4027 -2.2875 -0.9040
 3439SOL    HW221777   3.034   2.253  11.149  0.6732  1.1175  0.1535
 3440SOL     OW21778   3.557   3.302   7.620 -0.4964  0.0919  0.1579
 3440SOL    HW121779   3.471   3.282   7.584 -0.0879  0.9219 -1.2656
 3440SOL    HW221780   3.594   3.215   7.635  0.5740  0.7389  1.3418
 3441SOL     OW21781   1.171   0.997   8.163 -0.4911 -0.1587  1.0356
 3441SOL    HW121782   1.141   1.034   8.246 -1.5773 -2.3443  1.6083
 3441SOL    HW221783   1.197   1.077   8.117 -1.7993 -0.6972 -0.6874
 3442SOL     OW21784   1.591   2.054  14.265 -0.0602 -0.2900 -0.3068
 3442SOL    HW121785   1.574   1.983  14.203 -0.5127 -0.2960 -0.1747
 3442SOL    HW221786   1.539   2.013  14.334 -0.1301 -1.3928 -1.0239
 3443SOL     OW21787   0.558   0.679   4.120 -0.2009  0.2334 -0.1350
 3443SOL    HW121788   0.569   0.585   4.107  1.0579  0.4321 -0.5161
 3443SOL    HW221789   0.624   0.702   4.185  2.0996 -2.8680 -1.3606
 3444SOL     OW21790   0.647   0.418   3.988  0.4017 -0.4346  0.1850
 3444SOL    HW121791   0.646   0.354   4.059  3.3604 -2.4967 -1.5858
 3444SOL    HW221792   0.736   0.454   3.993  1.2344 -2.7331  2.0480
 3445SOL     OW21793   3.185   1.990  17.661  0.5915  0.3229  0.2581
 3445SOL    HW121794   3.234   1.931   0.022  0.2812  2.3782  2.6130
 3445SOL    HW221795   3.147   1.930  17.596 -0.5761  2.4083 -0.9759
 3446SOL     OW21796   4.020   2.639   4.146 -0.0914  0.0401 -0.0509
 3446SOL    HW121797   3.931   2.674   4.149  0.2552  0.8500  0.5298
 3446SOL    HW221798   4.066   2.716   4.179 -0.6203  0.5590 -0.5267
 3447SOL     OW21799   1.497   1.982  11.743  0.5831  0.7196  0.3034
 3447SOL    HW121800   1.427   2.042  11.719 -1.0361 -0.5302  1.8946
 3447SOL    HW221801   1.554   2.026  11.807  1.2041 -2.2385  1.8082
 3448SOL     OW21802   1.681   4.063  16.731 -0.1342  0.1956  0.6013
 3448SOL    HW121803   1.619   4.095  16.666  1.4003  0.6020 -0.6678
 3448SOL    HW221804   1.688   3.970  16.706 -0.3920  0.4418 -0.3893
 3449SOL     OW21805   0.535   2.860   9.518 -0.5845 -0.2099  0.8957
 3449SOL    HW121806   0.528   2.949   9.551 -0.2583  0.2333 -0.2371
 3449SOL    HW221807   0.591   2.879   9.443 -3.9408  0.2905 -1.5087
 3450SOL     OW21808   0.250   1.767   5.227 -0.2960  0.0154  0.1510
 3450SOL    HW121809   0.174   1.805   5.270  0.6081  2.2212 -0.1762
 3450SOL    HW221810   0.228   1.761   5.134  0.7972  0.0520 -0.1135
 3451SOL     OW21811   0.861   4.321  10.784  0.4412 -0.4694 -0.5026
 3451SOL    HW121812   0.862   4.259  10.711  3.1811 -0.5634 -0.3805
 3451SOL    HW221813   0.952   4.349  10.791 -0.0846  1.3600 -1.0897
 3452SOL     OW21814   0.713   4.600   5.182  0.2954  0.0735 -0.6130
 3452SOL    HW121815   0.809   4.600   5.180  0.3193  0.6056  0.4890
 3452SOL    HW221816   0.691   4.667   5.116 -0.3326  1.8989  1.4459
 3453SOL     OW21817   4.085   1.833   6.387  0.2518 -0.1706  0.8911
 3453SOL    HW121818   4.004   1.831   6.437  0.3396 -1.2599  0.9904
 3453SOL    HW221819   4.131   1.904   6.432  0.6636  1.1460 -1.6079
 3454SOL     OW21820   0.506   1.330   3.084  0.3312  0.3790 -0.1808
 3454SOL    HW121821   0.592   1.345   3.044 -0.2225 -1.0375 -1.8592
 3454SOL    HW221822   0.520   1.237   3.102  0.4545  0.0238 -2.1576
 3455SOL     OW21823   0.909   4.687   7.102 -0.0364  0.0053 -0.2232
 3455SOL    HW121824   0.899   4.632   7.024 -2.4472 -2.0144  1.4998
 3455SOL    HW221825   0.826   0.010   7.091 -0.6770 -0.8675  0.8351
 3456SOL     OW21826   3.084   3.010   6.860  0.3010  0.0236  0.3087
 3456SOL    HW121827   3.016   3.074   6.840  2.0024  2.3084  1.8819
 3456SOL    HW221828   3.064   2.951   6.786  0.9677  0.5519 -0.2895
 3457SOL     OW21829   2.627   2.827  16.151  0.3142 -0.6937 -0.0927
 3457SOL    HW121830   2.616   2.778  16.232  0.4504  0.2981  0.5335
 3457SOL    HW221831   2.654   2.757  16.092 -1.0003 -1.7442  0.5614
 3458SOL     OW21832   0.220   2.475   4.748  0.5094 -0.0163 -0.2215
 3458SOL    HW121833   0.180   2.403   4.699 -0.1892  1.3252 -1.5776
 3458SOL    HW221834   0.314   2.460   4.741  0.2674 -0.6752 -1.9193
 3459SOL     OW21835   0.964   0.388  13.990  0.1016 -0.2343 -0.2265
 3459SOL    HW121836   1.037   0.339  13.954  1.6681  0.7368  1.6067
 3459SOL    HW221837   0.911   0.317  14.027 -0.3584 -0.0945 -0.6134
 3460SOL     OW21838   3.078   1.546   4.002  0.1425 -0.3477  0.3862
 3460SOL    HW121839   3.135   1.531   4.078  1.7243  2.4413 -0.2789
 3460SOL    HW221840   3.133   1.541   3.924  0.5128 -3.6494  0.8408
 3461SOL     OW21841   2.339   1.970   6.574 -0.3032  0.2449 -0.1451
 3461SOL    HW121842   2.254   1.937   6.545 -0.5722 -1.1012  2.1910
 3461SOL    HW221843   2.365   1.905   6.639 -0.0866  0.9197  0.4435
 3462SOL     OW21844   2.018   2.823   3.638  0.0826  0.4770 -0.2279
 3462SOL    HW121845   2.071   2.772   3.577  0.4973  0.4102  0.1889
 3462SOL    HW221846   2.000   2.899   3.582 -3.8601  0.1214  0.5414
 3463SOL     OW21847   2.756   4.354   3.192 -0.2772 -0.4331 -0.1898
 3463SOL    HW121848   2.779   4.431   3.139 -0.2699  1.0035  1.9316
 3463SOL    HW221849   2.744   4.285   3.126 -0.6835  0.1962 -0.7732
 3464SOL     OW21850   0.859   2.034   6.853 -0.0095 -0.7422  0.4771
 3464SOL    HW121851   0.800   2.018   6.779  1.1027 -0.6983 -0.4241
 3464SOL    HW221852   0.936   2.052   6.799 -0.3737  2.4427  0.9967
 3465SOL     OW21853   1.687   4.588  14.488  0.1530 -0.8223  0.3195
 3465SOL    HW121854   1.665   4.503  14.528 -0.2525 -0.6075  0.5540
 3465SOL    HW221855   1.769   4.568  14.444  0.2467  1.2088 -0.3854
 3466SOL     OW21856   2.459   3.081   7.957 -0.3761  0.1117 -0.7976
 3466SOL    HW121857   2.410   3.153   7.998  1.9838  1.2252  0.0440
 3466SOL    HW221858   2.395   3.011   7.968 -0.5474  0.2982 -0.5805
 3467SOL     OW21859   1.524   0.712   8.763 -0.5166  0.3978 -0.4934
 3467SOL    HW121860   1.570   0.775   8.818  0.6363  0.7605 -1.8807
 3467SOL    HW221861   1.596   0.685   8.706 -1.8692  0.3904 -2.1785
 3468SOL     OW21862   2.274   1.841   4.811  0.0277 -0.1273  0.5586
 3468SOL    HW121863   2.289   1.776   4.880 -0.5691  1.8452  2.5282
 3468SOL    HW221864   2.207   1.890   4.859  0.1189 -1.1765  1.7696
 3469SOL     OW21865   4.077   0.070   4.498  0.6775 -0.4088 -0.1465
 3469SOL    HW121866   4.091   0.133   4.569 -2.0724 -0.2259  0.2182
 3469SOL    HW221867   4.168   0.047   4.481  1.1035 -1.3259  3.3407
 3470SOL     OW21868   1.591   3.080   6.357  0.9388  0.2100  0.6608
 3470SOL    HW121869   1.559   3.017   6.420  0.3103  1.3004  1.4308
 3470SOL    HW221870   1.686   3.068   6.347  0.4432 -1.3727 -2.2225
 3471SOL     OW21871   3.552   0.491   1.589  0.1295  0.0288 -0.1089
 3471SOL    HW121872   3.492   0.522   1.522 -0.2536  1.0520  0.7010
 3471SOL    HW221873   3.500   0.419   1.624  1.3047  0.1868  1.9530
 3472SOL     OW21874   2.244   0.617   1.971  0.2817 -0.5058  0.4347
 3472SOL    HW121875   2.175   0.663   2.020  1.6034  2.2323 -0.2881
 3472SOL    HW221876   2.298   0.695   1.960 -1.3925  0.2284 -2.6143
 3473SOL     OW21877   4.567   0.843   6.832 -0.0293  0.3898 -0.1397
 3473SOL    HW121878   4.513   0.863   6.756  0.4741  0.1874 -0.5476
 3473SOL    HW221879   4.561   0.748   6.820  0.0966  0.1705  1.4692
 3474SOL     OW21880   1.682   1.885   3.484  0.0827 -0.2652  0.8257
 3474SOL    HW121881   1.764   1.863   3.440  0.6723  0.7014  1.4390
 3474SOL    HW221882   1.652   1.966   3.443  1.5677 -0.3667 -0.4370
 3475SOL     OW21883   2.744   3.831   8.131 -0.4679  0.0128  0.3468
 3475SOL    HW121884   2.806   3.827   8.058 -0.3636  0.4290  0.4140
 3475SOL    HW221885   2.804   3.820   8.204 -0.3227 -1.8605 -0.0605
 3476SOL     OW21886   0.890   4.057   4.073  0.3480 -0.1566 -0.2732
 3476SOL    HW121887   0.915   3.966   4.054  0.6008  0.4810 -3.0667
 3476SOL    HW221888   0.806   4.066   4.029  0.8581 -1.5997 -1.5874
 3477SOL     OW21889   1.466   3.644   4.678  0.0467 -0.0080  0.3573
 3477SOL    HW121890   1.510   3.636   4.763  0.7417  2.0345  0.1975
 3477SOL    HW221891   1.400   3.576   4.687 -1.8678  1.8759  0.5201
 3478SOL     OW21892   2.737   1.474  15.765 -0.0454 -0.1192  0.2523
 3478SOL    HW121893   2.662   1.420  15.744  0.4475 -1.7245  2.5638
 3478SOL    HW221894   2.766   1.493  15.676  2.2688 -1.8419  0.6296
 3479SOL     OW21895   4.389   3.404   4.529 -0.1321 -0.6205 -0.0888
 3479SOL    HW121896   4.400   3.389   4.435 -0.5708  1.4734 -0.4948
 3479SOL    HW221897   4.348   3.490   4.527  3.9142  1.3517  0.4265
 3480SOL     OW21898   2.756   3.939   9.818  0.0974  0.0511 -0.0515
 3480SOL    HW121899   2.729   3.862   9.768 -0.2864 -0.3146  0.7317
 3480SOL    HW221900   2.750   3.911   9.909 -2.5915 -0.6841 -0.4376
 3481SOL     OW21901   1.374   4.625  17.428 -0.0382  0.0254 -0.0639
 3481SOL    HW121902   1.362   4.590  17.339 -1.6613  0.8067 -0.1458
 3481SOL    HW221903   1.346   4.715  17.413  1.7062  0.4194 -1.0298
 3482SOL     OW21904   2.374   2.318   8.325 -0.7129 -0.0588  0.3478
 3482SOL    HW121905   2.419   2.253   8.272 -2.7079  1.3884 -3.0999
 3482SOL    HW221906   2.448   2.373   8.349  0.8307 -2.0747  0.2307
 3483SOL     OW21907   4.314   1.549  12.821 -0.3568  0.1217  0.0317
 3483SOL    HW121908   4.365   1.613  12.871 -1.0285  1.5871 -1.1845
 3483SOL    HW221909   4.307   1.593  12.736  0.5513  0.8775  0.3473
 3484SOL     OW21910   3.780   1.165   6.952 -0.0530 -0.2798 -0.0711
 3484SOL    HW121911   3.707   1.108   6.974  1.0594 -1.5269  0.4067
 3484SOL    HW221912   3.805   1.135   6.865  1.8129 -2.9677  1.4014
 3485SOL     OW21913   0.839   3.263   5.956 -0.2748  0.3323 -0.7202
 3485SOL    HW121914   0.891   3.314   5.894 -0.9406  0.8070 -0.8912
 3485SOL    HW221915   0.836   3.323   6.030  3.2723  0.1501 -0.4397
 3486SOL     OW21916   2.371   1.320   6.736  0.4057  0.6379  0.4286
 3486SOL    HW121917   2.421   1.344   6.657  0.7505  1.7762  0.9926
 3486SOL    HW221918   2.435   1.349   6.800 -0.6987  2.3458  0.7569
 3487SOL     OW21919   3.961   0.712   1.441 -0.4662 -0.2061 -0.3061
 3487SOL    HW121920   3.876   0.755   1.429 -0.6422 -0.2781  0.7402
 3487SOL    HW221921   4.023   0.777   1.407  0.8996 -0.0460  2.5644
 3488SOL     OW21922   3.285   2.699   7.396  0.5225  0.7216  0.3521
 3488SOL    HW121923   3.298   2.647   7.475 -2.1722 -1.0062 -0.3559
 3488SOL    HW221924   3.196   2.671   7.375  1.3527 -0.5655 -1.4233
 3489SOL     OW21925   3.566   4.237   9.204 -0.0844 -0.0651 -0.5729
 3489SOL    HW121926   3.479   4.233   9.243 -0.3264 -2.3420 -1.3037
 3489SOL    HW221927   3.617   4.287   9.267 -0.4709  0.7908 -0.9419
 3490SOL     OW21928   1.186   1.080   8.897 -0.0667  0.4106 -0.2477
 3490SOL    HW121929   1.258   1.139   8.918  1.7451 -2.1164  0.6596
 3490SOL    HW221930   1.155   1.048   8.981 -1.8508 -0.0171 -1.0539
 3491SOL     OW21931   4.681   2.853   9.079 -0.4023 -0.0503 -0.7665
 3491SOL    HW121932   0.037   2.868   9.028  0.3540 -0.9241  0.1758
 3491SOL    HW221933   4.623   2.909   9.028  0.2716  1.6853  0.3827
 3492SOL     OW21934   3.698   2.733  10.714 -0.0790  0.3324 -0.0054
 3492SOL    HW121935   3.791   2.714  10.703 -0.0332 -0.1052  1.1809
 3492SOL    HW221936   3.664   2.722  10.625 -1.2876 -2.4475  0.7794
 3493SOL     OW21937   4.574   2.799   2.202 -0.5073  0.1251 -0.3388
 3493SOL    HW121938   4.599   2.714   2.166 -0.7526 -0.0302 -0.1409
 3493SOL    HW221939   4.601   2.797   2.294  0.6776 -0.7375 -0.7117
 3494SOL     OW21940   3.012   0.221   3.219  0.1519 -0.1511  0.1710
 3494SOL    HW121941   3.094   0.253   3.256 -0.0973  2.2510 -1.3652
 3494SOL    HW221942   3.053   0.168   3.150  0.0929 -0.2478  0.2109
 3495SOL     OW21943   1.454   1.858   5.440 -0.3683  0.6741 -0.0499
 3495SOL    HW121944   1.395   1.784   5.453 -0.7329  0.9668 -0.0506
 3495SOL    HW221945   1.418   1.899   5.361  0.8027 -0.7814 -1.3417
 3496SOL     OW21946   3.555   1.209   6.637  0.7171  0.1495  0.2787
 3496SOL    HW121947   3.511   1.263   6.702  0.4373 -0.5855  0.7015
 3496SOL    HW221948   3.630   1.187   6.692  1.2308  0.3510 -0.3392
 3497SOL     OW21949   1.002   3.788   5.039  0.3531 -0.1051 -0.1290
 3497SOL    HW121950   0.911   3.788   5.069  0.7466 -0.2487  1.1002
 3497SOL    HW221951   1.008   3.882   5.053 -0.4658 -0.0402 -0.2391
 3498SOL     OW21952   1.629   3.469  11.004 -0.3078 -0.7530  0.5433
 3498SOL    HW121953   1.544   3.485  10.963  0.8806  1.4213 -1.0438
 3498SOL    HW221954   1.611   3.386  11.048 -0.2811 -0.5268  0.9883
 3499SOL     OW21955   3.584   4.573   1.588 -0.3845  0.7367  0.4823
 3499SOL    HW121956   3.643   4.635   1.544  1.3125 -2.5438 -1.8939
 3499SOL    HW221957   3.502   4.597   1.545  0.6216  2.2974 -0.5959
 3500SOL     OW21958   1.920   3.906   6.647  0.4240  0.2247  0.2268
 3500SOL    HW121959   1.900   3.817   6.677  2.3300 -0.1775  0.3028
 3500SOL    HW221960   1.855   3.953   6.699 -0.8351  0.8344 -1.9208
 3501SOL     OW21961   4.262   3.673  10.049 -0.2663 -0.4802 -0.0627
 3501SOL    HW121962   4.339   3.728  10.037 -1.2803  0.8476 -0.5101
 3501SOL    HW221963   4.275   3.595   9.995  1.1271  0.9251 -1.7288
 3502SOL     OW21964   4.422   3.814   7.431  0.0462  0.1092  0.0243
 3502SOL    HW121965   4.389   3.850   7.513 -4.4996 -2.1429 -0.8513
 3502SOL    HW221966   4.487   3.748   7.457  0.6794  0.7677  0.1115
 3503SOL     OW21967   2.877   1.782   6.984 -0.2426 -0.5800 -0.1232
 3503SOL    HW121968   2.911   1.694   6.968 -0.9175 -1.0338  0.8873
 3503SOL    HW221969   2.931   1.820   7.054  2.8241 -1.1646 -2.1836
 3504SOL     OW21970   3.122   1.986   5.066  0.5589  0.3141  0.2536
 3504SOL    HW121971   3.127   1.948   4.979  0.8280 -1.8440  1.2196
 3504SOL    HW221972   3.117   2.080   5.046  0.8234  0.0223 -1.1880
 3505SOL     OW21973   4.618   4.477   5.127 -0.1476  0.5800  0.3506
 3505SOL    HW121974   4.595   4.390   5.093 -0.1405  0.5209  0.4963
 3505SOL    HW221975   4.711   4.476   5.104 -0.4485  0.9863 -0.9238
 3506SOL     OW21976   3.390   3.072  16.777 -0.4279 -0.2154  0.3683
 3506SOL    HW121977   3.331   3.001  16.750 -0.4821 -0.0401  0.0361
 3506SOL    HW221978   3.341   3.099  16.856  0.4245 -0.3075  0.9254
 3507SOL     OW21979   4.545   0.484   4.860  0.1933 -0.5221 -0.2902
 3507SOL    HW121980   4.561   0.563   4.912 -4.0768  0.7380 -0.9187
 3507SOL    HW221981   4.508   0.520   4.780  0.7304  1.4689  0.3650
 3508SOL     OW21982   4.012   3.557  10.455  0.0193  0.0746 -0.1752
 3508SOL    HW121983   3.966   3.556  10.371 -0.0205  1.3135 -0.1645
 3508SOL    HW221984   3.954   3.584  10.526 -1.6658 -2.1949 -0.7111
 3509SOL     OW21985   0.854   3.708   4.651  0.2642 -0.6913 -0.2247
 3509SOL    HW121986   0.769   3.741   4.677  1.1299  1.9488 -0.7454
 3509SOL    HW221987   0.844   3.615   4.672 -2.8628 -0.2367  0.1578
 3510SOL     OW21988   4.620   1.255   1.893  0.0633  0.0738 -0.0428
 3510SOL    HW121989   4.581   1.306   1.965 -1.1323 -0.5763 -0.2254
 3510SOL    HW221990   4.670   1.320   1.844 -0.1575 -1.0925 -1.7946
 3511SOL     OW21991   3.757   2.499   0.768  0.2387 -0.3555  0.1805
 3511SOL    HW121992   3.765   2.476   0.860  1.3043  1.0678  0.4407
 3511SOL    HW221993   3.845   2.527   0.741  0.8833 -2.3048  0.2613
 3512SOL     OW21994   1.377   1.200   9.077  0.5250 -0.3263 -0.3381
 3512SOL    HW121995   1.459   1.231   9.038  0.4631  0.3457  0.0737
 3512SOL    HW221996   1.332   1.282   9.096  0.9331 -0.2624  0.3479
 3513SOL     OW21997   4.038   1.380   4.320  1.0315 -0.2808  0.1027
 3513SOL    HW121998   4.043   1.418   4.233  2.7040  2.3415  1.3550
 3513SOL    HW221999   4.059   1.450   4.382  1.6247  0.1116 -0.5430
 3514SOL     OW22000   3.904   1.775   4.615  0.2855  0.1992 -0.3022
 3514SOL    HW122001   3.826   1.735   4.576 -0.3420  1.2416 -0.1130
 3514SOL    HW222002   3.877   1.806   4.702  0.5708 -1.9309  0.5466
 3515SOL     OW22003   3.267   3.383  11.130 -0.0694 -0.1674 -0.2103
 3515SOL    HW122004   3.242   3.475  11.131 -0.9825 -0.4113 -0.5456
 3515SOL    HW222005   3.182   3.339  11.136  0.1394 -0.7255 -1.3877
 3516SOL     OW22006   3.364   0.512   2.256  0.0435 -0.1942  0.5097
 3516SOL    HW122007   3.419   0.451   2.304 -1.3132  0.2112  2.5595
 3516SOL    HW222008   3.397   0.503   2.166  1.4440  1.5101  0.8523
 3517SOL     OW22009   0.903   3.265  17.422  0.2028 -0.5532 -0.5658
 3517SOL    HW122010   0.930   3.310  17.342  0.5831 -0.3524 -0.3208
 3517SOL    HW222011   0.932   3.330  17.486  2.6102  0.4964 -2.7148
 3518SOL     OW22012   4.618   2.447  11.760  0.5002  0.2132 -0.3077
 3518SOL    HW122013   4.641   2.359  11.790 -0.4500  0.1378  0.2161
 3518SOL    HW222014   4.657   2.498  11.831 -1.9059 -0.6172  1.6244
 3519SOL     OW22015   1.912   3.978   2.371  0.0157  0.0839  0.2884
 3519SOL    HW122016   1.896   4.068   2.341 -0.1135  0.1294  0.4908
 3519SOL    HW222017   1.829   3.934   2.350 -0.7679  0.5619  2.3635
 3520SOL     OW22018   0.307   3.619  10.738 -0.2211 -0.1874  0.4250
 3520SOL    HW122019   0.380   3.557  10.738 -0.4186 -0.4206 -0.7199
 3520SOL    HW222020   0.329   3.666  10.818 -1.1510  1.8891 -0.5368
 3521SOL     OW22021   4.370   2.281   3.665 -0.1436 -0.0181 -0.6018
 3521SOL    HW122022   4.301   2.250   3.607 -1.2261 -0.9449  1.1602
 3521SOL    HW222023   4.325   2.287   3.749  2.4873  1.0265  0.7354
 3522SOL     OW22024   2.963   3.292   8.707  0.2953  0.0910 -0.5421
 3522SOL    HW122025   3.035   3.355   8.716  0.2010 -0.0428  1.2190
 3522SOL    HW222026   2.886   3.341   8.734  0.6950  0.9195 -0.9124
 3523SOL     OW22027   1.994   0.795   4.376 -0.0294  0.2605  0.1306
 3523SOL    HW122028   1.899   0.793   4.376 -0.0286  0.4718 -2.3629
 3523SOL    HW222029   2.019   0.708   4.345  1.4322  0.5008  0.5848
 3524SOL     OW22030   3.691   4.105   9.505 -0.5540  0.1275  0.2335
 3524SOL    HW122031   3.652   4.054   9.434 -1.0394 -0.0865  0.6462
 3524SOL    HW222032   3.639   4.087   9.584 -0.8600 -2.9540 -0.6529
 3525SOL     OW22033   0.316   3.135   4.880 -0.0202  0.2471  0.5588
 3525SOL    HW122034   0.353   3.212   4.837  1.7758 -1.2186 -0.5221
 3525SOL    HW222035   0.268   3.100   4.805 -0.4833 -0.0221  0.9795
 3526SOL     OW22036   1.255   3.911   8.808  0.1864  0.5221  0.1448
 3526SOL    HW122037   1.203   3.878   8.882 -2.6644 -0.9998 -2.5400
 3526SOL    HW222038   1.222   3.859   8.735  0.8046 -1.3138  1.1777
 3527SOL     OW22039   1.533   0.894   2.022 -0.1470 -0.1789  0.2648
 3527SOL    HW122040   1.482   0.965   2.061  0.5604 -0.4374  1.6628
 3527SOL    HW222041   1.486   0.875   1.941  3.1942 -0.6154 -1.5718
 3528SOL     OW22042   4.625   2.623   7.369 -0.8193 -0.1285 -0.0799
 3528SOL    HW122043   4.642   2.534   7.402 -2.1615 -0.2061  0.4120
 3528SOL    HW222044   4.550   2.608   7.311  1.1969 -0.6904 -2.5294
 3529SOL     OW22045   1.150   3.656   7.914 -0.0955  0.3131  0.2351
 3529SOL    HW122046   1.091   3.614   7.852 -1.2380  2.3143 -0.0583
 3529SOL    HW222047   1.220   3.697   7.862  0.8863 -0.8450  0.6517
 3530SOL     OW22048   2.859   2.234  12.887  0.3734  0.1219  0.6141
 3530SOL    HW122049   2.915   2.232  12.965 -2.3562  1.4281  2.6148
 3530SOL    HW222050   2.924   2.204  12.824 -0.4608 -0.7533  0.1866
 3531SOL     OW22051   3.177   0.074  15.657  0.5339 -0.4039 -0.5598
 3531SOL    HW122052   3.176   0.155  15.708  1.2285 -2.0583  2.0779
 3531SOL    HW222053   3.214   0.109  15.576  2.1179  1.6464  1.0743
 3532SOL     OW22054   0.297   1.827   1.401  0.0079 -0.1730 -0.7417
 3532SOL    HW122055   0.370   1.766   1.399  0.6612  0.6123 -0.6305
 3532SOL    HW222056   0.329   1.900   1.454 -0.0449  0.4204 -1.5189
 3533SOL     OW22057   1.138   3.499   2.639  0.0471  0.6677  0.1419
 3533SOL    HW122058   1.134   3.591   2.612  1.1047  0.5321 -0.4970
 3533SOL    HW222059   1.233   3.483   2.639 -0.0823 -0.0879 -1.0128
 3534SOL     OW22060   0.237   4.608   7.680  0.4971  0.2990 -0.7553
 3534SOL    HW122061   0.276   4.578   7.763 -1.1597  0.5256  0.1054
 3534SOL    HW222062   0.187   4.529   7.658 -1.1572  1.9003 -2.7474
 3535SOL     OW22063   0.691   4.071   8.965  0.2542  0.1512 -0.6564
 3535SOL    HW122064   0.652   4.158   8.973  0.5591  0.1177  1.2926
 3535SOL    HW222065   0.755   4.072   9.036 -1.0976 -0.2789  0.5605
 3536SOL     OW22066   1.131   4.009   3.385 -0.0082 -0.1335 -0.0441
 3536SOL    HW122067   1.220   4.008   3.349 -0.3139 -0.5320 -0.8029
 3536SOL    HW222068   1.115   4.102   3.397 -0.4148 -0.5379  2.5849
 3537SOL     OW22069   0.439   4.111  11.697 -0.3611  0.1048  0.3750
 3537SOL    HW122070   0.476   4.127  11.784  0.0979  1.5693 -0.0933
 3537SOL    HW222071   0.502   4.047  11.664  0.5141  1.4882 -0.6383
 3538SOL     OW22072   0.726   3.410   1.452  0.6021  0.1988 -0.1914
 3538SOL    HW122073   0.669   3.483   1.432 -0.9680 -0.8203  0.5649
 3538SOL    HW222074   0.662   3.339   1.455 -0.0254  0.6726 -1.9566
 3539SOL     OW22075   1.679   4.161   6.565  0.0688 -0.1625 -0.0846
 3539SOL    HW122076   1.709   4.071   6.581  0.1917 -0.0633  0.2467
 3539SOL    HW222077   1.725   4.213   6.631 -0.5288 -0.2967  0.4393
 3540SOL     OW22078   1.735   0.145   3.214 -0.2149 -0.0319 -0.1913
 3540SOL    HW122079   1.814   0.100   3.241 -1.4400 -1.6573  0.6792
 3540SOL    HW222080   1.680   0.091   3.271  1.1545  2.0724  3.1145
 3541SOL     OW22081   1.069   3.591   2.952  0.6670  0.3885  0.2871
 3541SOL    HW122082   1.048   3.653   3.022 -1.8508 -0.5137  0.3491
 3541SOL    HW222083   1.020   3.514   2.979 -1.1374  1.3186 -0.3368
 3542SOL     OW22084   2.850   2.026   1.262 -0.1927 -0.2554 -0.1210
 3542SOL    HW122085   2.941   2.026   1.231 -0.3724 -1.4995 -0.6716
 3542SOL    HW222086   2.842   2.121   1.269 -1.7512 -0.3515 -0.7687
 3543SOL     OW22087   1.874   1.974   6.829 -0.7801  0.2849  0.3786
 3543SOL    HW122088   1.879   2.070   6.821  0.2446  0.1720 -0.2157
 3543SOL    HW222089   1.868   1.945   6.739 -1.4276 -0.0645  0.5362
 3544SOL     OW22090   2.194   3.882  13.829 -0.0092 -0.2575 -0.2409
 3544SOL    HW122091   2.142   3.815  13.874  2.0836 -0.6449  1.5945
 3544SOL    HW222092   2.134   3.951  13.799 -1.0984 -1.4193 -0.7203
 3545SOL     OW22093   3.925   3.578   4.795  0.2505  0.4407  0.5090
 3545SOL    HW122094   3.848   3.603   4.846  0.7912  2.5636  0.2589
 3545SOL    HW222095   3.971   3.527   4.862 -0.3296  1.0678  1.3821
 3546SOL     OW22096   4.353   1.039   2.483 -0.1704 -0.4429  0.1034
 3546SOL    HW122097   4.412   0.973   2.447 -0.3083 -1.3060  1.4565
 3546SOL    HW222098   4.321   0.993   2.561 -0.5004 -1.2289 -0.5000
 3547SOL     OW22099   1.660   3.019   5.684 -0.2288  0.2307 -0.3288
 3547SOL    HW122100   1.585   3.049   5.736 -1.9489  0.7767 -3.1627
 3547SOL    HW222101   1.727   3.017   5.752 -0.3960  0.6166 -0.1488
 3548SOL     OW22102   4.584   1.648   9.854  0.0781 -0.0714  0.1984
 3548SOL    HW122103   4.530   1.611   9.923  0.1795 -1.5346 -0.5113
 3548SOL    HW222104   4.510   1.667   9.796 -1.0059 -0.8751  1.3150
 3549SOL     OW22105   3.451   1.480   8.869 -0.3373 -0.0031 -0.6745
 3549SOL    HW122106   3.380   1.472   8.805  1.6970  0.2790 -3.0049
 3549SOL    HW222107   3.450   1.576   8.868  1.1495  0.0112 -0.0860
 3550SOL     OW22108   2.921   0.418   1.287  0.1274 -0.4736 -0.2881
 3550SOL    HW122109   2.876   0.374   1.215 -0.7814  0.2767 -0.1754
 3550SOL    HW222110   2.860   0.491   1.292  1.3784  0.5265  0.5227
 3551SOL     OW22111   3.340   2.484   8.057 -0.3283  0.3752 -0.3417
 3551SOL    HW122112   3.405   2.448   8.117 -0.4213  2.1489  0.8118
 3551SOL    HW222113   3.263   2.483   8.113  0.2036 -0.5011  0.3914
 3552SOL     OW22114   4.701   2.327   1.254 -0.5051  0.3413  0.2212
 3552SOL    HW122115   0.026   2.311   1.173 -0.5511 -2.2988  0.7258
 3552SOL    HW222116   4.644   2.402   1.237 -0.8830  0.4485  1.9565
 3553SOL     OW22117   3.166   4.471   0.494  0.3210  0.3788 -0.0024
 3553SOL    HW122118   3.160   4.557   0.453  2.0758  1.2152  1.5206
 3553SOL    HW222119   3.192   4.427   0.413  0.3340 -3.2161  1.9701
 3554SOL     OW22120   0.898   4.541   2.553 -0.1758  0.0369 -1.0155
 3554SOL    HW122121   0.959   4.589   2.497  0.1546  0.2072 -0.5076
 3554SOL    HW222122   0.954   4.478   2.599  1.9894  0.9295 -2.4525
 3555SOL     OW22123   4.513   0.908  14.560 -0.3072  0.0290  0.6944
 3555SOL    HW122124   4.515   0.957  14.643  3.8869  1.9934 -0.5688
 3555SOL    HW222125   4.532   0.988  14.512  1.1140  0.4944  2.0373
 3556SOL     OW22126   2.064   3.420  15.922  0.2033 -0.4287 -0.5053
 3556SOL    HW122127   2.113   3.338  15.924  0.4409 -0.2383  1.4000
 3556SOL    HW222128   2.115   3.485  15.872 -0.5484  1.1590  0.7950
 3557SOL     OW22129   4.298   0.969   6.314 -0.0380 -0.1784  0.1062
 3557SOL    HW122130   4.335   1.052   6.343  1.0072 -0.1174 -1.3817
 3557SOL    HW222131   4.215   0.997   6.276 -0.3478 -0.7383  0.3643
 3558SOL     OW22132   1.193   2.405   7.017 -0.2487  0.3396  0.5673
 3558SOL    HW122133   1.106   2.366   7.008  0.0619 -1.0612  3.6043
 3558SOL    HW222134   1.179   2.482   7.072  1.5548  1.6031 -0.7363
 3559SOL     OW22135   1.737   1.353   3.367 -0.6823  0.2332  0.0090
 3559SOL    HW122136   1.744   1.401   3.450  1.8309 -1.0648  0.5361
 3559SOL    HW222137   1.791   1.279   3.394 -0.3496 -0.2149 -1.9237
 3560SOL     OW22138   1.231   2.914   6.849  0.1119 -0.1654 -0.1528
 3560SOL    HW122139   1.261   2.846   6.909 -0.3298  0.5628  0.8905
 3560SOL    HW222140   1.178   2.864   6.787  1.5681 -3.4163  1.2137
 3561SOL     OW22141   4.143   0.336   8.962  0.1290 -1.0626  0.3606
 3561SOL    HW122142   4.091   0.272   8.915 -1.0020  0.2067 -0.1132
 3561SOL    HW222143   4.095   0.336   9.045 -0.7770 -3.1535 -0.1683
 3562SOL     OW22144   3.826   4.019  16.970 -0.1405 -0.5778 -0.4919
 3562SOL    HW122145   3.823   3.941  17.026 -3.0245 -0.2139 -0.1215
 3562SOL    HW222146   3.855   4.088  17.030  1.0501 -1.2309 -0.3102
 3563SOL     OW22147   2.841   0.505   6.896  0.0953 -0.1038 -0.3117
 3563SOL    HW122148   2.833   0.589   6.852  0.4967  1.2418  2.2065
 3563SOL    HW222149   2.810   0.524   6.985 -1.8424 -0.2537 -0.9590
 3564SOL     OW22150   2.593   3.597   3.440 -1.0418  0.0032  0.0812
 3564SOL    HW122151   2.551   3.637   3.516  0.1185  0.9895  0.1992
 3564SOL    HW222152   2.556   3.509   3.439  0.5067 -0.6660  4.0659
 3565SOL     OW22153   0.030   3.842   0.723 -0.1489  0.3972 -0.0644
 3565SOL    HW122154   0.078   3.782   0.780 -0.3052 -0.0338 -0.3943
 3565SOL    HW222155   0.092   3.915   0.724  0.6085 -0.2395 -0.6041
 3566SOL     OW22156   2.755   2.818   2.339  0.8188 -0.5379  0.1550
 3566SOL    HW122157   2.671   2.811   2.295  1.6725 -2.1931 -1.2401
 3566SOL    HW222158   2.788   2.730   2.320  0.1157 -0.8637  0.4459
 3567SOL     OW22159   1.011   4.429   9.063 -0.2136 -0.4328 -0.3401
 3567SOL    HW122160   0.949   4.415   9.134 -1.5401  0.3714 -1.3455
 3567SOL    HW222161   0.967   4.497   9.013  2.6808  2.0242  0.4901
 3568SOL     OW22162   1.317   4.580   1.984 -0.3857  0.3640  0.4157
 3568SOL    HW122163   1.242   4.524   2.004  1.1634 -2.3197 -1.2832
 3568SOL    HW222164   1.341   4.620   2.067  1.1257 -2.3384  1.2752
 3569SOL     OW22165   0.996   2.251   5.287  1.1310  0.5528  0.3318
 3569SOL    HW122166   0.976   2.316   5.220  0.0636 -0.4307 -0.3125
 3569SOL    HW222167   1.075   2.286   5.327  1.1787  0.6346  0.1656
 3570SOL     OW22168   4.614   3.658   1.600 -0.1509  0.5292  0.6679
 3570SOL    HW122169   4.647   3.570   1.615 -0.2633  0.4324  0.3469
 3570SOL    HW222170   4.640   3.705   1.679 -0.5239  0.3757  0.8845
 3571SOL     OW22171   1.992   2.253  14.526 -0.3198 -0.1655 -0.1203
 3571SOL    HW122172   1.962   2.177  14.475 -0.5916 -0.1633  0.0357
 3571SOL    HW222173   2.066   2.211  14.570  2.0265  2.6294 -1.4174
 3572SOL     OW22174   1.904   3.474   4.848  0.3571  0.2213  0.0944
 3572SOL    HW122175   1.907   3.468   4.752  1.3179 -0.5937  0.1686
 3572SOL    HW222176   1.838   3.409   4.869 -2.3569  3.2627  0.9522
 3573SOL     OW22177   1.291   3.821   5.184 -0.3589  0.3983  0.0298
 3573SOL    HW122178   1.355   3.853   5.121 -0.3550 -2.5023 -1.4207
 3573SOL    HW222179   1.252   3.744   5.144  0.7039  0.3652 -0.9420
 3574SOL     OW22180   3.496   4.347   8.964  0.0566  0.0143 -0.5813
 3574SOL    HW122181   3.545   4.428   8.948 -0.7559  0.8927  1.3265
 3574SOL    HW222182   3.533   4.324   9.049 -0.0041  0.2273 -0.4989
 3575SOL     OW22183   1.744   2.904   4.423  0.0770 -0.3535 -0.0338
 3575SOL    HW122184   1.829   2.864   4.440  0.4404  1.4565  2.4653
 3575SOL    HW222185   1.692   2.825   4.436 -1.5875  0.5104 -1.5154
 3576SOL     OW22186   3.972   0.719   5.572  0.0113  0.1872  0.0222
 3576SOL    HW122187   3.960   0.783   5.643 -2.1276  2.4477 -2.3944
 3576SOL    HW222188   3.922   0.759   5.501 -0.1286 -1.5593 -0.8594
 3577SOL     OW22189   1.105   0.345   3.117 -0.5252 -0.2345 -0.4171
 3577SOL    HW122190   1.020   0.354   3.073 -0.4876 -1.4814 -0.7426
 3577SOL    HW222191   1.089   0.414   3.181 -3.6966 -2.0161  0.7109
 3578SOL     OW22192   3.475   2.673   2.133 -0.4933 -0.2776  0.4676
 3578SOL    HW122193   3.557   2.673   2.184  0.5709 -2.6164 -1.2648
 3578SOL    HW222194   3.436   2.593   2.170 -0.4111  0.2595  1.7339
 3579SOL     OW22195   1.210   1.290   4.986  0.1403  0.1117 -0.1549
 3579SOL    HW122196   1.280   1.290   4.921 -0.3273  0.5746 -0.6484
 3579SOL    HW222197   1.251   1.319   5.068  1.1792 -1.8514  0.0452
 3580SOL     OW22198   0.606   0.988   1.928 -0.4925  0.3706  0.2355
 3580SOL    HW122199   0.547   0.936   1.982 -2.8690  2.0910 -0.7191
 3580SOL    HW222200   0.582   0.960   1.840 -0.4965 -0.6577  0.5612
 3581SOL     OW22201   1.131   4.451  10.420  0.5589  0.4632  0.5048
 3581SOL    HW122202   1.042   4.417  10.432 -0.0252  1.5276 -0.7348
 3581SOL    HW222203   1.136   4.444  10.324  0.5771  3.2949  0.2942
 3582SOL     OW22204   3.258   1.350   2.734 -0.2184 -0.4303 -0.2258
 3582SOL    HW122205   3.206   1.429   2.745 -0.5170 -0.4139 -1.7373
 3582SOL    HW222206   3.194   1.281   2.750 -0.1142 -0.5867 -0.4862
 3583SOL     OW22207   4.619   3.839   3.425  0.7878 -0.3633 -0.4324
 3583SOL    HW122208   4.570   3.820   3.345 -1.8033  1.3944  0.7371
 3583SOL    HW222209   4.575   3.918   3.456  1.9037  0.4020 -0.8327
 3584SOL     OW22210   3.513   0.623   1.155  0.0353 -0.0464 -0.0634
 3584SOL    HW122211   3.485   0.565   1.084  0.7361  1.5961 -1.6952
 3584SOL    HW222212   3.470   0.702   1.121  1.2239 -0.1223 -1.7688
 3585SOL     OW22213   1.197   0.535   4.963  0.1467 -0.2062 -0.0897
 3585SOL    HW122214   1.281   0.502   4.995 -0.7756 -0.0068  2.5864
 3585SOL    HW222215   1.203   0.491   4.878 -1.2271 -0.8223  0.1287
 3586SOL     OW22216   2.473   2.687  12.014  0.2544  0.0880  0.2663
 3586SOL    HW122217   2.475   2.701  12.109  0.0037 -2.0613  0.5717
 3586SOL    HW222218   2.511   2.769  11.982 -0.1676  0.5736  0.9889
 3587SOL     OW22219   0.782   1.807  16.381 -0.0779  0.3988  0.4736
 3587SOL    HW122220   0.794   1.890  16.334 -0.1128 -0.4155 -0.9760
 3587SOL    HW222221   0.844   1.758  16.326  0.8973 -0.6050  2.4556
 3588SOL     OW22222   3.179   2.497   1.224  0.0509 -0.4976 -0.0061
 3588SOL    HW122223   3.210   2.583   1.251 -0.2872  0.7965 -3.6781
 3588SOL    HW222224   3.105   2.507   1.164  0.4019 -0.2462 -0.3996
 3589SOL     OW22225   3.442   0.033   7.414  0.0523  0.0323  0.1383
 3589SOL    HW122226   3.532   0.037   7.382 -0.2876  0.3426 -0.7841
 3589SOL    HW222227   3.444   0.078   7.499 -1.5409  0.2140  0.0802
 3590SOL     OW22228   1.177   2.260   8.023  0.5330  0.7451 -0.4119
 3590SOL    HW122229   1.223   2.327   8.073  1.1834 -1.1702  1.5857
 3590SOL    HW222230   1.257   2.222   7.986  0.1766  1.0300 -1.4756
 3591SOL     OW22231   3.214   2.485   0.897 -0.1456 -0.0409 -0.2523
 3591SOL    HW122232   3.147   2.544   0.863  1.1465  1.5272 -0.0385
 3591SOL    HW222233   3.170   2.406   0.928  1.2525 -0.7133  0.0319
 3592SOL     OW22234   1.407   1.134   2.492  0.7449 -0.1586  0.1459
 3592SOL    HW122235   1.325   1.137   2.542 -0.3653  2.9267 -1.8337
 3592SOL    HW222236   1.375   1.167   2.408  0.1634 -0.3337  0.2967
 3593SOL     OW22237   2.128   1.383  10.772  0.2856 -0.0429  0.4456
 3593SOL    HW122238   2.191   1.338  10.716 -0.2476  2.7552 -2.3846
 3593SOL    HW222239   2.091   1.447  10.711  0.3904  1.8478  2.3459
 3594SOL     OW22240   0.687   2.517   9.613 -0.1006  0.3458  0.1600
 3594SOL    HW122241   0.658   2.562   9.692  0.7281  0.4803  0.3794
 3594SOL    HW222242   0.760   2.573   9.585 -0.5909 -0.2468 -2.3626
 3595SOL     OW22243   2.784   2.730   4.173  0.0222 -0.2408  0.3066
 3595SOL    HW122244   2.695   2.743   4.138  0.6293 -1.3419 -1.6630
 3595SOL    HW222245   2.837   2.765   4.102 -1.1461 -0.6333 -0.7636
 3596SOL     OW22246   3.594   3.088   5.985 -0.0237  0.4687  0.0835
 3596SOL    HW122247   3.640   3.125   6.061 -0.0501  1.1456 -0.2331
 3596SOL    HW222248   3.605   2.993   5.991 -1.6007  0.2693 -0.0531
 3597SOL     OW22249   2.700   0.325   9.275  0.0259 -0.4156 -0.5462
 3597SOL    HW122250   2.637   0.255   9.289  0.2517 -0.5045  0.0350
 3597SOL    HW222251   2.743   0.338   9.360 -1.0303  0.9573 -0.2104
 3598SOL     OW22252   3.290   3.613   4.184  0.2611  0.3467  0.3752
 3598SOL    HW122253   3.259   3.564   4.260 -0.4775 -0.4886 -0.4690
 3598SOL    HW222254   3.378   3.639   4.212  1.1762 -2.8427  0.5149
 3599SOL     OW22255   2.000   1.505  10.995 -0.0376 -0.1430  0.3833
 3599SOL    HW122256   1.924   1.448  10.978  0.2887 -0.5607  0.3225
 3599SOL    HW222257   2.055   1.475  10.923 -3.2706 -0.1713 -2.0977
 3600SOL     OW22258   2.331   2.931   5.196  0.2904  0.3739  0.1880
 3600SOL    HW122259   2.360   2.981   5.120 -0.3746  0.5469  0.0464
 3600SOL    HW222260   2.253   2.902   5.150  1.7231 -0.9244 -1.4091
 3601SOL     OW22261   3.250   3.989  12.999  0.0515  0.5803 -0.6695
 3601SOL    HW122262   3.238   3.912  12.943  0.3907 -0.4968  0.7621
 3601SOL    HW222263   3.344   3.978  13.017 -0.3103 -0.7967  0.3806
 3602SOL     OW22264   2.526   0.712   5.345 -0.2387 -0.1000 -0.1252
 3602SOL    HW122265   2.545   0.632   5.392 -1.1992 -0.3668 -0.1814
 3602SOL    HW222266   2.432   0.697   5.332 -0.4799  0.3463  1.1253
 3603SOL     OW22267   3.267   2.932  13.427  0.4625  0.1225 -0.0192
 3603SOL    HW122268   3.250   2.866  13.360  0.0618  0.6422 -0.4214
 3603SOL    HW222269   3.250   2.874  13.501  1.3842  1.7229  1.4478
 3604SOL     OW22270   2.855   1.813   3.115  0.3515  0.2148 -0.1277
 3604SOL    HW122271   2.834   1.728   3.077  1.2488 -1.3333  2.8115
 3604SOL    HW222272   2.858   1.870   3.038 -0.5402 -0.5056 -0.6940
 3605SOL     OW22273   1.057   0.925  17.144  0.0547  0.3467 -0.3193
 3605SOL    HW122274   1.042   0.946  17.236 -0.2753 -1.4860  0.0594
 3605SOL    HW222275   1.012   0.840  17.141  0.0448  0.4052 -1.5255
 3606SOL     OW22276   1.616   2.058  10.963 -0.2426  0.2564  0.7877
 3606SOL    HW122277   1.671   2.032  11.037 -2.1859 -1.4366  1.6331
 3606SOL    HW222278   1.655   2.141  10.934  0.7172 -0.9003 -1.2190
 3607SOL     OW22279   1.912   2.963   7.521  0.4537 -0.2369  0.0137
 3607SOL    HW122280   1.907   3.045   7.571  0.2210  0.8956 -1.8728
 3607SOL    HW222281   1.829   2.918   7.538 -0.2685  1.5010  1.0818
 3608SOL     OW22282   1.876   4.097   8.591  0.2324 -0.1075 -0.8774
 3608SOL    HW122283   1.971   4.110   8.588  0.0522  1.4642  0.4784
 3608SOL    HW222284   1.873   4.015   8.640  0.1341  1.7686  2.1872
 3609SOL     OW22285   2.290   1.130   6.125 -0.3673 -0.0004  0.0740
 3609SOL    HW122286   2.241   1.117   6.044 -0.1763 -1.0833  0.1302
 3609SOL    HW222287   2.249   1.207   6.165 -0.5968  0.2391 -0.6174
 3610SOL     OW22288   1.312   4.118   6.428 -0.1192 -0.2673  0.7570
 3610SOL    HW122289   1.318   4.049   6.494  5.1779  0.3327  0.9114
 3610SOL    HW222290   1.277   4.069   6.354  1.0688 -0.1681  0.1235
 3611SOL     OW22291   3.329   0.462   4.174  0.6046  0.3986 -0.2048
 3611SOL    HW122292   3.239   0.434   4.189  0.4528 -0.9661 -3.5514
 3611SOL    HW222293   3.340   0.430   4.084 -1.0404  0.2787 -0.3646
 3612SOL     OW22294   2.727   4.088   7.299 -0.0229 -0.6235 -0.3849
 3612SOL    HW122295   2.759   3.998   7.293  1.3213 -0.1447 -0.5036
 3612SOL    HW222296   2.689   4.084   7.386  0.4335 -2.8895 -0.2782
 3613SOL     OW22297   4.193   0.610  17.054 -0.2784  0.0572  0.3779
 3613SOL    HW122298   4.271   0.612  17.111  0.5306 -0.2035 -0.7224
 3613SOL    HW222299   4.138   0.558  17.113 -0.4112  0.0303  0.2295
 3614SOL     OW22300   4.405   2.985   7.780  0.2622  0.1782 -0.1741
 3614SOL    HW122301   4.486   2.991   7.831 -0.8706 -1.2945  1.7984
 3614SOL    HW222302   4.364   3.069   7.802  0.6881 -0.1248  1.7576
 3615SOL     OW22303   4.643   2.335   9.753  0.1217  0.1603 -0.3184
 3615SOL    HW122304   4.581   2.361   9.821 -2.3662  0.1619 -2.5681
 3615SOL    HW222305   4.579   2.301   9.690  0.1594  0.2532 -0.4081
 3616SOL     OW22306   2.893   0.457   2.937 -0.1371 -0.4857  0.0381
 3616SOL    HW122307   2.959   0.411   2.989 -0.0523  1.6733  1.8488
 3616SOL    HW222308   2.927   0.415   2.858 -1.9124 -0.1683 -0.8849
 3617SOL     OW22309   2.923   2.679   1.421  0.0931 -0.5704 -0.1834
 3617SOL    HW122310   2.901   2.647   1.333 -0.1612 -2.4414  0.5740
 3617SOL    HW222311   2.838   2.717   1.442  0.9177 -0.3101  2.6093
 3618SOL     OW22312   1.826   0.936   9.570 -0.2212  0.7111 -0.0493
 3618SOL    HW122313   1.782   0.890   9.641  0.1692 -0.1106 -0.3429
 3618SOL    HW222314   1.838   1.026   9.601 -1.9771 -0.1936  3.1774
 3619SOL     OW22315   4.247   2.796   2.260 -0.0675 -0.2245 -0.0085
 3619SOL    HW122316   4.276   2.718   2.307 -1.2855 -1.1063 -0.7277
 3619SOL    HW222317   4.310   2.852   2.305  0.6055 -1.4581  0.5955
 3620SOL     OW22318   3.831   0.697  10.972  0.1406 -1.0921  0.5330
 3620SOL    HW122319   3.796   0.685  10.884  0.9168  3.3843 -0.3964
 3620SOL    HW222320   3.822   0.792  10.985  0.9323 -1.0776  0.9975
 3621SOL     OW22321   0.918   0.285  12.011 -0.0489 -0.2317 -0.1141
 3621SOL    HW122322   0.881   0.197  12.000  0.5802 -0.2407 -2.1715
 3621SOL    HW222323   0.943   0.313  11.923  0.0288  0.9874  0.3031
 3622SOL     OW22324   4.288   2.249  16.496 -0.1214 -0.3305 -0.2351
 3622SOL    HW122325   4.235   2.329  16.497  2.4035  1.3409 -0.0812
 3622SOL    HW222326   4.221   2.186  16.469 -0.0990 -0.2234 -0.5378
 3623SOL     OW22327   4.058   1.527   1.090  0.1566 -0.2989 -0.4396
 3623SOL    HW122328   4.019   1.595   1.145 -0.0770 -0.8300  0.0464
 3623SOL    HW222329   4.009   1.528   1.008  0.2288  1.1569 -0.4734
 3624SOL     OW22330   0.303   2.544   1.550  0.6163  0.0966 -0.3450
 3624SOL    HW122331   0.281   2.452   1.565 -2.2990  0.6318 -1.3143
 3624SOL    HW222332   0.388   2.541   1.507  0.2906 -0.2070 -0.9625
 3625SOL     OW22333   3.934   4.634   2.408  0.0946 -0.0421  0.3198
 3625SOL    HW122334   4.027   4.650   2.426 -0.2413  0.5941  1.4998
 3625SOL    HW222335   3.929   4.573   2.334 -0.8471 -1.6302  1.6958
 3626SOL     OW22336   0.099   3.362   8.373 -0.5824 -0.6694 -0.0339
 3626SOL    HW122337   0.185   3.404   8.378 -0.3357 -1.2953  0.9009
 3626SOL    HW222338   0.072   3.356   8.465 -2.3818  1.9019 -0.4067
 3627SOL     OW22339   0.636   0.520  13.633 -0.2587 -0.6553  0.2687
 3627SOL    HW122340   0.541   0.521  13.637 -0.2773 -1.4176  0.0853
 3627SOL    HW222341   0.658   0.430  13.606 -1.6741 -0.6010 -1.0437
 3628SOL     OW22342   2.133   2.062   4.355 -0.4269  1.0053 -0.8644
 3628SOL    HW122343   2.192   2.023   4.419  1.9620 -0.2170 -3.7774
 3628SOL    HW222344   2.104   1.989   4.301  0.2038 -0.2116  0.4329
 3629SOL     OW22345   2.984   0.890   2.394 -0.1824  0.1027 -0.0811
 3629SOL    HW122346   2.897   0.923   2.419 -0.2872 -0.0966 -0.1816
 3629SOL    HW222347   2.991   0.838   2.474  1.7601  0.8320  0.2034
 3630SOL     OW22348   3.260   3.371   2.195 -0.0143  0.0168  0.0021
 3630SOL    HW122349   3.285   3.369   2.287  0.6506 -3.3300 -0.2798
 3630SOL    HW222350   3.191   3.438   2.194 -0.5259 -0.5184 -1.3741
 3631SOL     OW22351   1.913   2.051   7.452  0.2699 -0.1779  0.0835
 3631SOL    HW122352   1.940   1.987   7.387 -2.2651 -1.6064  0.3991
 3631SOL    HW222353   1.969   2.032   7.528  0.7967  0.5310 -0.1366
 3632SOL     OW22354   4.399   3.445   4.260 -0.0146  0.1486 -0.3168
 3632SOL    HW122355   4.480   3.486   4.229 -0.9510  2.0556 -0.2641
 3632SOL    HW222356   4.326   3.489   4.217  0.0064  0.5019  0.0158
 3633SOL     OW22357   2.856   3.771  16.241  0.5145  0.0755 -0.0327
 3633SOL    HW122358   2.889   3.858  16.222 -0.1327  0.4929  0.7731
 3633SOL    HW222359   2.789   3.799  16.304  0.2777  0.4564 -0.4521
 3634SOL     OW22360   1.874   3.317   1.465  0.3633  0.4148 -0.0429
 3634SOL    HW122361   1.867   3.296   1.372  1.1975 -3.4664  0.7886
 3634SOL    HW222362   1.866   3.413   1.458  1.4796  0.5435  0.3694
 3635SOL     OW22363   3.745   3.011  14.422  0.3129  0.2599  0.1127
 3635SOL    HW122364   3.767   2.927  14.380  0.2073 -0.4783  1.5164
 3635SOL    HW222365   3.698   3.051  14.349  0.5057  2.0325  0.9614
 3636SOL     OW22366   0.526   4.268  11.334  0.2412 -0.2172 -0.0121
 3636SOL    HW122367   0.452   4.289  11.391 -0.8439 -1.2616 -1.0129
 3636SOL    HW222368   0.474   4.264  11.253  0.5970  0.5923 -0.2779
 3637SOL     OW22369   0.088   2.276   3.970 -0.1408 -0.3385  0.2104
 3637SOL    HW122370   0.039   2.273   3.887  0.9387 -0.2404 -0.4323
 3637SOL    HW222371   0.173   2.304   3.934 -0.9609  1.9051  0.0385
 3638SOL     OW22372   2.748   2.176  12.577  0.2512  0.3037 -0.2016
 3638SOL    HW122373   2.799   2.182  12.658  1.6889 -1.4594 -0.9870
 3638SOL    HW222374   2.658   2.177  12.609  0.2799 -0.9816 -0.0863
 3639SOL     OW22375   4.000   1.874   3.829  0.4470 -0.5388 -0.5516
 3639SOL    HW122376   3.918   1.888   3.876 -0.4773  0.0763 -2.3675
 3639SOL    HW222377   4.058   1.841   3.898  0.5536  1.2490  0.2034
 3640SOL     OW22378   3.777   2.610   5.311 -0.3418  0.2046  0.2307
 3640SOL    HW122379   3.701   2.664   5.333  1.0188  1.7451  1.1709
 3640SOL    HW222380   3.813   2.596   5.398  2.3107 -0.3836 -0.9853
 3641SOL     OW22381   4.487   2.006   9.333 -0.2810 -0.3120 -0.2977
 3641SOL    HW122382   4.553   2.013   9.402 -1.3989 -1.0680  0.8567
 3641SOL    HW222383   4.418   2.035   9.393  0.5226  1.6816 -0.3502
 3642SOL     OW22384   2.940   0.421   8.309 -0.0798 -0.0364 -0.1580
 3642SOL    HW122385   2.891   0.498   8.282 -2.1242 -0.5657  2.0186
 3642SOL    HW222386   3.020   0.438   8.259  1.0894  1.2195  2.1643
 3643SOL     OW22387   1.997   2.541   7.700 -0.4734 -0.1044 -0.9934
 3643SOL    HW122388   2.017   2.633   7.684  0.0714  0.5609  3.5717
 3643SOL    HW222389   1.902   2.553   7.710  0.0794  3.1482  0.1330
 3644SOL     OW22390   2.995   2.001   3.544 -0.4731 -0.2395  0.2804
 3644SOL    HW122391   2.919   1.954   3.508 -1.2489  1.4493 -0.2466
 3644SOL    HW222392   2.986   2.083   3.497  0.9310 -0.4937 -0.4255
 3645SOL     OW22393   0.954   1.521  12.753  1.2931  0.2174  0.3438
 3645SOL    HW122394   1.044   1.536  12.723  0.6935 -0.1603 -1.6049
 3645SOL    HW222395   0.907   1.579  12.694  0.1860 -0.7121  0.3292
 3646SOL     OW22396   4.382   0.673   5.563 -0.4883  0.3905  0.4767
 3646SOL    HW122397   4.417   0.587   5.585  0.6014  0.3003 -1.5133
 3646SOL    HW222398   4.415   0.686   5.474 -1.6425 -0.4864 -0.0737
 3647SOL     OW22399   4.223   0.257   5.506  0.5725  0.3348 -0.1184
 3647SOL    HW122400   4.172   0.306   5.571  0.9143 -0.2459  0.5990
 3647SOL    HW222401   4.212   0.304   5.424 -1.5658 -0.1990 -0.1229
 3648SOL     OW22402   2.371   0.166   5.609  0.2082  0.8062 -0.3155
 3648SOL    HW122403   2.352   0.215   5.689  0.3584  1.6252 -0.7889
 3648SOL    HW222404   2.421   0.092   5.645 -2.3126 -0.9340 -0.3401
 3649SOL     OW22405   2.320   3.619   6.193  0.5243  0.0991  0.0770
 3649SOL    HW122406   2.389   3.669   6.238  0.0277 -0.2935  1.2495
 3649SOL    HW222407   2.262   3.689   6.163  0.9595  1.6144  2.7660
 3650SOL     OW22408   3.223   0.155   2.196 -0.8692 -0.0560  0.2469
 3650SOL    HW122409   3.235   0.060   2.208 -0.9656 -0.1753 -0.5642
 3650SOL    HW222410   3.159   0.178   2.263  0.2040  1.1845  0.8473
 3651SOL     OW22411   0.325   2.159   2.076 -0.5020  0.5353 -0.6818
 3651SOL    HW122412   0.403   2.195   2.034 -2.0520  0.7654 -3.3523
 3651SOL    HW222413   0.354   2.067   2.075  1.1323  1.0233  0.9787
 3652SOL     OW22414   1.956   1.095   5.419 -0.1871  0.0812  0.2132
 3652SOL    HW122415   2.012   1.092   5.342  2.1817 -0.0935  1.9135
 3652SOL    HW222416   1.873   1.089   5.371  0.2299 -1.0356 -0.3648
 3653SOL     OW22417   1.479   1.292  14.086  0.5161  0.4586  0.7258
 3653SOL    HW122418   1.471   1.287  13.990 -0.7030 -2.3483  0.9784
 3653SOL    HW222419   1.519   1.207  14.104 -0.4363  0.3033  2.0668
 3654SOL     OW22420   4.446   0.654   1.960  0.5113 -0.6742 -0.8336
 3654SOL    HW122421   4.397   0.667   1.879 -0.2041 -0.3252 -0.3347
 3654SOL    HW222422   4.378   0.676   2.023  1.0524  2.0548 -1.2002
 3655SOL     OW22423   1.876   0.997   1.822 -0.4097 -0.6418 -0.5466
 3655SOL    HW122424   1.950   1.037   1.868  0.1503 -1.3283 -0.8503
 3655SOL    HW222425   1.832   0.955   1.895 -0.4990 -1.6161 -1.1565
 3656SOL     OW22426   4.123   2.457   7.267  0.3272  0.6388  0.1739
 3656SOL    HW122427   4.065   2.455   7.342  1.4789  2.4435  1.1217
 3656SOL    HW222428   4.093   2.528   7.211  1.5812 -0.4718 -1.9477
 3657SOL     OW22429   4.298   4.608   6.069 -0.5163  0.6740  0.1477
 3657SOL    HW122430   4.381   4.640   6.104 -0.0826  1.7925 -1.8919
 3657SOL    HW222431   4.280   4.544   6.137 -0.8724  1.8762  1.1945
 3658SOL     OW22432   3.324   2.138   4.098 -0.0727  0.0191  0.9613
 3658SOL    HW122433   3.245   2.179   4.134  0.7924 -0.1465  3.0872
 3658SOL    HW222434   3.298   2.125   4.007  1.2428  0.9890  0.4422
 3659SOL     OW22435   2.391   3.360   6.530 -0.3067  0.1350  0.5630
 3659SOL    HW122436   2.426   3.375   6.618 -1.2518 -1.6583  1.2560
 3659SOL    HW222437   2.471   3.346   6.479 -0.5578  1.7148 -0.2757
 3660SOL     OW22438   4.581   4.003   9.488 -0.1973  0.1006  0.4193
 3660SOL    HW122439   4.530   3.998   9.569  0.1058  0.0586  0.6083
 3660SOL    HW222440   4.655   3.957   9.527 -0.3479 -1.2368 -0.8971
 3661SOL     OW22441   2.577   3.278   2.810 -0.1550  0.4839 -0.0995
 3661SOL    HW122442   2.657   3.237   2.778 -0.1295  0.1314  0.4214
 3661SOL    HW222443   2.513   3.268   2.740 -0.7182  1.6472  0.2470
 3662SOL     OW22444   4.332   2.342  14.828 -0.0895  0.1467 -0.9576
 3662SOL    HW122445   4.269   2.389  14.882  2.1543  0.7056  1.1584
 3662SOL    HW222446   4.397   2.312  14.891 -1.7148 -1.1368  0.1114
 3663SOL     OW22447   1.053   3.970   2.949 -0.1707  0.2363 -0.0386
 3663SOL    HW122448   1.114   4.043   2.943 -2.3640  1.8488 -3.0175
 3663SOL    HW222449   1.028   3.955   2.858 -0.2112 -0.2740  0.0603
 3664SOL     OW22450   3.500   2.573   5.944 -0.4081  0.7177 -0.2590
 3664SOL    HW122451   3.406   2.570   5.960 -0.1963 -0.4207  0.7525
 3664SOL    HW222452   3.540   2.529   6.019  2.7560  0.2376 -2.2552
 3665SOL     OW22453   4.345   1.607   8.685 -0.8820 -0.2217 -0.1880
 3665SOL    HW122454   4.367   1.698   8.666  0.8780 -0.5697  0.1684
 3665SOL    HW222455   4.297   1.622   8.767 -2.0481  1.7219 -1.2354
 3666SOL     OW22456   2.002   0.573   2.449 -0.2054  0.0867 -0.3159
 3666SOL    HW122457   2.083   0.526   2.428  0.0915  0.2212  0.5146
 3666SOL    HW222458   2.005   0.646   2.386  2.0277  0.5251  0.2854
 3667SOL     OW22459   2.510   3.808   6.382 -0.1867  0.9890  0.8015
 3667SOL    HW122460   2.541   3.821   6.293 -0.7935  0.9095  0.5824
 3667SOL    HW222461   2.585   3.769   6.427  0.5533 -0.0987 -1.3860
 3668SOL     OW22462   0.809   2.742   7.831 -0.0881 -0.0244 -0.1924
 3668SOL    HW122463   0.891   2.751   7.880  1.1984 -1.6621 -2.0092
 3668SOL    HW222464   0.767   2.668   7.873 -0.9411 -1.0275 -2.8092
 3669SOL     OW22465   4.221   1.275  15.137  0.3182 -0.2141  0.0576
 3669SOL    HW122466   4.235   1.346  15.200 -2.2312 -0.4735  0.9192
 3669SOL    HW222467   4.273   1.306  15.063  1.3199  0.2410  0.9588
 3670SOL     OW22468   3.754   1.800   7.537 -0.0597  0.3333 -0.6665
 3670SOL    HW122469   3.667   1.767   7.560  0.4186 -1.2892 -1.2277
 3670SOL    HW222470   3.767   1.777   7.445 -0.8146 -1.0559 -0.4226
 3671SOL     OW22471   3.083   3.344  10.476 -0.2940 -0.1552  0.1386
 3671SOL    HW122472   3.041   3.298  10.549  0.0352 -1.3238 -0.4018
 3671SOL    HW222473   3.116   3.424  10.516 -0.4963 -0.2982  0.5857
 3672SOL     OW22474   0.326   0.932   8.666 -0.4762  0.7271 -0.1501
 3672SOL    HW122475   0.236   0.964   8.663 -1.9343 -3.6433 -3.2954
 3672SOL    HW222476   0.341   0.943   8.572 -0.3772  0.4023 -0.1746
 3673SOL     OW22477   3.253   1.291   3.509  0.4291 -0.4736  0.0048
 3673SOL    HW122478   3.287   1.353   3.444  0.0153 -1.1322 -0.8378
 3673SOL    HW222479   3.316   1.220   3.521  0.7525 -0.0125  1.0309
 3674SOL     OW22480   0.923   1.673  16.575  0.2916  0.2178  0.5028
 3674SOL    HW122481   0.927   1.587  16.533 -0.6981  0.6003 -0.3683
 3674SOL    HW222482   0.885   1.726  16.506  0.1066  1.0628  1.2557
 3675SOL     OW22483   2.212   2.820   6.137  0.3248 -0.4312  0.0192
 3675SOL    HW122484   2.211   2.810   6.232 -1.2481  0.8099  0.1148
 3675SOL    HW222485   2.291   2.870   6.116 -1.5518  1.5464 -2.2655
 3676SOL     OW22486   4.616   4.211   3.030  0.1857  0.1213 -0.5583
 3676SOL    HW122487   4.623   4.194   2.936 -0.1884 -0.8394 -0.4132
 3676SOL    HW222488   4.530   4.174   3.051 -0.3166  0.8252 -1.3915
 3677SOL     OW22489   1.512   2.142   4.759 -0.1803 -0.2552 -0.5461
 3677SOL    HW122490   1.484   2.105   4.843  0.0701 -0.8543 -0.7311
 3677SOL    HW222491   1.428   2.185   4.739 -0.1413  0.3221  0.5570
 3678SOL     OW22492   3.718   4.290   5.002 -0.0913 -0.8191  0.2673
 3678SOL    HW122493   3.775   4.320   5.073 -0.9553 -2.2493  1.5819
 3678SOL    HW222494   3.660   4.366   5.009 -0.0162 -0.7228 -0.1775
 3679SOL     OW22495   4.605   2.330   2.096 -0.1306  0.0201 -0.3487
 3679SOL    HW122496   4.525   2.294   2.056  0.1751 -2.2069  1.0340
 3679SOL    HW222497   4.633   2.250   2.141  0.4671 -0.1604 -1.0494
 3680SOL     OW22498   1.814   3.132  16.863  0.9430  0.2139 -0.1892
 3680SOL    HW122499   1.806   3.218  16.905  0.8946  0.4546 -0.7000
 3680SOL    HW222500   1.791   3.077  16.938 -1.3420  0.5642 -0.6488
 3681SOL     OW22501   2.782   0.229   6.432  0.1200  0.1571 -0.1411
 3681SOL    HW122502   2.875   0.217   6.413  0.1148  0.0552 -0.1039
 3681SOL    HW222503   2.779   0.317   6.469  1.2283 -0.2965  1.0561
 3682SOL     OW22504   3.996   3.049  15.649 -0.2477 -0.0809 -0.3752
 3682SOL    HW122505   3.953   3.048  15.563  1.1049 -0.2928 -1.0413
 3682SOL    HW222506   3.930   3.094  15.702 -1.1364  1.0395 -2.4024
 3683SOL     OW22507   4.640   3.390   0.091 -0.2656  0.0173  0.3371
 3683SOL    HW122508   4.565   3.358   0.041 -0.6253  0.5463  0.5435
 3683SOL    HW222509   4.706   3.321   0.083 -2.1631 -1.4686 -2.6669
 3684SOL     OW22510   2.511   0.214   3.636  0.1322 -0.3775 -0.0717
 3684SOL    HW122511   2.544   0.152   3.570 -0.2085 -0.8876  0.2317
 3684SOL    HW222512   2.445   0.161   3.681 -0.8756  1.6451  0.7980
 3685SOL     OW22513   0.198   4.370   3.942  0.2582  0.4140  0.0874
 3685SOL    HW122514   0.267   4.426   3.908  0.0202  0.3945 -0.4180
 3685SOL    HW222515   0.239   4.356   4.028  0.3490  0.5507  0.0658
 3686SOL     OW22516   2.490   1.510   4.611 -0.2494  0.3993 -0.6714
 3686SOL    HW122517   2.403   1.548   4.618 -0.7734 -1.1501  1.0364
 3686SOL    HW222518   2.534   1.568   4.549 -0.0817 -2.0796 -2.8375
 3687SOL     OW22519   3.587   4.053   6.985 -0.1603 -0.2395 -0.0686
 3687SOL    HW122520   3.667   4.080   6.942  0.9338 -1.2519  1.3312
 3687SOL    HW222521   3.625   4.055   7.073 -0.5331 -3.2005  0.1716
 3688SOL     OW22522   0.302   3.114  15.140  0.0521  0.4331  0.5900
 3688SOL    HW122523   0.274   3.152  15.223 -1.9238  1.0655 -0.3509
 3688SOL    HW222524   0.304   3.191  15.083  1.1882  0.8787  1.2426
 3689SOL     OW22525   0.541   2.103   4.198 -0.4955 -0.3597  0.1893
 3689SOL    HW122526   0.472   2.155   4.239 -0.0277  1.1070 -0.8758
 3689SOL    HW222527   0.510   2.087   4.109 -0.7854  1.3649 -0.0289
 3690SOL     OW22528   4.524   3.751  14.039 -0.1164  0.2229  0.1690
 3690SOL    HW122529   4.596   3.794  14.085 -0.2200  1.6642 -1.0117
 3690SOL    HW222530   4.534   3.664  14.077 -0.3020 -0.1907 -0.7442
 3691SOL     OW22531   3.294   2.039   5.281  0.5581  0.1909 -0.5396
 3691SOL    HW122532   3.249   2.118   5.311 -0.8440 -1.3097  1.2630
 3691SOL    HW222533   3.243   2.021   5.202 -0.2050  0.8473 -0.1910
 3692SOL     OW22534   3.941   1.355   7.961  0.0927 -0.0155  0.2425
 3692SOL    HW122535   3.858   1.321   7.996 -0.1094  0.6281  0.3814
 3692SOL    HW222536   4.007   1.326   8.024  0.9378  0.8760 -0.2234
 3693SOL     OW22537   4.458   0.217   3.874  0.1074  0.0481 -0.2293
 3693SOL    HW122538   4.430   0.131   3.844 -0.7600 -0.9270  3.3848
 3693SOL    HW222539   4.426   0.271   3.801 -0.4973  0.4121  0.3054
 3694SOL     OW22540   1.619   4.434  16.683  0.3570 -0.2120 -0.3690
 3694SOL    HW122541   1.714   4.422  16.689  0.2469 -0.8085  0.2094
 3694SOL    HW222542   1.598   4.356  16.632 -0.8971 -0.8323  1.1149
 3695SOL     OW22543   4.526   3.075   0.185 -0.7107 -0.0428  0.3317
 3695SOL    HW122544   4.546   3.020   0.109  5.3422  1.4566  0.8139
 3695SOL    HW222545   4.606   3.089   0.237 -1.2726  0.4273  1.0764
 3696SOL     OW22546   2.510   0.295   8.896 -0.0915 -0.1122  0.3886
 3696SOL    HW122547   2.553   0.252   8.823 -0.8468  0.7286 -0.5536
 3696SOL    HW222548   2.426   0.254   8.913 -0.9185  1.1859 -0.5330
 3697SOL     OW22549   0.754   4.043   4.625  0.3634  0.4701 -0.2479
 3697SOL    HW122550   0.794   4.124   4.595 -1.2747  1.4415  0.1630
 3697SOL    HW222551   0.665   4.066   4.595 -0.0083 -0.4648  0.1455
 3698SOL     OW22552   2.304   3.373   3.360 -0.2010  0.5135  0.2404
 3698SOL    HW122553   2.223   3.324   3.344  0.0955 -0.5747  2.0945
 3698SOL    HW222554   2.275   3.463   3.345 -1.3816  0.3063  1.2132
 3699SOL     OW22555   2.178   2.415   3.563 -0.7595 -0.2604 -0.4907
 3699SOL    HW122556   2.138   2.397   3.478 -1.2246 -1.7728  0.0408
 3699SOL    HW222557   2.214   2.501   3.544 -2.4499  0.4963 -0.2407
 3700SOL     OW22558   3.039   4.138   2.373 -0.2209  0.0643 -0.2438
 3700SOL    HW122559   3.073   4.227   2.375  2.0341 -0.8719  3.2040
 3700SOL    HW222560   3.125   4.098   2.365 -1.1072 -2.0547  0.5744
 3701SOL     OW22561   3.732   2.474  12.097 -0.3481  0.2409 -0.2860
 3701SOL    HW122562   3.698   2.446  12.011 -0.5743 -0.2800 -0.0278
 3701SOL    HW222563   3.751   2.566  12.081 -0.1689  0.6198  2.1750
 3702SOL     OW22564   4.370   3.489  10.899 -0.4518  0.0695  0.2826
 3702SOL    HW122565   4.292   3.467  10.848 -0.7777  0.5448  0.5738
 3702SOL    HW222566   4.358   3.583  10.915  0.9054  0.2833  0.0787
 3703SOL     OW22567   3.885   2.001  14.656  0.5079 -0.1602 -0.3969
 3703SOL    HW122568   3.869   2.005  14.561  0.3563 -0.0003 -0.3650
 3703SOL    HW222569   3.841   2.077  14.695  1.8486  1.2715 -1.6958
 3704SOL     OW22570   1.994   2.757   0.820 -0.2354 -0.1543  0.2179
 3704SOL    HW122571   2.036   2.813   0.885 -2.1027  0.3884  0.9626
 3704SOL    HW222572   2.023   2.798   0.739 -1.0322  1.4397  0.7352
 3705SOL     OW22573   1.234   0.296   1.634 -0.2287  0.1370 -0.0803
 3705SOL    HW122574   1.248   0.222   1.574  2.1883  1.3272 -0.9479
 3705SOL    HW222575   1.182   0.250   1.700  2.3464  2.1750  3.3574
 3706SOL     OW22576   3.334   1.774   3.905 -0.0377  0.1087 -0.5982
 3706SOL    HW122577   3.244   1.758   3.875 -0.5529  4.4290 -1.3851
 3706SOL    HW222578   3.321   1.765   4.000  1.5033  2.9061 -0.1361
 3707SOL     OW22579   0.326   2.591   6.343 -0.0520  0.5771  0.2673
 3707SOL    HW122580   0.398   2.649   6.316  0.9866 -2.0068 -2.5001
 3707SOL    HW222581   0.268   2.655   6.386 -1.1038 -0.3207  0.1831
 3708SOL     OW22582   2.936   0.768  11.715  0.1651 -0.8652  0.2466
 3708SOL    HW122583   2.997   0.836  11.743 -0.3685 -0.5255  0.5883
 3708SOL    HW222584   2.854   0.819  11.719 -1.2661 -3.0331 -1.0779
 3709SOL     OW22585   1.454   0.330   8.646  0.2622  0.1884  0.1620
 3709SOL    HW122586   1.407   0.404   8.609 -1.5568 -1.4777 -0.8568
 3709SOL    HW222587   1.411   0.320   8.731 -1.1574 -0.2252 -0.6176
 3710SOL     OW22588   0.055   0.450  10.388  0.5344  0.4846 -0.2313
 3710SOL    HW122589   0.075   0.478  10.299  0.6261 -0.1028 -0.3918
 3710SOL    HW222590   0.139   0.413  10.414  0.0854 -2.0248 -2.3574
 3711SOL     OW22591   2.453   1.324   0.795 -0.4251 -0.4768 -0.4828
 3711SOL    HW122592   2.536   1.367   0.774  0.3194 -0.4988  2.3914
 3711SOL    HW222593   2.475   1.255   0.857  3.3427  1.1132 -0.0537
 3712SOL     OW22594   3.450   3.278  10.950 -0.1201 -0.1265  0.2230
 3712SOL    HW122595   3.376   3.307  11.004 -0.9766  0.0234 -1.0511
 3712SOL    HW222596   3.522   3.330  10.986  0.0296  0.7504 -1.3693
 3713SOL     OW22597   1.125   2.906  10.870  0.2035 -0.0363 -0.4998
 3713SOL    HW122598   1.101   2.816  10.849 -0.4095 -0.4311  1.9675
 3713SOL    HW222599   1.092   2.911  10.959  0.7303  1.1745 -0.3723
 3714SOL     OW22600   2.714   2.261   5.071 -0.6665  0.3025 -0.1680
 3714SOL    HW122601   2.636   2.312   5.092 -0.3332 -0.4166  2.7789
 3714SOL    HW222602   2.731   2.279   4.978 -1.5140  2.0229  0.0139
 3715SOL     OW22603   1.918   2.426   6.079 -0.2946  0.1213  0.1038
 3715SOL    HW122604   1.851   2.427   6.011 -0.3360  0.0510  0.1433
 3715SOL    HW222605   1.933   2.515   6.110  0.7048  0.1733 -0.5057
 3716SOL     OW22606   3.262   3.961   2.634 -0.3960  0.2341 -0.1811
 3716SOL    HW122607   3.294   4.042   2.594  0.9699 -2.1060 -3.8256
 3716SOL    HW222608   3.263   3.916   2.550 -0.2857  1.0266 -0.6117
 3717SOL     OW22609   2.866   1.737   4.062 -0.2304 -0.3500 -1.1594
 3717SOL    HW122610   2.919   1.797   4.115  0.2573  0.0445 -2.0802
 3717SOL    HW222611   2.933   1.682   4.021 -0.6227 -1.1773 -0.6770
 3718SOL     OW22612   3.098   4.170   5.004  0.1558  0.2659 -0.0168
 3718SOL    HW122613   3.140   4.241   4.956  1.5374 -0.8884 -0.5239
 3718SOL    HW222614   3.012   4.173   4.963 -0.6800 -3.2330  1.5304
 3719SOL     OW22615   1.063   4.629   8.473 -0.5783 -0.3264  0.0547
 3719SOL    HW122616   1.024   4.714   8.453  0.5811 -0.2755 -1.9578
 3719SOL    HW222617   1.074   4.583   8.390  1.5316 -0.0636  0.1983
 3720SOL     OW22618   2.227   2.940  16.139  0.1951 -0.1586 -0.3985
 3720SOL    HW122619   2.151   2.883  16.142  1.2329 -1.5610 -0.8769
 3720SOL    HW222620   2.184   3.018  16.174 -1.5740 -0.3639 -2.1580
 3721SOL     OW22621   1.829   3.730   0.200 -0.0426  0.5776  0.4191
 3721SOL    HW122622   1.805   3.708   0.110  0.7800  0.2933  0.2638
 3721SOL    HW222623   1.859   3.819   0.181  1.9500 -0.1781  0.0188
 3722SOL     OW22624   4.538   3.423   9.839  0.5477 -0.0814 -0.3820
 3722SOL    HW122625   4.444   3.408   9.847  0.3835  1.4738  0.6774
 3722SOL    HW222626   4.571   3.337   9.812  0.1471 -0.4739  0.3701
 3723SOL     OW22627   2.805   2.821  12.248 -0.3914  0.3413  0.0117
 3723SOL    HW122628   2.881   2.772  12.217  1.0823  1.6545  1.5529
 3723SOL    HW222629   2.796   2.876  12.170 -2.7423 -0.1766 -0.0800
 3724SOL     OW22630   4.651   0.613   6.275 -0.3188 -0.0660  0.2065
 3724SOL    HW122631   4.601   0.672   6.332 -0.4446 -0.4070  0.4490
 3724SOL    HW222632   0.009   0.609   6.325 -0.8209 -1.2356  0.9403
 3725SOL     OW22633   1.323   1.084   2.870 -0.4457  0.3916 -0.5775
 3725SOL    HW122634   1.401   1.122   2.829 -0.8569  0.2637 -1.4806
 3725SOL    HW222635   1.312   1.129   2.954  1.8138 -0.0870 -0.0066
 3726SOL     OW22636   2.697   0.310  15.515  0.0347  0.2101 -0.4678
 3726SOL    HW122637   2.676   0.403  15.527  1.5066  0.5608 -0.5514
 3726SOL    HW222638   2.755   0.310  15.591 -0.7872  0.3433  0.1582
 3727SOL     OW22639   3.053   2.821   6.677  0.3666 -0.1957 -0.8842
 3727SOL    HW122640   2.968   2.779   6.685 -0.2769  1.0922 -1.0020
 3727SOL    HW222641   3.065   2.853   6.587 -0.8688  1.7384 -0.3721
 3728SOL     OW22642   2.755   0.847   5.914 -0.1734  0.5753 -0.3209
 3728SOL    HW122643   2.703   0.854   5.994  0.5560  0.2156  0.1832
 3728SOL    HW222644   2.822   0.913   5.935  1.0416 -0.7009 -0.1682
 3729SOL     OW22645   0.581   1.569   9.844 -0.0906 -0.4256 -0.3453
 3729SOL    HW122646   0.554   1.486   9.884  1.9487 -1.1225 -0.4311
 3729SOL    HW222647   0.553   1.561   9.753 -2.9279  1.9165  0.3350
 3730SOL     OW22648   0.386   0.523   4.970  0.3349  0.6889 -0.3483
 3730SOL    HW122649   0.367   0.429   4.968 -1.2507  1.0142 -0.0830
 3730SOL    HW222650   0.405   0.561   4.885 -1.7511  1.0466 -0.6441
 3731SOL     OW22651   3.204   0.554   7.529 -0.1677 -0.2095  0.5400
 3731SOL    HW122652   3.233   0.472   7.488 -1.8620 -0.6271  0.1883
 3731SOL    HW222653   3.266   0.616   7.491 -2.3952  1.6891  0.0626
 3732SOL     OW22654   2.556   0.125   9.864 -0.2356 -0.9690  0.3371
 3732SOL    HW122655   2.571   0.185   9.937  1.7456 -0.3993 -0.5187
 3732SOL    HW222656   2.616   0.166   9.802  0.1837  0.5927  1.7939
 3733SOL     OW22657   2.332   1.952   7.817  0.8082  0.1869 -0.4331
 3733SOL    HW122658   2.420   1.964   7.854  3.1793 -0.6770 -5.7905
 3733SOL    HW222659   2.288   1.897   7.882  0.5445  1.2117  0.2651
 3734SOL     OW22660   3.283   2.647   6.686 -0.0372 -0.3784  0.5678
 3734SOL    HW122661   3.246   2.585   6.749  0.7373 -2.1056 -0.6822
 3734SOL    HW222662   3.202   2.697   6.673  0.1703 -0.5130 -1.2903
 3735SOL     OW22663   3.624   2.500   5.028 -0.4525  0.4475  0.1379
 3735SOL    HW122664   3.608   2.594   5.038  2.7907  0.9611  0.4920
 3735SOL    HW222665   3.718   2.512   5.026 -0.1571 -1.5457  2.2261
 3736SOL     OW22666   1.050   4.276   9.494  0.7769  0.3167 -0.3380
 3736SOL    HW122667   1.108   4.346   9.463 -1.2209  2.9515  1.7740
 3736SOL    HW222668   1.119   4.228   9.541  2.2431  2.9882  0.2661
 3737SOL     OW22669   0.628   0.846   9.046  0.2858  0.3867 -0.1692
 3737SOL    HW122670   0.559   0.899   9.006  0.1264 -1.1571 -1.9103
 3737SOL    HW222671   0.589   0.817   9.128  1.3895  2.9343  1.2540
 3738SOL     OW22672   3.695   3.293  16.508  0.0469 -0.2368  0.4211
 3738SOL    HW122673   3.627   3.233  16.476  1.2314 -1.3509 -0.0017
 3738SOL    HW222674   3.763   3.231  16.535  0.3189 -0.1368 -0.0393
 3739SOL     OW22675   1.466   1.444   4.588 -0.4082  0.2723  0.1272
 3739SOL    HW122676   1.371   1.457   4.588 -0.3427  0.7000  1.8310
 3739SOL    HW222677   1.465   1.348   4.585 -1.6309  0.3120 -0.7191
 3740SOL     OW22678   2.690   1.563   9.605  0.3975  0.3668  0.6331
 3740SOL    HW122679   2.776   1.576   9.565  0.3408 -0.4252  0.2419
 3740SOL    HW222680   2.680   1.650   9.642  1.7954  0.3013  1.1579
 3741SOL     OW22681   0.759   1.347   2.981  0.0472  0.1056  0.1932
 3741SOL    HW122682   0.796   1.351   2.893 -0.6994  3.2538  0.0166
 3741SOL    HW222683   0.799   1.267   3.016 -2.6291 -0.5023  1.8615
 3742SOL     OW22684   0.596   1.644   0.884 -0.1357  0.1237  0.3805
 3742SOL    HW122685   0.545   1.659   0.963 -1.8303  1.9205 -1.0675
 3742SOL    HW222686   0.524   1.623   0.825  0.9432 -1.2244 -0.4670
 3743SOL     OW22687   2.147   3.996   2.721 -0.2552 -0.2015  0.6024
 3743SOL    HW122688   2.149   4.091   2.729  0.7011 -0.3799  2.3913
 3743SOL    HW222689   2.193   3.989   2.637 -0.4121  0.3247  0.4753
 3744SOL     OW22690   3.363   4.032   8.449 -0.1530  0.1064 -0.0198
 3744SOL    HW122691   3.446   4.071   8.422 -0.3414  0.0729 -0.6454
 3744SOL    HW222692   3.309   4.110   8.461  0.5970  0.8152 -1.2375
 3745SOL     OW22693   2.249   4.393   8.902  0.0958 -0.8674  0.1790
 3745SOL    HW122694   2.272   4.309   8.863  1.3197  0.2342 -1.4642
 3745SOL    HW222695   2.175   4.360   8.953  0.3429 -1.4515  0.1604
 3746SOL     OW22696   2.298   3.670   2.234 -0.6212 -0.1200 -0.1160
 3746SOL    HW122697   2.249   3.682   2.152  2.1537  2.0145 -1.5186
 3746SOL    HW222698   2.219   3.679   2.286  0.6194  1.8909  1.4312
 3747SOL     OW22699   2.540   0.866   3.789  0.2027  0.3731 -0.6048
 3747SOL    HW122700   2.582   0.787   3.754  1.7095  0.7384  0.3905
 3747SOL    HW222701   2.499   0.829   3.867  0.6285  1.8502  0.3126
 3748SOL     OW22702   3.098   0.471  10.463 -0.0000  0.0217 -0.1602
 3748SOL    HW122703   3.157   0.439  10.530  0.4288 -0.7820 -0.9246
 3748SOL    HW222704   3.064   0.387  10.432 -0.1456 -0.0513  0.1995
 3749SOL     OW22705   3.181   3.751   2.427  0.2003 -0.1907 -0.3213
 3749SOL    HW122706   3.189   3.712   2.514 -0.1960 -1.2388 -0.7621
 3749SOL    HW222707   3.264   3.727   2.386 -0.5372 -1.6310 -0.9597
 3750SOL     OW22708   1.175   0.996  12.655 -0.0098 -0.6898  0.4302
 3750SOL    HW122709   1.245   0.962  12.598 -1.0710 -1.4579 -0.4132
 3750SOL    HW222710   1.110   0.925  12.650 -0.6018 -0.1706  0.8321
 3751SOL     OW22711   4.049   4.101   7.649 -0.2551  0.3668  0.0932
 3751SOL    HW122712   3.985   4.091   7.719 -0.8343  0.0329 -0.4829
 3751SOL    HW222713   3.990   4.122   7.576 -2.6957  0.3630  2.0932
 3752SOL     OW22714   0.756   1.734   9.965  0.2976 -0.4441 -0.4222
 3752SOL    HW122715   0.706   1.680   9.905  0.5809 -2.6282  1.3078
 3752SOL    HW222716   0.737   1.694  10.050  0.4582 -0.1360 -0.2385
 3753SOL     OW22717   2.704   3.247   6.001  0.0611  0.6315 -0.6203
 3753SOL    HW122718   2.746   3.201   6.074 -1.2841  1.5335  0.7318
 3753SOL    HW222719   2.671   3.169   5.957  0.2390  0.1165  0.1588
 3754SOL     OW22720   1.491   2.737   4.030 -0.3153  0.2959  0.3070
 3754SOL    HW122721   1.435   2.751   3.954  2.9701 -1.0540 -2.3126
 3754SOL    HW222722   1.436   2.749   4.108 -1.4600  1.0666 -0.6165
 3755SOL     OW22723   2.548   3.068  12.185 -0.4557 -0.6715  0.4099
 3755SOL    HW122724   2.467   3.039  12.227 -1.2373 -0.4197 -0.9204
 3755SOL    HW222725   2.594   3.109  12.258 -0.4813  1.7090 -0.9182
 3756SOL     OW22726   3.716   0.007   7.352  0.2769 -0.1022 -0.2605
 3756SOL    HW122727   3.664   4.660   7.313 -1.2954  1.5146 -1.1249
 3756SOL    HW222728   3.781   0.012   7.281  2.0718 -1.2046  1.3177
 3757SOL     OW22729   0.484   0.753   5.579  0.4225  0.0816 -0.0528
 3757SOL    HW122730   0.440   0.823   5.628  0.1561 -0.3566  0.3306
 3757SOL    HW222731   0.461   0.777   5.490  0.2923  0.2195  0.0184
 3758SOL     OW22732   0.457   4.399   9.533  0.5981 -0.1813 -0.6285
 3758SOL    HW122733   0.494   4.471   9.585 -1.2190 -0.4093  0.9876
 3758SOL    HW222734   0.375   4.436   9.499  1.3267  0.5011 -1.6515
 3759SOL     OW22735   2.993   1.843   7.231 -0.8716  0.1172 -0.0090
 3759SOL    HW122736   3.027   1.923   7.271 -0.0086 -0.1254 -0.2617
 3759SOL    HW222737   2.939   1.814   7.304  0.9302 -2.1891  0.3970
 3760SOL     OW22738   0.207   1.679   3.769  0.2812 -0.3294  0.5628
 3760SOL    HW122739   0.160   1.615   3.822  1.6412 -0.4030  1.6949
 3760SOL    HW222740   0.139   1.686   3.703 -0.0167  1.2131  1.0396
 3761SOL     OW22741   1.858   1.405   5.442  0.0892  0.1933 -1.2119
 3761SOL    HW122742   1.836   1.403   5.348 -1.1242 -1.5990 -0.8833
 3761SOL    HW222743   1.860   1.311   5.456 -0.0856  0.2052 -1.1102
 3762SOL     OW22744   2.609   2.362   5.649  0.2288 -0.5838  0.5422
 3762SOL    HW122745   2.537   2.410   5.609  2.1150 -1.4165 -3.8522
 3762SOL    HW222746   2.637   2.305   5.577 -1.5554  1.5874 -1.8341
 3763SOL     OW22747   2.645   4.309   8.585 -0.2998  0.3187  0.3514
 3763SOL    HW122748   2.666   4.359   8.664 -3.5353  1.2436  0.6526
 3763SOL    HW222749   2.559   4.348   8.565 -0.9261 -0.4693  1.5325
 3764SOL     OW22750   0.300   0.729   8.934 -0.0392 -1.0772 -0.7390
 3764SOL    HW122751   0.211   0.744   8.967  1.1466  0.9921  1.5111
 3764SOL    HW222752   0.343   0.706   9.016 -1.4949  1.3976  0.7104
 3765SOL     OW22753   1.372   3.216   0.838 -0.1988 -0.4665  0.3518
 3765SOL    HW122754   1.286   3.214   0.880  0.0668  0.6080  0.9395
 3765SOL    HW222755   1.399   3.124   0.842 -0.5960 -0.5780  0.4464
 3766SOL     OW22756   2.096   2.616   6.745  0.0744  0.1747  0.2283
 3766SOL    HW122757   2.049   2.695   6.774  2.4100  1.5395  0.3201
 3766SOL    HW222758   2.025   2.563   6.711 -0.3360  2.1116 -1.8888
 3767SOL     OW22759   1.838   3.348   2.102  0.0043 -0.3277 -0.1439
 3767SOL    HW122760   1.759   3.315   2.146 -1.5090  0.3316 -2.3548
 3767SOL    HW222761   1.858   3.265   2.058 -2.1392 -0.9462  0.0296
 3768SOL     OW22762   0.678   2.244  10.971  0.4075 -0.0297 -0.7195
 3768SOL    HW122763   0.731   2.178  11.014 -0.0497 -0.7612 -1.2722
 3768SOL    HW222764   0.594   2.206  10.996 -0.7573  1.9202 -1.6368
 3769SOL     OW22765   3.039   0.969   2.128  0.5598 -0.8235 -0.5548
 3769SOL    HW122766   3.009   0.952   2.218 -1.8502  1.7647 -0.8686
 3769SOL    HW222767   3.060   0.880   2.102 -0.9540 -1.5348  0.6349
 3770SOL     OW22768   0.622   3.191   3.742 -0.4452 -0.4856  0.4333
 3770SOL    HW122769   0.531   3.176   3.766 -0.1508 -0.0788  1.7535
 3770SOL    HW222770   0.635   3.114   3.685  0.3561 -0.8246  1.0793
 3771SOL     OW22771   3.581   3.893   3.208 -0.1408  0.0930  0.9691
 3771SOL    HW122772   3.612   3.903   3.297 -0.5833  2.7864  0.8425
 3771SOL    HW222773   3.490   3.889   3.237 -0.6005 -0.6924 -0.5446
 3772SOL     OW22774   2.525   0.791   3.302  0.1445  0.4822 -0.2063
 3772SOL    HW122775   2.606   0.784   3.352  0.6003 -1.7413 -1.2101
 3772SOL    HW222776   2.545   0.727   3.234  2.5751  1.6876 -0.6157
 3773SOL     OW22777   1.313   4.265   1.986  0.6563 -0.2698 -0.5328
 3773SOL    HW122778   1.231   4.314   1.991  1.2989  0.6681  0.7034
 3773SOL    HW222779   1.368   4.327   1.939  1.2829  0.6818  1.4791
 3774SOL     OW22780   0.824   2.885   5.843  0.4718 -0.0972 -0.7340
 3774SOL    HW122781   0.909   2.841   5.839 -0.5034 -2.0614  0.0722
 3774SOL    HW222782   0.803   2.900   5.751  3.1601  2.1506 -0.9745
 3775SOL     OW22783   0.377   3.478  11.414 -0.1061  0.3652 -0.2153
 3775SOL    HW122784   0.459   3.450  11.454 -0.1133  2.4791  1.2886
 3775SOL    HW222785   0.337   3.527  11.486 -3.3689 -0.6479 -1.3178
 3776SOL     OW22786   1.769   2.573   4.759 -0.8653  0.2973 -0.2748
 3776SOL    HW122787   1.853   2.529   4.745 -1.3691 -1.2186  1.5061
 3776SOL    HW222788   1.715   2.509   4.804  0.3876 -0.3759  0.2781
 3777SOL     OW22789   0.112   0.195   2.005 -0.1278 -0.3685 -0.0323
 3777SOL    HW122790   0.119   0.161   1.915  1.2747  0.1756 -0.1322
 3777SOL    HW222791   0.160   0.278   2.010  0.3139 -0.7295  1.7589
 3778SOL     OW22792   0.509   2.332   6.848  0.4352  0.1307 -0.2816
 3778SOL    HW122793   0.529   2.408   6.793  0.4389 -0.7015 -1.4139
 3778SOL    HW222794   0.450   2.371   6.913 -0.7233 -0.2068 -1.1275
 3779SOL     OW22795   1.444   2.301   4.272  0.3372  0.0136  0.1875
 3779SOL    HW122796   1.507   2.232   4.290  0.2943 -0.0249  0.1912
 3779SOL    HW222797   1.368   2.245   4.256 -0.5709  1.2938  0.0206
 3780SOL     OW22798   1.430   0.290   3.569  0.1173 -0.5725  0.0771
 3780SOL    HW122799   1.388   0.213   3.531 -1.0341  0.2452 -0.3315
 3780SOL    HW222800   1.463   0.335   3.491 -1.4374  0.8870  0.2549
 3781SOL     OW22801   0.859   3.802   6.488  0.5717 -0.4826  0.8013
 3781SOL    HW122802   0.807   3.725   6.464 -0.5681  0.3482  0.6333
 3781SOL    HW222803   0.936   3.754   6.519 -0.1824 -1.9395  0.4089
 3782SOL     OW22804   2.847   0.098  10.504  0.4978 -0.0463  0.3442
 3782SOL    HW122805   2.759   0.097  10.467 -0.7013 -2.3844  3.2970
 3782SOL    HW222806   2.860   0.003  10.496  1.5277  0.0321  1.0501
 3783SOL     OW22807   0.928   0.529  13.312  0.0784 -0.0011  0.3373
 3783SOL    HW122808   1.015   0.501  13.282 -1.4203 -1.2818 -2.8065
 3783SOL    HW222809   0.887   0.457  13.265 -0.4052  0.5168 -0.0437
 3784SOL     OW22810   4.545   4.078   2.783 -0.2866 -0.4182 -0.4666
 3784SOL    HW122811   4.475   4.108   2.725 -0.4056  0.6468  0.2400
 3784SOL    HW222812   4.539   3.983   2.769  1.9642 -0.9655  2.3736
 3785SOL     OW22813   0.076   4.141   8.254  0.2305  0.2931  0.0755
 3785SOL    HW122814   4.721   4.125   8.202  2.3558  4.0177 -4.3455
 3785SOL    HW222815   0.138   4.093   8.199  0.0558 -0.0492  0.1771
 3786SOL     OW22816   1.397   1.384   7.755 -0.1070  0.1236 -0.7902
 3786SOL    HW122817   1.368   1.365   7.666 -4.1142 -0.2049  0.5937
 3786SOL    HW222818   1.489   1.407   7.741 -0.5545  1.1741 -2.0116
 3787SOL     OW22819   1.962   0.211   5.495 -0.2974  0.1019 -0.6827
 3787SOL    HW122820   1.997   0.217   5.584 -1.5393 -2.2238 -0.0466
 3787SOL    HW222821   2.033   0.166   5.449 -1.3262 -0.6857 -1.4950
 3788SOL     OW22822   0.571   3.392   6.560  0.3310 -0.1113  0.3666
 3788SOL    HW122823   0.638   3.350   6.506  0.5675 -0.3216  0.8281
 3788SOL    HW222824   0.604   3.369   6.647 -1.0278 -0.0655  0.8900
 3789SOL     OW22825   4.675   3.779   6.710 -0.3095  0.0663 -0.3135
 3789SOL    HW122826   4.613   3.709   6.688 -0.7711  0.1739  0.6293
 3789SOL    HW222827   4.647   3.803   6.798  1.1697  0.5218  0.0326
 3790SOL     OW22828   1.228   2.141   4.181  0.1318 -1.0261 -0.1310
 3790SOL    HW122829   1.253   2.149   4.089  0.9867 -1.3364  0.0809
 3790SOL    HW222830   1.163   2.210   4.197 -0.0746 -0.5476 -3.0508
 3791SOL     OW22831   4.550   3.023   6.233 -0.3847  0.5778  0.0619
 3791SOL    HW122832   4.457   3.042   6.220 -0.7317  0.0752  1.8209
 3791SOL    HW222833   4.559   2.927   6.230 -0.5854  0.5964 -1.0297
 3792SOL     OW22834   3.527   0.131   4.558  0.5884  0.5229  0.5235
 3792SOL    HW122835   3.568   0.188   4.623 -0.5099  1.3312  0.5097
 3792SOL    HW222836   3.448   0.101   4.604 -0.6014  2.4119 -0.3049
 3793SOL     OW22837   0.776   1.611   2.062  0.8764  0.4665  0.2967
 3793SOL    HW122838   0.752   1.628   2.153  0.5088  1.1766  0.0664
 3793SOL    HW222839   0.843   1.543   2.068  0.2007 -0.1364  1.1708
 3794SOL     OW22840   1.550   0.209  12.433 -0.3695  0.0298  0.2303
 3794SOL    HW122841   1.479   0.147  12.452  0.7803 -1.3084  0.1370
 3794SOL    HW222842   1.509   0.263  12.366  1.7158  0.9742 -0.2869
 3795SOL     OW22843   0.366   0.125   9.145  0.4887  0.5797 -0.7761
 3795SOL    HW122844   0.324   0.144   9.229 -1.1583 -0.0369 -1.4628
 3795SOL    HW222845   0.351   0.031   9.138 -0.6666  0.6721  0.4566
 3796SOL     OW22846   1.086   1.032   7.011 -0.4158  0.1252 -0.0998
 3796SOL    HW122847   1.160   1.056   7.068  0.3697  1.5689 -1.7311
 3796SOL    HW222848   1.094   1.099   6.943  2.5936 -0.8696 -0.7437
 3797SOL     OW22849   2.592   3.654   1.889  0.3128 -0.0489 -0.2944
 3797SOL    HW122850   2.607   3.648   1.984 -1.8305  1.4077  0.1149
 3797SOL    HW222851   2.528   3.725   1.884 -0.8297 -1.1363 -1.0425
 3798SOL     OW22852   2.462   1.620   6.004  0.2444 -0.0501 -0.4772
 3798SOL    HW122853   2.450   1.652   6.093  1.2683 -0.8836 -0.0479
 3798SOL    HW222854   2.475   1.697   5.948 -2.5163  0.9647  0.2465
 3799SOL     OW22855   0.229   2.678  10.868 -0.0553 -0.5128  0.1317
 3799SOL    HW122856   0.199   2.745  10.806 -0.9955 -1.8904 -0.9059
 3799SOL    HW222857   0.324   2.685  10.858 -0.2007  0.4970 -0.5368
 3800SOL     OW22858   1.537   3.526   7.789 -0.4185  0.2031  0.1968
 3800SOL    HW122859   1.491   3.459   7.840 -0.3916  3.1900  4.1249
 3800SOL    HW222860   1.560   3.486   7.705  1.6515  0.5577  0.5933
 3801SOL     OW22861   2.136   4.183   9.132 -0.1759  0.0239  0.1404
 3801SOL    HW122862   2.066   4.198   9.195 -1.5316 -1.2130 -1.0618
 3801SOL    HW222863   2.094   4.222   9.055 -1.5403 -1.3517  0.1902
 3802SOL     OW22864   0.315   3.010   5.147  0.1398  0.1319  0.1424
 3802SOL    HW122865   0.249   2.943   5.166  0.8584  0.1119  2.4793
 3802SOL    HW222866   0.317   3.037   5.055 -2.1726 -0.8489 -0.1973
 3803SOL     OW22867   0.637   0.263   9.179  0.0018 -0.3135 -0.8176
 3803SOL    HW122868   0.639   0.177   9.139 -0.8729 -0.7330  0.0568
 3803SOL    HW222869   0.584   0.257   9.258 -0.2961  1.7280 -0.8448
 3804SOL     OW22870   1.421   3.660   2.069 -0.3951 -0.4308 -0.1896
 3804SOL    HW122871   1.376   3.624   2.146  0.0208  1.6834  1.0454
 3804SOL    HW222872   1.415   3.755   2.077  2.5717 -0.3586  1.1687
 3805SOL     OW22873   1.832   3.269   5.248  0.7543  0.8594  0.0780
 3805SOL    HW122874   1.815   3.192   5.193 -1.8864  3.1052 -2.2207
 3805SOL    HW222875   1.755   3.253   5.303  1.9737  0.6830  1.7292
 3806SOL     OW22876   3.923   4.243  13.806  0.6890 -0.3178  0.0318
 3806SOL    HW122877   3.858   4.209  13.744 -1.8517  2.4483  1.1745
 3806SOL    HW222878   3.880   4.247  13.892  2.0021 -0.7172  0.6950
 3807SOL     OW22879   3.693   3.822   9.260  0.1613 -0.2088  0.2586
 3807SOL    HW122880   3.694   3.730   9.289 -0.2712 -0.3123 -0.0578
 3807SOL    HW222881   3.612   3.827   9.210  0.1859 -2.7573 -0.0640
 3808SOL     OW22882   4.429   0.170  11.507  0.2490 -0.0812 -0.9025
 3808SOL    HW122883   4.510   0.191  11.461  1.0455 -1.9446 -0.3489
 3808SOL    HW222884   4.371   0.204  11.439 -0.4140  2.6462  1.0113
 3809SOL     OW22885   1.499   0.618   5.257  0.0509  0.3118 -0.1666
 3809SOL    HW122886   1.503   0.564   5.335  1.2739 -0.0332 -0.4770
 3809SOL    HW222887   1.507   0.708   5.289  2.6946 -0.1073  0.3036
 3810SOL     OW22888   1.619   1.257   8.994 -0.4052  0.8754  0.2502
 3810SOL    HW122889   1.659   1.200   9.060  0.1160  2.7942  1.5945
 3810SOL    HW222890   1.653   1.338   9.031  1.9205  0.5148 -1.1471
 3811SOL     OW22891   0.648   4.001   9.367 -0.6647  0.4015  0.2832
 3811SOL    HW122892   0.718   4.026   9.428  0.9738 -0.4263 -1.2759
 3811SOL    HW222893   0.649   3.906   9.357 -0.4110  0.4435 -0.0645
 3812SOL     OW22894   2.951   0.872  17.069  0.1954  0.0091  0.1155
 3812SOL    HW122895   2.937   0.923  16.990 -0.5417  0.5898  0.6272
 3812SOL    HW222896   2.978   0.945  17.124 -0.8997  0.6236 -0.1823
 3813SOL     OW22897   1.730   2.578   3.117  0.3538  0.1249  0.4629
 3813SOL    HW122898   1.697   2.640   3.052  1.6126  0.6540  0.3220
 3813SOL    HW222899   1.741   2.629   3.197  1.7445  0.9154 -0.2246
 3814SOL     OW22900   1.879   1.707   6.964  0.0419  0.2122  0.2867
 3814SOL    HW122901   1.905   1.799   6.969 -0.5373  0.2520  2.5216
 3814SOL    HW222902   1.898   1.672   7.051  2.0653  0.6289  0.0054
 3815SOL     OW22903   4.092   2.534   6.460  0.4257 -0.0398 -0.2076
 3815SOL    HW122904   4.024   2.584   6.504 -0.1782 -0.2506 -0.9183
 3815SOL    HW222905   4.108   2.458   6.517  1.8918  1.1286  0.9474
 3816SOL     OW22906   3.195   3.074   4.228 -0.1624  0.1158 -0.6053
 3816SOL    HW122907   3.161   3.129   4.157  2.5649  3.0303  0.3832
 3816SOL    HW222908   3.165   2.990   4.192  1.4981 -0.3948 -0.7824
 3817SOL     OW22909   3.999   1.292   3.007 -0.4036 -0.0538 -0.5915
 3817SOL    HW122910   3.999   1.296   3.103  2.2808 -1.7520 -0.5365
 3817SOL    HW222911   4.088   1.259   2.997 -0.3082 -0.0797  0.3344
 3818SOL     OW22912   2.330   0.904   3.450 -0.0728  0.6906 -0.2204
 3818SOL    HW122913   2.389   0.957   3.503 -1.4626  0.7318  1.2964
 3818SOL    HW222914   2.384   0.856   3.388 -0.1071  1.3119 -0.7341
 3819SOL     OW22915   4.295   1.640   0.291  0.3083 -0.5410 -0.0592
 3819SOL    HW122916   4.314   1.715   0.234  2.6948  0.6495  2.2754
 3819SOL    HW222917   4.216   1.663   0.339  0.7534  2.6350 -0.8949
 3820SOL     OW22918   4.445   0.594   0.638 -0.0869  0.1156  0.2654
 3820SOL    HW122919   4.533   0.620   0.668 -0.3546  1.2938  0.0453
 3820SOL    HW222920   4.443   0.632   0.550  3.7083 -0.5109 -0.1219
 3821SOL     OW22921   0.856   2.543   8.597 -0.4259  0.5521  0.5029
 3821SOL    HW122922   0.781   2.585   8.639  0.6448  2.4619  0.5337
 3821SOL    HW222923   0.931   2.576   8.647 -0.0293 -1.7933  1.4444
 3822SOL     OW22924   1.202   0.851  15.919  0.1036  0.0084 -0.0423
 3822SOL    HW122925   1.141   0.924  15.905 -0.6730 -0.3676  1.2976
 3822SOL    HW222926   1.222   0.884  16.007  0.7313 -2.4972  0.7722
 3823SOL     OW22927   2.777   4.295   5.783 -0.2444 -0.4590  0.7680
 3823SOL    HW122928   2.746   4.298   5.874 -0.5999 -2.1319  0.7081
 3823SOL    HW222929   2.858   4.343   5.800 -0.6777  0.3032  0.6790
 3824SOL     OW22930   1.518   2.942  17.363 -0.1092 -0.1638  0.4560
 3824SOL    HW122931   1.527   2.872  17.299 -2.6651 -0.7216  0.6991
 3824SOL    HW222932   1.434   2.980  17.337  1.1535  2.7566  0.6748
 3825SOL     OW22933   1.718   1.100   5.275  0.2678 -0.5617 -0.2894
 3825SOL    HW122934   1.729   1.046   5.197  0.1485 -1.0384  0.0243
 3825SOL    HW222935   1.676   1.177   5.236  1.2325 -0.5080 -1.2457
 3826SOL     OW22936   3.480   0.293  11.876 -0.4695  0.0951  0.4907
 3826SOL    HW122937   3.556   0.272  11.931 -0.6763 -0.3583  0.6030
 3826SOL    HW222938   3.509   0.375  11.835  0.5490  0.0636  1.1386
 3827SOL     OW22939   4.715   1.474   1.734  0.2337 -0.2686 -0.1314
 3827SOL    HW122940   4.704   1.569   1.735  1.5433 -0.1136 -0.8150
 3827SOL    HW222941   0.076   1.459   1.777 -0.9044  1.8402  2.8723
 3828SOL     OW22942   2.582   1.442   6.877 -0.2141 -0.1200  0.7453
 3828SOL    HW122943   2.633   1.432   6.958 -1.4059 -0.1618  1.4979
 3828SOL    HW222944   2.623   1.519   6.838 -0.3879 -1.9989 -3.1690
 3829SOL     OW22945   3.214   2.502   8.828 -0.6165  0.2155 -0.5109
 3829SOL    HW122946   3.268   2.458   8.762  0.3759  0.6634  0.0161
 3829SOL    HW222947   3.241   2.591   8.806  1.6588  0.2024  2.3228
 3830SOL     OW22948   1.897   4.181  13.780  0.3349 -0.5706  0.0345
 3830SOL    HW122949   1.961   4.252  13.786  1.4878 -1.4181 -1.9844
 3830SOL    HW222950   1.940   4.125  13.715  0.3548  0.0504 -0.4832
 3831SOL     OW22951   3.872   2.110   2.354 -0.0179  0.1915 -0.6236
 3831SOL    HW122952   3.778   2.103   2.335  0.3478 -1.0098 -2.0646
 3831SOL    HW222953   3.909   2.075   2.273 -0.3822  0.4907 -0.9206
 3832SOL     OW22954   0.938   4.681   6.573  0.4361  0.7746 -0.3843
 3832SOL    HW122955   1.030   4.706   6.564  0.8032 -1.0512 -1.8091
 3832SOL    HW222956   0.911   4.658   6.484  1.4668 -1.1162 -0.2287
 3833SOL     OW22957   1.350   4.554  15.639  0.2574  0.4000 -1.3119
 3833SOL    HW122958   1.387   4.530  15.723  0.3994  1.1610 -1.1520
 3833SOL    HW222959   1.430   4.565  15.588  0.7112 -1.5670 -1.0144
 3834SOL     OW22960   1.729   3.270   7.975 -0.2241  0.1433 -0.3968
 3834SOL    HW122961   1.726   3.174   7.984 -0.3694  0.1833 -0.0295
 3834SOL    HW222962   1.676   3.307   8.046  0.3297  0.9149 -0.3894
 3835SOL     OW22963   4.311   1.969  13.187 -0.0761  0.1105 -0.8236
 3835SOL    HW122964   4.396   1.937  13.158 -0.2046  0.7794 -1.9372
 3835SOL    HW222965   4.338   2.022  13.262 -0.4460 -3.0255  1.5282
 3836SOL     OW22966   2.244   3.899   3.067 -0.3469  0.2056 -0.2140
 3836SOL    HW122967   2.255   3.832   2.999 -1.0090  0.9526 -1.0600
 3836SOL    HW222968   2.321   3.955   3.052  0.6009 -0.6733  1.3972
 3837SOL     OW22969   3.661   4.348  10.931  0.0299 -0.1005  0.2306
 3837SOL    HW122970   3.723   4.376  10.863  1.6065 -0.2374  1.6170
 3837SOL    HW222971   3.608   4.279  10.892  0.0647 -0.4071  0.7239
 3838SOL     OW22972   3.670   3.154   8.528 -0.6718 -0.2046  0.1766
 3838SOL    HW122973   3.708   3.212   8.594  0.6330  0.7779 -1.4414
 3838SOL    HW222974   3.621   3.214   8.472 -0.3197 -0.5387 -0.4768
 3839SOL     OW22975   2.261   4.065   2.248  0.2400 -0.4438 -0.0906
 3839SOL    HW122976   2.256   4.018   2.165  0.4989 -0.2137 -0.2349
 3839SOL    HW222977   2.282   4.152   2.214 -1.1947  1.0719  2.8069
 3840SOL     OW22978   0.850   4.381  10.422  0.2165  0.3577  0.1276
 3840SOL    HW122979   0.772   4.397  10.476 -0.5786 -1.2485 -0.5594
 3840SOL    HW222980   0.845   4.286  10.414  1.5422  0.2573  0.4699
 3841SOL     OW22981   3.250   3.537   3.210  0.3648  0.2222 -0.1481
 3841SOL    HW122982   3.293   3.495   3.136 -1.3953 -0.4073 -0.8053
 3841SOL    HW222983   3.325   3.534   3.270  1.4289  1.0137 -1.4409
 3842SOL     OW22984   4.137   2.879   7.559 -0.5389  0.3694 -0.2948
 3842SOL    HW122985   4.190   2.804   7.534  0.2443  0.3332  1.5526
 3842SOL    HW222986   4.160   2.900   7.649  0.9313  1.0627 -0.8311
 3843SOL     OW22987   0.730   3.256   1.880  0.5460  0.0444  0.0355
 3843SOL    HW122988   0.792   3.245   1.808 -0.2178  0.1127 -0.6379
 3843SOL    HW222989   0.763   3.327   1.934  1.2159 -1.3182  1.4305
 3844SOL     OW22990   3.400   0.231  11.561  0.0675  0.2700 -0.4823
 3844SOL    HW122991   3.371   0.310  11.607 -0.8869 -0.8298  0.8159
 3844SOL    HW222992   3.324   0.175  11.573  0.7624 -0.4280  0.6876
 3845SOL     OW22993   3.308   1.093   0.589 -0.0407  0.1037 -0.2758
 3845SOL    HW122994   3.348   1.177   0.608 -0.1603 -0.0433  0.6279
 3845SOL    HW222995   3.256   1.087   0.669 -0.1548  2.2026 -0.2108
 3846SOL     OW22996   0.485   0.259   0.633 -0.5330  0.3902 -0.4453
 3846SOL    HW122997   0.569   0.244   0.590  0.3218  4.9212 -0.3534
 3846SOL    HW222998   0.510   0.225   0.719 -1.8914 -0.3256 -0.3293
 3847SOL     OW22999   1.566   3.952   7.754 -0.1705  0.2513 -0.1115
 3847SOL    HW123000   1.631   3.971   7.686  1.1687 -1.6413  0.6290
 3847SOL    HW223001   1.549   4.029   7.808 -2.2158  0.8852 -1.6670
 3848SOL     OW23002   0.981   2.621   8.038 -0.3040 -0.0376  0.5009
 3848SOL    HW123003   0.917   2.590   8.102 -1.6359  0.3160 -0.6667
 3848SOL    HW223004   0.983   2.553   7.971 -0.7196 -1.1933  1.6596
 3849SOL     OW23005   0.947   4.405  13.927 -0.6460 -0.6604 -0.1640
 3849SOL    HW123006   0.977   4.364  13.846 -0.0356 -0.2167 -0.1545
 3849SOL    HW223007   0.887   4.474  13.901 -0.7324 -0.2882  1.0136
 3850SOL     OW23008   3.983   0.880  11.752  0.0089  0.2325  0.4556
 3850SOL    HW123009   3.917   0.836  11.698 -0.1421  0.6803  0.2789
 3850SOL    HW223010   3.930   0.943  11.800 -1.4627  0.3388 -1.3025
 3851SOL     OW23011   2.325   0.537   8.805 -0.7732 -0.9010 -0.6515
 3851SOL    HW123012   2.407   0.552   8.853 -2.0485  0.4318  1.1185
 3851SOL    HW223013   2.298   0.455   8.844 -1.9792 -0.7066 -1.0761
 3852SOL     OW23014   2.346   1.558   4.879 -0.3465  0.4486  0.0767
 3852SOL    HW123015   2.338   1.463   4.876  0.1261  0.4047  0.0699
 3852SOL    HW223016   2.349   1.577   4.785 -0.1272  2.0564  0.4062
 3853SOL     OW23017   3.973   3.598   7.736  0.2384 -0.3925 -0.6041
 3853SOL    HW123018   3.879   3.581   7.731 -0.0052  0.6664  0.5187
 3853SOL    HW223019   3.988   3.596   7.830 -0.6884 -1.2595 -0.4700
 3854SOL     OW23020   3.968   4.308   6.075  0.0790  0.0135  0.0979
 3854SOL    HW123021   3.907   4.335   6.144 -0.4839  1.8483 -1.1202
 3854SOL    HW223022   3.932   4.341   5.993 -0.5512  2.1214  1.2278
 3855SOL     OW23023   2.196   2.241   7.746  0.3633  1.0665  0.2517
 3855SOL    HW123024   2.159   2.294   7.816  2.0798 -0.1276  2.0606
 3855SOL    HW223025   2.287   2.222   7.769 -0.4837 -0.6105  2.1803
 3856SOL     OW23026   3.461   2.442   0.734  0.0423  0.2429 -0.2205
 3856SOL    HW123027   3.396   2.439   0.805  0.2530  0.9418  0.0005
 3856SOL    HW223028   3.443   2.354   0.703  1.7448  1.0596 -3.4532
 3857SOL     OW23029   3.581   4.416   2.707  0.4883  0.2627 -0.2649
 3857SOL    HW123030   3.627   4.382   2.784  0.9167 -0.1095 -0.6872
 3857SOL    HW223031   3.615   4.353   2.644  1.1867 -0.3102  0.6803
 3858SOL     OW23032   4.636   1.358   1.249  0.3328 -0.4275  0.6633
 3858SOL    HW123033   0.003   1.342   1.221 -0.0818 -1.0311 -0.3455
 3858SOL    HW223034   4.659   1.347   1.341  1.2892  0.6330  0.5502
 3859SOL     OW23035   2.321   2.387   3.058  0.1655 -0.0980 -0.2597
 3859SOL    HW123036   2.255   2.334   3.102 -0.0246  1.4069  1.2587
 3859SOL    HW223037   2.359   2.320   3.001  1.7297 -1.1882  2.0859
 3860SOL     OW23038   2.247   1.032   9.572  0.4214 -0.1315 -0.3940
 3860SOL    HW123039   2.303   1.107   9.550  1.8071 -1.1234 -0.2139
 3860SOL    HW223040   2.218   1.051   9.661  0.4852  2.2859 -0.8827
 3861SOL     OW23041   2.680   1.110   7.696 -0.5928 -0.0604 -0.1895
 3861SOL    HW123042   2.685   1.085   7.604 -1.5233  1.2784 -0.6175
 3861SOL    HW223043   2.618   1.050   7.736 -1.0345 -0.1703 -1.0491
 3862SOL     OW23044   3.587   0.939   6.616 -0.4176  0.4820  0.4742
 3862SOL    HW123045   3.638   0.981   6.686  1.5498  2.9754 -2.4917
 3862SOL    HW223046   3.544   1.019   6.586  0.8930  1.0111 -0.0351
 3863SOL     OW23047   1.866   0.292   2.934 -0.0849 -0.1707  0.1644
 3863SOL    HW123048   1.791   0.275   2.877  0.3515  0.5828 -0.6314
 3863SOL    HW223049   1.931   0.230   2.901  1.2167  1.0538  0.4131
 3864SOL     OW23050   2.404   3.063   6.598 -1.0130  0.2065  0.6144
 3864SOL    HW123051   2.445   3.102   6.520 -1.7808 -0.8414 -0.3092
 3864SOL    HW223052   2.347   3.134   6.629 -1.8810 -0.6717  1.0086
 3865SOL     OW23053   1.862   0.266   6.993  0.1387  0.5471  0.2539
 3865SOL    HW123054   1.844   0.312   7.075  1.0814 -0.2368  0.9073
 3865SOL    HW223055   1.771   0.251   6.967 -0.1299  2.8497 -0.1415
 3866SOL     OW23056   2.793   1.361  16.012  0.0970 -0.2549  0.8028
 3866SOL    HW123057   2.878   1.330  16.044  1.7635  2.4790 -0.9784
 3866SOL    HW223058   2.816   1.385  15.922 -0.0896  0.7662  1.0319
 3867SOL     OW23059   4.073   4.385   3.432  0.3801  0.0412  0.3786
 3867SOL    HW123060   4.000   4.448   3.436 -0.2486 -0.5634 -1.7222
 3867SOL    HW223061   4.058   4.347   3.345  0.4523 -0.4067  0.5622
 3868SOL     OW23062   4.079   0.067   9.203 -0.2525  0.0414  0.1144
 3868SOL    HW123063   4.069   4.711   9.254 -1.2327 -1.0339 -1.7554
 3868SOL    HW223064   4.157   0.046   9.151 -0.8355  1.2291 -1.2454
 3869SOL     OW23065   4.598   2.450   5.316 -0.3351 -0.0477  0.0149
 3869SOL    HW123066   4.687   2.465   5.349 -1.0429  2.6630  0.6716
 3869SOL    HW223067   4.611   2.469   5.223 -1.5614  0.7666  0.0122
 3870SOL     OW23068   3.339   1.932  11.749  0.1728 -0.1716  0.3927
 3870SOL    HW123069   3.364   1.852  11.702 -0.3195  0.1472 -0.3981
 3870SOL    HW223070   3.287   1.890  11.818 -0.6462  1.2784  0.6456
 3871SOL     OW23071   0.307   1.111  15.842  0.3152 -0.0099 -0.4279
 3871SOL    HW123072   0.326   1.142  15.754  2.3466  1.2168  0.4379
 3871SOL    HW223073   0.379   1.060  15.878  1.2234 -0.7263 -3.3215
 3872SOL     OW23074   2.596   1.923   8.992  0.4401  0.2403 -0.1870
 3872SOL    HW123075   2.555   1.857   9.048 -0.0289 -1.3457 -2.4053
 3872SOL    HW223076   2.547   1.907   8.911  1.3421  0.4489 -0.7759
 3873SOL     OW23077   0.179   2.782   4.051  0.2844 -0.3088  0.0720
 3873SOL    HW123078   0.140   2.839   3.984 -2.3354 -3.0150 -0.7459
 3873SOL    HW223079   0.122   2.705   4.051 -0.4869  0.2618 -0.7410
 3874SOL     OW23080   1.288   1.726   5.717 -0.6255 -0.2737 -0.1230
 3874SOL    HW123081   1.222   1.753   5.654 -1.3108 -0.1368  0.6577
 3874SOL    HW223082   1.289   1.632   5.703 -1.6062 -0.1951 -0.7508
 3875SOL     OW23083   3.620   4.542   6.486  0.5519  0.7265 -0.3085
 3875SOL    HW123084   3.690   4.599   6.517 -1.2808  1.7666  1.8930
 3875SOL    HW223085   3.597   4.500   6.569  0.0570  0.5591 -0.5306
 3876SOL     OW23086   4.608   1.331   7.950 -0.4538 -0.0669 -0.2863
 3876SOL    HW123087   4.577   1.361   7.865 -1.1696  1.7149  0.5963
 3876SOL    HW223088   4.678   1.393   7.970 -1.1224  0.7731 -0.5841
 3877SOL     OW23089   3.545   2.234   4.352  0.3776  0.3840  0.1880
 3877SOL    HW123090   3.482   2.238   4.424  0.5449  0.9142  0.2991
 3877SOL    HW223091   3.520   2.309   4.297 -0.2221  0.5467  0.6797
 3878SOL     OW23092   1.421   0.895   4.876 -0.0184  0.3130 -0.1879
 3878SOL    HW123093   1.395   0.880   4.785 -0.2178  2.1475 -0.4339
 3878SOL    HW223094   1.338   0.883   4.922  0.8412 -1.5158  0.8911
 3879SOL     OW23095   3.035   2.095   7.063 -0.0422  0.2294 -0.0082
 3879SOL    HW123096   3.056   2.176   7.110  0.0961  1.2029 -1.7305
 3879SOL    HW223097   2.946   2.110   7.031  0.3921  1.3289 -0.7185
 3880SOL     OW23098   2.100   1.411  16.370  0.3038  0.0737 -0.7858
 3880SOL    HW123099   2.130   1.463  16.445  1.2453 -2.2494  0.4524
 3880SOL    HW223100   2.106   1.484  16.308  0.1444  1.3380  0.6617
 3881SOL     OW23101   3.461   3.052  11.563 -0.3085  0.3380 -0.0396
 3881SOL    HW123102   3.429   3.132  11.520 -2.2269 -0.8963 -0.9347
 3881SOL    HW223103   3.499   3.070  11.649  3.0376  0.9981 -1.6772
 3882SOL     OW23104   0.152   2.568   4.345 -0.1131 -0.0576 -0.1506
 3882SOL    HW123105   0.151   2.577   4.250 -2.2655  0.5856 -0.0710
 3882SOL    HW223106   0.075   2.619   4.370 -2.4499 -2.4546 -2.4307
 3883SOL     OW23107   4.422   1.833   4.505 -0.0072  0.1400 -0.0718
 3883SOL    HW123108   4.341   1.798   4.542 -0.3984 -0.0261 -1.0917
 3883SOL    HW223109   4.397   1.862   4.417  0.8469  1.1200  0.0069
 3884SOL     OW23110   2.182   0.108   7.354 -0.3838  0.4592  0.2277
 3884SOL    HW123111   2.158   0.093   7.445  0.7327  2.6314  0.8785
 3884SOL    HW223112   2.264   0.156   7.363 -0.0213 -0.0392 -0.4101
 3885SOL     OW23113   4.417   0.537  15.895 -0.6185  0.1176 -0.4229
 3885SOL    HW123114   4.343   0.570  15.945  1.3901  2.4372  1.0444
 3885SOL    HW223115   4.377   0.452  15.875 -0.8118 -0.3480  2.0202
 3886SOL     OW23116   1.454   3.318   4.057 -0.1016 -0.0409 -0.5356
 3886SOL    HW123117   1.445   3.395   4.114 -0.6046 -0.4850 -0.0141
 3886SOL    HW223118   1.360   3.306   4.042 -0.2217 -1.5083  1.3591
 3887SOL     OW23119   2.694   1.998   6.509  0.9341  0.3257  0.7496
 3887SOL    HW123120   2.661   1.912   6.538  2.8103 -0.5660  0.2466
 3887SOL    HW223121   2.688   2.054   6.586 -0.4979 -0.4913  1.2291
 3888SOL     OW23122   0.974   3.483   5.853 -0.4876 -0.6766 -0.0081
 3888SOL    HW123123   1.025   3.563   5.836 -0.7327 -0.7336 -0.9589
 3888SOL    HW223124   1.044   3.420   5.868  1.1142  1.1602  0.3434
 3889SOL     OW23125   0.612   3.601   1.834  0.8912  0.2223  0.1077
 3889SOL    HW123126   0.682   3.535   1.839 -0.1278 -0.9310 -0.8388
 3889SOL    HW223127   0.657   3.685   1.831 -0.4341  0.9179 -0.1108
 3890SOL     OW23128   2.003   1.908   9.402 -0.6413 -0.5534  0.0089
 3890SOL    HW123129   1.920   1.881   9.442  0.2114 -0.3809  1.9055
 3890SOL    HW223130   1.970   1.941   9.318  2.0841  0.2227 -0.7424
 3891SOL     OW23131   4.307   2.271   9.240  0.1469  0.1067  0.2974
 3891SOL    HW123132   4.304   2.193   9.295  0.1052  0.6711  1.0976
 3891SOL    HW223133   4.221   2.311   9.249 -0.8505 -2.1186  0.6360
 3892SOL     OW23134   4.043   0.689   9.461  0.1404 -0.2391 -0.3714
 3892SOL    HW123135   3.980   0.748   9.419 -0.7404  0.2272  1.5845
 3892SOL    HW223136   4.121   0.695   9.407 -0.9555  0.5887 -1.8572
 3893SOL     OW23137   2.309   1.393   4.046 -0.0088  0.3951 -0.1958
 3893SOL    HW123138   2.228   1.431   4.013 -0.6255 -0.5611  0.2198
 3893SOL    HW223139   2.302   1.406   4.140  0.6249 -2.4714  0.2609
 3894SOL     OW23140   0.800   0.984   4.309 -0.3951 -0.4541 -0.8125
 3894SOL    HW123141   0.715   1.022   4.289  1.0466  2.3001 -1.7849
 3894SOL    HW223142   0.815   1.031   4.392  0.1459 -0.7394 -0.7480
 3895SOL     OW23143   2.669   4.288   9.600  0.9887 -0.1394 -0.1773
 3895SOL    HW123144   2.589   4.327   9.635  0.1757 -0.8891 -1.1918
 3895SOL    HW223145   2.633   4.229   9.533 -2.0896  1.6911 -0.1387
 3896SOL     OW23146   3.130   1.155   6.575  0.2933  0.8099 -0.1517
 3896SOL    HW123147   3.175   1.149   6.659 -1.3834  0.4256  0.7315
 3896SOL    HW223148   3.187   1.218   6.531  0.7526  0.8254  0.4793
 3897SOL     OW23149   3.478   1.982   7.097  0.4225  0.4738  0.5331
 3897SOL    HW123150   3.443   1.893   7.093 -1.0552  1.1495 -1.3000
 3897SOL    HW223151   3.557   1.970   7.044  0.1138 -1.2234  0.4612
 3898SOL     OW23152   0.477   3.651   9.496 -0.0805  0.2990 -0.1213
 3898SOL    HW123153   0.413   3.597   9.542 -0.0438  0.9062  0.6476
 3898SOL    HW223154   0.488   3.596   9.419 -0.8776  1.6372 -1.1830
 3899SOL     OW23155   4.403   3.683  13.803 -0.4447  0.2533 -0.2411
 3899SOL    HW123156   4.454   3.713  13.878  1.4542  2.2867 -2.3475
 3899SOL    HW223157   4.330   3.745  13.814 -1.0631 -0.5002 -0.1306
 3900SOL     OW23158   0.082   2.415   3.700 -0.1829  0.4578  0.5679
 3900SOL    HW123159   4.720   2.452   3.721 -0.7928  0.3814 -1.7533
 3900SOL    HW223160   0.081   2.387   3.609 -0.7146 -1.8651  1.2975
 3901SOL     OW23161   3.206   4.088   6.105 -0.1841  0.4389  0.3209
 3901SOL    HW123162   3.221   4.045   6.189  2.9399  0.0133 -0.4674
 3901SOL    HW223163   3.217   4.182   6.122 -0.3257  0.4256  0.4889
 3902SOL     OW23164   1.031   0.754  12.621 -0.2319  0.0516  0.2806
 3902SOL    HW123165   1.007   0.703  12.698  1.1198 -0.8640  0.0872
 3902SOL    HW223166   0.992   0.703  12.549  1.9442 -1.9444  0.5040
 3903SOL     OW23167   2.496   2.767   2.275 -0.1874 -0.2984 -0.2603
 3903SOL    HW123168   2.461   2.841   2.225 -0.0045  0.2390  0.3985
 3903SOL    HW223169   2.437   2.694   2.255  1.0331 -1.0986 -0.9469
 3904SOL     OW23170   2.585   3.968  10.779  0.1894 -0.3031 -0.2794
 3904SOL    HW123171   2.668   4.014  10.793 -0.7878  1.7856 -1.3511
 3904SOL    HW223172   2.545   4.039  10.729  0.7766  0.3515  0.1837
 3905SOL     OW23173   1.257   4.711   6.330 -0.3444  0.6316 -0.0338
 3905SOL    HW123174   1.339   0.035   6.316 -0.6262  1.0815 -0.1436
 3905SOL    HW223175   1.248   4.714   6.425  2.3320  0.5446  0.2281
 3906SOL     OW23176   4.479   2.757   7.648  0.0673  0.2614  0.3668
 3906SOL    HW123177   4.446   2.843   7.674 -2.0054 -0.2919 -0.4533
 3906SOL    HW223178   4.568   2.754   7.684  0.0583 -1.7299  0.1897
 3907SOL     OW23179   0.091   4.650  17.604 -0.2411 -0.4650  0.1275
 3907SOL    HW123180   0.004   4.666  17.567 -0.2499  1.9822  1.1675
 3907SOL    HW223181   0.059   4.594  17.674  1.9729 -0.6539  0.9707
 3908SOL     OW23182   3.844   4.023   5.186  0.3297 -0.1353 -0.3997
 3908SOL    HW123183   3.923   3.977   5.213 -1.6959 -2.0318  2.3957
 3908SOL    HW223184   3.868   4.049   5.097  1.9388 -1.2939 -0.3110
 3909SOL     OW23185   2.663   1.336   7.138 -0.2844  0.5791  0.0667
 3909SOL    HW123186   2.741   1.335   7.193  0.7725  2.2157 -1.3941
 3909SOL    HW223187   2.625   1.255   7.171  0.1186  1.0874  1.7602
 3910SOL     OW23188   2.504   2.483   8.721  0.2021  0.4113 -0.0577
 3910SOL    HW123189   2.531   2.537   8.795 -1.8804  1.2089  0.0971
 3910SOL    HW223190   2.434   2.537   8.685  0.8252  1.1316 -0.1960
 3911SOL     OW23191   0.326   1.333   0.250 -0.4616  0.6627 -0.0081
 3911SOL    HW123192   0.296   1.250   0.288 -1.8122  1.3114  0.3348
 3911SOL    HW223193   0.419   1.325   0.269 -0.5049  0.6354  0.1858
 3912SOL     OW23194   2.098   3.815   6.460  0.4083 -0.9527  0.3879
 3912SOL    HW123195   2.108   3.901   6.420  2.5977 -1.0395  0.7616
 3912SOL    HW223196   2.027   3.841   6.520 -0.7250  3.0791 -2.7051
 3913SOL     OW23197   2.487   0.480  17.599  0.2442  0.3420  0.3721
 3913SOL    HW123198   2.511   0.387  17.599 -1.2017 -0.0266 -0.4530
 3913SOL    HW223199   2.555   0.501  17.664  2.0366  0.2973 -1.4727
 3914SOL     OW23200   1.961   0.605   3.740 -0.2728  0.3988  0.3282
 3914SOL    HW123201   2.003   0.629   3.657  1.2943 -0.1014  0.9625
 3914SOL    HW223202   2.029   0.555   3.786  1.6658  1.7085 -1.0795
 3915SOL     OW23203   1.241   1.616   1.980 -0.1773 -0.4185  0.2629
 3915SOL    HW123204   1.314   1.584   2.032 -1.0864 -0.9428  1.2354
 3915SOL    HW223205   1.279   1.598   1.894  0.0268 -0.0439  0.2730
 3916SOL     OW23206   2.764   1.511   4.195  0.6574 -0.2364 -0.1981
 3916SOL    HW123207   2.708   1.478   4.125  1.5793 -0.5188 -0.8008
 3916SOL    HW223208   2.792   1.592   4.151  0.2648  0.0826  0.1429
 3917SOL     OW23209   1.496   1.316   8.076 -0.3558 -0.5759  0.2881
 3917SOL    HW123210   1.510   1.277   7.990  0.4044 -2.2005  1.1522
 3917SOL    HW223211   1.416   1.366   8.063  1.3444  1.4744 -2.2339
 3918SOL     OW23212   4.365   1.379   8.159  0.0188  0.2129 -0.0463
 3918SOL    HW123213   4.374   1.297   8.109  1.2127  0.8069 -0.7917
 3918SOL    HW223214   4.450   1.384   8.203  1.0060 -1.2147 -1.7569
 3919SOL     OW23215   4.208   1.043  13.028 -0.4164 -0.4579  0.0927
 3919SOL    HW123216   4.301   1.052  13.045  0.0284 -0.8339 -2.1886
 3919SOL    HW223217   4.171   1.114  13.080  2.5677 -0.6602  2.5139
 3920SOL     OW23218   1.740   3.996   3.173  0.2073 -0.0351  0.4290
 3920SOL    HW123219   1.731   3.961   3.085  3.5860  0.4674 -0.0921
 3920SOL    HW223220   1.738   4.085   3.138  0.6625 -0.7911 -1.5029
 3921SOL     OW23221   2.870   3.685   8.423  0.1009 -0.1604 -0.1553
 3921SOL    HW123222   2.935   3.708   8.357 -0.6334 -1.0604 -1.1992
 3921SOL    HW223223   2.864   3.770   8.467 -0.2832 -1.7109  2.7831
 3922SOL     OW23224   1.086   2.578   8.738  0.3158  0.3703 -0.4612
 3922SOL    HW123225   1.147   2.548   8.671 -0.7829 -0.1094 -1.2577
 3922SOL    HW223226   1.151   2.625   8.790 -0.6040 -1.2160  2.1435
 3923SOL     OW23227   1.720   3.383  15.880 -0.4753 -0.1755  0.2779
 3923SOL    HW123228   1.724   3.405  15.787  2.0812 -0.9561  0.1970
 3923SOL    HW223229   1.630   3.350  15.876 -0.9804  0.9911  2.4868
 3924SOL     OW23230   0.605   1.477   8.188 -0.0015 -0.0728  0.0952
 3924SOL    HW123231   0.666   1.460   8.259 -1.2426  0.2394  1.2378
 3924SOL    HW223232   0.557   1.553   8.222  4.1691  2.2584  0.7819
 3925SOL     OW23233   1.559   4.282   0.141 -0.1027 -0.2000 -0.4904
 3925SOL    HW123234   1.553   4.187   0.147 -0.1833 -0.0850  1.1957
 3925SOL    HW223235   1.469   4.314   0.144  0.9306  2.5561  1.3828
 3926SOL     OW23236   1.228   4.681   3.977 -0.2329  0.5270 -0.7059
 3926SOL    HW123237   1.311   4.675   3.930  0.4799 -2.5404  0.9616
 3926SOL    HW223238   1.204   0.049   3.963  0.9942  0.4124 -3.4491
 3927SOL     OW23239   3.324   3.052   0.147 -0.2170 -0.2392  0.8572
 3927SOL    HW123240   3.379   2.996   0.093  1.2059  0.7993  1.2054
 3927SOL    HW223241   3.293   2.994   0.216 -0.7363 -1.6606 -0.5672
 3928SOL     OW23242   3.369   2.042  17.434  0.0580 -0.5157 -0.0200
 3928SOL    HW123243   3.403   2.068  17.519 -1.0829 -0.2593  0.3588
 3928SOL    HW223244   3.290   2.013  17.479 -0.3319 -1.7454 -1.4843
 3929SOL     OW23245   0.664   0.534  11.729 -0.5830  0.0305 -0.2418
 3929SOL    HW123246   0.622   0.536  11.815 -0.8729  1.6021 -0.4195
 3929SOL    HW223247   0.689   0.625  11.714 -2.4896  0.4987 -0.4734
 3930SOL     OW23248   3.303   2.289   9.036  0.3639 -0.0748 -0.6220
 3930SOL    HW123249   3.240   2.225   9.004  1.3806 -0.8609 -1.0543
 3930SOL    HW223250   3.266   2.367   8.994 -0.1779 -0.6948 -1.2764
 3931SOL     OW23251   0.023   3.190   2.519  0.3974 -0.4237 -1.3253
 3931SOL    HW123252   4.717   3.251   2.587  0.7535 -0.9487 -0.6872
 3931SOL    HW223253   4.667   3.165   2.473 -0.3991 -0.4581  0.0561
 3932SOL     OW23254   0.670   2.517   5.753 -0.5943 -0.0755 -0.0056
 3932SOL    HW123255   0.656   2.423   5.758 -1.2188 -0.0126 -0.5135
 3932SOL    HW223256   0.718   2.537   5.833 -1.4654  2.5271 -0.1367
 3933SOL     OW23257   2.655   3.720   7.248 -0.6814  0.3720  0.3369
 3933SOL    HW123258   2.741   3.711   7.206 -0.3269 -0.4831  1.2518
 3933SOL    HW223259   2.667   3.747   7.339 -0.7916 -1.0247  0.7660
 3934SOL     OW23260   1.493   4.140   4.712  0.2282  0.1198 -0.2673
 3934SOL    HW123261   1.516   4.055   4.675  1.0978  0.6966 -1.0477
 3934SOL    HW223262   1.404   4.145   4.677  0.6821 -0.8779 -1.5346
 3935SOL     OW23263   4.388   4.518  11.944  0.1562  0.6321 -0.0534
 3935SOL    HW123264   4.305   4.531  11.989  0.0959 -2.5467  0.6821
 3935SOL    HW223265   4.362   4.543  11.855  1.1932  0.6584 -0.3561
 3936SOL     OW23266   0.562   1.286   0.330 -0.4678  0.1789 -0.5897
 3936SOL    HW123267   0.548   1.240   0.413 -1.4877 -1.5227 -1.6958
 3936SOL    HW223268   0.655   1.271   0.316  0.4522  2.5311  3.1056
 3937SOL     OW23269   4.298   3.615  17.457 -0.0294  0.1783 -0.4982
 3937SOL    HW123270   4.284   3.709  17.467  1.3655  0.2609  0.7621
 3937SOL    HW223271   4.325   3.594  17.546 -0.7329  0.2831 -0.2562
 3938SOL     OW23272   3.564   4.389   4.310 -0.3803  0.3017 -0.0672
 3938SOL    HW123273   3.562   4.306   4.358 -1.4449  0.3274 -0.0469
 3938SOL    HW223274   3.622   4.442   4.364  0.6900  0.1424 -1.0568
 3939SOL     OW23275   4.709   0.073   2.218  0.1971  0.1208 -1.0764
 3939SOL    HW123276   0.078   0.051   2.232 -0.4679 -1.4572  0.8191
 3939SOL    HW223277   4.719   0.127   2.139  4.2118  0.6558 -0.1991
 3940SOL     OW23278   1.215   2.980   1.620 -0.4889  0.2291  0.0808
 3940SOL    HW123279   1.238   3.055   1.675  0.6562 -0.3004  0.3408
 3940SOL    HW223280   1.294   2.925   1.619 -0.6361 -0.0123  1.2697
 3941SOL     OW23281   4.213   1.162   2.898  0.1067 -0.1695 -0.0266
 3941SOL    HW123282   4.302   1.196   2.885  1.0100 -2.7061 -0.4743
 3941SOL    HW223283   4.225   1.121   2.983 -1.4946 -0.3546  0.1031
 3942SOL     OW23284   2.010   4.078   2.070  0.1171  0.4703 -0.2645
 3942SOL    HW123285   1.929   4.027   2.076  0.8875 -0.8203 -0.8488
 3942SOL    HW223286   2.075   4.010   2.053  1.2182  0.6993  3.0812
 3943SOL     OW23287   0.545   0.351   4.720  0.1703  0.5721 -0.0826
 3943SOL    HW123288   0.482   0.385   4.656 -0.4332  0.1435  0.2857
 3943SOL    HW223289   0.513   0.261   4.716  0.1237  0.6434 -1.3255
 3944SOL     OW23290   3.336   2.513   7.603  0.8650 -0.1057 -0.2316
 3944SOL    HW123291   3.426   2.531   7.629  0.3976  0.4052  1.0176
 3944SOL    HW223292   3.315   2.446   7.668  0.7778  0.6591  0.5318
 3945SOL     OW23293   3.795   3.572   6.224 -0.1501  0.4203  0.3205
 3945SOL    HW123294   3.758   3.504   6.168 -0.0315  1.2329 -0.7461
 3945SOL    HW223295   3.713   3.602   6.263 -1.2974 -2.9812  0.5092
 3946SOL     OW23296   3.628   1.477  13.347  0.3103 -0.2344 -0.6739
 3946SOL    HW123297   3.588   1.478  13.260 -1.5719 -0.7095  0.1941
 3946SOL    HW223298   3.573   1.544  13.388  0.8792  0.3315 -0.8354
 3947SOL     OW23299   3.870   0.390  11.926  0.2787  0.4923 -1.2206
 3947SOL    HW123300   3.854   0.484  11.932 -2.9497 -0.1759  0.7320
 3947SOL    HW223301   3.960   0.383  11.956 -0.2637  0.7913  0.5102
 3948SOL     OW23302   0.999   4.471  12.194  0.4759 -0.6448 -0.0696
 3948SOL    HW123303   1.005   4.470  12.290  1.4191 -0.0427 -0.1241
 3948SOL    HW223304   1.064   4.405  12.171 -0.6837 -1.6126 -0.5534
 3949SOL     OW23305   2.031   0.052  13.539  0.5036  0.2410 -0.0018
 3949SOL    HW123306   2.113   0.065  13.586  0.4410  0.5545  0.0208
 3949SOL    HW223307   1.975   0.081  13.610 -0.4442  1.1585 -1.1145
 3950SOL     OW23308   1.146   3.010   5.966  0.6938  0.0881 -0.0260
 3950SOL    HW123309   1.221   2.998   6.025  0.1975  0.5941  0.7091
 3950SOL    HW223310   1.119   2.920   5.951 -0.2123 -0.1843  3.3870
 3951SOL     OW23311   2.189   4.100   6.390 -0.6480  0.0778  0.2650
 3951SOL    HW123312   2.153   4.174   6.440 -0.7689  0.2843 -0.1266
 3951SOL    HW223313   2.207   4.137   6.303 -2.6042 -1.5468 -0.8255
 3952SOL     OW23314   0.600   3.648   7.390 -0.3972 -0.2629  0.7611
 3952SOL    HW123315   0.581   3.742   7.387  0.2584 -0.1870 -1.0888
 3952SOL    HW223316   0.679   3.642   7.336  0.4948  0.3180  2.0209
 3953SOL     OW23317   4.291   3.089   4.042  0.3638 -0.3137 -0.6430
 3953SOL    HW123318   4.378   3.117   4.071  0.2215  0.2699 -0.7847
 3953SOL    HW223319   4.305   3.085   3.947  2.7176 -0.5219 -0.2834
 3954SOL     OW23320   0.941   2.660   4.159 -0.1835 -0.1146 -0.8284
 3954SOL    HW123321   1.003   2.601   4.202 -0.7776 -0.6334 -0.6855
 3954SOL    HW223322   0.892   2.599   4.105  1.4278 -2.0919 -0.0472
 3955SOL     OW23323   0.286   0.101  10.038  0.7150 -0.3514  0.1751
 3955SOL    HW123324   0.197   0.065  10.035  0.9401 -0.7630 -1.4934
 3955SOL    HW223325   0.285   0.166  10.109 -0.9408  1.6350 -1.6611
 3956SOL     OW23326   2.337   1.689  17.151  0.2260  0.7149 -0.0576
 3956SOL    HW123327   2.274   1.732  17.208 -0.5073 -1.4390  0.7768
 3956SOL    HW223328   2.391   1.759  17.116  0.0588  0.6406 -0.4706
 3957SOL     OW23329   3.315   0.959   9.078 -0.1984 -0.0972  0.6756
 3957SOL    HW123330   3.376   0.898   9.119 -0.7351 -1.8202 -1.0958
 3957SOL    HW223331   3.233   0.921   9.108 -0.9951  2.8239  2.2296
 3958SOL     OW23332   3.289   4.697   9.252  0.2550 -0.5253 -0.0946
 3958SOL    HW123333   3.216   4.685   9.312 -0.3675 -1.3102 -1.0127
 3958SOL    HW223334   3.345   4.647   9.311  1.4559  0.6078 -0.2718
 3959SOL     OW23335   2.096   4.526   0.425  0.1279 -0.1586  0.0193
 3959SOL    HW123336   2.161   4.456   0.430  0.6867  0.3515 -0.1242
 3959SOL    HW223337   2.155   4.601   0.421 -0.5099  0.4339  1.4732
 3960SOL     OW23338   4.384   0.636  15.280 -0.3692 -0.2577 -0.2233
 3960SOL    HW123339   4.362   0.632  15.373  0.3115  0.1989 -0.0411
 3960SOL    HW223340   4.443   0.711  15.278  1.5607 -1.7889 -0.5926
 3961SOL     OW23341   2.620   4.441  14.990  0.1210 -0.1268  0.3439
 3961SOL    HW123342   2.681   4.468  14.922 -1.0146 -0.2181 -0.7024
 3961SOL    HW223343   2.556   4.389  14.942 -0.7265  0.9054  0.3743
 3962SOL     OW23344   3.656   4.711   6.797 -0.2687 -1.2622  0.9246
 3962SOL    HW123345   3.563   4.705   6.774  0.0740 -2.7998 -0.0640
 3962SOL    HW223346   3.647   4.713   6.892 -1.1578 -0.3571  0.8280
 3963SOL     OW23347   1.570   3.920   1.803 -0.0025 -0.0060  0.4440
 3963SOL    HW123348   1.609   3.834   1.785 -2.1565 -0.9539  0.3651
 3963SOL    HW223349   1.476   3.905   1.813  0.0021 -0.0659  0.3939
 3964SOL     OW23350   2.214   4.010  11.290  0.8049  0.0062  0.4091
 3964SOL    HW123351   2.218   3.928  11.338  0.3173 -0.3450 -0.1485
 3964SOL    HW223352   2.213   3.976  11.200 -0.0218  1.2151 -0.0484
 3965SOL     OW23353   0.646   4.067   7.887  0.0815 -0.0362  0.6712
 3965SOL    HW123354   0.594   4.068   7.806  1.2164 -0.7047 -0.0716
 3965SOL    HW223355   0.657   3.972   7.890 -0.6277 -0.0780  1.7915
 3966SOL     OW23356   3.481   0.686   6.268 -0.3715  0.0437  0.1403
 3966SOL    HW123357   3.555   0.691   6.207 -0.6102 -2.0162 -0.3218
 3966SOL    HW223358   3.452   0.596   6.248  0.8475 -0.5691  1.1438
 3967SOL     OW23359   0.256   2.824  14.636  0.2558 -0.0064 -0.4533
 3967SOL    HW123360   0.349   2.846  14.630  0.0303  1.2216  0.4622
 3967SOL    HW223361   0.210   2.900  14.673 -1.9599 -0.6037 -1.9342
 3968SOL     OW23362   2.967   0.503  11.003 -0.1154  0.5017 -0.0267
 3968SOL    HW123363   2.941   0.412  11.013  0.3855  0.2114 -1.3005
 3968SOL    HW223364   2.978   0.499  10.908 -0.1693  3.4396 -0.1573
 3969SOL     OW23365   1.621   0.895  17.249 -0.4772 -0.3001 -0.0270
 3969SOL    HW123366   1.600   0.917  17.340  1.9051  0.7468  0.2519
 3969SOL    HW223367   1.673   0.816  17.258  0.2997  0.2047 -0.0492
 3970SOL     OW23368   0.662   3.159  17.420 -0.4251 -0.6047 -0.0799
 3970SOL    HW123369   0.620   3.245  17.428  0.8764  0.1253 -1.1165
 3970SOL    HW223370   0.754   3.180  17.403 -0.6970 -0.0829 -0.8831
 3971SOL     OW23371   1.935   4.696   9.065  0.4662 -0.1781 -0.0351
 3971SOL    HW123372   1.844   4.716   9.044  0.0442 -1.6314  0.4090
 3971SOL    HW223373   1.970   0.057   9.037  0.4060  0.2386  1.1264
 3972SOL     OW23374   2.662   0.536   4.659  0.1243  0.1907  0.0149
 3972SOL    HW123375   2.668   0.584   4.742  0.1077  1.9269 -0.9920
 3972SOL    HW223376   2.690   0.610   4.605 -0.8015  0.6826  0.2081
 3973SOL     OW23377   1.691   0.825   3.616  0.7819 -0.8416  0.0071
 3973SOL    HW123378   1.683   0.770   3.695  1.7447 -1.0248 -0.0190
 3973SOL    HW223379   1.691   0.914   3.652  0.2834 -0.5615 -0.7050
 3974SOL     OW23380   0.475   3.746  17.400 -0.2076  0.1679 -0.4303
 3974SOL    HW123381   0.462   3.838  17.424  0.3774  0.0027  0.4982
 3974SOL    HW223382   0.416   3.751  17.324  1.2771  1.6813 -1.4752
 3975SOL     OW23383   2.786   0.856   3.504 -0.1967  0.3603 -0.5155
 3975SOL    HW123384   2.807   0.933   3.451 -2.1052  0.0658 -1.7205
 3975SOL    HW223385   2.780   0.895   3.591  4.7597 -0.3655  0.1224
 3976SOL     OW23386   0.076   1.057   5.307 -0.5641  0.0646 -0.3833
 3976SOL    HW123387   0.160   1.101   5.305  0.7656 -2.3610  1.6128
 3976SOL    HW223388   0.037   1.088   5.389 -1.7942  2.0462 -1.7369
 3977SOL     OW23389   4.049   2.869  15.941  0.1490  0.1309 -0.0905
 3977SOL    HW123390   4.123   2.918  15.976 -1.8296  1.0204  2.9163
 3977SOL    HW223391   4.035   2.910  15.856 -0.3597 -0.5100 -0.3165
 3978SOL     OW23392   0.811   3.193   7.850  0.2056 -0.4371 -0.6783
 3978SOL    HW123393   0.898   3.203   7.811  0.6401  0.3294  0.5095
 3978SOL    HW223394   0.830   3.147   7.932  0.7054 -0.3768 -0.7577
 3979SOL     OW23395   2.441   2.466   4.358 -0.2131  0.5269 -0.8218
 3979SOL    HW123396   2.361   2.413   4.359  1.1530 -1.5414 -2.7972
 3979SOL    HW223397   2.420   2.530   4.289 -0.9140  1.9120  0.6748
 3980SOL     OW23398   0.695   3.771  17.603  0.4583  0.2093  0.1513
 3980SOL    HW123399   0.622   3.732  17.555  1.1084  0.3472 -0.9384
 3980SOL    HW223400   0.654   3.837  17.659 -0.5528 -0.1583 -0.1572
 3981SOL     OW23401   4.042   2.484   6.899 -0.1841 -0.3714  0.3199
 3981SOL    HW123402   4.107   2.428   6.942  1.7628  1.9033  0.2920
 3981SOL    HW223403   4.062   2.572   6.931  0.8305 -0.6551  0.4681
 3982SOL     OW23404   2.354   2.460  15.603 -0.8380 -0.5194  0.3418
 3982SOL    HW123405   2.263   2.456  15.632 -0.7201 -0.2058  0.7482
 3982SOL    HW223406   2.378   2.372  15.574 -0.6656 -0.2553 -0.3307
 3983SOL     OW23407   3.472   3.700   1.872 -0.8534 -0.1590  0.2906
 3983SOL    HW123408   3.558   3.737   1.854 -0.1863 -0.8695  2.0320
 3983SOL    HW223409   3.418   3.778   1.881 -0.3425  0.0951  1.0731
 3984SOL     OW23410   0.643   0.355   4.258 -0.0295 -0.1589 -0.0399
 3984SOL    HW123411   0.658   0.267   4.290 -0.6458 -0.1559  0.2697
 3984SOL    HW223412   0.728   0.392   4.281  0.5513 -1.8272  0.4702
 3985SOL     OW23413   2.415   3.651   1.649 -0.6252  0.3306  0.7576
 3985SOL    HW123414   2.436   3.744   1.648  0.2523  0.1261 -0.6538
 3985SOL    HW223415   2.488   3.620   1.703  0.2850 -2.3139 -1.9905
 3986SOL     OW23416   2.645   1.712   3.372  0.3567  0.5720  0.2406
 3986SOL    HW123417   2.612   1.732   3.284 -1.6431 -1.9597  0.4162
 3986SOL    HW223418   2.576   1.752   3.425 -1.5043 -3.6578  1.0283
 3987SOL     OW23419   2.020   4.523   3.729 -0.0135  0.0613  0.3051
 3987SOL    HW123420   2.032   4.557   3.641 -1.4620  0.3354  0.2163
 3987SOL    HW223421   2.106   4.537   3.768 -0.0537 -0.7404  0.6990
 3988SOL     OW23422   0.677   2.367   1.132  0.0269  0.1333 -0.1869
 3988SOL    HW123423   0.668   2.461   1.149  0.4016 -0.1817  1.7121
 3988SOL    HW223424   0.753   2.347   1.187 -0.3099 -1.0898 -0.1671
 3989SOL     OW23425   2.738   0.308   0.559  0.2266 -0.0951 -0.5677
 3989SOL    HW123426   2.748   0.401   0.578  1.3623 -0.4243  0.4650
 3989SOL    HW223427   2.646   0.293   0.579  1.1331 -1.7624  2.3606
 3990SOL     OW23428   3.751   1.399   0.458  0.0773 -0.4967  0.2131
 3990SOL    HW123429   3.783   1.314   0.428  1.4599 -1.1087  3.3829
 3990SOL    HW223430   3.663   1.375   0.486 -0.5237  0.3561 -0.9483
 3991SOL     OW23431   0.253   3.259   7.920  0.2250  0.1286 -0.0198
 3991SOL    HW123432   0.215   3.280   8.005  0.2737 -0.7920  0.2331
 3991SOL    HW223433   0.347   3.241   7.925 -0.1070 -1.0613  1.9560
 3992SOL     OW23434   3.229   1.110   7.290 -0.2624  0.5554 -0.1483
 3992SOL    HW123435   3.227   1.105   7.385 -0.6887 -0.7962 -0.2280
 3992SOL    HW223436   3.306   1.166   7.280  0.6038 -0.7818 -0.9404
 3993SOL     OW23437   0.127   3.245  12.027 -0.3519  0.4271  0.2168
 3993SOL    HW123438   0.081   3.325  12.053 -2.9319 -1.1893  0.5822
 3993SOL    HW223439   0.128   3.249  11.931  0.1558  0.0230  0.2065
 3994SOL     OW23440   4.531   4.091  16.150  0.0568  0.5017 -0.4977
 3994SOL    HW123441   4.596   4.097  16.080 -0.0619  0.8072 -0.5814
 3994SOL    HW223442   4.470   4.163  16.135 -1.4278 -0.2035  2.1005
 3995SOL     OW23443   1.014   3.971   7.180 -0.2435 -0.8706  0.1165
 3995SOL    HW123444   1.029   3.918   7.102 -1.7750  0.2555 -0.9491
 3995SOL    HW223445   0.992   4.055   7.141 -0.2638 -0.9342 -0.0077
 3996SOL     OW23446   2.318   0.471   7.792  0.3880 -0.1108 -0.3946
 3996SOL    HW123447   2.283   0.532   7.856 -2.3936  0.0753 -2.0599
 3996SOL    HW223448   2.343   0.527   7.718 -1.0325  0.2964 -0.5715
 3997SOL     OW23449   4.708   3.541   6.263 -0.2383 -0.3291 -0.1510
 3997SOL    HW123450   4.680   3.507   6.347 -1.6724  0.6934 -0.2122
 3997SOL    HW223451   0.068   3.502   6.239  0.4558  0.0991  1.5873
 3998SOL     OW23452   1.182   4.179   4.978 -0.0185 -0.1565  0.5227
 3998SOL    HW123453   1.127   4.120   5.030 -0.2654  1.5435  2.2072
 3998SOL    HW223454   1.218   4.219   5.057 -0.8211  1.8783 -0.1530
 3999SOL     OW23455   1.696   2.788  15.495 -0.1648 -0.2817 -0.2722
 3999SOL    HW123456   1.710   2.855  15.562  0.2007 -1.0591  0.4230
 3999SOL    HW223457   1.602   2.774  15.509 -0.0893 -0.9693 -0.4565
 4000SOL     OW23458   1.632   0.323   8.875  0.2873 -0.0374  0.0664
 4000SOL    HW123459   1.538   0.340   8.882  0.4851  0.5582  1.3131
 4000SOL    HW223460   1.641   0.309   8.781  0.9428  1.1561 -0.0376
 4001SOL     OW23461   2.622   1.841   9.633 -0.0291  0.6414 -0.0894
 4001SOL    HW123462   2.666   1.867   9.552  0.2220 -0.4168 -0.2948
 4001SOL    HW223463   2.626   1.919   9.688  1.1192  0.5587 -0.0436
 4002SOL     OW23464   2.266   0.789  16.236 -0.2849  0.0409 -0.0655
 4002SOL    HW123465   2.289   0.879  16.260 -2.4154  0.8764 -1.2159
 4002SOL    HW223466   2.349   0.750  16.208  0.4440  1.1436  0.5599
 4003SOL     OW23467   2.019   0.086  10.966 -0.5386  0.5217  0.1792
 4003SOL    HW123468   2.072   0.093  10.886  0.3052 -0.5357  0.6421
 4003SOL    HW223469   2.089   0.096  11.031 -0.6893  0.9126  0.2763
 4004SOL     OW23470   3.901   0.263  11.696  0.1159 -0.1141  0.1873
 4004SOL    HW123471   3.812   0.276  11.663  0.6622  0.2008 -1.1589
 4004SOL    HW223472   3.889   0.303  11.782 -0.5053  0.6577 -0.2482
 4005SOL     OW23473   4.203   2.403   3.359 -0.2058  0.5122  0.5180
 4005SOL    HW123474   4.211   2.311   3.385  1.2953 -0.1320 -2.2949
 4005SOL    HW223475   4.126   2.419   3.413  1.7104  3.6304  2.3452
 4006SOL     OW23476   4.172   3.343   9.438 -0.0782  0.9243 -0.0340
 4006SOL    HW123477   4.093   3.385   9.474 -0.0134  3.2588 -2.5864
 4006SOL    HW223478   4.169   3.255   9.475  1.7801  1.5894  1.6779
 4007SOL     OW23479   0.964   2.981   1.919  0.5982 -0.5070 -0.4096
 4007SOL    HW123480   0.942   3.070   1.891 -0.2648 -1.3391 -2.3846
 4007SOL    HW223481   0.934   2.979   2.010  1.9644  0.1048  0.0589
 4008SOL     OW23482   2.003   1.929   5.945  0.6042 -0.2677  0.6642
 4008SOL    HW123483   1.971   2.020   5.946 -0.6158 -0.7087  1.4767
 4008SOL    HW223484   1.930   1.871   5.926 -0.8935  1.1039  2.1327
 4009SOL     OW23485   1.281   0.254   6.722  0.1687 -0.3467  0.8727
 4009SOL    HW123486   1.338   0.329   6.711 -0.7152 -0.0536 -1.7867
 4009SOL    HW223487   1.296   0.221   6.811 -2.2056  0.3631  1.5390
 4010SOL     OW23488   4.665   2.071   6.783 -0.4430  0.0861  0.2047
 4010SOL    HW123489   0.031   2.101   6.767 -0.6068  1.3819  1.7230
 4010SOL    HW223490   4.659   2.065   6.878 -0.9521  1.0148  0.2378
 4011SOL     OW23491   0.078   3.190   1.926  0.3654  0.1132 -0.0279
 4011SOL    HW123492   0.069   3.186   1.831  0.4819 -0.6930 -0.0027
 4011SOL    HW223493   0.064   3.097   1.942 -3.4665  0.3310 -2.3435
 4012SOL     OW23494   4.561   3.869  14.460 -0.5612 -0.4098 -0.3187
 4012SOL    HW123495   4.519   3.929  14.399 -1.9627  0.5450  1.5947
 4012SOL    HW223496   4.489   3.848  14.519  0.4939  1.2063  1.5433
 4013SOL     OW23497   4.702   2.814   7.774  0.2358 -0.0523  0.0036
 4013SOL    HW123498   0.004   2.904   7.792  0.4151 -0.5257  2.1706
 4013SOL    HW223499   0.061   2.770   7.794  0.8234  1.0685  0.0016
 4014SOL     OW23500   0.441   0.633   5.214  0.1063 -0.2701  0.1828
 4014SOL    HW123501   0.471   0.723   5.203 -2.9054  0.6181 -0.7788
 4014SOL    HW223502   0.416   0.617   5.123 -1.2293  1.9634  0.1785
 4015SOL     OW23503   1.859   4.364   3.394  0.3615 -0.0691 -0.2365
 4015SOL    HW123504   1.799   4.354   3.468 -0.9403  2.5084 -0.9468
 4015SOL    HW223505   1.914   4.288   3.410  1.3898  0.4472 -1.3827
 4016SOL     OW23506   2.114   3.902   4.000  0.6158  0.3110  0.2262
 4016SOL    HW123507   2.087   3.931   4.087  0.7907  0.1807  0.3248
 4016SOL    HW223508   2.074   3.974   3.951 -0.8241 -1.1854 -0.7501
 4017SOL     OW23509   0.874   0.845   7.932 -0.4941 -0.2531  0.3611
 4017SOL    HW123510   0.895   0.799   7.851 -2.6115 -2.7105  1.2063
 4017SOL    HW223511   0.915   0.926   7.903  1.2143 -1.7775 -1.4564
 4018SOL     OW23512   0.956   0.173   5.153  0.3681  0.5731 -0.8372
 4018SOL    HW123513   1.024   0.107   5.163 -0.5963 -0.1253  1.2095
 4018SOL    HW223514   0.901   0.163   5.231  2.1097  2.4500  0.6295
 4019SOL     OW23515   2.215   3.494  11.510  0.1334 -0.1043  0.4108
 4019SOL    HW123516   2.154   3.507  11.437  0.2239 -0.0807  0.3401
 4019SOL    HW223517   2.229   3.400  11.519 -0.4393 -0.1067  1.2455
 4020SOL     OW23518   0.139   0.939   6.778 -0.3223  0.5519  0.3612
 4020SOL    HW123519   0.065   0.998   6.764 -1.4585 -0.9457 -0.0186
 4020SOL    HW223520   0.126   0.921   6.871 -0.7049  2.8793  0.7572
 4021SOL     OW23521   1.563   0.082   1.921  0.0359 -0.3486  0.1808
 4021SOL    HW123522   1.588   0.135   1.845 -2.6036  0.0925 -0.3990
 4021SOL    HW223523   1.544   0.153   1.982 -3.8199 -1.9689  0.8433
 4022SOL     OW23524   2.140   1.129   9.786 -0.2936 -0.8914  0.3642
 4022SOL    HW123525   2.160   1.169   9.871  0.5124  1.3871 -0.9229
 4022SOL    HW223526   2.066   1.180   9.753 -0.5458 -1.3631  0.1924
 4023SOL     OW23527   0.972   4.510   5.106 -0.3810 -0.0375  0.7531
 4023SOL    HW123528   0.920   4.430   5.102  0.5956 -0.5962 -0.7853
 4023SOL    HW223529   0.969   4.535   5.013 -0.6905  0.0893  0.7952
 4024SOL     OW23530   1.460   0.091   7.204  0.4585  0.6179 -0.6363
 4024SOL    HW123531   1.406   0.132   7.273  0.5415 -0.2777 -0.0404
 4024SOL    HW223532   1.551   0.097   7.231  0.1917  1.7980  0.0408
 4025SOL     OW23533   1.254   2.563  13.298  0.0249 -0.1277 -0.2134
 4025SOL    HW123534   1.312   2.596  13.367 -0.1401  2.0357 -1.1123
 4025SOL    HW223535   1.186   2.511  13.340  0.1787  0.1182  0.3404
 4026SOL     OW23536   4.419   2.837   2.822 -0.5581 -0.1914  0.4120
 4026SOL    HW123537   4.491   2.811   2.880  0.7416  0.9709 -0.6754
 4026SOL    HW223538   4.403   2.757   2.771 -0.3330  2.1288 -3.2614
 4027SOL     OW23539   4.233   4.210  10.384  0.6581 -0.2039  0.2146
 4027SOL    HW123540   4.267   4.290  10.423 -2.6084  0.3695  1.9166
 4027SOL    HW223541   4.145   4.231  10.354  0.1821  0.9244  2.4424
 4028SOL     OW23542   0.052   0.141   6.161 -0.2330  0.3554 -0.3248
 4028SOL    HW123543   4.722   0.203   6.211 -0.2817  0.3244 -0.3388
 4028SOL    HW223544   0.083   0.200   6.092 -3.3348  1.2160 -0.9893
 4029SOL     OW23545   0.653   4.432  12.244 -0.5994 -0.3693 -0.2699
 4029SOL    HW123546   0.689   4.469  12.163  1.9923 -0.9772  0.6180
 4029SOL    HW223547   0.718   4.370  12.274 -0.3675 -0.0951 -0.2074
 4030SOL     OW23548   2.043   0.131   3.612 -0.5654 -0.6695 -0.5119
 4030SOL    HW123549   2.077   0.129   3.702 -0.3344 -0.9740 -0.6045
 4030SOL    HW223550   1.949   0.149   3.614  0.3547  3.8387  1.7802
 4031SOL     OW23551   0.907   1.100   7.859 -0.0704  0.6421  0.3362
 4031SOL    HW123552   0.997   1.134   7.853 -0.4439  1.1808 -2.1341
 4031SOL    HW223553   0.864   1.171   7.811 -2.1237 -2.3499 -2.1969
 4032SOL     OW23554   0.939   2.581   6.244  0.2871  0.5479  0.0847
 4032SOL    HW123555   0.891   2.539   6.316 -0.2883  1.2992  0.1379
 4032SOL    HW223556   1.009   2.518   6.226 -0.0004  0.5795 -1.1360
 4033SOL     OW23557   1.451   0.822   7.750 -0.0912 -0.3501  0.7186
 4033SOL    HW123558   1.413   0.874   7.821  0.0042  0.3947  0.2282
 4033SOL    HW223559   1.494   0.889   7.696 -1.1257  0.9409  1.4831
 4034SOL     OW23560   3.259   2.768   3.432  0.4357 -0.0303  0.9129
 4034SOL    HW123561   3.190   2.757   3.367  1.7822 -0.8601 -0.3739
 4034SOL    HW223562   3.337   2.787   3.380 -1.0284  0.3104 -1.1610
 4035SOL     OW23563   1.324   3.805   7.729 -0.3167  0.2268 -0.0927
 4035SOL    HW123564   1.399   3.865   7.731 -0.6124  0.6594 -2.5795
 4035SOL    HW223565   1.364   3.722   7.702 -2.5643 -1.4012  1.5816
 4036SOL     OW23566   1.576   0.989   7.557 -0.2315  0.2258  0.1482
 4036SOL    HW123567   1.633   1.059   7.526  0.5850 -0.6026 -0.2113
 4036SOL    HW223568   1.500   1.013   7.504 -0.0374 -0.7937 -0.5971
 4037SOL     OW23569   2.650   4.572   4.128 -0.5161 -0.2695 -0.7143
 4037SOL    HW123570   2.666   4.654   4.082 -0.3728  0.2843  0.3376
 4037SOL    HW223571   2.724   4.552   4.186  1.2250 -2.1402 -3.5591
 4038SOL     OW23572   0.785   3.207   0.310  0.5935  0.2534  0.0884
 4038SOL    HW123573   0.804   3.272   0.242  1.3501 -1.2220 -1.1341
 4038SOL    HW223574   0.760   3.262   0.384 -0.4698 -2.0050  1.4010
 4039SOL     OW23575   0.557   1.912   4.450 -0.5590 -0.1134  0.4745
 4039SOL    HW123576   0.483   1.963   4.417  1.1864  1.0114 -1.6814
 4039SOL    HW223577   0.560   1.849   4.378 -0.3076 -3.1156  3.1096
 4040SOL     OW23578   0.300   4.121  10.516 -0.2409  0.2410 -0.3742
 4040SOL    HW123579   0.230   4.135  10.579 -0.1982 -0.1869 -0.2330
 4040SOL    HW223580   0.305   4.026  10.518  1.3977  0.3353  0.1470
 4041SOL     OW23581   4.279   3.976   7.594 -0.0354  0.3209  0.1403
 4041SOL    HW123582   4.332   4.031   7.652 -2.9944  1.5556  1.6346
 4041SOL    HW223583   4.192   4.013   7.607 -0.5882 -0.6265 -0.8628
 4042SOL     OW23584   2.227   3.933  15.688  0.0269 -0.3845  0.4665
 4042SOL    HW123585   2.260   3.914  15.600  1.1855  2.2246  0.3486
 4042SOL    HW223586   2.139   3.967  15.673 -0.0327 -0.0568  1.5529
 4043SOL     OW23587   1.555   3.595   4.925 -0.1204 -0.0722 -0.2202
 4043SOL    HW123588   1.517   3.508   4.914  0.6677  0.0385 -3.9291
 4043SOL    HW223589   1.580   3.581   5.017  0.6738  0.5480 -0.3440
 4044SOL     OW23590   2.982   3.608   3.272  0.1773  0.2103  0.0256
 4044SOL    HW123591   2.946   3.615   3.184 -1.3312  1.0001  0.7045
 4044SOL    HW223592   3.076   3.591   3.264  0.2083  1.4132 -2.0163
 4045SOL     OW23593   4.062   0.443   6.234  0.3868  0.4224 -0.1320
 4045SOL    HW123594   4.082   0.537   6.235 -0.7416  0.6614 -0.1240
 4045SOL    HW223595   3.973   0.446   6.270  0.6335  5.3904  0.1155
 4046SOL     OW23596   1.842   1.062  17.073 -0.6254 -0.7766  0.2719
 4046SOL    HW123597   1.923   1.015  17.094  0.3502  0.2134 -1.2523
 4046SOL    HW223598   1.867   1.151  17.099 -1.0501 -0.4192 -0.5688
 4047SOL     OW23599   2.693   0.738   9.411 -0.1918  0.0430  0.1812
 4047SOL    HW123600   2.722   0.647   9.404 -0.8523 -0.3535  2.7007
 4047SOL    HW223601   2.771   0.779   9.449  2.0102 -1.4224 -2.7335
 4048SOL     OW23602   2.056   2.052   4.912  0.2023 -0.3387 -0.0680
 4048SOL    HW123603   2.025   2.070   5.001 -2.4977  0.6859 -1.2143
 4048SOL    HW223604   1.968   2.038   4.876 -0.4686 -0.0483  1.4156
 4049SOL     OW23605   0.284   1.619  11.164 -0.4181 -0.0966 -0.1086
 4049SOL    HW123606   0.331   1.699  11.140  0.4709 -0.3848  0.6737
 4049SOL    HW223607   0.258   1.638  11.254  1.7815  1.6822  0.1701
 4050SOL     OW23608   4.507   1.551   3.699  0.1990 -0.0132  0.3658
 4050SOL    HW123609   4.468   1.526   3.615  0.2110 -1.0138  0.6528
 4050SOL    HW223610   4.430   1.565   3.754  0.6431  2.3697  0.3651
 4051SOL     OW23611   0.422   0.905   8.380  0.0070  0.5787  0.2014
 4051SOL    HW123612   0.398   0.974   8.318  0.3162  0.7052  0.2215
 4051SOL    HW223613   0.517   0.916   8.386  0.1458 -1.1206  1.0436
 4052SOL     OW23614   0.084   3.653  11.052  0.1371 -0.7277  0.0653
 4052SOL    HW123615   0.097   3.631  11.144  0.4170  0.0630  0.2132
 4052SOL    HW223616   0.035   3.573  11.033 -0.5601 -0.5351  1.0657
 4053SOL     OW23617   0.081   0.769   2.730 -0.9004  0.0803 -0.2841
 4053SOL    HW123618   0.121   0.753   2.816 -1.3191  0.1280 -0.0796
 4053SOL    HW223619   0.121   0.699   2.679 -0.9705 -0.5924  0.5878
 4054SOL     OW23620   2.176   2.731   3.455  0.7724  0.2029 -0.3580
 4054SOL    HW123621   2.257   2.781   3.471  0.0581  0.8731  1.2118
 4054SOL    HW223622   2.187   2.708   3.363 -0.8915 -1.0898 -0.2190
 4055SOL     OW23623   3.802   2.722  12.069  0.1326 -0.0710  0.1732
 4055SOL    HW123624   3.850   2.751  11.991 -0.7299 -0.6573 -0.5806
 4055SOL    HW223625   3.715   2.760  12.060  0.3911  0.6759  0.8762
 4056SOL     OW23626   0.607   3.352  12.254  0.1894  0.0381  0.1090
 4056SOL    HW123627   0.658   3.374  12.333  0.0225 -2.6035  0.9688
 4056SOL    HW223628   0.589   3.440  12.222  0.6070 -0.2953 -1.0355
 4057SOL     OW23629   2.080   2.678  16.098  0.4151 -0.2438  0.0090
 4057SOL    HW123630   1.994   2.663  16.137 -0.6204  0.8353 -1.8836
 4057SOL    HW223631   2.072   2.639  16.011  1.8750  1.5789 -0.9368
 4058SOL     OW23632   2.200   1.149   7.575  0.3086  0.4155  0.6003
 4058SOL    HW123633   2.234   1.177   7.660  1.0333 -0.8170  0.7014
 4058SOL    HW223634   2.202   1.233   7.528  0.8693 -0.4716 -0.9829
 4059SOL     OW23635   0.732   4.304   6.465  0.1574 -0.0861  0.5774
 4059SOL    HW123636   0.765   4.222   6.428 -0.0689 -0.3874  1.0411
 4059SOL    HW223637   0.809   4.322   6.519 -0.0192  0.8770  0.5120
 4060SOL     OW23638   2.741   3.345   4.967 -0.0897  0.0899  0.0685
 4060SOL    HW123639   2.686   3.362   4.891  0.0603  0.5153  0.0599
 4060SOL    HW223640   2.713   3.260   5.003  0.2233 -0.4247 -0.9133
 4061SOL     OW23641   1.735   0.843   4.618  0.7599 -0.5620 -0.6756
 4061SOL    HW123642   1.738   0.881   4.531 -0.6798  0.7952 -0.1260
 4061SOL    HW223643   1.733   0.921   4.674 -0.0880 -3.0733  2.8270
 4062SOL     OW23644   2.911   2.060   5.414 -0.5770  0.2784 -0.0645
 4062SOL    HW123645   2.950   2.144   5.389 -1.9365  0.4910 -1.4995
 4062SOL    HW223646   2.949   2.041   5.500  0.0850 -0.3989 -0.5086
 4063SOL     OW23647   2.846   0.076  16.118 -0.0433  0.0509 -0.5489
 4063SOL    HW123648   2.856   0.036  16.032  1.9806 -1.1782  0.2685
 4063SOL    HW223649   2.752   0.077  16.137  0.7435 -1.0851  3.4476
 4064SOL     OW23650   4.285   0.785   9.275 -0.3384  0.4878 -0.1599
 4064SOL    HW123651   4.252   0.732   9.203 -2.7560 -0.1483  1.4161
 4064SOL    HW223652   4.247   0.870   9.251 -1.1078  0.2100  0.0865
 4065SOL     OW23653   0.133   3.410   5.554  0.1311 -1.0244 -0.6319
 4065SOL    HW123654   0.050   3.396   5.600  0.8522 -1.0007  0.6974
 4065SOL    HW223655   0.104   3.424   5.464 -0.6914 -0.9863 -0.3655
 4066SOL     OW23656   4.172   2.463   2.559 -0.0067 -0.4332 -0.6354
 4066SOL    HW123657   4.236   2.427   2.620 -2.3957 -0.0295  2.1097
 4066SOL    HW223658   4.085   2.457   2.600  2.0163 -2.3986  3.3411
 4067SOL     OW23659   1.001   4.587   2.244  0.2040  0.1197  0.1389
 4067SOL    HW123660   1.084   4.627   2.272  0.7902 -1.4765  0.6989
 4067SOL    HW223661   1.027   4.503   2.206  2.0095  1.2341 -1.0449
 4068SOL     OW23662   2.629   0.588   4.929 -0.1794  0.0102  0.8648
 4068SOL    HW123663   2.610   0.669   4.975  0.7558  0.5146  0.3527
 4068SOL    HW223664   2.668   0.534   4.998  0.7207 -1.1891 -0.5870
 4069SOL     OW23665   4.299   1.182   6.640 -0.2907 -0.0065  0.1264
 4069SOL    HW123666   4.365   1.247   6.617 -0.4770 -0.4928 -1.7664
 4069SOL    HW223667   4.350   1.103   6.653 -0.0899 -0.1070 -1.2304
 4070SOL     OW23668   1.101   4.452   8.709  0.6130  0.1959 -0.4327
 4070SOL    HW123669   1.013   4.415   8.718  0.2000  1.4799  0.8184
 4070SOL    HW223670   1.088   4.521   8.645  0.9568  2.0850  1.5502
 4071SOL     OW23671   4.344   0.309  10.301 -0.1860  0.0471 -0.4106
 4071SOL    HW123672   4.432   0.303  10.339 -1.1956  1.8658  2.2670
 4071SOL    HW223673   4.318   0.382  10.358 -1.2921  0.3536 -1.3237
 4072SOL     OW23674   2.189   4.408   4.817  0.3323  0.1424 -0.1130
 4072SOL    HW123675   2.268   4.462   4.818  1.3581 -1.3420 -1.7336
 4072SOL    HW223676   2.142   4.442   4.893  2.2567  0.6178  0.8695
 4073SOL     OW23677   2.503   4.217   4.936  0.0096 -0.7588  0.2163
 4073SOL    HW123678   2.595   4.212   4.912 -0.0584  0.5996 -0.2799
 4073SOL    HW223679   2.478   4.217   4.844 -1.1712  0.6127  0.5309
 4074SOL     OW23680   0.324   2.426   7.931  0.1529  0.1873  0.0189
 4074SOL    HW123681   0.321   2.408   8.025  1.0125 -1.0394 -0.1850
 4074SOL    HW223682   0.362   2.344   7.899 -0.5652 -0.1376  0.0026
 4075SOL     OW23683   4.059   1.078   5.026 -0.2666  0.0085  0.0950
 4075SOL    HW123684   4.020   1.014   4.967 -0.4642  2.0059 -1.9500
 4075SOL    HW223685   4.138   1.038   5.061 -0.4441 -0.2598  0.1856
 4076SOL     OW23686   0.447   0.382   8.706 -0.0527 -0.3057 -0.1566
 4076SOL    HW123687   0.454   0.474   8.682  0.0880 -0.3287 -0.2048
 4076SOL    HW223688   0.425   0.402   8.797 -2.1459 -0.5419 -0.6033
 4077SOL     OW23689   3.836   3.191  15.806 -0.1026 -0.9193 -0.6679
 4077SOL    HW123690   3.762   3.176  15.865  1.1733 -0.8998  0.9582
 4077SOL    HW223691   3.883   3.268  15.837 -0.3783 -1.9745  2.3554
 4078SOL     OW23692   4.265   0.854   4.203 -0.5141 -0.5807  0.0909
 4078SOL    HW123693   4.172   0.870   4.191 -0.4843 -0.6299 -0.1975
 4078SOL    HW223694   4.247   0.817   4.289  0.8888 -1.6343 -0.0689
 4079SOL     OW23695   3.832   0.800  13.413  0.4494  0.7161 -0.2714
 4079SOL    HW123696   3.769   0.769  13.349 -1.3951  2.1565  0.8325
 4079SOL    HW223697   3.891   0.863  13.371  2.0913 -0.6422  0.0186
 4080SOL     OW23698   0.767   3.982   0.733 -0.2088  0.4291 -0.1119
 4080SOL    HW123699   0.838   3.921   0.716 -3.2690 -2.2252 -3.4092
 4080SOL    HW223700   0.812   4.067   0.731 -0.4769  0.5293 -1.5874
 4081SOL     OW23701   3.588   2.998   2.097 -0.3451 -0.1934 -0.0761
 4081SOL    HW123702   3.526   2.956   2.037  1.0589  0.5913 -2.0577
 4081SOL    HW223703   3.589   2.940   2.173 -1.1254  0.0784  0.1386
 4082SOL     OW23704   2.361   2.745   4.625  0.2819  0.0615 -0.0173
 4082SOL    HW123705   2.320   2.821   4.666  1.5971  0.6192  0.2467
 4082SOL    HW223706   2.312   2.741   4.543 -2.1163  2.1330  1.2971
 4083SOL     OW23707   2.156   0.321  14.680 -0.8534  0.1060  0.0438
 4083SOL    HW123708   2.249   0.302  14.670 -1.1848 -2.2280  1.3944
 4083SOL    HW223709   2.130   0.325  14.588 -3.8841  0.9963  0.9492
 4084SOL     OW23710   0.902   2.494   8.904  0.1299  0.1568 -0.0352
 4084SOL    HW123711   0.905   2.399   8.914  1.2915  0.4454  2.2728
 4084SOL    HW223712   0.986   2.518   8.864  0.4692  0.7360  1.0072
 4085SOL     OW23713   2.541   1.864   8.473 -0.3795 -0.2880  0.0440
 4085SOL    HW123714   2.555   1.950   8.513  0.5983 -0.2175 -0.4220
 4085SOL    HW223715   2.505   1.881   8.386  1.5203 -1.1445 -0.9390
 4086SOL     OW23716   3.646   4.235   6.509 -0.7545 -0.1642 -0.2787
 4086SOL    HW123717   3.679   4.282   6.586  1.0887 -0.6475 -0.7658
 4086SOL    HW223718   3.732   4.211   6.473 -0.7633 -0.2709 -0.2275
 4087SOL     OW23719   2.478   0.280   8.491  0.4296  0.3933 -0.1314
 4087SOL    HW123720   2.416   0.213   8.518  2.2134 -1.0730  0.3446
 4087SOL    HW223721   2.464   0.284   8.396  0.4516 -0.2093 -0.1566
 4088SOL     OW23722   3.299   3.224   7.532 -0.1898 -0.5927  0.5038
 4088SOL    HW123723   3.278   3.232   7.439 -1.9476 -0.2010  0.9464
 4088SOL    HW223724   3.281   3.131   7.542  0.8090 -0.5908  2.3508
 4089SOL     OW23725   0.233   2.220  17.229  0.1211 -0.0270 -0.4122
 4089SOL    HW123726   0.221   2.212  17.135 -2.1923 -0.9979 -0.0324
 4089SOL    HW223727   0.201   2.133  17.252 -0.0986  0.0926 -0.2573
 4090SOL     OW23728   3.987   1.366   9.225  0.9221 -0.1161 -0.6269
 4090SOL    HW123729   4.078   1.384   9.249  0.2629  1.1400  0.9315
 4090SOL    HW223730   3.934   1.386   9.302 -0.5940 -1.5037 -1.3082
 4091SOL     OW23731   4.016   2.850  10.494  0.6296  0.0076  0.2731
 4091SOL    HW123732   3.981   2.916  10.555 -0.9575  1.0673 -1.7999
 4091SOL    HW223733   3.942   2.812  10.447 -0.3599  2.4542 -0.1364
 4092SOL     OW23734   3.846   2.289   4.571  0.0178 -0.2429  0.3229
 4092SOL    HW123735   3.770   2.309   4.625  0.2757  1.7825 -0.0867
 4092SOL    HW223736   3.850   2.360   4.507 -2.0575 -1.0077 -0.6760
 4093SOL     OW23737   3.108   0.965  11.810 -0.1711 -0.7153  0.6912
 4093SOL    HW123738   3.076   0.992  11.895 -0.8092 -0.3390  0.3332
 4093SOL    HW223739   3.069   1.035  11.758  2.0956 -1.7865 -2.4792
 4094SOL     OW23740   1.274   2.316   1.498 -0.4727  0.3941 -0.0111
 4094SOL    HW123741   1.328   2.238   1.514 -0.9902  0.0610  0.1033
 4094SOL    HW223742   1.343   2.369   1.459  0.9173 -1.2722  0.1696
 4095SOL     OW23743   2.779   0.197   5.422 -0.0800 -0.3041 -0.4631
 4095SOL    HW123744   2.785   0.108   5.387  0.9806  0.9960 -3.6047
 4095SOL    HW223745   2.718   0.241   5.363 -0.2302 -1.9793 -1.5639
 4096SOL     OW23746   3.932   4.675   7.200  0.3313  0.3476 -0.0458
 4096SOL    HW123747   4.013   4.720   7.227  0.1488 -0.4498  1.8688
 4096SOL    HW223748   3.919   4.694   7.108 -1.2212 -0.7443 -0.0382
 4097SOL     OW23749   3.018   3.907   5.482  0.5158 -0.0376 -0.3110
 4097SOL    HW123750   2.994   3.987   5.530 -2.5112 -0.6486 -0.7643
 4097SOL    HW223751   3.113   3.914   5.490  0.2892  0.4016  2.2747
 4098SOL     OW23752   2.438   2.029  14.425 -0.1372  0.3225 -0.0633
 4098SOL    HW123753   2.487   2.069  14.354  1.9854 -0.9033  0.7139
 4098SOL    HW223754   2.359   1.983  14.395 -0.1059  0.2091  0.0254
 4099SOL     OW23755   0.660   3.951   1.192 -0.0151 -0.0125 -0.9200
 4099SOL    HW123756   0.719   4.027   1.195  0.9812 -0.7393 -1.8900
 4099SOL    HW223757   0.693   3.907   1.270  0.1578 -0.2729 -1.1390
 4100SOL     OW23758   0.970   3.209  12.515  0.0564  0.2727  0.5811
 4100SOL    HW123759   0.908   3.159  12.462 -0.6796 -1.6840  3.2986
 4100SOL    HW223760   0.918   3.204  12.595 -0.0908  1.7606  0.5820
 4101SOL     OW23761   0.421   2.434   7.562  0.1592 -0.3900  0.4576
 4101SOL    HW123762   0.395   2.350   7.599  0.4557  0.2953  2.2318
 4101SOL    HW223763   0.338   2.479   7.579 -1.0737 -2.2404 -0.7473
 4102SOL     OW23764   2.114   3.176   6.565 -0.1993  0.5709 -0.1765
 4102SOL    HW123765   2.162   3.258   6.563 -1.3404  1.2960  2.2923
 4102SOL    HW223766   2.042   3.207   6.619  1.0042  0.5131  1.4319
 4103SOL     OW23767   4.243   3.546   2.805 -0.2807 -0.0885 -0.0913
 4103SOL    HW123768   4.293   3.534   2.724 -3.1089  0.0496 -1.8831
 4103SOL    HW223769   4.220   3.457   2.832 -0.4528 -0.3171 -0.9789
 4104SOL     OW23770   3.503   3.863   6.144 -0.2582 -0.3048 -0.1089
 4104SOL    HW123771   3.436   3.866   6.213 -1.0241  1.0848 -0.9284
 4104SOL    HW223772   3.465   3.795   6.089 -2.0066 -1.1463  2.1056
 4105SOL     OW23773   3.164   0.605   4.945  0.5065  0.0733 -0.4441
 4105SOL    HW123774   3.176   0.683   4.999 -1.7447  1.5086 -2.0142
 4105SOL    HW223775   3.259   0.591   4.946  0.7202  1.5782 -0.2188
 4106SOL     OW23776   2.766   2.149   0.168 -0.6136 -0.3260  0.5578
 4106SOL    HW123777   2.756   2.240   0.194  1.9280  0.6904 -2.0095
 4106SOL    HW223778   2.830   2.156   0.097  1.4036 -0.1622  2.4006
 4107SOL     OW23779   3.863   2.180   5.430 -0.2795 -0.0903 -0.5101
 4107SOL    HW123780   3.948   2.223   5.420  0.3137 -0.4239  3.0660
 4107SOL    HW223781   3.841   2.210   5.518 -1.9675 -2.8273  0.0015
 4108SOL     OW23782   1.762   4.632   3.345  0.0546 -0.6934  0.0704
 4108SOL    HW123783   1.817   4.555   3.343 -0.4530 -1.0239 -1.3643
 4108SOL    HW223784   1.676   4.597   3.368  0.2685 -1.2572 -0.0040
 4109SOL     OW23785   1.640   4.509   5.901  0.9185  0.7282 -0.5412
 4109SOL    HW123786   1.690   4.477   5.977 -0.0154  0.6110  0.0277
 4109SOL    HW223787   1.647   4.438   5.838  0.6745 -0.7225  1.0449
 4110SOL     OW23788   2.535   1.683  14.634  0.7720 -0.1769 -0.0047
 4110SOL    HW123789   2.543   1.779  14.633 -1.2688 -0.0241 -0.6082
 4110SOL    HW223790   2.469   1.668  14.567  1.0545  0.3094 -0.3953
 4111SOL     OW23791   0.982   0.322   2.200  0.6638  0.2641  0.2347
 4111SOL    HW123792   1.016   0.384   2.264  0.2065  2.1735 -1.3579
 4111SOL    HW223793   0.927   0.266   2.254  1.9850 -0.8976  0.3814
 4112SOL     OW23794   2.214   3.167  13.578  0.9191  0.2767  0.4043
 4112SOL    HW123795   2.258   3.240  13.622  1.4401 -0.4597  1.1006
 4112SOL    HW223796   2.212   3.103  13.648 -2.0220  0.4414  0.4837
 4113SOL     OW23797   1.265   4.345  13.634  0.4906 -0.2629  0.0202
 4113SOL    HW123798   1.299   4.433  13.621  1.6606 -0.5057  1.3685
 4113SOL    HW223799   1.325   4.303  13.697 -0.5815 -0.1038  1.1457
 4114SOL     OW23800   0.055   3.389   5.269  0.1258  0.8162  0.4871
 4114SOL    HW123801   4.713   3.320   5.271  1.2897 -0.3728 -2.6511
 4114SOL    HW223802   4.718   3.463   5.269  0.0989  0.7949  0.3858
 4115SOL     OW23803   2.433   4.614   3.664 -0.4523  0.3279 -0.0589
 4115SOL    HW123804   2.485   4.655   3.595 -2.2518  1.9990 -0.4293
 4115SOL    HW223805   2.489   4.542   3.693 -0.9513 -0.5777 -1.3359
 4116SOL     OW23806   3.303   3.553   3.705 -0.3828  0.3228  0.9397
 4116SOL    HW123807   3.243   3.554   3.779 -2.2043 -0.2905 -0.5300
 4116SOL    HW223808   3.353   3.471   3.703  0.5584  0.9472 -1.1970
 4117SOL     OW23809   1.240   2.700   3.037  0.5498  0.0177  0.2459
 4117SOL    HW123810   1.270   2.695   3.128 -0.8394  3.3175  0.8947
 4117SOL    HW223811   1.247   2.794   3.021  1.5455 -0.3193 -1.3362
 4118SOL     OW23812   1.659   3.809   5.947 -0.6461 -0.1593 -0.0291
 4118SOL    HW123813   1.568   3.806   5.918 -0.2829  0.3259 -1.2058
 4118SOL    HW223814   1.690   3.890   5.906 -1.6945  0.3637  0.2134
 4119SOL     OW23815   1.160   0.647  13.095 -0.3661 -0.4220 -0.1472
 4119SOL    HW123816   1.086   0.694  13.132  0.3873  1.3092 -0.8293
 4119SOL    HW223817   1.180   0.712  13.027 -2.5821 -0.0122 -0.3796
 4120SOL     OW23818   4.646   4.077  10.439 -0.3012 -0.2902 -0.4859
 4120SOL    HW123819   4.564   4.033  10.414 -0.2237 -0.3110 -0.6979
 4120SOL    HW223820   4.668   4.000  10.493 -0.7319 -0.5863 -0.7348
 4121SOL     OW23821   2.855   1.411   8.605 -0.8803 -0.3323  0.5692
 4121SOL    HW123822   2.859   1.502   8.575  0.9747 -0.3713  0.6848
 4121SOL    HW223823   2.854   1.362   8.523 -0.0727 -0.0377  0.3805
 4122SOL     OW23824   3.899   1.717   3.235 -0.0450 -0.2895  0.0602
 4122SOL    HW123825   3.843   1.719   3.157 -2.3445  1.4381  1.7441
 4122SOL    HW223826   3.830   1.711   3.301  1.7334 -0.3284  1.9020
 4123SOL     OW23827   4.200   3.934   6.640  0.1516 -0.0551  0.3394
 4123SOL    HW123828   4.198   3.878   6.717  2.2682 -1.3066 -0.5337
 4123SOL    HW223829   4.272   3.906   6.583  1.0019  0.3284  1.2210
 4124SOL     OW23830   3.537   1.032  10.409 -0.0532 -0.0732 -0.2503
 4124SOL    HW123831   3.577   0.964  10.355  1.2773 -1.1683  2.0970
 4124SOL    HW223832   3.448   0.999  10.422 -0.9031  2.2972  0.0062
 4125SOL     OW23833   0.578   2.578   6.658  0.0651 -0.2850  0.4557
 4125SOL    HW123834   0.609   2.530   6.581  0.9240  0.7873  0.1231
 4125SOL    HW223835   0.653   2.624   6.695 -0.4916  0.1937  0.9956
 4126SOL     OW23836   4.469   0.652   9.037  0.4795  0.1250 -0.2401
 4126SOL    HW123837   4.543   0.590   9.043  0.7769  0.6823  1.8208
 4126SOL    HW223838   4.499   0.723   9.094  0.5733  2.0442 -2.7230
 4127SOL     OW23839   0.369   4.159   0.467 -0.1736  0.8939 -0.2487
 4127SOL    HW123840   0.277   4.142   0.488  0.0776 -1.5551 -1.0931
 4127SOL    HW223841   0.400   4.210   0.541  2.0805  0.6707 -1.0404
 4128SOL     OW23842   0.928   3.405   1.998 -0.4894  0.3224 -0.1235
 4128SOL    HW123843   1.010   3.404   1.949 -0.3543 -0.8153  0.1121
 4128SOL    HW223844   0.960   3.393   2.088  0.2480  1.0505 -0.2894
 4129SOL     OW23845   2.514   2.470   9.880 -0.2340  0.2840  0.9139
 4129SOL    HW123846   2.579   2.400   9.871 -0.8763 -0.0807 -0.9520
 4129SOL    HW223847   2.433   2.424   9.856 -0.0575 -0.4322  1.6600
 4130SOL     OW23848   3.643   1.737   8.339 -0.2984 -0.4267  0.1896
 4130SOL    HW123849   3.703   1.777   8.276 -0.6783 -2.0266 -1.1737
 4130SOL    HW223850   3.567   1.711   8.287  1.5489 -1.1763 -2.1727
 4131SOL     OW23851   1.112   1.986   4.372  0.1115  0.3855  0.0051
 4131SOL    HW123852   1.150   2.055   4.317 -1.2777  0.1617 -1.2143
 4131SOL    HW223853   1.052   1.942   4.313  0.3638 -1.7807  1.3812
 4132SOL     OW23854   2.508   3.109  14.758  0.2684 -0.3490 -0.5578
 4132SOL    HW123855   2.493   3.168  14.831  0.3739 -0.6400 -0.3006
 4132SOL    HW223856   2.446   3.148  14.697  0.1634 -2.0832 -1.5765
 4133SOL     OW23857   4.527   0.987  13.213 -0.4546  0.3534  0.2522
 4133SOL    HW123858   4.512   1.027  13.298  0.1421  2.6726 -0.7204
 4133SOL    HW223859   4.491   1.059  13.159 -0.8344 -0.6434 -0.8321
 4134SOL     OW23860   0.984   3.204   2.796  0.4192  0.2971 -0.0958
 4134SOL    HW123861   0.956   3.195   2.705  1.0179  0.2280 -0.2675
 4134SOL    HW223862   0.897   3.222   2.833 -0.8227 -1.3120 -2.2050
 4135SOL     OW23863   2.820   2.359  15.258  0.1736 -0.2012 -0.4103
 4135SOL    HW123864   2.838   2.361  15.352 -0.0202  0.6855 -0.3887
 4135SOL    HW223865   2.764   2.283  15.243 -1.3975  0.3389  2.7216
 4136SOL     OW23866   3.853   1.233   7.338 -0.4033  0.6051 -0.2969
 4136SOL    HW123867   3.894   1.169   7.395 -1.0574  0.6711  0.2474
 4136SOL    HW223868   3.903   1.232   7.256  0.9662  1.5978  0.5344
 4137SOL     OW23869   0.824   3.365   3.669 -0.1742  0.4073  0.1882
 4137SOL    HW123870   0.736   3.342   3.701 -0.2382 -0.8233 -0.8819
 4137SOL    HW223871   0.867   3.280   3.678  2.0903  1.3867 -1.2782
 4138SOL     OW23872   2.995   1.744   9.736  1.0928  0.6256 -0.4999
 4138SOL    HW123873   2.951   1.796   9.668 -0.4769  1.9655  1.5751
 4138SOL    HW223874   3.074   1.711   9.693 -0.6490 -1.6849 -1.9723
 4139SOL     OW23875   2.727   2.611   8.365  0.7520 -0.3528  0.4507
 4139SOL    HW123876   2.714   2.682   8.428  0.9920  0.4290 -0.3824
 4139SOL    HW223877   2.661   2.551   8.399 -0.9602  0.3549 -1.5803
 4140SOL     OW23878   0.080   3.661  15.503 -0.0432  0.3428  0.2254
 4140SOL    HW123879   0.037   3.661  15.588 -0.5770 -3.4883 -0.0616
 4140SOL    HW223880   0.133   3.741  15.510 -0.7273  0.8015  0.1377
 4141SOL     OW23881   1.665   1.522   2.761 -0.7042  0.5148  0.2250
 4141SOL    HW123882   1.601   1.475   2.814  1.9230  1.0529  3.8375
 4141SOL    HW223883   1.624   1.493   2.679 -0.6348 -2.7335  1.3264
 4142SOL     OW23884   0.962   1.430  15.658  0.3991 -0.2915  0.3387
 4142SOL    HW123885   0.974   1.382  15.740  0.0372  0.1759  0.6645
 4142SOL    HW223886   0.868   1.423  15.641  0.3021 -1.7840  1.5032
 4143SOL     OW23887   0.237   4.470   0.807 -0.1138  0.2136  0.5137
 4143SOL    HW123888   0.234   4.391   0.861  0.4184 -0.5572 -0.5880
 4143SOL    HW223889   0.170   4.531   0.841 -0.5946 -0.3877  0.6406
 4144SOL     OW23890   0.941   2.262   1.222  0.3168 -0.6956  0.1545
 4144SOL    HW123891   0.959   2.330   1.288  0.0391  0.6618 -1.1577
 4144SOL    HW223892   0.958   2.305   1.138  1.3313 -2.9383 -0.7866
 4145SOL     OW23893   2.272   0.928   7.946 -0.2961 -0.3544 -0.0098
 4145SOL    HW123894   2.197   0.987   7.938 -0.8898 -1.5354 -3.2597
 4145SOL    HW223895   2.294   0.953   8.036 -0.9304 -1.0031  0.3304
 4146SOL     OW23896   2.996   3.358   0.009  0.4786 -0.0313  0.2369
 4146SOL    HW123897   2.906   3.340  17.677  0.5252  1.4663 -0.8924
 4146SOL    HW223898   3.009   3.451  17.686  0.9078 -0.3209 -0.8684
 4147SOL     OW23899   2.879   1.771   3.465  0.0024  0.0345  0.6146
 4147SOL    HW123900   2.802   1.739   3.417  1.5802 -2.8961  0.0519
 4147SOL    HW223901   2.836   1.821   3.535  1.2369  3.0021 -0.7629
 4148SOL     OW23902   2.405   1.744   6.249 -0.0176  0.1707  0.0722
 4148SOL    HW123903   2.382   1.697   6.329 -0.2432  0.0167 -0.0813
 4148SOL    HW223904   2.319   1.773   6.218 -2.1824 -2.9622  3.1021
 4149SOL     OW23905   0.357   4.599   5.965  0.1416  0.1712 -0.2425
 4149SOL    HW123906   0.350   4.538   5.892  0.8044  0.0428 -0.1998
 4149SOL    HW223907   0.283   4.569   6.018 -1.1397 -0.7964 -2.5887
 4150SOL     OW23908   4.569   3.845   1.376 -0.2235 -0.4309 -0.7457
 4150SOL    HW123909   4.511   3.869   1.448  1.0213  0.2149  0.0436
 4150SOL    HW223910   4.609   3.762   1.402  0.6191  0.1050 -0.3100
 4151SOL     OW23911   0.401   1.377   4.326 -0.3968 -0.0236  0.1232
 4151SOL    HW123912   0.450   1.457   4.308  0.1644 -0.8218 -1.9257
 4151SOL    HW223913   0.321   1.394   4.275  0.8223 -1.1565 -2.1484
 4152SOL     OW23914   4.581   1.412   5.932 -0.4197  0.3625 -0.2943
 4152SOL    HW123915   4.542   1.449   6.011  0.6546  0.1572  0.3246
 4152SOL    HW223916   4.670   1.445   5.936 -0.1519 -0.3262 -0.5795
 4153SOL     OW23917   4.484   4.401   6.539 -0.2009 -0.2856  0.0224
 4153SOL    HW123918   4.463   4.338   6.609  1.8690  0.0403  0.9287
 4153SOL    HW223919   4.482   4.489   6.578  0.1338  0.8152 -2.4986
 4154SOL     OW23920   1.100   3.826   6.992 -0.1837  0.1294 -0.2233
 4154SOL    HW123921   1.125   3.770   7.065  1.9926  0.3912 -0.7605
 4154SOL    HW223922   1.186   3.865   6.975 -0.5889  0.6130 -1.1773
 4155SOL     OW23923   3.725   3.504   7.793  0.3816  0.2186  0.6116
 4155SOL    HW123924   3.707   3.444   7.721  1.3296 -1.2293  1.5893
 4155SOL    HW223925   3.632   3.521   7.810  0.8554  2.7055  0.7141
 4156SOL     OW23926   1.057   2.098   8.692 -0.5737  0.1335  0.9769
 4156SOL    HW123927   1.013   2.160   8.634 -0.0821 -2.3351 -2.0781
 4156SOL    HW223928   1.143   2.138   8.699 -0.6514  0.5876 -0.5136
 4157SOL     OW23929   1.530   1.537   2.088 -0.3960 -0.2899 -0.1607
 4157SOL    HW123930   1.533   1.495   2.002  1.4495  0.2631 -0.3592
 4157SOL    HW223931   1.592   1.609   2.082  0.1778 -0.9013 -1.4421
 4158SOL     OW23932   1.064   1.395   3.033 -0.1115  0.4360  0.5510
 4158SOL    HW123933   0.998   1.329   3.014 -0.0072 -0.3538  2.9665
 4158SOL    HW223934   1.016   1.475   3.055  2.1707  2.4870 -1.8461
 4159SOL     OW23935   4.253   1.654   6.228  0.2845 -0.1897  0.0273
 4159SOL    HW123936   4.179   1.666   6.287 -0.2020 -1.7025 -0.2746
 4159SOL    HW223937   4.273   1.745   6.204 -0.2800 -0.5900 -1.9882
 4160SOL     OW23938   4.433   3.733   7.870  0.2973  0.6212 -0.6520
 4160SOL    HW123939   4.457   3.815   7.913  0.0942 -0.0252  0.6929
 4160SOL    HW223940   4.340   3.727   7.891  0.6741 -0.3340  0.7263
 4161SOL     OW23941   4.333   2.173   8.288  0.6826 -0.9876  0.2298
 4161SOL    HW123942   4.274   2.212   8.352  1.6241 -1.2452  1.2525
 4161SOL    HW223943   4.334   2.081   8.315  0.1413 -0.3606  2.4039
 4162SOL     OW23944   1.180   2.030   1.257 -0.1713  0.4383 -0.5348
 4162SOL    HW123945   1.148   1.940   1.249 -0.3842  0.6381 -1.9338
 4162SOL    HW223946   1.104   2.083   1.276  0.6519 -0.0318  4.0476
 4163SOL     OW23947   3.001   2.903   1.550 -0.4567  0.3450 -0.4988
 4163SOL    HW123948   2.983   2.813   1.523  0.0870  0.3158 -0.7613
 4163SOL    HW223949   3.083   2.908   1.501  0.3585 -1.3007  0.7045
 4164SOL     OW23950   3.346   2.031   2.608  0.4266 -0.5777  0.1441
 4164SOL    HW123951   3.385   1.944   2.607  0.8293 -0.3912 -1.4838
 4164SOL    HW223952   3.352   2.066   2.519 -0.3032  1.1761  0.7752
 4165SOL     OW23953   0.859   1.979   1.230  0.3542 -0.0657  0.2647
 4165SOL    HW123954   0.863   2.072   1.209  0.0447 -0.3394 -1.0390
 4165SOL    HW223955   0.781   1.943   1.187  0.0475  1.3137 -0.3193
 4166SOL     OW23956   0.147   3.395   9.916  0.1175  0.4258  0.8940
 4166SOL    HW123957   0.113   3.358   9.998 -1.1352  1.5482  0.8960
 4166SOL    HW223958   0.100   3.339   9.854  0.1542  1.0917  0.2679
 4167SOL     OW23959   2.316   2.074   9.913  0.4132 -0.4088 -0.3622
 4167SOL    HW123960   2.234   2.029   9.895 -0.7356  1.6831 -0.2927
 4167SOL    HW223961   2.347   2.021   9.987  3.1309  0.2428 -1.0346
 4168SOL     OW23962   1.802   2.041   7.886 -0.5340  0.2128  0.0791
 4168SOL    HW123963   1.777   1.983   7.814  0.2858  1.1194 -0.9377
 4168SOL    HW223964   1.775   1.985   7.959 -1.3163 -1.7003 -1.6998
 4169SOL     OW23965   3.287   0.052   3.415  0.3805  0.6302  0.0805
 4169SOL    HW123966   3.348   0.066   3.488  0.7336 -0.5185  0.0140
 4169SOL    HW223967   3.213   0.100   3.451 -1.5056 -2.4092  0.2336
 4170SOL     OW23968   4.306   0.918   3.509  0.1300 -0.0440 -0.0973
 4170SOL    HW123969   4.392   0.907   3.548 -0.3714 -2.5272  0.2908
 4170SOL    HW223970   4.316   0.893   3.417 -1.8312 -3.4425  0.6235
 4171SOL     OW23971   4.324   2.847  14.051  0.7803 -0.7955 -0.3208
 4171SOL    HW123972   4.375   2.928  14.047 -0.2704 -0.0178  1.8729
 4171SOL    HW223973   4.310   2.832  13.958 -2.8433 -1.0085  0.2513
 4172SOL     OW23974   1.765   1.404  12.789 -0.2832 -0.3965 -0.2414
 4172SOL    HW123975   1.785   1.322  12.745 -0.9671 -0.0689 -1.1597
 4172SOL    HW223976   1.670   1.391  12.795 -0.4363  0.3536 -0.9699
 4173SOL     OW23977   2.795   2.214   3.836  0.0392 -0.3880 -0.0804
 4173SOL    HW123978   2.763   2.139   3.786 -0.0375 -1.6724  1.9028
 4173SOL    HW223979   2.883   2.184   3.857  0.9601  1.6796 -0.9382
 4174SOL     OW23980   0.437   4.389   3.466  0.8400 -0.2789  0.1147
 4174SOL    HW123981   0.354   4.372   3.511  0.6451  1.2274  0.3551
 4174SOL    HW223982   0.396   4.379   3.380  0.9340  3.2719 -0.3474
 4175SOL     OW23983   4.352   0.375  14.186  0.1842 -0.1616  0.1408
 4175SOL    HW123984   4.364   0.378  14.281 -2.2471  1.1626  0.3875
 4175SOL    HW223985   4.324   0.285  14.171 -0.4268 -0.1419  1.2341
 4176SOL     OW23986   4.674   4.466   4.555  0.0139  0.1877  0.2687
 4176SOL    HW123987   4.707   4.482   4.467 -1.3547  0.1129 -0.2565
 4176SOL    HW223988   4.633   4.549   4.581  2.5504  1.4607  0.2197
 4177SOL     OW23989   3.144   2.527   6.468  0.1780 -0.7791 -0.2582
 4177SOL    HW123990   3.159   2.441   6.430  0.9963  0.7317 -3.3537
 4177SOL    HW223991   3.186   2.522   6.553  2.3381 -1.1855 -1.3587
 4178SOL     OW23992   2.289   2.950  10.914  0.4892 -0.1800 -0.2280
 4178SOL    HW123993   2.368   2.914  10.875  0.3331 -0.7487 -0.0160
 4178SOL    HW223994   2.317   2.976  11.002  1.9542 -0.9826 -0.4651
 4179SOL     OW23995   2.647   0.271  17.638 -0.0681  0.0979 -0.6115
 4179SOL    HW123996   2.678   0.237  17.554  1.8259 -0.4210  0.3026
 4179SOL    HW223997   2.716   0.241   0.000  0.0099  0.0801 -0.7138
 4180SOL     OW23998   0.998   0.952   4.098 -0.3405  0.4085 -0.4697
 4180SOL    HW123999   0.939   0.978   4.027 -1.6959  1.3415  1.0188
 4180SOL    HW224000   0.936   0.964   4.169  0.0120 -1.8095  0.2324
 4181SOL     OW24001   2.076   1.876   1.383 -0.1448 -0.4568  0.2458
 4181SOL    HW124002   2.060   1.782   1.375 -1.4891 -0.2745  0.6914
 4181SOL    HW224003   2.081   1.913   1.295 -4.0464  1.3092  0.7261
 4182SOL     OW24004   0.832   3.959  12.107  0.5050 -0.2852  0.4409
 4182SOL    HW124005   0.901   4.011  12.149 -0.2471  0.0891  1.2119
 4182SOL    HW224006   0.875   3.874  12.096 -0.5912 -0.5482 -1.7985
 4183SOL     OW24007   0.441   1.558   9.604  0.5293 -0.5198  0.4595
 4183SOL    HW124008   0.500   1.537   9.532  0.5542  0.2381  0.2500
 4183SOL    HW224009   0.425   1.652   9.589 -1.5239 -0.7829  0.9951
 4184SOL     OW24010   1.464   3.494  13.755 -0.1282  0.1600 -0.1337
 4184SOL    HW124011   1.474   3.453  13.669 -2.6203 -1.4104  0.3126
 4184SOL    HW224012   1.446   3.586  13.739 -2.2303 -0.0638  0.9271
 4185SOL     OW24013   4.583   4.440   5.547 -0.5613  0.0394  0.6603
 4185SOL    HW124014   4.515   4.374   5.534  0.8949 -1.1396 -0.7931
 4185SOL    HW224015   4.539   4.525   5.536  0.5512  0.6521  0.8746
 4186SOL     OW24016   0.823   1.557   7.243  0.2484  0.8387  0.0004
 4186SOL    HW124017   0.817   1.569   7.148  1.1451 -0.2837 -0.1988
 4186SOL    HW224018   0.791   1.644   7.268  0.3026  0.4387  1.4264
 4187SOL     OW24019   0.828   0.217   8.719  0.4007 -0.2478 -0.3479
 4187SOL    HW124020   0.737   0.189   8.707  0.7431 -0.6712 -1.9371
 4187SOL    HW224021   0.824   0.302   8.676  2.9178  0.6407  1.2335
 4188SOL     OW24022   1.151   1.848   2.079  0.3037 -0.0785 -0.5121
 4188SOL    HW124023   1.192   1.772   2.038 -0.2492 -2.5150  3.4437
 4188SOL    HW224024   1.102   1.890   2.009 -0.8634 -1.5495 -0.5875
 4189SOL     OW24025   0.979   1.500   1.141  0.0512  0.5404  0.1174
 4189SOL    HW124026   1.052   1.443   1.165 -0.2258  1.8574  4.1038
 4189SOL    HW224027   0.960   1.480   1.050  0.2174  1.2999 -0.0847
 4190SOL     OW24028   3.384   3.455   8.051 -0.6115 -0.3291 -0.0517
 4190SOL    HW124029   3.352   3.426   7.965 -1.6541 -0.6063  0.4223
 4190SOL    HW224030   3.432   3.377   8.079  0.3339  0.0292 -0.7068
 4191SOL     OW24031   2.852   0.250  11.001 -0.0152  0.8623 -0.2810
 4191SOL    HW124032   2.777   0.196  11.026  0.7168  0.6848  1.5532
 4191SOL    HW224033   2.871   0.204  10.919 -1.8104  0.1107 -0.2629
 4192SOL     OW24034   2.639   4.132  11.951 -0.1284  0.6534 -0.6272
 4192SOL    HW124035   2.571   4.155  11.887  0.3044 -0.2462 -1.4055
 4192SOL    HW224036   2.630   4.038  11.937  2.3324  0.3314  0.0602
 4193SOL     OW24037   3.618   1.974   9.612 -0.0532 -0.4680  0.1113
 4193SOL    HW124038   3.584   2.040   9.552 -0.0110  1.4200  2.1310
 4193SOL    HW224039   3.650   1.905   9.554  1.4663 -1.3213  1.9554
 4194SOL     OW24040   0.582   3.195   2.350  0.5561 -0.2868  0.3931
 4194SOL    HW124041   0.498   3.210   2.395  1.0048 -2.1496  1.8449
 4194SOL    HW224042   0.532   3.159   2.277  1.3658 -2.2092  0.7917
 4195SOL     OW24043   1.258   2.047  11.643  0.0062 -0.1048 -0.0940
 4195SOL    HW124044   1.256   2.142  11.659  3.2643 -0.0428  0.0493
 4195SOL    HW224045   1.165   2.026  11.645  0.0472 -0.3776 -1.0629
 4196SOL     OW24046   1.007   4.482   7.254 -0.1219  0.4390 -0.2243
 4196SOL    HW124047   0.968   4.553   7.203 -1.2130 -0.1957 -0.2750
 4196SOL    HW224048   1.101   4.502   7.245  0.0444 -0.1659  0.2041
 4197SOL     OW24049   4.258   0.804   1.082  0.5828 -0.7415  0.3756
 4197SOL    HW124050   4.348   0.812   1.051  0.3355  0.6729 -0.0128
 4197SOL    HW224051   4.218   0.755   1.010 -1.6122 -0.0165  1.0872
 4198SOL     OW24052   3.624   3.398   4.718  0.3232 -0.3926  0.0245
 4198SOL    HW124053   3.624   3.328   4.652 -2.9031 -0.2238 -0.1562
 4198SOL    HW224054   3.698   3.373   4.773 -0.3614  0.4296  1.3067
 4199SOL     OW24055   3.378   4.417   8.414 -0.3137  0.5103  0.2514
 4199SOL    HW124056   3.401   4.414   8.321 -1.1494 -1.2055  0.0799
 4199SOL    HW224057   3.298   4.467   8.399 -1.0709 -0.3725  1.3476
 4200SOL     OW24058   1.093   0.679   8.293 -0.2011  0.2551  0.6422
 4200SOL    HW124059   1.045   0.761   8.276 -2.0319 -0.9034  0.2585
 4200SOL    HW224060   1.063   0.655   8.381 -2.1975  1.7922  0.3959
 4201SOL     OW24061   0.597   4.642   6.100  0.7401 -0.2218  0.4063
 4201SOL    HW124062   0.527   4.642   6.035 -0.1917  0.2962  1.4164
 4201SOL    HW224063   0.578   4.557   6.139  0.8242  0.4826  2.0086
 4202SOL     OW24064   1.349   1.643   3.283 -0.4559 -0.1265 -0.1761
 4202SOL    HW124065   1.329   1.671   3.194  0.4202  0.0382 -0.3170
 4202SOL    HW224066   1.269   1.591   3.297 -0.5536 -0.0130 -0.3036
 4203SOL     OW24067   0.248   2.953   0.185  0.6044  0.5992 -0.1073
 4203SOL    HW124068   0.160   2.966   0.221  0.3808 -0.9122 -0.1195
 4203SOL    HW224069   0.226   2.927   0.096  1.9830 -0.0327 -0.2635
 4204SOL     OW24070   4.412   0.691   0.399 -0.2689  0.6914  0.4300
 4204SOL    HW124071   4.371   0.644   0.327 -0.6543 -0.0741  1.1601
 4204SOL    HW224072   4.499   0.706   0.362  0.1919 -0.1203  1.1866
 4205SOL     OW24073   4.497   3.456   5.406 -0.0415  0.4222 -0.4391
 4205SOL    HW124074   4.501   3.361   5.416 -1.8326  0.6418  2.3011
 4205SOL    HW224075   4.497   3.488   5.496  1.9058  0.1287 -0.3385
 4206SOL     OW24076   3.426   3.099  15.439  0.2857  0.1619 -0.5220
 4206SOL    HW124077   3.411   3.194  15.436  0.8685  0.3240  1.3795
 4206SOL    HW224078   3.346   3.060  15.473  0.9677 -0.4143  0.4297
 4207SOL     OW24079   2.742   3.106   8.910 -0.3104  0.4910 -0.1967
 4207SOL    HW124080   2.830   3.133   8.936  0.7375 -1.7224 -1.3994
 4207SOL    HW224081   2.716   3.189   8.871  0.2088  1.0658  0.6798
 4208SOL     OW24082   0.133   2.762   3.701  0.5109 -0.2255  0.3501
 4208SOL    HW124083   0.109   2.709   3.625 -1.9336  1.2625  0.0848
 4208SOL    HW224084   0.205   2.713   3.742  0.8464  0.5958  0.7463
 4209SOL     OW24085   1.782   2.450   5.787  0.0433 -0.4935 -0.4919
 4209SOL    HW124086   1.697   2.469   5.747 -0.5034 -0.4212  0.7054
 4209SOL    HW224087   1.812   2.380   5.728  0.8365  0.6710 -1.4892
 4210SOL     OW24088   3.157   0.395   6.229 -0.3338  0.0852  0.2766
 4210SOL    HW124089   3.231   0.433   6.277  1.7743 -0.9721 -2.0959
 4210SOL    HW224090   3.092   0.453   6.268  0.1675  0.9181 -0.1111
 4211SOL     OW24091   2.377   3.602  11.701  0.5291 -0.0157  0.5215
 4211SOL    HW124092   2.304   3.587  11.641 -0.8238  0.3585  2.0692
 4211SOL    HW224093   2.447   3.560  11.650 -0.5760 -2.0624  0.6932
 4212SOL     OW24094   4.162   1.773   4.008  0.0126 -0.3286  0.1996
 4212SOL    HW124095   4.135   1.779   4.100 -2.0395 -0.7479 -0.3597
 4212SOL    HW224096   4.251   1.740   4.018  0.4814  0.8707 -0.0633
 4213SOL     OW24097   0.730   4.583   6.440  0.2440 -0.3004 -0.2727
 4213SOL    HW124098   0.717   4.488   6.442  0.3710 -0.3390 -1.1204
 4213SOL    HW224099   0.725   4.600   6.534 -1.2462 -1.4004 -0.1607
 4214SOL     OW24100   2.006   2.561  15.388  0.5649  0.4366  0.0063
 4214SOL    HW124101   2.034   2.548  15.297  1.0233  0.5620  0.1269
 4214SOL    HW224102   1.924   2.512  15.387  0.8928 -0.1480  2.3224
 4215SOL     OW24103   0.163   3.055   2.716 -0.0267 -0.4201 -0.2298
 4215SOL    HW124104   0.154   2.962   2.696  0.9922 -0.6944  0.5756
 4215SOL    HW224105   0.131   3.102   2.639  1.5665 -2.0105 -1.8260
 4216SOL     OW24106   4.719   3.215   9.778  0.4217 -0.2934  0.4340
 4216SOL    HW124107   4.647   3.195   9.717  1.2809 -1.5917 -0.1425
 4216SOL    HW224108   4.721   3.145   9.843  0.9509  1.0283  1.8502
 4217SOL     OW24109   0.041   0.117   7.251 -0.7634  0.6904  0.3704
 4217SOL    HW124110   0.114   0.163   7.210  0.0546 -0.2817  0.7182
 4217SOL    HW224111   4.692   0.177   7.263  0.7456  2.7948 -1.0361
 4218SOL     OW24112   1.799   4.585   4.780 -0.0625 -0.2356 -0.2211
 4218SOL    HW124113   1.849   4.623   4.852  1.0329 -0.2970 -0.9493
 4218SOL    HW224114   1.867   4.538   4.732  1.1290  1.6470 -0.3600
 4219SOL     OW24115   0.250   3.392   0.864 -0.5732  0.4504  0.0890
 4219SOL    HW124116   0.189   3.404   0.791 -2.0672  0.6728  1.3890
 4219SOL    HW224117   0.202   3.328   0.915  2.0825 -0.1678  1.8045
 4220SOL     OW24118   4.224   4.023  10.876 -0.1728  0.1679 -0.1308
 4220SOL    HW124119   4.277   3.993  10.801 -2.0821 -1.9031 -0.6458
 4220SOL    HW224120   4.279   4.096  10.905 -0.1419  0.1707 -0.1970
 4221SOL     OW24121   4.076   0.936  14.384 -0.2557  0.7966 -1.0550
 4221SOL    HW124122   4.157   0.980  14.357  1.9227 -2.9466 -0.5208
 4221SOL    HW224123   4.022   0.957  14.308  1.0433  1.3650 -1.8292
 4222SOL     OW24124   4.695   0.258   8.158 -0.5501 -0.0948 -0.1379
 4222SOL    HW124125   4.681   0.319   8.086  0.3962 -1.1077 -1.1837
 4222SOL    HW224126   0.059   0.225   8.140 -0.6525 -1.7958  2.4320
 4223SOL     OW24127   2.100   2.953  14.383 -0.2653  0.2207  0.0004
 4223SOL    HW124128   2.189   2.965  14.416 -1.1321 -0.7583  2.7451
 4223SOL    HW224129   2.113   2.982  14.293  0.1843  2.7100  0.8579
 4224SOL     OW24130   0.339   3.482   2.455 -0.0887  0.4283 -0.1096
 4224SOL    HW124131   0.259   3.524   2.485  0.4387 -1.1901  3.4985
 4224SOL    HW224132   0.333   3.406   2.512  0.4980  1.7043  1.6344
 4225SOL     OW24133   2.960   0.636  15.213 -0.0239 -0.0092 -0.6062
 4225SOL    HW124134   2.974   0.630  15.307 -1.1111  2.8519 -0.2677
 4225SOL    HW224135   2.944   0.542  15.205  0.0365 -0.1718  1.1993
 4226SOL     OW24136   3.659   3.873   1.981 -0.4281  0.1301 -0.0374
 4226SOL    HW124137   3.686   3.866   2.073 -1.0573  1.5057  0.2548
 4226SOL    HW224138   3.715   3.807   1.941 -1.9572 -1.7098  0.8757
 4227SOL     OW24139   1.256   0.256   2.180 -0.2369 -0.4334  0.2608
 4227SOL    HW124140   1.164   0.258   2.206 -0.4628  3.0777 -0.8542
 4227SOL    HW224141   1.275   0.350   2.171  1.5630 -0.8482 -0.3043
 4228SOL     OW24142   3.372   4.146  15.360 -0.4952  0.7437 -0.1149
 4228SOL    HW124143   3.409   4.229  15.388  0.6584 -0.1399  0.9759
 4228SOL    HW224144   3.426   4.075  15.393  1.0306  2.1716  0.4327
 4229SOL     OW24145   1.094   3.242  14.876  0.3356  0.0598 -0.5356
 4229SOL    HW124146   1.005   3.275  14.867 -0.5585 -2.2120 -0.0536
 4229SOL    HW224147   1.127   3.282  14.796  0.2879  4.7993  1.7665
 4230SOL     OW24148   2.952   0.512   9.542 -0.0175 -0.3350 -0.6595
 4230SOL    HW124149   2.982   0.432   9.586 -2.5906  0.3307  2.2960
 4230SOL    HW224150   2.858   0.516   9.560  0.6561 -1.9609  3.1089
 4231SOL     OW24151   2.630   4.552   7.922  0.1937  0.0797 -0.1980
 4231SOL    HW124152   2.539   4.580   7.909 -0.4885 -1.4638  1.2308
 4231SOL    HW224153   2.648   4.611   7.995  2.1075 -1.1680  0.3251
 4232SOL     OW24154   4.297   3.756  10.971  0.0936  0.2875 -0.5138
 4232SOL    HW124155   4.251   3.771  11.054  0.4122  0.5306 -0.3828
 4232SOL    HW224156   4.292   3.849  10.947 -1.4409  0.7932  1.8091
 4233SOL     OW24157   4.097   4.346   9.338 -0.0802  0.5989 -0.1500
 4233SOL    HW124158   4.036   4.365   9.266 -1.7332 -0.5157  0.9504
 4233SOL    HW224159   4.031   4.314   9.400 -1.5937 -1.0860 -2.5849
 4234SOL     OW24160   1.582   2.302   3.022 -0.7298 -0.0064  0.2893
 4234SOL    HW124161   1.677   2.300   3.034 -0.5332 -1.9395 -1.5416
 4234SOL    HW224162   1.582   2.350   2.939  2.6193  0.0812  0.3075
 4235SOL     OW24163   4.345   2.407   6.709  0.1090 -0.3509  0.4713
 4235SOL    HW124164   4.404   2.347   6.664  1.5757  1.9132 -0.5889
 4235SOL    HW224165   4.268   2.352   6.692  0.6007 -0.4589 -1.4520
 4236SOL     OW24166   0.902   0.424  16.120 -0.0358  0.1474 -0.3580
 4236SOL    HW124167   0.822   0.426  16.069  0.8158 -0.2846 -1.7078
 4236SOL    HW224168   0.876   0.386  16.204  0.7682  0.4177  0.0167
 4237SOL     OW24169   2.338   3.076   6.263  0.1253 -0.4100  0.2530
 4237SOL    HW124170   2.410   3.016   6.285 -0.6895 -1.3327  0.4018
 4237SOL    HW224171   2.387   3.158   6.264 -0.7986  0.1291  1.7724
 4238SOL     OW24172   4.090   1.473   3.821  0.2772  0.1972  0.1036
 4238SOL    HW124173   4.147   1.399   3.843  0.4002  0.0856 -0.5783
 4238SOL    HW224174   4.019   1.467   3.885 -0.6804 -0.0539 -0.9763
 4239SOL     OW24175   4.148   1.950  17.004 -0.4994 -0.6238 -0.2749
 4239SOL    HW124176   4.103   1.882  17.054 -0.4772 -1.1614 -0.9782
 4239SOL    HW224177   4.149   2.018  17.071 -0.7772  0.7793 -1.6980
 4240SOL     OW24178   1.386   2.629  10.803 -0.2613  0.2564  1.1347
 4240SOL    HW124179   1.450   2.697  10.780 -1.6768  0.1658 -3.0695
 4240SOL    HW224180   1.339   2.625  10.720 -1.1553 -0.3482  1.6697
 4241SOL     OW24181   1.756   3.669   8.773  0.1888  0.4102  0.0790
 4241SOL    HW124182   1.678   3.716   8.802 -0.0935 -0.2681  0.4279
 4241SOL    HW224183   1.714   3.626   8.698  1.2057 -0.3588 -0.0519
 4242SOL     OW24184   0.856   3.655   2.065 -0.2773 -0.2502  0.1539
 4242SOL    HW124185   0.784   3.643   2.128  0.5062 -0.5505  0.9883
 4242SOL    HW224186   0.893   3.567   2.057 -1.8697 -0.7566 -1.4494
 4243SOL     OW24187   4.391   2.718   3.718 -0.3061 -0.0543  0.0786
 4243SOL    HW124188   4.417   2.748   3.631 -0.7794 -0.1087 -0.0793
 4243SOL    HW224189   4.312   2.670   3.693  0.4918 -0.3352 -1.8748
 4244SOL     OW24190   3.573   1.179   3.846  0.2684 -0.3261 -0.4442
 4244SOL    HW124191   3.651   1.209   3.799  0.8997 -1.8071 -0.3336
 4244SOL    HW224192   3.615   1.165   3.931  0.7640 -4.5228 -1.3860
 4245SOL     OW24193   1.249   1.971   8.187 -0.3794 -0.1354  0.0418
 4245SOL    HW124194   1.238   2.025   8.108  0.7913 -0.9557 -0.6908
 4245SOL    HW224195   1.317   2.014   8.238 -0.6962 -1.4762  1.5600
 4246SOL     OW24196   0.768   4.200   1.253  0.1712  0.2620 -0.2565
 4246SOL    HW124197   0.729   4.275   1.207  1.0010  0.7593 -0.1421
 4246SOL    HW224198   0.787   4.236   1.339  0.9632 -0.4785 -0.1273
 4247SOL     OW24199   4.599   0.547   7.617  0.1430  0.0024 -0.1142
 4247SOL    HW124200   4.632   0.574   7.703 -0.5415  0.7340 -0.0903
 4247SOL    HW224201   4.631   0.456   7.620  0.1809  0.0002 -0.6605
 4248SOL     OW24202   3.590   2.440   6.188 -0.4853  0.2816 -0.1951
 4248SOL    HW124203   3.630   2.516   6.230 -2.0196 -0.8950  3.3826
 4248SOL    HW224204   3.530   2.414   6.257  0.6600 -0.7378  0.4051
 4249SOL     OW24205   2.020   0.889  14.909  0.1295 -0.1306 -0.2274
 4249SOL    HW124206   2.090   0.892  14.974 -0.2668 -3.3121  0.3531
 4249SOL    HW224207   2.058   0.819  14.855 -0.8435 -0.9627  0.1747
 4250SOL     OW24208   1.591   2.898   1.427  0.1761  0.0145  0.2015
 4250SOL    HW124209   1.664   2.860   1.377  0.0702  0.4390 -0.2743
 4250SOL    HW224210   1.638   2.962   1.480  2.1901 -0.1257 -1.4363
 4251SOL     OW24211   4.471   2.977   8.941 -0.3830 -0.5007 -0.0055
 4251SOL    HW124212   4.491   3.062   8.903  1.3016 -0.1490  1.6613
 4251SOL    HW224213   4.442   2.925   8.866  1.0705 -0.3336 -0.6904
 4252SOL     OW24214   3.283   4.225  13.535  0.0787 -0.0986 -0.0950
 4252SOL    HW124215   3.363   4.267  13.568  1.7502 -2.3934 -1.2956
 4252SOL    HW224216   3.262   4.167  13.609  1.0007  0.9826  1.0288
 4253SOL     OW24217   2.485   2.264   6.123  0.2873  0.0391  0.2646
 4253SOL    HW124218   2.552   2.199   6.101  0.1627  0.4734 -1.3602
 4253SOL    HW224219   2.479   2.238   6.215  2.5773  1.4924  0.8257
 4254SOL     OW24220   3.957   0.134   4.258  0.0411 -0.1977 -0.0131
 4254SOL    HW124221   3.870   0.127   4.297  0.8372 -2.6439  1.3080
 4254SOL    HW224222   4.006   0.101   4.333  1.1035 -0.0061 -0.6216
 4255SOL     OW24223   1.690   3.014   2.747  0.8326  0.2635  0.6191
 4255SOL    HW124224   1.734   3.099   2.742  1.5707 -0.1874 -0.3377
 4255SOL    HW224225   1.758   2.959   2.709  0.9695 -0.5144  1.9940
 4256SOL     OW24226   4.243   2.182   7.282  0.2588  0.0136  0.3809
 4256SOL    HW124227   4.237   2.276   7.265  0.9872  0.4992  2.9021
 4256SOL    HW224228   4.177   2.166   7.349 -2.3523  1.3237 -1.8850
 4257SOL     OW24229   2.682   4.567   7.090 -0.0209  0.2406  0.1898
 4257SOL    HW124230   2.713   4.656   7.106  0.2859 -0.0647  1.3126
 4257SOL    HW224231   2.618   4.548   7.159 -0.4304  0.7875 -0.0371
 4258SOL     OW24232   0.533   4.096   1.924  0.1490  0.1823  0.1812
 4258SOL    HW124233   0.510   4.156   1.853  2.7914 -2.5995 -2.9778
 4258SOL    HW224234   0.453   4.075   1.973  1.5746 -1.0792  1.9581
 4259SOL     OW24235   4.327   3.906  10.635  1.3046 -0.1083  0.0570
 4259SOL    HW124236   4.360   3.929  10.548 -0.4692  2.0944 -0.0286
 4259SOL    HW224237   4.361   3.819  10.657  1.4062  0.3243  1.6573
 4260SOL     OW24238   3.224   3.908  12.590 -0.2814 -0.0979  0.6709
 4260SOL    HW124239   3.211   3.989  12.539  0.7384 -0.1920  0.2600
 4260SOL    HW224240   3.305   3.880  12.548  1.5683  2.6684  2.3704
 4261SOL     OW24241   0.108   3.994   5.547  0.2126 -1.1585  0.8271
 4261SOL    HW124242   0.090   4.066   5.607  1.1107  1.0115 -1.4929
 4261SOL    HW224243   0.032   3.942   5.574 -0.7668  0.1051  0.5439
 4262SOL     OW24244   2.606   2.011   9.378  0.5165  0.0412 -0.1555
 4262SOL    HW124245   2.600   2.098   9.416  0.9973  0.3783 -0.8497
 4262SOL    HW224246   2.635   2.033   9.290 -0.9438  0.0177 -0.6345
 4263SOL     OW24247   3.434   2.380   8.640  0.0867  0.2378 -0.1815
 4263SOL    HW124248   3.498   2.317   8.673 -0.2376  0.4453  0.8349
 4263SOL    HW224249   3.476   2.464   8.660 -0.5122  0.7952 -1.2514
 4264SOL     OW24250   0.831   2.343   9.306 -0.3706 -0.7879 -0.1074
 4264SOL    HW124251   0.884   2.368   9.230  1.4550  1.6306  1.9900
 4264SOL    HW224252   0.899   2.351   9.373 -1.6912 -1.7538  1.3504
 4265SOL     OW24253   3.268   2.925   5.033 -0.0154 -0.0903 -0.2441
 4265SOL    HW124254   3.329   2.996   5.052 -0.0079 -0.2150  0.2132
 4265SOL    HW224255   3.201   2.984   4.999  0.5457  0.5587 -0.2238
 4266SOL     OW24256   0.186   1.225  15.194 -0.2389 -0.2969 -0.3457
 4266SOL    HW124257   0.127   1.270  15.133 -0.7820 -0.6604 -0.0901
 4266SOL    HW224258   0.140   1.143  15.213 -0.8529  0.0437 -0.3475
 4267SOL     OW24259   2.187   0.634   9.120  0.0536  0.1347  0.0398
 4267SOL    HW124260   2.160   0.543   9.112 -0.2577  0.4329 -2.1771
 4267SOL    HW224261   2.177   0.645   9.215 -0.8498  1.0076 -0.1542
 4268SOL     OW24262   0.418   3.992  10.075 -0.0018 -0.5074 -0.2434
 4268SOL    HW124263   0.461   4.033   9.999  0.4145 -1.0509 -0.3029
 4268SOL    HW224264   0.454   4.041  10.148  1.5753 -1.7325 -0.2000
 4269SOL     OW24265   2.712   2.320   3.434 -0.4279  0.3205 -0.7140
 4269SOL    HW124266   2.746   2.367   3.511  1.1183 -0.3555 -1.0039
 4269SOL    HW224267   2.634   2.375   3.428  0.6142  1.8677 -0.2723
 4270SOL     OW24268   0.528   1.163   7.063  0.0717  0.4324 -0.1188
 4270SOL    HW124269   0.479   1.119   7.132 -1.7442  0.3915 -1.4301
 4270SOL    HW224270   0.544   1.248   7.105  0.2114  0.2225  0.2473
 4271SOL     OW24271   2.917   3.665   0.915 -0.1481 -0.3834 -0.1950
 4271SOL    HW124272   3.009   3.691   0.924 -0.6043  0.6223  1.5461
 4271SOL    HW224273   2.890   3.730   0.851 -1.7651 -0.3669  0.5116
 4272SOL     OW24274   2.437   1.827   3.487 -0.0497  0.3825 -0.2501
 4272SOL    HW124275   2.364   1.867   3.440  1.3926  3.1880 -0.0922
 4272SOL    HW224276   2.400   1.766   3.550  0.2042  2.1163  1.5555
 4273SOL     OW24277   2.515   4.279   7.883  0.2633  0.3446  0.8438
 4273SOL    HW124278   2.437   4.284   7.938  0.6292 -0.2759  1.4184
 4273SOL    HW224279   2.572   4.340   7.930  1.3033  1.5194 -2.0009
 4274SOL     OW24280   2.663   2.270   2.427 -0.4191  0.8994  0.3252
 4274SOL    HW124281   2.702   2.233   2.506  1.8924  3.0558  0.2322
 4274SOL    HW224282   2.628   2.194   2.381  1.9957 -1.3282  2.1506
 4275SOL     OW24283   3.521   3.807   4.395  0.0751 -0.2633  0.3857
 4275SOL    HW124284   3.610   3.837   4.380  0.0781  0.3594  1.6368
 4275SOL    HW224285   3.541   3.737   4.458 -0.1914  0.0382  0.8082
 4276SOL     OW24286   2.405   4.650   7.796  0.3692 -0.3531 -0.1693
 4276SOL    HW124287   2.410   0.021   7.783  1.8390 -0.0834  2.2206
 4276SOL    HW224288   2.349   4.658   7.873  0.4569 -1.5733  0.0231
 4277SOL     OW24289   0.390   3.110   6.036 -0.0964 -0.6836  0.8781
 4277SOL    HW124290   0.342   3.188   6.009  2.2257  1.0360  1.7527
 4277SOL    HW224291   0.451   3.108   5.962 -0.6918  0.7001  0.3690
 4278SOL     OW24292   1.290   1.541  13.723  0.5075  0.3353 -0.1298
 4278SOL    HW124293   1.332   1.580  13.645  0.8347  1.5753  0.6608
 4278SOL    HW224294   1.198   1.561  13.705  1.1426  2.6164 -0.9337
 4279SOL     OW24295   4.255   1.932   2.474  0.1085 -0.0840 -0.2177
 4279SOL    HW124296   4.282   2.016   2.511  0.1902 -0.5706  0.8152
 4279SOL    HW224297   4.167   1.922   2.511 -1.0304  0.7072 -2.6539
 4280SOL     OW24298   1.481   1.013   9.657 -0.1108  0.1371  0.5164
 4280SOL    HW124299   1.503   0.931   9.701 -0.9053  1.2079  2.9116
 4280SOL    HW224300   1.435   1.066   9.723 -0.1005  1.9255 -0.8850
 4281SOL     OW24301   4.593   0.704  10.376 -0.0983 -0.4101 -0.1135
 4281SOL    HW124302   4.657   0.633  10.373 -0.5281 -0.8462  1.0005
 4281SOL    HW224303   4.657   0.771  10.400 -1.5914  2.1186 -3.1746
 4282SOL     OW24304   0.834   3.588   1.170 -0.1301  0.2618  0.0623
 4282SOL    HW124305   0.882   3.513   1.205 -1.4677  0.0572  1.4748
 4282SOL    HW224306   0.742   3.566   1.183 -0.4912 -0.3789 -3.7513
 4283SOL     OW24307   3.501   2.336   7.174 -0.4598 -0.2278  0.2420
 4283SOL    HW124308   3.502   2.345   7.078 -4.1732  0.4577  0.2520
 4283SOL    HW224309   3.486   2.427   7.198  0.4859  0.6014 -2.2671
 4284SOL     OW24310   0.928   2.413  10.032  0.1945  0.3218  0.0864
 4284SOL    HW124311   0.981   2.407   9.953  0.0887  1.9979 -0.1126
 4284SOL    HW224312   0.985   2.462  10.092 -1.8613  1.8387  0.8366
 4285SOL     OW24313   0.065   3.884  14.947 -0.5197  0.0175  0.2245
 4285SOL    HW124314   0.064   3.858  14.855  0.2251  0.1380  0.1806
 4285SOL    HW224315   0.084   3.978  14.943 -1.1863  0.1307 -0.2103
 4286SOL     OW24316   0.743   3.029   9.084  0.5322 -0.1493  0.0524
 4286SOL    HW124317   0.836   3.031   9.106  0.6016 -0.4433 -0.2218
 4286SOL    HW224318   0.730   3.113   9.040  1.5007 -1.0425 -1.9159
 4287SOL     OW24319   4.197   2.006   2.060  0.1439 -0.4535 -0.0586
 4287SOL    HW124320   4.196   2.101   2.047  0.7892 -0.5848 -1.1189
 4287SOL    HW224321   4.164   1.988   1.972  2.6665 -2.3064 -0.6224
 4288SOL     OW24322   3.807   3.494   5.860 -0.0616 -0.4998 -0.0159
 4288SOL    HW124323   3.887   3.545   5.849 -0.7256  0.6366  0.4319
 4288SOL    HW224324   3.748   3.562   5.826 -0.4456 -0.3375  0.9865
 4289SOL     OW24325   1.524   1.524   4.171 -0.4990 -0.0327  0.1613
 4289SOL    HW124326   1.475   1.600   4.139 -1.1086 -0.4829  0.0277
 4289SOL    HW224327   1.562   1.498   4.087 -0.8690  0.6062 -0.2085
 4290SOL     OW24328   3.817   1.906   7.998  0.2530  0.8040  0.0272
 4290SOL    HW124329   3.852   1.893   7.909  2.7315 -1.9067  1.4106
 4290SOL    HW224330   3.776   1.823   8.018 -0.4066  0.4725 -2.6031
 4291SOL     OW24331   0.030   3.064   0.339  0.2060  0.7103 -0.4015
 4291SOL    HW124332   0.085   3.017   0.402 -0.9211  1.2993  1.0093
 4291SOL    HW224333   0.091   3.137   0.331  0.3272  0.7321  0.6628
 4292SOL     OW24334   2.925   0.601  17.150 -0.0678 -0.0326  0.3423
 4292SOL    HW124335   2.996   0.561  17.100  0.4502  3.3960 -1.6941
 4292SOL    HW224336   2.922   0.693  17.123 -1.4331 -0.4216 -0.7892
 4293SOL     OW24337   2.308   2.194   2.209  0.0745  0.3435 -0.7098
 4293SOL    HW124338   2.366   2.118   2.202 -1.4960 -0.7048 -2.5818
 4293SOL    HW224339   2.370   2.266   2.219  1.6471 -1.0116 -0.7048
 4294SOL     OW24340   1.366   1.745   4.285  0.2236  0.4333 -0.3481
 4294SOL    HW124341   1.416   1.804   4.228 -0.1167  2.1823  1.1626
 4294SOL    HW224342   1.430   1.712   4.349 -1.8472 -0.5539  1.2213
 4295SOL     OW24343   4.674   3.326   7.895  0.5749 -0.0416  0.2688
 4295SOL    HW124344   4.630   3.247   7.926 -0.3485 -0.5063 -2.2296
 4295SOL    HW224345   0.010   3.334   7.970  0.4006 -0.3771  0.4424
 4296SOL     OW24346   0.591   1.141  16.147  0.3935 -0.5450 -0.1964
 4296SOL    HW124347   0.514   1.160  16.094 -0.5487 -1.6026  0.7807
 4296SOL    HW224348   0.552   1.104  16.226 -0.6979  0.7914 -0.1216
 4297SOL     OW24349   0.721   0.730   2.931  0.0116  0.2917  0.5584
 4297SOL    HW124350   0.760   0.683   3.005  1.6801 -0.0017 -0.5146
 4297SOL    HW224351   0.634   0.689   2.922 -0.3499  1.1302  0.2624
 4298SOL     OW24352   3.654   3.532   0.387 -0.1909  0.3368 -0.8537
 4298SOL    HW124353   3.664   3.533   0.482 -1.1396  0.1556 -0.7481
 4298SOL    HW224354   3.625   3.622   0.370  2.2213  1.4527  0.9525
 4299SOL     OW24355   3.998   0.371   5.850  0.1728  0.3573 -0.3232
 4299SOL    HW124356   3.965   0.449   5.894 -0.8856 -0.2375 -0.0733
 4299SOL    HW224357   4.089   0.375   5.879  0.5862  1.0197 -1.6811
 4300SOL     OW24358   1.533   1.848   5.725 -0.5604  0.0331  0.1733
 4300SOL    HW124359   1.553   1.867   5.633 -0.5990  1.4474  0.4665
 4300SOL    HW224360   1.463   1.784   5.715  1.1301 -1.8382  0.2988
 4301SOL     OW24361   3.817   0.497   8.586 -0.3283 -0.1399 -0.3712
 4301SOL    HW124362   3.773   0.442   8.651 -0.0625 -0.2656 -0.2973
 4301SOL    HW224363   3.911   0.480   8.598 -0.6773  0.3824  3.1640
 4302SOL     OW24364   4.160   4.278   7.209  0.4412  0.5448  0.4626
 4302SOL    HW124365   4.217   4.257   7.283 -0.4941 -1.9232  0.4785
 4302SOL    HW224366   4.152   4.194   7.164 -1.3988  2.1194 -2.1784
 4303SOL     OW24367   3.098   3.709  12.248 -0.4373 -0.0618 -0.2119
 4303SOL    HW124368   3.016   3.667  12.221 -1.0069  1.0131 -0.1316
 4303SOL    HW224369   3.147   3.699  12.166 -0.7227 -2.3363 -0.1239
 4304SOL     OW24370   1.459   3.871   4.963  0.0603  0.1853 -0.0313
 4304SOL    HW124371   1.387   3.883   4.901 -0.2224  0.1840  0.2958
 4304SOL    HW224372   1.486   3.785   4.931  0.5895 -0.0673  1.0730
 4305SOL     OW24373   0.438   1.288   7.762  0.5740  0.4809 -0.3951
 4305SOL    HW124374   0.363   1.229   7.766  0.7784  0.2605  0.1457
 4305SOL    HW224375   0.423   1.325   7.848 -0.5285  0.7268 -0.6973
 4306SOL     OW24376   4.516   2.625   1.326  0.0924  0.4980 -0.1294
 4306SOL    HW124377   4.505   2.601   1.234 -2.1078  1.7744 -0.2033
 4306SOL    HW224378   4.526   2.538   1.366 -2.5847  0.4882  0.5261
 4307SOL     OW24379   3.724   2.179   6.007  0.1367 -0.0258  0.3977
 4307SOL    HW124380   3.711   2.102   6.061 -0.3831  1.1295  1.9208
 4307SOL    HW224381   3.662   2.242   6.044  0.0307 -0.6928  1.3554
 4308SOL     OW24382   0.603   3.483   2.584 -0.1551  0.7617 -0.7061
 4308SOL    HW124383   0.513   3.475   2.552 -1.3718 -1.0638  3.1908
 4308SOL    HW224384   0.608   3.570   2.622  1.9499  1.1166 -1.8132
 4309SOL     OW24385   1.310   1.538   5.035 -0.1236 -0.1154 -0.3140
 4309SOL    HW124386   1.361   1.509   4.960 -0.7883 -1.7384 -0.1377
 4309SOL    HW224387   1.304   1.633   5.024 -0.0483 -0.1842 -0.9298
 4310SOL     OW24388   4.699   2.716   8.276 -0.0090 -0.2851  0.8845
 4310SOL    HW124389   4.625   2.701   8.217  1.4124  0.8202 -1.2320
 4310SOL    HW224390   0.053   2.683   8.230 -1.9545 -2.4482 -0.8057
 4311SOL     OW24391   1.139   1.585   7.481  0.1825  0.3226  0.4382
 4311SOL    HW124392   1.181   1.614   7.400  1.7763 -1.4703  0.6119
 4311SOL    HW224393   1.068   1.646   7.497 -1.4552 -1.3049 -0.6874
 4312SOL     OW24394   2.669   1.038   0.952  0.3602  0.5452  0.4916
 4312SOL    HW124395   2.691   1.082   0.870 -1.6680  1.1195  0.2723
 4312SOL    HW224396   2.578   1.062   0.967  0.1358  0.5896 -0.9492
 4313SOL     OW24397   4.356   1.752  17.633 -0.0410 -0.3507 -0.3745
 4313SOL    HW124398   4.364   1.829  17.577 -0.2163  1.0970  1.5880
 4313SOL    HW224399   4.278   1.782  17.679 -0.9811 -1.1786 -1.4250
 4314SOL     OW24400   3.796   1.170   3.407 -0.5054  0.3032  0.3490
 4314SOL    HW124401   3.835   1.257   3.400  0.5368 -0.1725  0.2596
 4314SOL    HW224402   3.876   1.118   3.400 -1.1032 -0.9562  2.8948
 4315SOL     OW24403   0.676   1.927   0.745  0.4196  0.5519 -0.0214
 4315SOL    HW124404   0.734   1.852   0.733  0.3260  0.3801  0.6266
 4315SOL    HW224405   0.609   1.915   0.677  0.4964  0.2346 -0.0387
 4316SOL     OW24406   3.226   1.496   7.194  0.3349 -0.0417 -0.4460
 4316SOL    HW124407   3.151   1.505   7.136  0.0001 -2.2301 -0.3340
 4316SOL    HW224408   3.193   1.441   7.264 -1.1066 -1.6670 -2.4166
 4317SOL     OW24409   4.398   3.305   6.098 -0.1252 -0.1665  0.2624
 4317SOL    HW124410   4.329   3.241   6.115  1.1512 -2.2310 -2.3498
 4317SOL    HW224411   4.413   3.341   6.186 -0.0128  0.2478  0.0737
 4318SOL     OW24412   1.723   1.341   7.663 -0.0201  0.0768 -0.0574
 4318SOL    HW124413   1.732   1.431   7.632 -0.7822 -0.1002 -0.7881
 4318SOL    HW224414   1.678   1.304   7.588 -0.0611 -0.6323  0.3197
 4319SOL     OW24415   3.645   3.425   6.514 -0.6248 -0.2212 -0.2186
 4319SOL    HW124416   3.630   3.366   6.440  1.6734 -0.1112 -0.7973
 4319SOL    HW224417   3.597   3.502   6.483 -1.4503 -0.6066  0.1150
 4320SOL     OW24418   4.068   3.600   8.177 -0.1390  0.0350 -0.6878
 4320SOL    HW124419   4.145   3.547   8.194 -1.1195 -0.4964  2.0449
 4320SOL    HW224420   4.111   3.686   8.181 -0.4539  0.0559  2.2150
 4321SOL     OW24421   0.879   4.327   9.273  0.6524  0.2066  0.3306
 4321SOL    HW124422   0.929   4.299   9.350  0.4574  1.1088  0.7816
 4321SOL    HW224423   0.790   4.335   9.306  0.1351  0.3052 -1.1209
 4322SOL     OW24424   2.849   4.422   9.979 -0.1733 -0.0172  0.7008
 4322SOL    HW124425   2.872   4.464   9.896 -1.4133 -0.4337  0.1390
 4322SOL    HW224426   2.887   4.335   9.967 -1.7138 -0.5818 -0.1409
 4323SOL     OW24427   0.285   1.644   9.321  0.5089  0.3561 -0.3494
 4323SOL    HW124428   0.198   1.616   9.350  1.7516  0.2752  3.2841
 4323SOL    HW224429   0.268   1.738   9.319  2.4267  0.7226  0.1763
 4324SOL     OW24430   1.412   2.073   1.522 -0.2115 -0.8041 -0.1495
 4324SOL    HW124431   1.498   2.095   1.557  0.0691 -1.1952 -0.5784
 4324SOL    HW224432   1.427   2.049   1.430  0.3862  1.1580 -0.5608
 4325SOL     OW24433   4.322   1.657   1.232 -0.1266 -0.0877 -0.0476
 4325SOL    HW124434   4.247   1.600   1.250  0.3729 -1.9710 -3.8861
 4325SOL    HW224435   4.356   1.622   1.149 -0.3938  1.4474 -0.8042
 4326SOL     OW24436   0.473   2.042   1.805  0.3621  0.0478  0.1791
 4326SOL    HW124437   0.404   1.981   1.831 -0.3964  0.3085 -1.1964
 4326SOL    HW224438   0.555   2.005   1.840 -0.7216 -1.6223  0.9476
 4327SOL     OW24439   4.475   1.490   1.067  0.5658  0.2535  0.2544
 4327SOL    HW124440   4.498   1.444   0.987 -0.5778 -0.0527  0.1163
 4327SOL    HW224441   4.513   1.433   1.133  0.8341 -2.2567 -2.1018
 4328SOL     OW24442   0.469   2.775  10.721 -0.1832  0.5421  0.0946
 4328SOL    HW124443   0.471   2.862  10.681  1.2044  0.6439  0.3881
 4328SOL    HW224444   0.458   2.716  10.647  0.4381  0.4092  0.1090
 4329SOL     OW24445   2.794   2.607   5.744  0.9634 -0.1372 -0.3237
 4329SOL    HW124446   2.711   2.592   5.699  1.2726  1.4764 -1.4166
 4329SOL    HW224447   2.846   2.543   5.695  0.0295 -1.4031  0.3173
 4330SOL     OW24448   1.270   2.179   3.915  0.9620  0.2180  0.1038
 4330SOL    HW124449   1.320   2.115   3.863 -0.1251 -1.3270  0.9621
 4330SOL    HW224450   1.210   2.206   3.845  1.1192 -0.0456 -0.1354
 4331SOL     OW24451   1.002   0.299   3.748  0.3935  0.1627 -0.2684
 4331SOL    HW124452   1.087   0.343   3.744  1.3561 -1.5829  0.5370
 4331SOL    HW224453   1.036   0.210   3.734 -0.0111  0.1960 -1.4799
 4332SOL     OW24454   3.721   4.476  16.170 -0.3938 -0.3745 -0.6265
 4332SOL    HW124455   3.782   4.489  16.097 -0.3704 -0.3187 -0.5974
 4332SOL    HW224456   3.740   4.393  16.214 -0.4026 -0.1189 -0.1377
 4333SOL     OW24457   1.513   0.501   8.302 -0.0103  0.2937 -0.5680
 4333SOL    HW124458   1.584   0.555   8.336 -2.1952  1.6437  1.8325
 4333SOL    HW224459   1.464   0.496   8.384  1.7734  1.3876  0.5512
 4334SOL     OW24460   1.208   2.605   6.136 -0.1346 -0.6213  0.3299
 4334SOL    HW124461   1.291   2.642   6.107 -0.6996  0.3200 -0.0893
 4334SOL    HW224462   1.239   2.517   6.159 -1.2176 -0.7738  1.2251
 4335SOL     OW24463   2.196   0.245   2.634 -0.2691  0.2704 -0.1343
 4335SOL    HW124464   2.128   0.241   2.567 -2.2070  1.7352  1.7525
 4335SOL    HW224465   2.266   0.234   2.570  0.5528  0.9059  0.6545
 4336SOL     OW24466   4.360   1.420   5.490 -0.4621 -0.3344 -0.9499
 4336SOL    HW124467   4.321   1.502   5.460  0.1271  1.0602  2.0707
 4336SOL    HW224468   4.450   1.434   5.463 -0.7790  1.6740 -0.9629
 4337SOL     OW24469   0.342   4.679   3.233 -0.2629  0.2290 -0.5202
 4337SOL    HW124470   0.289   0.020   3.186 -0.3825  1.3342  1.0895
 4337SOL    HW224471   0.382   4.639   3.156 -0.3082 -0.2813 -0.2781
 4338SOL     OW24472   0.569   1.641   7.860  0.0603  0.0769  0.0779
 4338SOL    HW124473   0.649   1.592   7.843 -1.5225 -2.2965 -0.4212
 4338SOL    HW224474   0.609   1.690   7.932 -1.1881  1.4242 -0.1550
 4339SOL     OW24475   1.560   0.084   8.551  0.7028  0.0275 -0.1459
 4339SOL    HW124476   1.497   0.036   8.604  1.7591 -2.6744 -1.2887
 4339SOL    HW224477   1.537   0.168   8.589  0.0471 -0.7290  1.1326
 4340SOL     OW24478   0.262   3.517   7.510 -0.4158 -0.0227 -0.5853
 4340SOL    HW124479   0.227   3.485   7.593 -1.0780 -1.6826 -1.5048
 4340SOL    HW224480   0.266   3.612   7.521  0.3970 -0.2557  1.0819
 4341SOL     OW24481   1.387   4.305   5.694 -0.1533 -0.3900  0.5316
 4341SOL    HW124482   1.410   4.246   5.622  0.3143 -0.4669  0.7461
 4341SOL    HW224483   1.464   4.310   5.750  0.0884  0.2758  0.1450
 4342SOL     OW24484   3.994   0.913   6.747 -0.7091 -0.2745 -0.4117
 4342SOL    HW124485   3.959   0.825   6.735 -1.0528 -0.4701  2.1035
 4342SOL    HW224486   4.078   0.894   6.790 -1.8547 -0.9162  1.5375
 4343SOL     OW24487   3.112   0.809   8.744  0.2319  0.5202  0.0555
 4343SOL    HW124488   3.187   0.751   8.755 -0.5607 -0.5600 -0.2259
 4343SOL    HW224489   3.096   0.827   8.837 -1.1439 -1.3520  0.1836
 4344SOL     OW24490   1.367   2.843  14.874 -0.3363 -0.6137 -0.0285
 4344SOL    HW124491   1.324   2.777  14.820  0.6052 -1.7066  0.5398
 4344SOL    HW224492   1.288   2.891  14.897 -0.8905 -0.0155 -3.2617
 4345SOL     OW24493   3.075   2.441  10.044 -0.3655 -0.0201 -0.0351
 4345SOL    HW124494   3.068   2.363  10.099  2.3369  1.4894  2.4704
 4345SOL    HW224495   3.068   2.388   9.966  0.8722  0.5926 -0.5741
 4346SOL     OW24496   4.721   0.329   3.881  0.3505  0.0488 -0.1042
 4346SOL    HW124497   0.061   0.259   3.864 -0.1490 -0.0342 -1.6940
 4346SOL    HW224498   4.646   0.271   3.890 -1.7248  2.5379 -1.4512
 4347SOL     OW24499   2.904   3.455   2.389 -0.1090  0.2051  0.4164
 4347SOL    HW124500   2.828   3.430   2.337 -1.1080  6.0694 -0.9445
 4347SOL    HW224501   2.892   3.543   2.424  0.1049  0.4130 -0.0212
 4348SOL     OW24502   1.758   1.814   9.451  0.0623  0.3336  0.1197
 4348SOL    HW124503   1.666   1.829   9.471  0.2631  1.5410  0.1535
 4348SOL    HW224504   1.751   1.810   9.355 -0.4190  1.5794  0.1006
 4349SOL     OW24505   4.395   3.407  15.761 -0.1733 -0.5655  0.2325
 4349SOL    HW124506   4.377   3.478  15.698  0.7145 -0.0294  0.5822
 4349SOL    HW224507   4.366   3.452  15.840  3.4032  0.5833  0.9039
 4350SOL     OW24508   2.337   1.285   3.488  0.1351  0.3763  0.1684
 4350SOL    HW124509   2.411   1.233   3.519 -2.0014 -2.5630  0.3953
 4350SOL    HW224510   2.360   1.290   3.395  1.4235  0.3520  0.4960
 4351SOL     OW24511   0.598   1.325   9.179  0.1476 -0.2124 -0.0734
 4351SOL    HW124512   0.522   1.269   9.164 -1.9616  2.2711  1.3624
 4351SOL    HW224513   0.648   1.274   9.243 -0.9947 -0.9584  0.2276
 4352SOL     OW24514   0.490   0.986   3.687  0.2946  0.5222  0.4034
 4352SOL    HW124515   0.513   0.933   3.610  3.5404  0.5176  1.3529
 4352SOL    HW224516   0.488   1.072   3.645 -0.6775 -0.1799 -0.9902
 4353SOL     OW24517   3.204   0.913   5.930  0.0885  0.0236 -0.1384
 4353SOL    HW124518   3.288   0.937   5.891  1.2274 -0.2075  2.1822
 4353SOL    HW224519   3.227   0.820   5.940 -0.2725 -0.3469 -2.6414
 4354SOL     OW24520   0.872   0.501   9.094 -0.0178  0.1355  0.4486
 4354SOL    HW124521   0.812   0.575   9.093 -0.0306  0.1400  1.2001
 4354SOL    HW224522   0.869   0.478   9.187 -1.9197 -0.0561  0.3322
 4355SOL     OW24523   3.643   2.452   8.985 -0.1401 -0.1222  0.2175
 4355SOL    HW124524   3.572   2.517   8.984  0.7175  0.7996 -2.0735
 4355SOL    HW224525   3.724   2.499   8.965 -1.6261  2.0084 -0.8106
 4356SOL     OW24526   3.783   1.491   3.430  0.0902 -0.5151 -0.1525
 4356SOL    HW124527   3.724   1.550   3.477 -0.5856 -0.7552 -0.6813
 4356SOL    HW224528   3.863   1.501   3.481 -2.0041  2.0627  2.6539
 4357SOL     OW24529   3.175   4.667   0.993  0.2635 -0.3492 -0.0634
 4357SOL    HW124530   3.223   0.015   0.952 -0.2605 -0.2590 -0.5161
 4357SOL    HW224531   3.094   4.704   1.028  0.4822 -1.6001  1.7689
 4358SOL     OW24532   2.791   3.390   7.697 -0.7174  0.3763  0.0741
 4358SOL    HW124533   2.850   3.405   7.623  1.0169 -0.0493  1.3733
 4358SOL    HW224534   2.713   3.358   7.651  0.8444 -1.0111 -1.6364
 4359SOL     OW24535   2.030   2.554   9.042 -0.7025  0.0087 -0.2739
 4359SOL    HW124536   2.124   2.571   9.032 -0.0177 -2.1530  2.2671
 4359SOL    HW224537   2.002   2.645   9.036 -1.2814 -0.1697 -0.2522
 4360SOL     OW24538   3.950   0.273   7.014  0.0992  0.1904 -0.0262
 4360SOL    HW124539   3.910   0.273   7.101 -2.5017 -1.6292 -1.2086
 4360SOL    HW224540   3.913   0.196   6.972  1.3845 -1.2913  1.6024
 4361SOL     OW24541   3.025   2.199   0.040  0.4404  0.7150  0.2664
 4361SOL    HW124542   3.105   2.244   0.066 -0.1196  1.3595  0.8924
 4361SOL    HW224543   3.068   2.120   0.008 -1.6423 -1.2530  2.2990
 4362SOL     OW24544   4.186   3.076   5.047  0.6423 -0.1002 -0.4871
 4362SOL    HW124545   4.222   2.996   5.085  0.0620 -0.6765 -1.1429
 4362SOL    HW224546   4.181   3.046   4.956 -0.2418 -0.0625 -0.4581
 4363SOL     OW24547   4.117   4.443   5.326  0.0934  0.6297  0.0388
 4363SOL    HW124548   4.163   4.460   5.244 -2.0315 -0.8910 -1.4756
 4363SOL    HW224549   4.164   4.499   5.388 -1.5349  1.8363  0.1544
 4364SOL     OW24550   0.004   1.416  15.084  0.0131  0.1093 -0.0150
 4364SOL    HW124551   4.637   1.447  15.072 -0.4774 -1.5821 -0.5668
 4364SOL    HW224552   0.055   1.494  15.061 -1.3639  1.4972  1.5953
 4365SOL     OW24553   1.526   1.192  17.003 -0.4114 -0.2244  0.2769
 4365SOL    HW124554   1.467   1.240  17.061 -1.8652 -0.6439 -0.8711
 4365SOL    HW224555   1.589   1.263  16.988 -1.1919  0.6693  1.2321
 4366SOL     OW24556   1.756   4.177  15.112 -0.7275  0.1787  0.2581
 4366SOL    HW124557   1.776   4.083  15.109 -3.8656 -0.4902  0.2207
 4366SOL    HW224558   1.839   4.216  15.140  0.3032 -0.3572 -2.0308
 4367SOL     OW24559   0.880   2.725   9.967 -0.7216 -0.5149 -0.0322
 4367SOL    HW124560   0.959   2.732  10.020 -1.5394  1.0481  1.0068
 4367SOL    HW224561   0.914   2.678   9.892 -0.8933 -1.2074  0.3223
 4368SOL     OW24562   0.472   2.607  14.755  0.0770 -0.2420  0.1194
 4368SOL    HW124563   0.530   2.683  14.764 -1.3621  0.7029  1.4359
 4368SOL    HW224564   0.396   2.661  14.734 -0.3519 -0.0625  2.1867
 4369SOL     OW24565   0.171   4.054   5.290 -0.4925  0.0436 -0.0193
 4369SOL    HW124566   0.170   4.007   5.374  0.6433 -1.0618 -0.6162
 4369SOL    HW224567   0.157   4.142   5.323 -0.0559 -0.8091  2.4434
 4370SOL     OW24568   1.115   2.464   5.802  0.3636  0.5756  0.0345
 4370SOL    HW124569   1.129   2.369   5.800 -1.6182  0.2196  2.0766
 4370SOL    HW224570   1.063   2.479   5.723 -1.7368  1.2671  1.5403
 4371SOL     OW24571   4.536   2.089   0.674  0.4389  0.7465 -0.6890
 4371SOL    HW124572   4.463   2.109   0.615 -0.8756  2.8611  1.6448
 4371SOL    HW224573   4.544   2.159   0.738  0.4055 -0.5981  0.7877
 4372SOL     OW24574   1.242   4.135  10.715  0.3098  0.5151  0.8004
 4372SOL    HW124575   1.202   4.220  10.735  1.1839  0.9503  0.7227
 4372SOL    HW224576   1.261   4.113  10.806  3.5603  1.1856  0.2824
 4373SOL     OW24577   2.120   1.783   4.275 -0.2796 -0.5479 -0.2543
 4373SOL    HW124578   2.092   1.796   4.184  1.1147 -0.7861 -0.7344
 4373SOL    HW224579   2.202   1.736   4.255  1.2425  2.1302 -0.3377
 4374SOL     OW24580   3.526   2.762   2.566 -0.3918 -0.2037 -0.3235
 4374SOL    HW124581   3.597   2.820   2.538 -1.2751  1.1030  0.1153
 4374SOL    HW224582   3.549   2.761   2.659 -1.5527  1.2715 -0.0120
 4375SOL     OW24583   3.660   0.059   5.221 -0.1318 -0.0940  0.1827
 4375SOL    HW124584   3.732   0.031   5.277  0.9291  1.5129 -0.3884
 4375SOL    HW224585   3.666   0.154   5.234 -0.8855 -0.0548  0.2495
 4376SOL     OW24586   3.669   2.273   8.742  0.5908 -0.3875  0.1422
 4376SOL    HW124587   3.764   2.276   8.753  0.3245  0.7558  2.1629
 4376SOL    HW224588   3.646   2.218   8.817 -1.3435 -0.6430 -0.6455
 4377SOL     OW24589   3.086   2.002  12.916  0.1602  0.2848 -0.5539
 4377SOL    HW124590   3.086   2.014  12.821 -0.9404 -2.9531 -0.9749
 4377SOL    HW224591   3.178   1.985  12.935 -0.2982 -1.3077  0.2598
 4378SOL     OW24592   3.328   0.738   5.158 -0.4526 -0.0268  1.0550
 4378SOL    HW124593   3.392   0.757   5.090  1.0089 -0.2009  2.3830
 4378SOL    HW224594   3.381   0.717   5.235  1.1719 -0.5277 -0.2104
 4379SOL     OW24595   2.570   0.861   5.687  0.1966  0.1334  0.4768
 4379SOL    HW124596   2.629   0.874   5.613  2.0757 -2.1190  1.5778
 4379SOL    HW224597   2.638   0.854   5.754  1.8715  0.4064 -1.1891
 4380SOL     OW24598   1.284   4.719   8.629 -0.1296  0.2037  0.0711
 4380SOL    HW124599   1.242   0.066   8.678 -1.5229 -1.0938  0.7584
 4380SOL    HW224600   1.211   4.693   8.573 -0.9848  2.8140 -0.0114
 4381SOL     OW24601   1.383   0.647   3.455  0.0151 -0.4448 -0.2709
 4381SOL    HW124602   1.393   0.553   3.439 -2.7749 -1.0467  1.5465
 4381SOL    HW224603   1.447   0.682   3.394  0.5439 -1.6720 -0.4264
 4382SOL     OW24604   1.881   4.092  11.781 -0.5260  0.1793  0.7401
 4382SOL    HW124605   1.967   4.133  11.771  0.0869 -0.9173  1.4948
 4382SOL    HW224606   1.904   4.000  11.799 -0.5063 -0.0339 -0.4139
 4383SOL     OW24607   3.423   1.839   9.393 -0.5845 -0.5928  0.2525
 4383SOL    HW124608   3.442   1.933   9.391  1.3203 -1.0222 -1.4233
 4383SOL    HW224609   3.509   1.796   9.399 -0.6148 -0.3806  2.0542
 4384SOL     OW24610   0.118   1.455   5.981  0.5481  0.1850 -0.6702
 4384SOL    HW124611   0.198   1.507   5.977 -0.7087  2.2984  1.5321
 4384SOL    HW224612   0.148   1.374   6.022  2.3814  1.1481 -0.0936
 4385SOL     OW24613   0.033   2.821   8.684 -0.5658  0.2126 -0.3504
 4385SOL    HW124614   0.088   2.853   8.756 -1.5891  2.1122 -0.4375
 4385SOL    HW224615   0.032   2.725   8.692 -1.1952  0.3379  1.1194
 4386SOL     OW24616   4.496   0.914   8.864 -0.5293 -0.2552 -0.2183
 4386SOL    HW124617   4.448   0.970   8.924  1.8820 -0.3964  1.8495
 4386SOL    HW224618   4.482   0.834   8.914  1.6391 -1.1834 -1.0894
 4387SOL     OW24619   2.940   1.928   2.880  0.2610 -0.4716 -0.0251
 4387SOL    HW124620   2.954   2.005   2.825  1.0703 -1.7142 -1.5839
 4387SOL    HW224621   2.904   1.859   2.824 -0.8635  0.8819 -0.9658
 4388SOL     OW24622   0.406   0.816   2.743 -0.6542  0.1804  0.2499
 4388SOL    HW124623   0.366   0.770   2.669  0.3261 -0.5536  0.1836
 4388SOL    HW224624   0.471   0.872   2.700 -2.9042  2.2265 -0.4719
 4389SOL     OW24625   3.596   1.138   6.059 -0.8441 -0.1507  0.2167
 4389SOL    HW124626   3.652   1.206   6.023 -0.5168 -1.3060 -1.4515
 4389SOL    HW224627   3.665   1.083   6.098 -0.2994  0.2916 -0.1193
 4390SOL     OW24628   0.359   3.722  11.282 -0.1209 -0.4491 -0.1447
 4390SOL    HW124629   0.452   3.722  11.261 -0.3792  0.1551 -1.3023
 4390SOL    HW224630   0.355   3.643  11.337  0.5880 -2.9925 -3.7344
 4391SOL     OW24631   4.584   0.350   5.323 -0.1924  0.0423 -0.7489
 4391SOL    HW124632   4.561   0.323   5.234 -0.3417 -0.6490 -0.4994
 4391SOL    HW224633   4.634   0.426   5.295  1.0509  0.2963  2.1418
 4392SOL     OW24634   2.866   1.280  13.639  0.1991  0.0625 -0.4475
 4392SOL    HW124635   2.883   1.304  13.548 -1.7360  0.7191 -0.6348
 4392SOL    HW224636   2.804   1.207  13.629  2.9006 -2.1526 -0.9963
 4393SOL     OW24637   0.227   2.895  17.632  0.9782 -0.4232  0.1469
 4393SOL    HW124638   0.298   2.934  17.581  0.1581 -1.2165 -1.6062
 4393SOL    HW224639   0.204   2.820  17.577  1.7926 -0.1326 -0.5868
 4394SOL     OW24640   0.507   3.347   7.384 -0.5266 -0.4702  0.2884
 4394SOL    HW124641   0.574   3.396   7.336  0.4624 -1.7190  0.4246
 4394SOL    HW224642   0.533   3.361   7.475 -0.5601  0.8165  0.1022
 4395SOL     OW24643   1.110   3.086   3.053  0.0818 -0.1875  0.3418
 4395SOL    HW124644   1.067   3.123   2.976  1.6054 -4.0227 -2.3384
 4395SOL    HW224645   1.135   3.166   3.100  0.3875  0.1245 -0.3615
 4396SOL     OW24646   1.977   3.417   3.575 -0.2813 -0.4758  0.0557
 4396SOL    HW124647   1.957   3.410   3.481 -0.8594  2.4507 -0.0481
 4396SOL    HW224648   1.910   3.357   3.606 -1.3001  1.2508  1.1806
 4397SOL     OW24649   2.855   4.334   1.902 -0.6483  0.8349  0.1641
 4397SOL    HW124650   2.761   4.315   1.901 -0.4357 -0.0307 -1.9232
 4397SOL    HW224651   2.887   4.247   1.878 -1.8459  0.0670  1.3142
 4398SOL     OW24652   0.193   2.381   2.555  0.1777 -0.2294 -0.5312
 4398SOL    HW124653   0.139   2.432   2.495 -2.2066 -0.0316  1.7831
 4398SOL    HW224654   0.277   2.425   2.561 -0.0534  0.3089 -1.2810
 4399SOL     OW24655   0.005   4.449   8.575 -0.6751 -0.5131 -0.1606
 4399SOL    HW124656   0.047   4.514   8.519 -0.0048 -0.9842 -0.2085
 4399SOL    HW224657   0.084   4.417   8.618 -1.1256  0.2472  1.2219
 4400SOL     OW24658   2.759   1.018   3.085  0.5798  0.0846  0.4044
 4400SOL    HW124659   2.668   1.039   3.105  0.7118 -0.7996  1.9235
 4400SOL    HW224660   2.741   0.986   2.996 -0.5884 -0.0364  0.6820
 4401SOL     OW24661   0.040   0.958  16.786 -0.0421 -0.2182 -0.3459
 4401SOL    HW124662   0.035   0.994  16.874  2.9842 -0.3547 -0.1310
 4401SOL    HW224663   0.029   1.033  16.728  1.7315  1.7574  1.9415
 4402SOL     OW24664   4.376   2.605   5.422  0.1626  0.5630 -0.2737
 4402SOL    HW124665   4.431   2.658   5.479  0.2945  1.3202 -1.1144
 4402SOL    HW224666   4.444   2.571   5.364  0.1853  1.4052 -0.7236
 4403SOL     OW24667   0.509   4.394   6.136  0.3096 -0.4962  0.3198
 4403SOL    HW124668   0.528   4.330   6.067 -0.4618 -1.3023  0.8405
 4403SOL    HW224669   0.446   4.342   6.185 -2.3562  3.2949  0.8989
 4404SOL     OW24670   2.229   1.722   3.875 -0.8813  0.4876 -0.1634
 4404SOL    HW124671   2.195   1.633   3.880  1.6032 -0.5695 -2.1895
 4404SOL    HW224672   2.276   1.723   3.792  2.0087 -0.8189  1.4738
 4405SOL     OW24673   3.895   0.747  13.003  0.0798  0.1264 -0.2591
 4405SOL    HW124674   3.813   0.717  12.964 -0.2974 -0.6709  1.1335
 4405SOL    HW224675   3.948   0.757  12.924  1.0416 -0.6938  0.2655
 4406SOL     OW24676   0.956   2.026   7.189  0.3234  0.6763  0.2997
 4406SOL    HW124677   0.874   1.979   7.173  0.3970  0.0718  1.7198
 4406SOL    HW224678   0.943   2.095   7.123 -2.0867  1.4413  1.5654
 4407SOL     OW24679   0.929   4.146  15.472 -0.2719 -0.1431 -0.8660
 4407SOL    HW124680   0.982   4.150  15.392  1.3934  1.8298  0.3399
 4407SOL    HW224681   0.997   4.120  15.534  0.6474  1.8499 -1.0592
 4408SOL     OW24682   4.594   1.889   0.836 -0.3401 -0.3788 -0.0252
 4408SOL    HW124683   4.596   1.810   0.783  0.3212 -1.1618  1.1583
 4408SOL    HW224684   4.572   1.957   0.773 -2.2071  0.8304  1.9236
 4409SOL     OW24685   1.027   2.404   1.430 -0.2824  0.3702 -0.0918
 4409SOL    HW124686   1.001   2.476   1.488  1.8963  0.3228  0.9425
 4409SOL    HW224687   1.121   2.397   1.451 -0.8573 -1.6341  1.8811
 4410SOL     OW24688   4.483   3.277  10.572 -0.4109 -0.2104 -0.0868
 4410SOL    HW124689   4.456   3.250  10.659 -0.7129 -2.5453 -0.9122
 4410SOL    HW224690   4.407   3.329  10.543 -0.6284  0.3924  1.5933
 4411SOL     OW24691   1.398   2.959   3.590 -0.0475 -0.3341 -0.0033
 4411SOL    HW124692   1.336   2.940   3.520 -0.0395  0.0608 -0.1184
 4411SOL    HW224693   1.479   2.951   3.539 -0.3899 -3.2887 -0.1180
 4412SOL     OW24694   2.186   0.992   3.046  0.0062 -0.5708  0.2171
 4412SOL    HW124695   2.216   0.907   3.013  1.5469 -0.7877  2.2145
 4412SOL    HW224696   2.101   0.968   3.083  0.6772 -0.1556  2.0155
 4413SOL     OW24697   4.157   3.940   8.811  0.3177 -0.1602  0.2476
 4413SOL    HW124698   4.129   3.923   8.901 -1.9481  0.8076 -0.2655
 4413SOL    HW224699   4.250   3.921   8.812 -0.1793 -2.5879  0.5561
 4414SOL     OW24700   0.401   1.869   9.158  0.8398  0.8683  0.7884
 4414SOL    HW124701   0.459   1.909   9.224  0.0550 -1.5315  2.9124
 4414SOL    HW224702   0.438   1.782   9.146  0.9645  1.5770 -3.9053
 4415SOL     OW24703   2.281   2.341   9.844  0.2188 -0.1777  0.1497
 4415SOL    HW124704   2.279   2.249   9.869 -0.5706  0.0333  0.8627
 4415SOL    HW224705   2.192   2.355   9.812  0.0191 -1.6971  0.0823
 4416SOL     OW24706   1.787   2.931   3.756  0.3022 -0.0642 -0.1027
 4416SOL    HW124707   1.872   2.913   3.717  0.3104  0.5691 -0.3756
 4416SOL    HW224708   1.740   2.912   3.675 -0.7003  1.7040  0.0565
 4417SOL     OW24709   2.026   4.381   2.704  0.4497  0.5973 -0.1095
 4417SOL    HW124710   2.072   4.324   2.643 -0.0721 -0.9926  0.9628
 4417SOL    HW224711   2.002   4.311   2.765 -2.2158 -0.1547 -1.9973
 4418SOL     OW24712   3.057   3.929   9.304  0.0144  0.3931 -0.2385
 4418SOL    HW124713   3.147   3.902   9.324 -0.4282 -0.8410  0.1012
 4418SOL    HW224714   3.064   3.971   9.219 -0.9413 -0.2082 -0.6142
 4419SOL     OW24715   0.164   4.410   9.339  0.2462 -0.5876 -0.2083
 4419SOL    HW124716   0.176   4.323   9.377  0.9440  0.3147  1.6333
 4419SOL    HW224717   0.073   4.399   9.311  0.2851  1.3814 -1.1099
 4420SOL     OW24718   2.057   4.220   5.556  0.8065  0.5982  0.2149
 4420SOL    HW124719   2.097   4.298   5.516 -1.0285  0.5409 -1.7555
 4420SOL    HW224720   1.976   4.211   5.506  0.4222  0.9124  0.7818
 4421SOL     OW24721   4.611   2.049   8.624  0.0063  0.6269  1.0057
 4421SOL    HW124722   4.652   2.120   8.675 -0.1734 -0.6880  2.9984
 4421SOL    HW224723   4.650   2.076   8.541 -3.6506 -0.6619 -1.1238
 4422SOL     OW24724   0.585   1.010   2.903  0.3318 -0.3132  0.0313
 4422SOL    HW124725   0.603   0.992   2.995 -0.0417 -0.4351  0.0823
 4422SOL    HW224726   0.618   0.931   2.861  0.3822 -0.7450  0.8905
 4423SOL     OW24727   1.621   0.847   8.364  0.0322  0.3871  0.0712
 4423SOL    HW124728   1.557   0.882   8.426 -0.7765 -0.6354 -0.1809
 4423SOL    HW224729   1.556   0.795   8.315  0.1038 -0.8909  1.3275
 4424SOL     OW24730   0.263   3.476   9.568 -0.2375 -0.4672 -0.1524
 4424SOL    HW124731   0.238   3.536   9.638 -1.0238 -2.2325  1.0567
 4424SOL    HW224732   0.289   3.395   9.611 -1.5435 -1.0389 -0.4255
 4425SOL     OW24733   1.930   4.295   7.061  0.0109 -0.7862 -0.5426
 4425SOL    HW124734   1.964   4.265   6.976  1.0120 -1.4743  0.1024
 4425SOL    HW224735   1.917   4.388   7.042  2.5344 -0.0654  1.2608
 4426SOL     OW24736   3.846   3.186   4.780  0.1341  0.5347  0.1600
 4426SOL    HW124737   3.841   3.128   4.704 -0.3798 -0.0169  0.6194
 4426SOL    HW224738   3.936   3.218   4.774  0.1505  0.4557 -0.0378
 4427SOL     OW24739   2.549   4.196   5.649 -0.0008 -1.4009  0.1101
 4427SOL    HW124740   2.491   4.233   5.716 -0.8422 -1.3762 -0.6238
 4427SOL    HW224741   2.634   4.205   5.692  0.4431 -0.7072 -0.9089
 4428SOL     OW24742   0.890   3.759   4.380 -0.1246  0.1220  0.0490
 4428SOL    HW124743   0.984   3.772   4.387 -0.3922  0.9349  1.9591
 4428SOL    HW224744   0.859   3.778   4.468  0.1158 -1.0866  0.3974
 4429SOL     OW24745   2.340   3.070  14.431  0.0628  0.0671 -0.0099
 4429SOL    HW124746   2.373   3.159  14.422  1.2081 -0.2401  1.1391
 4429SOL    HW224747   2.331   3.047  14.339  0.7130  0.0755 -0.0702
 4430SOL     OW24748   3.906   1.390   8.865 -0.7379 -0.2204 -0.0256
 4430SOL    HW124749   3.885   1.473   8.822 -1.3228 -1.6112 -2.3969
 4430SOL    HW224750   3.824   1.360   8.906 -1.3168  0.4935 -0.6579
 4431SOL     OW24751   4.631   1.912   8.258  0.3765 -0.7020 -0.1587
 4431SOL    HW124752   4.646   1.987   8.316 -0.6585  0.6726 -1.6650
 4431SOL    HW224753   4.693   1.925   8.187 -0.7082  1.5440 -0.7185
 4432SOL     OW24754   1.113   1.808  12.733 -0.1926 -0.4841 -0.0251
 4432SOL    HW124755   1.055   1.789  12.807 -1.0076  1.4679 -0.1519
 4432SOL    HW224756   1.188   1.849  12.775 -2.1495  0.4720  2.5515
 4433SOL     OW24757   3.481   3.150   3.921  0.3785 -0.2352 -0.0438
 4433SOL    HW124758   3.479   3.211   3.847 -2.2775  1.2057  1.2079
 4433SOL    HW224759   3.387   3.130   3.926  0.4812 -0.9871 -1.1459
 4434SOL     OW24760   2.557   4.176   6.014  0.0201 -0.7789  0.5430
 4434SOL    HW124761   2.620   4.106   5.999  1.3814  0.0588  2.3974
 4434SOL    HW224762   2.509   4.185   5.932 -1.4082  1.0435  1.5723
 4435SOL     OW24763   0.087   2.076   0.519 -0.0518  0.2158  0.0700
 4435SOL    HW124764   0.006   2.091   0.569 -0.8762 -0.3040 -1.1101
 4435SOL    HW224765   0.074   2.141   0.450 -0.8550  1.8364  1.7121
 4436SOL     OW24766   0.113   3.920   9.589 -0.3080 -0.4971 -0.0076
 4436SOL    HW124767   0.130   3.828   9.612 -0.6338 -0.2071  1.4461
 4436SOL    HW224768   0.111   3.960   9.676  0.8242 -0.9335  0.2093
 4437SOL     OW24769   0.417   1.628   5.669  0.9333 -0.2730 -0.1666
 4437SOL    HW124770   0.370   1.632   5.752  1.9914 -1.9094  0.5172
 4437SOL    HW224771   0.434   1.722   5.672 -1.6371  0.1970 -1.0647
 4438SOL     OW24772   3.274   3.813   8.575 -0.0001  0.0239 -0.6441
 4438SOL    HW124773   3.321   3.879   8.524  3.3660 -1.6398  0.2988
 4438SOL    HW224774   3.193   3.852   8.608  0.4277 -0.3729  0.8608
 4439SOL     OW24775   1.573   2.028   8.472 -0.2469 -0.1283 -0.0492
 4439SOL    HW124776   1.496   2.069   8.432  1.0002  0.6115 -1.6907
 4439SOL    HW224777   1.569   2.080   8.552 -1.7760 -0.6211  0.1979
 4440SOL     OW24778   0.757   0.819  11.703  0.1457  0.4032  0.2355
 4440SOL    HW124779   0.815   0.895  11.704 -1.9715  2.0361 -0.8126
 4440SOL    HW224780   0.670   0.855  11.682  0.3895  2.3534  2.5782
 4441SOL     OW24781   3.989   0.803  17.041 -0.2062 -0.1569  0.2832
 4441SOL    HW124782   4.060   0.741  17.025 -2.1689 -2.4575  0.3929
 4441SOL    HW224783   3.993   0.827  17.133  0.0838  1.4507 -0.1418
 4442SOL     OW24784   0.817   0.111   2.785  0.3945 -0.4486 -0.2506
 4442SOL    HW124785   0.778   0.059   2.715 -0.1263 -0.5642  0.1305
 4442SOL    HW224786   0.852   0.184   2.734  1.8725 -2.2221 -1.7924
 4443SOL     OW24787   0.161   0.524   4.755  0.4166  0.7618  0.3975
 4443SOL    HW124788   0.115   0.533   4.671  0.7285  2.1720  0.3785
 4443SOL    HW224789   0.237   0.567   4.716  1.6361 -1.9297 -0.1920
 4444SOL     OW24790   0.446   0.726   3.368 -0.1414  0.3863  0.1044
 4444SOL    HW124791   0.397   0.660   3.319 -0.7279 -1.2682  2.9795
 4444SOL    HW224792   0.382   0.797   3.378 -1.6922 -1.1179  0.6499
 4445SOL     OW24793   1.008   4.628   0.043  0.4062  0.0226  0.2095
 4445SOL    HW124794   1.076   4.589  17.684  2.1301  2.1851  0.7616
 4445SOL    HW224795   0.959   4.684  17.678  1.0700 -2.2398 -2.3713
 4446SOL     OW24796   1.025   1.491   4.874 -0.3053 -0.0041  0.0050
 4446SOL    HW124797   1.097   1.547   4.847 -1.1113  0.5557 -1.0042
 4446SOL    HW224798   1.073   1.439   4.938 -2.4447 -2.7336 -0.5614
 4447SOL     OW24799   3.657   0.266  12.085 -0.5385  0.3550 -0.4770
 4447SOL    HW124800   3.717   0.192  12.095  1.0025  1.6053 -0.6112
 4447SOL    HW224801   3.711   0.324  12.033 -2.5662  1.8980 -0.8793
 4448SOL     OW24802   3.877   0.472   3.141 -0.8686 -0.3865 -0.4028
 4448SOL    HW124803   3.899   0.435   3.227  0.9325 -0.1356 -0.7767
 4448SOL    HW224804   3.786   0.445   3.124 -1.8802  3.4869 -0.9967
 4449SOL     OW24805   3.797   2.584   3.377 -0.2519  0.1430 -0.1374
 4449SOL    HW124806   3.774   2.561   3.288 -0.5335 -1.5245  0.3770
 4449SOL    HW224807   3.826   2.675   3.366  3.3768 -1.3093 -2.3948
 4450SOL     OW24808   0.772   3.560  12.069  0.5658 -0.3820 -0.4817
 4450SOL    HW124809   0.827   3.553  11.991  2.2482 -1.6651  0.8294
 4450SOL    HW224810   0.839   3.522  12.125  0.2098 -1.3849 -0.7407
 4451SOL     OW24811   1.571   2.462   4.451  0.5018 -0.3019  0.2453
 4451SOL    HW124812   1.664   2.439   4.441  0.6675 -0.0807  1.2275
 4451SOL    HW224813   1.529   2.403   4.388 -0.1288  0.1969  0.2104
 4452SOL     OW24814   0.596   2.404   9.407 -0.0183  0.1241 -0.0820
 4452SOL    HW124815   0.679   2.389   9.362 -0.1728  1.3284 -0.7731
 4452SOL    HW224816   0.626   2.460   9.478  1.1576 -1.4591  0.6544
 4453SOL     OW24817   0.667   1.920   2.349  0.3002 -0.2062 -0.1396
 4453SOL    HW124818   0.755   1.956   2.340  0.4085  0.3004  3.2396
 4453SOL    HW224819   0.630   1.979   2.415  1.3322 -0.0589  0.3023
 4454SOL     OW24820   1.814   1.206  11.435 -0.5460  0.6625 -0.5199
 4454SOL    HW124821   1.868   1.228  11.359  0.1558  1.0341  0.0829
 4454SOL    HW224822   1.870   1.245  11.503  0.4420  0.3239 -1.1321
 4455SOL     OW24823   4.016   4.209   3.226  0.0746 -0.2172 -0.5961
 4455SOL    HW124824   4.015   4.165   3.141  2.4115  1.0819 -1.2940
 4455SOL    HW224825   4.004   4.134   3.285 -0.4744 -1.2359 -2.0056
 4456SOL     OW24826   0.571   3.975   6.019 -0.0701 -0.6606  0.4473
 4456SOL    HW124827   0.594   4.062   5.986  0.7551 -0.5821  1.2389
 4456SOL    HW224828   0.514   4.002   6.091 -0.4857  1.2529 -0.5720
 4457SOL     OW24829   0.235   2.906   0.475  0.4125 -0.8928  0.2480
 4457SOL    HW124830   0.256   2.980   0.532  1.5720 -0.4150 -0.7771
 4457SOL    HW224831   0.316   2.900   0.423  0.5433 -0.9158  0.4515
 4458SOL     OW24832   3.656   0.885   4.637  0.0017 -0.1828 -0.5096
 4458SOL    HW124833   3.655   0.806   4.691 -2.6228 -0.6579 -1.2533
 4458SOL    HW224834   3.694   0.949   4.698  0.9484 -0.5348 -0.7277
 4459SOL     OW24835   2.664   3.429   2.260  0.8927  0.2135 -0.6349
 4459SOL    HW124836   2.570   3.418   2.272  0.8197  0.6894 -0.7473
 4459SOL    HW224837   2.663   3.477   2.177 -1.2235  1.6964  0.2594
 4460SOL     OW24838   2.316   3.460  12.498 -0.1865  0.0580 -0.0303
 4460SOL    HW124839   2.222   3.450  12.486  0.3024 -1.9265 -2.2598
 4460SOL    HW224840   2.328   3.414  12.581  0.3089 -0.4682 -0.3888
 4461SOL     OW24841   3.354   2.764   2.973  0.1955  0.4399 -0.4172
 4461SOL    HW124842   3.278   2.815   2.944 -0.9022  0.0201  1.7185
 4461SOL    HW224843   3.370   2.711   2.895 -2.6054 -0.1040 -0.6270
 4462SOL     OW24844   3.595   4.192   8.732 -0.4604 -0.4382 -1.2257
 4462SOL    HW124845   3.599   4.121   8.797  1.0965 -0.5231 -1.4314
 4462SOL    HW224846   3.584   4.271   8.785 -3.3752 -1.7627  0.1622
 4463SOL     OW24847   3.197   0.587   4.420  0.1139 -0.6704 -0.2189
 4463SOL    HW124848   3.207   0.545   4.505 -1.0033 -0.4670  0.0147
 4463SOL    HW224849   3.241   0.536   4.352  2.4108 -1.6431  2.0138
 4464SOL     OW24850   0.467   0.933   5.354 -0.4641  0.5722  0.0517
 4464SOL    HW124851   0.433   1.021   5.367 -0.8256  0.3573  0.5565
 4464SOL    HW224852   0.485   0.932   5.260 -1.5002  2.1295 -0.1568
 4465SOL     OW24853   0.314   4.212   9.658  0.5659 -0.3061 -0.6370
 4465SOL    HW124854   0.374   4.278   9.623 -1.2844  1.8196  0.2000
 4465SOL    HW224855   0.259   4.190   9.583  1.2656  2.8222 -2.0994
 4466SOL     OW24856   3.144   3.936  13.939  0.5167  0.5356 -0.1817
 4466SOL    HW124857   3.161   3.859  13.886 -3.1299  0.4563 -1.2256
 4466SOL    HW224858   3.203   3.915  14.012 -0.0839  3.0351  1.0636
 4467SOL     OW24859   1.126   3.430  11.235 -0.1035  0.0890 -0.2849
 4467SOL    HW124860   1.048   3.382  11.207  0.8621 -0.5176 -1.9615
 4467SOL    HW224861   1.175   3.418  11.153  1.0233  1.7584  0.1432
 4468SOL     OW24862   0.865   3.520   3.451  0.8561 -0.2742 -0.2597
 4468SOL    HW124863   0.783   3.553   3.414 -0.0544 -1.9568  0.2578
 4468SOL    HW224864   0.838   3.474   3.530  0.2367 -1.0778 -0.9341
 4469SOL     OW24865   1.126   4.335   6.016  0.3484  0.1270  0.1794
 4469SOL    HW124866   1.073   4.259   5.993  0.2126 -0.0464  1.0622
 4469SOL    HW224867   1.083   4.404   5.965 -1.5892 -2.7900 -2.1131
 4470SOL     OW24868   1.668   1.810   9.944 -0.2318  0.1974 -0.0498
 4470SOL    HW124869   1.756   1.829   9.911  0.4574 -2.1457  0.4862
 4470SOL    HW224870   1.607   1.869   9.899 -1.0647 -2.4098 -2.3167
 4471SOL     OW24871   1.075   2.528   7.235  0.1414  0.1562  0.0982
 4471SOL    HW124872   1.139   2.492   7.297  2.0511  1.4122 -1.1574
 4471SOL    HW224873   1.027   2.573   7.304 -0.0918 -1.1170  0.7682
 4472SOL     OW24874   2.473   0.593   7.600  0.5703  0.0044  0.4697
 4472SOL    HW124875   2.542   0.528   7.591 -0.6052 -1.1652 -0.2220
 4472SOL    HW224876   2.522   0.662   7.556  1.1550 -1.4008 -1.1000
 4473SOL     OW24877   1.069   0.956  14.659  0.5436  0.3911  0.1322
 4473SOL    HW124878   1.132   0.924  14.594 -3.1079 -2.2625 -2.0438
 4473SOL    HW224879   1.114   1.040  14.667 -0.9062  1.3881 -2.2626
 4474SOL     OW24880   2.097   2.168   6.972  0.8454 -0.3036  0.6918
 4474SOL    HW124881   2.168   2.218   6.933  0.4239 -0.5799 -0.4093
 4474SOL    HW224882   2.022   2.209   6.930 -0.2482 -2.9152  0.1145
 4475SOL     OW24883   4.400   4.487  14.428  0.4112 -0.3658  0.0219
 4475SOL    HW124884   4.438   4.520  14.346  0.1819 -1.8149 -0.6686
 4475SOL    HW224885   4.317   4.535  14.437  0.4099  0.0076 -1.9636
 4476SOL     OW24886   3.413   4.572   6.288  0.6683 -0.4520 -0.5727
 4476SOL    HW124887   3.397   4.661   6.321 -2.5381 -0.8705 -1.0406
 4476SOL    HW224888   3.482   4.538   6.344  0.3212  0.3219  0.3304
 4477SOL     OW24889   0.201   2.008  10.103 -0.0102  0.1533  0.2925
 4477SOL    HW124890   0.197   2.054  10.187  0.5729  0.6336  0.0597
 4477SOL    HW224891   0.271   1.945  10.117 -0.5641 -0.6354 -0.4884
 4478SOL     OW24892   0.219   2.348   7.347  0.8598  0.3340 -0.5433
 4478SOL    HW124893   0.185   2.296   7.420  1.5785 -0.5755 -0.8562
 4478SOL    HW224894   0.225   2.440   7.374  1.7854 -0.4284  1.8586
 4479SOL     OW24895   2.661   2.036  10.044 -0.5198  0.2639 -0.1404
 4479SOL    HW124896   2.660   2.106   9.978  1.6883 -0.6873 -1.2016
 4479SOL    HW224897   2.568   2.014  10.053 -0.0621 -2.2696 -1.6643
 4480SOL     OW24898   3.134   2.154   7.899 -0.4812  0.3656 -0.0425
 4480SOL    HW124899   3.188   2.148   7.977 -0.1033 -2.1345 -0.4950
 4480SOL    HW224900   3.058   2.192   7.944  0.2163 -3.0565  4.0493
 4481SOL     OW24901   3.271   2.920   5.397 -0.3571  0.1429 -0.5765
 4481SOL    HW124902   3.198   2.859   5.397  1.2585 -1.7863 -2.8344
 4481SOL    HW224903   3.289   2.925   5.491 -0.3266 -0.9511 -0.5325
 4482SOL     OW24904   0.812   1.609   6.294 -0.0836 -0.8067 -0.3398
 4482SOL    HW124905   0.823   1.551   6.370 -2.4530 -4.7301 -2.9810
 4482SOL    HW224906   0.848   1.555   6.223  1.2678 -1.5127  0.8721
 4483SOL     OW24907   2.274   1.204   1.551  0.2783 -0.1130  0.0879
 4483SOL    HW124908   2.188   1.174   1.583  0.2040 -0.2624 -0.2441
 4483SOL    HW224909   2.329   1.131   1.579  3.1876  1.2724 -2.0121
 4484SOL     OW24910   0.093   0.020   5.789 -0.1574 -0.0132  0.5030
 4484SOL    HW124911   0.054   0.102   5.818 -2.2864 -0.4493 -1.1744
 4484SOL    HW224912   0.184   0.047   5.802 -0.5760  1.1680  1.0150
 4485SOL     OW24913   0.712   1.528   7.492  0.1341  0.2467  0.0825
 4485SOL    HW124914   0.767   1.524   7.413 -2.1388 -0.0417 -1.4956
 4485SOL    HW224915   0.769   1.570   7.556  0.1759  0.5428 -0.1473
 4486SOL     OW24916   0.209   2.589   8.185 -0.4970 -0.4467 -0.1400
 4486SOL    HW124917   0.163   2.512   8.151 -0.2605 -2.0760  3.2806
 4486SOL    HW224918   0.247   2.557   8.267  0.4730 -1.7775 -1.1101
 4487SOL     OW24919   2.235   1.030   4.645 -0.0172 -0.6931  0.0127
 4487SOL    HW124920   2.162   0.977   4.677 -2.1171  0.9990 -2.0409
 4487SOL    HW224921   2.289   1.037   4.724  0.1190 -1.6925  0.0117
 4488SOL     OW24922   4.510   1.038   6.581  0.0132 -0.1375 -0.1467
 4488SOL    HW124923   4.549   1.096   6.515 -0.9729  0.3498 -0.2989
 4488SOL    HW224924   4.565   1.082   6.646 -1.3629 -1.4523  1.8966
 4489SOL     OW24925   4.008   3.052   3.774  0.2878 -0.2127 -0.4433
 4489SOL    HW124926   4.010   2.967   3.818  0.5987 -0.6111 -1.2384
 4489SOL    HW224927   4.079   3.047   3.710  1.0645  1.1402  0.2953
 4490SOL     OW24928   4.037   2.639  14.566 -0.0126 -0.3878 -0.2442
 4490SOL    HW124929   4.091   2.580  14.618  1.8095 -0.8619 -2.6642
 4490SOL    HW224930   3.990   2.593  14.496  0.3490 -0.2008 -0.6161
 4491SOL     OW24931   1.550   3.687  16.299 -0.8398  0.0281 -0.2202
 4491SOL    HW124932   1.483   3.696  16.232  1.0511  1.6016 -1.8927
 4491SOL    HW224933   1.608   3.628  16.250  0.0796 -1.2380  2.3411
 4492SOL     OW24934   1.321   0.191   4.781 -0.0746 -0.2484 -0.7291
 4492SOL    HW124935   1.229   0.216   4.784 -0.7088 -2.5428 -0.6286
 4492SOL    HW224936   1.365   0.261   4.733 -1.0156  1.9539  1.6004
 4493SOL     OW24937   2.092   4.553  12.421 -0.2986 -0.2218 -0.3838
 4493SOL    HW124938   2.141   4.627  12.385 -0.5230  0.9846  1.8075
 4493SOL    HW224939   2.030   4.601  12.475 -0.3655  1.1767 -1.6890
 4494SOL     OW24940   1.716   4.334   4.350 -0.2377 -0.2464 -0.1758
 4494SOL    HW124941   1.626   4.350   4.377 -0.1087  0.2175 -0.0023
 4494SOL    HW224942   1.745   4.425   4.343 -1.0653  0.2198  2.3974
 4495SOL     OW24943   3.525   4.146   6.102 -0.0390  0.5577 -0.3782
 4495SOL    HW124944   3.536   4.050   6.105 -1.7433  0.4048  0.9579
 4495SOL    HW224945   3.466   4.160   6.175 -1.2881 -0.2283 -1.2392
 4496SOL     OW24946   3.292   1.750  17.209  0.4792 -0.4445  0.5321
 4496SOL    HW124947   3.260   1.661  17.220 -0.1617 -0.2864 -0.0698
 4496SOL    HW224948   3.321   1.745  17.118  3.2829 -0.7957  1.4457
 4497SOL     OW24949   2.993   0.556   6.325 -0.4635 -0.3584  0.0339
 4497SOL    HW124950   2.959   0.645   6.315  1.6621  0.5019  0.4924
 4497SOL    HW224951   2.928   0.517   6.383 -1.9259  1.1536 -0.6157
 4498SOL     OW24952   3.610   4.355   3.201  0.3130 -0.1897 -0.1799
 4498SOL    HW124953   3.651   4.441   3.214  0.7078 -0.5071  0.7038
 4498SOL    HW224954   3.622   4.316   3.288 -0.2153 -1.5911 -0.7545
 4499SOL     OW24955   0.277   4.583  10.232  0.3333  0.8204 -0.1411
 4499SOL    HW124956   0.263   4.591  10.137  0.8221  1.0175 -0.1969
 4499SOL    HW224957   0.343   4.513  10.231  0.6285  1.0974  0.0142
 4500SOL     OW24958   3.615   2.765   5.046  0.9013  0.1926  0.4568
 4500SOL    HW124959   3.669   2.798   4.974  0.9090 -1.8134 -0.4559
 4500SOL    HW224960   3.585   2.845   5.089  0.4106  1.6723 -2.6051
 4501SOL     OW24961   1.504   1.573   8.829 -0.8061 -0.2394 -0.4566
 4501SOL    HW124962   1.535   1.652   8.784  1.7207 -1.9072 -1.6677
 4501SOL    HW224963   1.546   1.584   8.915 -0.6765 -0.9219 -0.4326
 4502SOL     OW24964   2.761   0.743  16.299  0.1248 -0.1702 -0.8486
 4502SOL    HW124965   2.737   0.654  16.273  1.6165 -1.4752  2.3141
 4502SOL    HW224966   2.843   0.749  16.250  0.9305  0.9107  0.6587
 4503SOL     OW24967   2.221   2.546   2.477 -0.0928 -0.1226  0.1462
 4503SOL    HW124968   2.284   2.481   2.509  0.6321  0.1171 -0.7895
 4503SOL    HW224969   2.252   2.534   2.387  0.8168  0.7026  0.3500
 4504SOL     OW24970   0.440   4.355  12.001  0.3908 -0.1921 -0.1775
 4504SOL    HW124971   0.466   4.383  12.088  1.7096 -1.0314 -0.3067
 4504SOL    HW224972   0.522   4.312  11.977  0.8137  0.2252  0.5384
 4505SOL     OW24973   0.249   2.389   6.198  0.0994 -0.0670 -0.1926
 4505SOL    HW124974   0.208   2.332   6.262  0.4280  1.4319  1.3585
 4505SOL    HW224975   0.269   2.472   6.242  0.0610  1.1215 -2.3640
 4506SOL     OW24976   3.644   0.284   5.804 -0.0451 -0.4987  0.5181
 4506SOL    HW124977   3.690   0.349   5.750 -0.5511 -2.0993 -1.8251
 4506SOL    HW224978   3.656   0.322   5.891  3.7577 -0.1308 -0.1372
 4507SOL     OW24979   1.711   2.300   3.898 -0.3598 -0.1032  0.0852
 4507SOL    HW124980   1.675   2.349   3.972  2.0988  1.1657  0.4480
 4507SOL    HW224981   1.665   2.338   3.823 -0.2669  1.5502  0.8814
 4508SOL     OW24982   0.440   4.337   0.678  0.0555  0.1112 -0.0586
 4508SOL    HW124983   0.498   4.343   0.754  0.8834 -0.9662 -0.6017
 4508SOL    HW224984   0.355   4.354   0.719 -0.6737 -0.0835 -1.4701
 4509SOL     OW24985   3.287   4.534  15.629 -0.0106 -0.0885  0.2570
 4509SOL    HW124986   3.231   4.610  15.615  0.6543  0.9850  3.3629
 4509SOL    HW224987   3.309   4.548  15.721  0.9259 -2.2175  0.3677
 4510SOL     OW24988   4.546   0.751   2.666 -0.5102 -0.3030 -0.4451
 4510SOL    HW124989   4.633   0.764   2.705 -0.7734  0.4864 -0.1091
 4510SOL    HW224990   4.499   0.808   2.727  1.8380 -0.4218  1.4887
 4511SOL     OW24991   3.485   4.298  13.136 -0.7083 -0.2035  0.2472
 4511SOL    HW124992   3.551   4.232  13.158  0.5078  1.0790  0.4459
 4511SOL    HW224993   3.406   4.264  13.177 -1.7634  1.4358 -0.4267
 4512SOL     OW24994   3.801   2.846   3.416  0.0403  0.1151  0.1594
 4512SOL    HW124995   3.726   2.831   3.473  0.9900  0.3715  1.4668
 4512SOL    HW224996   3.806   2.942   3.411 -2.3603  0.1226 -2.3676
 4513SOL     OW24997   1.346   0.193   0.547 -0.3711  0.1829  0.3569
 4513SOL    HW124998   1.438   0.192   0.572 -0.9065 -0.3596  2.3494
 4513SOL    HW224999   1.338   0.246   0.468  2.7462  2.1562  1.3735
 4514SOL     OW25000   1.496   1.849  14.049 -0.2891  0.2682 -0.5051
 4514SOL    HW125001   1.549   1.780  14.009  0.1177  0.7712 -0.8378
 4514SOL    HW225002   1.411   1.809  14.029  0.3982 -0.3106 -2.3208
 4515SOL     OW25003   4.170   0.018   5.829  0.2540  0.0742 -0.1025
 4515SOL    HW125004   4.233   4.714   5.895 -0.7049 -1.3792  0.1894
 4515SOL    HW225005   4.208   4.710   5.747 -0.8371 -1.9022  0.1734
 4516SOL     OW25006   4.148   4.460  15.222  0.3671  0.2702 -0.6151
 4516SOL    HW125007   4.068   4.457  15.274  1.2697  0.2707  0.7708
 4516SOL    HW225008   4.113   4.454  15.133 -2.2431  0.0208  0.4175
 4517SOL     OW25009   4.468   1.579   4.718 -0.1968 -0.1858  0.3197
 4517SOL    HW125010   4.486   1.521   4.644 -1.6035 -0.1108 -0.0912
 4517SOL    HW225011   4.383   1.539   4.737  1.3943 -2.2291  3.1220
 4518SOL     OW25012   1.565   2.771  14.357  0.1790 -0.0806 -0.2775
 4518SOL    HW125013   1.652   2.742  14.331 -0.4320 -0.6418 -1.6835
 4518SOL    HW225014   1.570   2.736  14.446  1.1972  1.3704  0.2414
 4519SOL     OW25015   2.638   0.256   2.169 -0.7252 -0.5223  0.1587
 4519SOL    HW125016   2.676   0.195   2.105 -2.2909 -1.4240  0.0996
 4519SOL    HW225017   2.566   0.296   2.119 -0.9751  0.0571  0.9850
 4520SOL     OW25018   2.430   3.128  15.941  0.0368 -0.1000 -0.0810
 4520SOL    HW125019   2.354   3.146  15.886  0.8519 -0.3498 -1.2969
 4520SOL    HW225020   2.436   3.214  15.983  1.2852  0.3038 -1.0707
 4521SOL     OW25021   0.441   2.084  10.344 -0.9520 -0.4200  0.4966
 4521SOL    HW125022   0.438   1.993  10.373 -1.3104 -1.1647 -1.8914
 4521SOL    HW225023   0.347   2.106  10.339 -1.1424 -1.1177  0.9959
 4522SOL     OW25024   2.905   0.957   4.813  0.2969 -0.3417  0.4075
 4522SOL    HW125025   2.943   1.028   4.761  0.8469 -0.4406  0.6715
 4522SOL    HW225026   2.820   0.954   4.770  1.4100 -0.6989 -1.7890
 4523SOL     OW25027   3.566   2.905   3.106 -0.2199 -0.5559 -0.5188
 4523SOL    HW125028   3.571   2.996   3.133 -1.1507 -0.1838 -1.6233
 4523SOL    HW225029   3.499   2.915   3.038 -0.3593  2.2740  0.0675
 4524SOL     OW25030   3.522   1.163   9.217 -0.1259 -0.0847  0.5280
 4524SOL    HW125031   3.575   1.225   9.167 -0.2548  0.7359  1.4130
 4524SOL    HW225032   3.452   1.141   9.156  0.3981 -1.0602  0.2787
 4525SOL     OW25033   0.148   3.899  15.220 -0.1877 -0.9509  0.5596
 4525SOL    HW125034   0.133   3.825  15.161  1.3202 -0.5542 -0.3205
 4525SOL    HW225035   0.172   3.863  15.305 -1.5621 -1.2502  0.8342
 4526SOL     OW25036   2.488   2.470   3.371 -1.3321 -0.4798  0.1359
 4526SOL    HW125037   2.472   2.534   3.302 -0.9908 -0.5116  0.0268
 4526SOL    HW225038   2.476   2.512   3.456 -1.3483 -0.5689  0.1773
 4527SOL     OW25039   2.817   0.690   9.114 -0.1362  0.4699  0.3555
 4527SOL    HW125040   2.734   0.702   9.161  0.0545 -0.0205  0.8168
 4527SOL    HW225041   2.807   0.599   9.086 -2.5244  1.4349 -1.8735
 4528SOL     OW25042   3.848   3.479  10.247 -0.3349  0.5252  0.2398
 4528SOL    HW125043   3.763   3.446  10.274 -0.9983  0.7161 -1.5871
 4528SOL    HW225044   3.902   3.399  10.244  0.6336  1.1288  1.9775
 4529SOL     OW25045   4.302   0.072   1.955  0.1234  0.3869  0.4875
 4529SOL    HW125046   4.358   0.132   2.004  1.1184 -0.6751  0.6453
 4529SOL    HW225047   4.235   0.064   2.023 -0.5117  0.9608 -0.0803
 4530SOL     OW25048   2.324   3.893   7.812  0.4409 -0.2149 -0.1037
 4530SOL    HW125049   2.323   3.895   7.717  0.4926 -0.2931 -0.1060
 4530SOL    HW225050   2.416   3.904   7.837  1.3969 -3.0820 -2.4066
 4531SOL     OW25051   1.576   1.645   4.422  0.7166 -0.0515  0.1351
 4531SOL    HW125052   1.565   1.590   4.344 -0.4587  1.2086 -0.5929
 4531SOL    HW225053   1.569   1.580   4.492  1.6674 -1.0866 -0.7426
 4532SOL     OW25054   4.380   0.101  11.196  0.2832  0.3144 -0.1285
 4532SOL    HW125055   4.376   0.194  11.175  0.4527  0.7675  1.8996
 4532SOL    HW225056   4.473   0.083  11.209  0.6735  1.7592 -0.9089
 4533SOL     OW25057   0.797   1.462   0.403 -0.7444 -0.2743 -0.0136
 4533SOL    HW125058   0.854   1.385   0.391 -0.7429  0.0420 -2.0637
 4533SOL    HW225059   0.827   1.506   0.323 -1.3218  0.8283  0.3853
 4534SOL     OW25060   2.002   0.883  12.922  0.1716 -0.6325 -0.4555
 4534SOL    HW125061   1.963   0.800  12.950  1.5615 -0.9764  0.4518
 4534SOL    HW225062   1.933   0.945  12.944  0.0694 -1.4864  1.5783
 4535SOL     OW25063   1.070   1.366   6.371 -0.6300 -0.4207  0.1486
 4535SOL    HW125064   1.114   1.446   6.339  2.4740 -1.1988  2.5429
 4535SOL    HW225065   1.023   1.410   6.442  1.5787  1.2490  0.5696
 4536SOL     OW25066   4.429   2.222   5.387 -0.1195 -0.5516  0.0796
 4536SOL    HW125067   4.394   2.228   5.298 -2.3147 -0.8641  0.9117
 4536SOL    HW225068   4.471   2.308   5.381  0.4915 -0.7171  1.8026
 4537SOL     OW25069   4.511   2.070   4.022 -0.1799 -0.3140 -0.7220
 4537SOL    HW125070   4.484   2.162   4.030  0.4555 -0.0522 -1.6025
 4537SOL    HW225071   4.578   2.071   4.090  0.2022  0.1487 -1.1078
 4538SOL     OW25072   0.855   3.213  10.602  0.0359  0.1119  0.5770
 4538SOL    HW125073   0.878   3.231  10.693 -0.3867  2.2389  0.2605
 4538SOL    HW225074   0.914   3.143  10.574 -0.5266 -0.5190  0.9665
 4539SOL     OW25075   3.063   3.873   4.297 -0.0784  0.6943 -0.1053
 4539SOL    HW125076   3.058   3.806   4.366  1.5922  0.5597 -0.1175
 4539SOL    HW225077   3.157   3.874   4.280 -0.2177 -2.4744 -1.0088
 4540SOL     OW25078   2.385   2.744   9.769 -0.9250 -0.1069  0.1315
 4540SOL    HW125079   2.438   2.671   9.802 -0.5182  0.1224 -0.0153
 4540SOL    HW225080   2.309   2.724   9.823 -2.1719 -2.2086 -2.4082
 4541SOL     OW25081   2.902   0.240   1.974  0.1193 -0.5264  0.6284
 4541SOL    HW125082   2.930   0.240   1.883 -3.0698 -1.5783 -0.3797
 4541SOL    HW225083   2.969   0.299   2.009  0.5894  0.0950 -1.3497
 4542SOL     OW25084   4.652   2.078  14.099 -0.4550  0.0922 -0.4639
 4542SOL    HW125085   4.636   2.101  14.190 -1.5212  0.8717 -0.8595
 4542SOL    HW225086   4.631   1.985  14.101 -1.4487  0.3071 -1.0439
 4543SOL     OW25087   4.405   1.996  17.441 -0.2706  0.3167  0.0494
 4543SOL    HW125088   4.384   2.047  17.519 -1.2045 -0.1362  0.0912
 4543SOL    HW225089   4.321   2.002  17.397 -0.4040  0.6572  0.3501
 4544SOL     OW25090   1.904   1.691  10.087 -0.1320  0.1000  0.2218
 4544SOL    HW125091   1.894   1.740  10.005 -0.4963 -0.8435 -0.2939
 4544SOL    HW225092   1.875   1.757  10.151  1.3447  0.7341  0.2335
 4545SOL     OW25093   1.649   2.428   2.307  0.7417  0.0712  0.0737
 4545SOL    HW125094   1.686   2.480   2.379  1.0118  1.7135 -1.2477
 4545SOL    HW225095   1.598   2.366   2.359  0.1995  0.3311 -0.1472
 4546SOL     OW25096   0.719   2.627   7.250  0.2442  0.0048  0.0596
 4546SOL    HW125097   0.646   2.676   7.288 -0.2490  1.2795 -2.5616
 4546SOL    HW225098   0.780   2.637   7.323  0.4940  1.9822 -0.4193
 4547SOL     OW25099   2.579   1.238  15.235 -0.4236  0.0753 -0.1887
 4547SOL    HW125100   2.653   1.290  15.204  0.8093  0.4531  3.3968
 4547SOL    HW225101   2.505   1.276  15.187 -1.5194 -0.1198  1.3386
 4548SOL     OW25102   0.166   3.507   9.320  0.5421 -0.3562 -0.1702
 4548SOL    HW125103   0.199   3.479   9.406  2.2685  1.2276 -0.3124
 4548SOL    HW225104   0.131   3.424   9.289  0.1814 -0.5639  0.7720
 4549SOL     OW25105   2.113   0.989  17.083  0.3466  0.1208  0.2344
 4549SOL    HW125106   2.134   0.954  16.996 -2.9225 -0.0311 -0.4885
 4549SOL    HW225107   2.179   0.945  17.136 -0.0250 -0.9384 -0.1727
 4550SOL     OW25108   3.247   4.140  13.797 -0.4479  0.7877 -0.2057
 4550SOL    HW125109   3.165   4.190  13.795 -0.0376  1.5062  1.2488
 4550SOL    HW225110   3.211   4.057  13.828 -3.4605  1.8551 -0.7771
 4551SOL     OW25111   0.256   3.908  14.263  0.2911 -0.1989 -0.5044
 4551SOL    HW125112   0.345   3.915  14.297  0.7456  1.6314 -2.0797
 4551SOL    HW225113   0.241   3.993  14.221 -1.4196 -1.1105 -1.7725
 4552SOL     OW25114   3.132   3.226  13.091 -0.1488  0.6327  0.2381
 4552SOL    HW125115   3.159   3.186  13.008 -0.0125 -0.4762  0.8148
 4552SOL    HW225116   3.212   3.211  13.142 -1.4999 -1.9581  1.5422
 4553SOL     OW25117   1.620   2.876  10.147 -0.1094  0.1187  0.3042
 4553SOL    HW125118   1.645   2.933  10.220 -1.0479 -2.0213  2.3148
 4553SOL    HW225119   1.551   2.818  10.179 -0.8880  0.5020 -0.6769
 4554SOL     OW25120   2.038   2.206   0.891 -0.3192 -0.3835 -0.5032
 4554SOL    HW125121   1.992   2.127   0.862  2.0293 -1.0652 -2.3335
 4554SOL    HW225122   2.028   2.265   0.817 -0.3323  1.2807  0.8223
 4555SOL     OW25123   1.117   0.103  15.702  0.0495 -0.2544  0.1388
 4555SOL    HW125124   1.204   0.135  15.726  0.7744 -0.2698 -2.5275
 4555SOL    HW225125   1.108   0.145  15.616  0.4852 -1.4569 -0.4942
 4556SOL     OW25126   4.690   4.567   8.049  0.7507  0.1442 -0.1882
 4556SOL    HW125127   0.025   4.504   8.093 -0.9062 -1.8706 -0.8767
 4556SOL    HW225128   4.649   4.609   8.124  0.0917 -1.4091  0.3238
 4557SOL     OW25129   2.697   0.999  16.025 -0.1102  0.1994 -0.0420
 4557SOL    HW125130   2.698   0.982  15.931 -0.6068 -2.0906  0.3547
 4557SOL    HW225131   2.764   1.065  16.042 -0.6759  1.0502 -1.1562
 4558SOL     OW25132   2.741   1.257  16.326 -0.0469 -0.3352  0.2443
 4558SOL    HW125133   2.723   1.179  16.378 -0.9444  0.8124  1.6624
 4558SOL    HW225134   2.691   1.251  16.245 -3.7162  2.5800  2.2764
 4559SOL     OW25135   2.468   3.953   1.646  0.3690 -0.3523 -0.4100
 4559SOL    HW125136   2.396   3.998   1.603 -0.0997 -1.8911 -1.2193
 4559SOL    HW225137   2.546   3.982   1.599  1.0268 -1.3203  0.0822
 4560SOL     OW25138   3.396   0.754   7.446  0.0084  0.3278  0.0592
 4560SOL    HW125139   3.409   0.767   7.352 -0.9908 -2.5496 -0.4801
 4560SOL    HW225140   3.375   0.843   7.473  1.1472  1.1205 -1.6829
 4561SOL     OW25141   3.829   3.574  10.680 -0.6725 -0.4873 -0.3762
 4561SOL    HW125142   3.778   3.497  10.656 -2.3470  0.9442 -1.3518
 4561SOL    HW225143   3.866   3.563  10.768  2.2413  0.1848 -1.5109
 4562SOL     OW25144   3.735   3.675   4.993 -0.4342  1.0047 -0.0422
 4562SOL    HW125145   3.786   3.743   5.038  1.7734 -0.3628 -0.4751
 4562SOL    HW225146   3.673   3.645   5.059  1.4222  0.8658  1.6652
 4563SOL     OW25147   3.169   1.980   3.033  0.3954 -0.1107  0.2063
 4563SOL    HW125148   3.112   1.945   2.964  1.5070 -1.0251 -0.2512
 4563SOL    HW225149   3.129   1.944   3.112  1.2300  1.0086  1.1282
 4564SOL     OW25150   2.454   3.082   3.240  0.3267  0.2314  0.0852
 4564SOL    HW125151   2.543   3.102   3.209  0.0323  0.5059 -0.5842
 4564SOL    HW225152   2.405   3.148   3.191 -0.3424  1.1132  1.9259
 4565SOL     OW25153   3.017   3.138   8.935 -0.3012  0.1300 -0.0396
 4565SOL    HW125154   3.033   3.193   8.858  1.6736 -0.4777 -0.0599
 4565SOL    HW225155   3.067   3.060   8.913  0.0489  0.1664  0.6239
 4566SOL     OW25156   0.671   3.893  15.080 -0.7319 -0.4711 -0.0773
 4566SOL    HW125157   0.600   3.853  15.130 -0.1234 -0.5340  0.7397
 4566SOL    HW225158   0.701   3.956  15.145  0.9694  0.5025 -1.8138
 4567SOL     OW25159   0.808   1.207   6.224 -0.5664  0.4221  0.1322
 4567SOL    HW125160   0.877   1.239   6.282 -0.1252 -1.1415  0.4898
 4567SOL    HW225161   0.740   1.177   6.283 -1.8354 -0.2568 -1.6670
 4568SOL     OW25162   4.344   0.556  15.526 -1.0996  0.6472 -0.0341
 4568SOL    HW125163   4.419   0.611  15.552 -1.5251  1.3161 -0.2132
 4568SOL    HW225164   4.386   0.471  15.530 -1.1470  0.7741  3.1583
 4569SOL     OW25165   2.837   1.915   6.764 -0.1268  0.1543  1.1300
 4569SOL    HW125166   2.861   1.881   6.850 -1.7407  0.2077  1.5960
 4569SOL    HW225167   2.909   1.977   6.753  1.2893 -1.4504  1.2551
 4570SOL     OW25168   1.487   2.894  11.357 -0.0804 -0.0531 -0.0796
 4570SOL    HW125169   1.570   2.856  11.330  1.0907  1.0945  1.9377
 4570SOL    HW225170   1.457   2.931  11.274  1.5916  1.6177  0.0789
 4571SOL     OW25171   3.216   2.157  12.147  0.6192  0.2714 -0.2044
 4571SOL    HW125172   3.171   2.112  12.219 -0.0079  2.5783  0.8382
 4571SOL    HW225173   3.153   2.154  12.075 -1.0309 -3.0602  1.3800
 4572SOL     OW25174   3.076   1.457  10.275  0.5359 -0.1424  0.2094
 4572SOL    HW125175   2.994   1.494  10.242  1.0896  1.8373  1.0604
 4572SOL    HW225176   3.138   1.487  10.209 -0.5044 -1.8510 -1.5484
 4573SOL     OW25177   4.395   3.539  10.279  0.1034 -0.1507 -0.0775
 4573SOL    HW125178   4.350   3.612  10.235 -2.1052 -1.3398  0.1810
 4573SOL    HW225179   4.476   3.532  10.229  0.5543  1.8046  0.3635
 4574SOL     OW25180   1.160   3.294   5.366  0.3426 -0.5171  0.5645
 4574SOL    HW125181   1.192   3.206   5.388  1.6199 -0.4915 -1.1655
 4574SOL    HW225182   1.111   3.318   5.444  0.3961 -0.1896  0.4965
 4575SOL     OW25183   4.664   0.537   5.697 -0.2252 -0.3613  0.3582
 4575SOL    HW125184   4.672   0.633   5.699 -1.6846 -0.2272 -0.1783
 4575SOL    HW225185   4.587   0.517   5.644 -0.8166  0.8819  0.7256
 4576SOL     OW25186   3.715   0.659   1.766  0.5321 -0.1243 -0.0861
 4576SOL    HW125187   3.717   0.594   1.836  0.6404 -0.0844 -0.0532
 4576SOL    HW225188   3.631   0.642   1.723 -0.3441  2.4590  0.5461
 4577SOL     OW25189   3.751   4.086  13.657 -0.2397  0.3743  0.3865
 4577SOL    HW125190   3.771   4.017  13.594 -1.7250 -1.1224  1.5499
 4577SOL    HW225191   3.712   4.030  13.725 -3.6871 -1.7106 -3.3112
 4578SOL     OW25192   2.533   1.467  16.019 -0.4648  0.0934  0.3134
 4578SOL    HW125193   2.621   1.431  16.010 -1.5982 -1.9946 -2.4652
 4578SOL    HW225194   2.521   1.498  15.930  2.0252  2.6744  0.8685
 4579SOL     OW25195   3.165   1.179   3.060 -0.1706  0.4473  0.1918
 4579SOL    HW125196   3.248   1.226   3.065 -0.1092  0.3060  0.4602
 4579SOL    HW225197   3.181   1.114   3.128 -1.0859  0.2132  0.1875
 4580SOL     OW25198   1.189   4.466   4.824  0.5711 -0.9199  0.1710
 4580SOL    HW125199   1.094   4.479   4.831  0.7847 -0.4152  2.1889
 4580SOL    HW225200   1.194   4.394   4.761 -0.0297 -0.4292 -0.4423
 4581SOL     OW25201   4.225   1.945   7.127 -0.0989  0.1730 -0.3760
 4581SOL    HW125202   4.193   2.035   7.139  0.7264  0.5075 -0.7200
 4581SOL    HW225203   4.206   1.913   7.215  1.2058  0.9651  0.1974
 4582SOL     OW25204   4.107   3.527   2.480  0.2891 -0.0278  0.0238
 4582SOL    HW125205   4.111   3.534   2.384 -1.3699 -0.6288 -0.0973
 4582SOL    HW225206   4.043   3.458   2.495 -1.7474  1.3616 -2.2545
 4583SOL     OW25207   4.456   2.103  11.767  0.1170  0.1573  0.2154
 4583SOL    HW125208   4.370   2.119  11.807  0.1384 -0.2955  0.4519
 4583SOL    HW225209   4.464   2.008  11.776  1.9847  0.4914  2.2270
 4584SOL     OW25210   2.812   1.063   5.049 -0.2497 -0.1886  0.6696
 4584SOL    HW125211   2.780   1.014   5.125 -0.1164 -1.4510 -0.0747
 4584SOL    HW225212   2.814   0.995   4.981 -1.0300  1.8453 -1.3794
 4585SOL     OW25213   2.849   0.772   5.190  0.1903  0.1791  0.5308
 4585SOL    HW125214   2.929   0.810   5.225  0.7167  1.4583 -2.1160
 4585SOL    HW225215   2.865   0.678   5.192  1.3257  0.3093 -2.6121
 4586SOL     OW25216   0.750   2.826   5.108  0.4533 -0.1882 -0.0594
 4586SOL    HW125217   0.802   2.886   5.056 -0.6092 -0.1458 -1.0786
 4586SOL    HW225218   0.703   2.889   5.162  1.1967  1.3185 -1.1904
 4587SOL     OW25219   0.590   2.174   3.376 -0.2144  0.5005 -0.0417
 4587SOL    HW125220   0.606   2.229   3.453  0.9470 -0.1945  0.2137
 4587SOL    HW225221   0.494   2.169   3.376 -0.2952  1.9859  0.0513
 4588SOL     OW25222   4.705   1.500   3.071 -0.4258 -0.5975  0.0034
 4588SOL    HW125223   4.690   1.442   2.997  0.3657 -0.7949 -0.0027
 4588SOL    HW225224   4.676   1.586   3.040 -1.6063 -0.4596  1.4746
 4589SOL     OW25225   1.561   0.484   2.382  0.3638  0.4782  0.3570
 4589SOL    HW125226   1.476   0.512   2.346  0.8906  0.0554 -1.1885
 4589SOL    HW225227   1.537   0.402   2.426  0.9923  1.2100  2.0531
 4590SOL     OW25228   4.307   2.839  10.597 -0.0755 -0.8754  0.4603
 4590SOL    HW125229   4.255   2.914  10.569 -1.1435 -1.4305  0.9645
 4590SOL    HW225230   4.315   2.867  10.688  0.0203  0.9172 -0.1113
 4591SOL     OW25231   3.500   0.597   8.360 -0.3897 -0.1704  0.3157
 4591SOL    HW125232   3.515   0.646   8.441 -0.9663  0.3616  0.0982
 4591SOL    HW225233   3.591   0.604   8.329  0.2450 -0.9631  2.0120
 4592SOL     OW25234   2.742   0.994   8.409 -0.1641 -0.4585 -0.2590
 4592SOL    HW125235   2.678   0.940   8.457 -1.6708  1.4462 -0.1284
 4592SOL    HW225236   2.822   0.951   8.438 -0.0860 -0.9791 -1.2621
 4593SOL     OW25237   3.431   3.448   8.614  0.1429  0.0584  0.0651
 4593SOL    HW125238   3.426   3.362   8.655 -2.0422 -0.0919 -0.5335
 4593SOL    HW225239   3.479   3.421   8.535  2.8026 -0.5619  1.8720
 4594SOL     OW25240   0.417   0.448   3.851  0.1804  0.2829 -0.2101
 4594SOL    HW125241   0.364   0.389   3.905  0.5068  1.0295  0.9240
 4594SOL    HW225242   0.492   0.454   3.910 -1.7999  1.6381  2.1616
 4595SOL     OW25243   0.552   3.250   0.063 -0.0685  0.6638  0.0349
 4595SOL    HW125244   0.641   3.283   0.053  0.9750 -2.2023 -0.2883
 4595SOL    HW225245   0.558   3.168   0.112 -0.6248  1.4672  1.4298
 4596SOL     OW25246   1.540   3.991  14.982 -0.4697 -0.1725 -0.1435
 4596SOL    HW125247   1.555   4.033  15.067  1.5890  2.2311 -1.6950
 4596SOL    HW225248   1.449   4.016  14.963 -1.8665 -2.9703  2.9483
 4597SOL     OW25249   0.782   1.907  14.158 -0.5068 -0.1970 -0.6073
 4597SOL    HW125250   0.790   1.924  14.252  0.3715  0.4882 -0.8094
 4597SOL    HW225251   0.689   1.926  14.142 -0.3878 -2.3259 -3.7605
 4598SOL     OW25252   4.192   2.853   4.197 -0.1224  0.1736  0.1294
 4598SOL    HW125253   4.226   2.932   4.156 -0.2230  0.3055  0.2981
 4598SOL    HW225254   4.274   2.804   4.192 -0.3182 -0.1521  0.1549
 4599SOL     OW25255   2.819   3.738   5.568  0.0434  0.3330 -0.0597
 4599SOL    HW125256   2.852   3.663   5.518  1.9179  0.8030  0.5002
 4599SOL    HW225257   2.872   3.807   5.528 -1.2042  1.1172 -0.3780
 4600SOL     OW25258   2.286   3.817   6.949 -0.2078  0.3978  0.3603
 4600SOL    HW125259   2.365   3.791   6.997 -1.0465  1.9719  2.5974
 4600SOL    HW225260   2.216   3.753   6.968 -2.1160  2.1047 -0.9738
 4601SOL     OW25261   0.019   1.894   5.310 -0.2053 -0.1228  0.2927
 4601SOL    HW125262   4.704   1.893   5.398 -0.2046 -3.2653  0.2601
 4601SOL    HW225263   4.678   1.942   5.259  1.7429 -0.0948 -2.1864
 4602SOL     OW25264   2.211   1.187  15.600 -0.4429  0.4721  0.0354
 4602SOL    HW125265   2.293   1.153  15.565  0.4377  2.3099  0.3679
 4602SOL    HW225266   2.203   1.276  15.567 -0.3253  1.0521  1.5835
 4603SOL     OW25267   3.707   2.529  10.173  0.0391  0.5620 -0.2744
 4603SOL    HW125268   3.725   2.443  10.135 -0.0363  0.5322 -0.2417
 4603SOL    HW225269   3.726   2.588  10.100  0.2211  0.6313 -0.1716
 4604SOL     OW25270   1.552   4.173   7.082 -0.4574 -0.2817 -0.3899
 4604SOL    HW125271   1.531   4.220   7.163 -1.4375  0.7379 -1.2296
 4604SOL    HW225272   1.598   4.236   7.027 -1.1433  0.1470 -0.4857
 4605SOL     OW25273   3.542   0.048   9.553 -0.3614  0.0029  0.3059
 4605SOL    HW125274   3.492   4.722   9.488 -1.3152  2.1584 -0.5770
 4605SOL    HW225275   3.504   0.016   9.635  1.2058 -0.7369  0.7578
 4606SOL     OW25276   2.030   1.146   1.995 -0.0412 -0.3464  0.4031
 4606SOL    HW125277   2.032   1.101   2.079 -1.6712 -0.3277  0.4551
 4606SOL    HW225278   2.005   1.237   2.015 -0.8219 -1.0445  2.6174
 4607SOL     OW25279   0.517   1.214   4.767  0.0763  0.0250  0.3157
 4607SOL    HW125280   0.610   1.237   4.756 -0.3251  1.0051 -1.0633
 4607SOL    HW225281   0.524   1.128   4.727  1.3159  0.4371 -0.3653
 4608SOL     OW25282   0.216   3.644   9.779  0.4805  0.0597  0.5205
 4608SOL    HW125283   0.200   3.576   9.844  0.9353 -1.8434 -1.3529
 4608SOL    HW225284   0.238   3.722   9.831 -3.5128  1.1542  0.6103
 4609SOL     OW25285   3.785   1.616  16.907 -0.2904 -0.0919  0.2651
 4609SOL    HW125286   3.841   1.551  16.863 -0.4290 -0.1999  0.2490
 4609SOL    HW225287   3.803   1.699  16.861 -0.9407 -0.2945 -0.3447
 4610SOL     OW25288   2.910   4.221   0.001  0.4270  0.2170  0.1575
 4610SOL    HW125289   2.957   4.304   0.011 -2.5234  2.2104 -2.5994
 4610SOL    HW225290   2.957   4.165   0.063  2.6211  3.1580  1.1684
 4611SOL     OW25291   1.989   3.338  17.417  0.1258  0.4881  0.1695
 4611SOL    HW125292   1.942   3.300  17.492  0.5355  0.4036  0.3817
 4611SOL    HW225293   2.055   3.393  17.458 -0.2463  0.5594  0.6792
 4612SOL     OW25294   2.235   0.003  11.503  0.0374  0.0717  0.4362
 4612SOL    HW125295   2.317   4.679  11.493  0.5682  1.5585 -2.3376
 4612SOL    HW225296   2.273   0.089  11.487  0.6134 -0.2409  0.1275
 4613SOL     OW25297   3.059   4.660  17.477  0.2252 -0.6917  0.3646
 4613SOL    HW125298   3.031   4.710  17.554 -0.2559  0.2682 -0.4298
 4613SOL    HW225299   3.153   4.675  17.485 -0.3276  3.7249 -1.4038
 4614SOL     OW25300   1.551   0.548  17.331 -0.2237 -0.1996  0.2128
 4614SOL    HW125301   1.592   0.463  17.346 -0.5040 -0.5670 -1.1156
 4614SOL    HW225302   1.631   0.592  17.301  0.0455 -1.2738 -0.6200
 4615SOL     OW25303   3.071   3.668   5.218 -0.0567  0.2402 -0.0282
 4615SOL    HW125304   3.163   3.681   5.195 -0.0489 -1.2362 -0.7986
 4615SOL    HW225305   3.028   3.673   5.133  2.0651 -1.9745 -1.2263
 4616SOL     OW25306   2.302   0.876   5.902  0.1565  0.5950  0.2613
 4616SOL    HW125307   2.340   0.792   5.927  0.6020  0.4067 -1.0312
 4616SOL    HW225308   2.228   0.881   5.963  1.5796 -0.2684  2.0695
 4617SOL     OW25309   4.402   0.512   7.079  0.2055 -0.1796  0.1104
 4617SOL    HW125310   4.309   0.529   7.069  0.0456 -1.7655 -0.9557
 4617SOL    HW225311   4.426   0.525   6.987 -0.2325 -2.9063 -0.3895
 4618SOL     OW25312   2.715   0.764   7.908  0.6930  0.5756  0.4746
 4618SOL    HW125313   2.625   0.765   7.938  1.5699  0.6226  3.1239
 4618SOL    HW225314   2.713   0.795   7.818  1.2859 -1.6080 -0.2903
 4619SOL     OW25315   0.503   3.155   6.997 -0.1715 -0.2152 -0.5653
 4619SOL    HW125316   0.421   3.183   6.956  0.1489  0.3506 -0.8241
 4619SOL    HW225317   0.462   3.117   7.075 -1.3264 -0.1334 -1.1342
 4620SOL     OW25318   4.527   1.834   2.008  0.3039  0.0357 -0.0375
 4620SOL    HW125319   4.491   1.873   1.929  1.6484 -0.9167 -1.1280
 4620SOL    HW225320   4.487   1.748   1.996 -0.8636  0.6183 -0.3144
 4621SOL     OW25321   4.185   1.484   4.698  0.0870 -0.4489  0.3170
 4621SOL    HW125322   4.168   1.390   4.690 -0.0381 -0.3985 -0.0218
 4621SOL    HW225323   4.121   1.514   4.762  1.0090 -3.7755  2.8084
 4622SOL     OW25324   0.050   0.598   3.051  0.5643 -0.5091  0.1037
 4622SOL    HW125325   0.108   0.653   2.998  0.7278 -0.3859  0.4127
 4622SOL    HW225326   0.101   0.517   3.058  1.3105 -0.1679 -1.2957
 4623SOL     OW25327   1.003   4.021   6.572 -0.2816 -0.0397  0.5641
 4623SOL    HW125328   0.925   3.968   6.557 -0.1989 -0.4524  1.5795
 4623SOL    HW225329   1.069   3.972   6.523  1.1749  2.9719 -0.4701
 4624SOL     OW25330   1.459   2.880   2.734 -0.1047  0.5906  0.2443
 4624SOL    HW125331   1.525   2.950   2.733  0.9205 -0.3439  1.8533
 4624SOL    HW225332   1.503   2.827   2.667 -1.8272  2.7953 -2.6151
 4625SOL     OW25333   3.482   2.016   6.161  0.2514  0.2411 -0.4648
 4625SOL    HW125334   3.423   2.029   6.087 -0.3126  1.3498  0.1720
 4625SOL    HW225335   3.413   2.007   6.226 -0.9361 -1.1279 -1.9140
 4626SOL     OW25336   3.301   0.551  15.395 -0.3625 -0.3742 -0.3808
 4626SOL    HW125337   3.288   0.515  15.308  0.0523  0.5903 -0.8368
 4626SOL    HW225338   3.209   0.562  15.419 -0.7036 -1.1873 -1.2951
 4627SOL     OW25339   3.547   2.511  16.451  0.0491 -0.7789 -0.0579
 4627SOL    HW125340   3.538   2.590  16.397 -2.9413 -0.7287  0.4835
 4627SOL    HW225341   3.585   2.453  16.385 -1.2349  0.7492 -2.1466
 4628SOL     OW25342   3.063   3.018   7.122 -0.0067  0.3456 -0.2772
 4628SOL    HW125343   2.994   2.956   7.145  1.6449 -0.9406  1.1538
 4628SOL    HW225344   3.079   3.008   7.029  1.3848  1.2717 -0.1361
 4629SOL     OW25345   4.111   1.973   5.631  0.4325 -0.3532  0.0938
 4629SOL    HW125346   4.100   2.039   5.563  1.4298 -0.4418 -0.1640
 4629SOL    HW225347   4.206   1.960   5.627  0.5280  0.8340 -1.8291
 4630SOL     OW25348   2.850   0.178   0.131  0.0360 -0.2426 -0.5208
 4630SOL    HW125349   2.775   0.117   0.129 -0.3527  0.1550  2.0854
 4630SOL    HW225350   2.803   0.254   0.165 -1.7863 -1.5376 -0.1624
 4631SOL     OW25351   4.056   1.768   0.937  0.4041 -0.7096  0.0531
 4631SOL    HW125352   3.999   1.737   1.007 -0.0054 -1.4548 -0.6081
 4631SOL    HW225353   4.111   1.838   0.973  1.4689 -1.0950 -0.8363
 4632SOL     OW25354   1.943   2.375  16.189 -0.5060  0.3390  0.1495
 4632SOL    HW125355   1.872   2.348  16.248 -0.6798  1.7402  0.5887
 4632SOL    HW225356   1.914   2.464  16.168  2.0022  0.4184 -2.9168
 4633SOL     OW25357   1.406   4.235   3.670  0.3974  0.3405 -0.6194
 4633SOL    HW125358   1.427   4.280   3.752 -2.8917 -2.2550  1.6639
 4633SOL    HW225359   1.322   4.197   3.696  1.1864 -0.4991  0.7215
 4634SOL     OW25360   4.229   0.254   8.671  0.1863  0.0641 -0.2174
 4634SOL    HW125361   4.305   0.296   8.710 -0.9305  1.6729  0.2191
 4634SOL    HW225362   4.213   0.183   8.733 -0.9040  0.4094 -0.0957
 4635SOL     OW25363   3.677   2.864  15.860 -0.5476  0.2244  0.3284
 4635SOL    HW125364   3.716   2.804  15.796  1.1779  2.0319 -0.3064
 4635SOL    HW225365   3.620   2.916  15.803 -1.0947  1.5637  2.0976
 4636SOL     OW25366   3.852   2.307   2.531 -0.0279  0.9320 -0.0873
 4636SOL    HW125367   3.876   2.234   2.475 -0.2985  0.0423  0.9399
 4636SOL    HW225368   3.900   2.282   2.610 -1.3562 -0.6761  0.2380
 4637SOL     OW25369   0.473   1.944   8.764  0.2041 -0.1212  0.0124
 4637SOL    HW125370   0.434   1.992   8.836  1.2696  0.4327  0.2124
 4637SOL    HW225371   0.407   1.878   8.741 -0.0565  0.8891 -2.1680
 4638SOL     OW25372   0.107   2.179   7.568 -0.1194 -0.0275  0.0828
 4638SOL    HW125373   0.080   2.220   7.651 -2.6021  1.4034 -1.4388
 4638SOL    HW225374   0.093   2.089   7.595 -0.9845  0.1803  0.3140
 4639SOL     OW25375   0.356   0.390   7.171  0.5574  0.2569  0.5173
 4639SOL    HW125376   0.363   0.310   7.224  1.1896 -0.4972 -0.7258
 4639SOL    HW225377   0.260   0.392   7.165  0.6597 -1.7891 -1.8077
 4640SOL     OW25378   0.236   2.067   8.271  0.5937  0.1844 -0.6623
 4640SOL    HW125379   0.218   1.987   8.223  0.2818 -0.8497  1.1486
 4640SOL    HW225380   0.288   2.051   8.351 -1.1623  0.7244  0.5868
 4641SOL     OW25381   3.175   2.288   7.232 -0.0368  0.3099  0.0505
 4641SOL    HW125382   3.136   2.341   7.302  0.3867 -0.2445  0.6954
 4641SOL    HW225383   3.265   2.320   7.226 -0.6821  2.2082  0.5148
 4642SOL     OW25384   0.962   1.165   5.253 -0.6830  0.1006 -0.4142
 4642SOL    HW125385   0.907   1.213   5.190  1.2254  1.1574 -1.2492
 4642SOL    HW225386   0.942   1.073   5.235  0.7687 -0.0977 -0.9619
 4643SOL     OW25387   3.460   4.482  16.656  0.0683 -0.9539 -0.0510
 4643SOL    HW125388   3.510   4.519  16.728 -1.4452 -0.9492  0.9891
 4643SOL    HW225389   3.440   4.399  16.698 -0.5702 -0.2115  1.1027
 4644SOL     OW25390   2.827   4.557  13.261  0.2092 -0.1937  0.5150
 4644SOL    HW125391   2.854   4.639  13.219  1.2508 -0.8886 -0.1815
 4644SOL    HW225392   2.885   4.494  13.217 -0.5114  0.1513 -0.9135
 4645SOL     OW25393   2.737   0.095   5.982 -0.5123  0.0632  0.0620
 4645SOL    HW125394   2.735   0.180   6.026  0.6994  0.1591 -0.0618
 4645SOL    HW225395   2.689   0.040   6.043  1.7227 -0.5245  1.2899
 4646SOL     OW25396   2.363   1.674   4.160  0.0909 -0.6820  0.0645
 4646SOL    HW125397   2.407   1.631   4.087  0.7272  1.2427 -0.6883
 4646SOL    HW225398   2.323   1.594   4.193 -0.8355 -0.1920  0.1509
 4647SOL     OW25399   0.361   0.114   3.622 -0.5949  0.1833  0.1659
 4647SOL    HW125400   0.431   0.171   3.592  0.9302 -0.5680  2.3100
 4647SOL    HW225401   0.410   0.034   3.641  0.4240  0.6925 -0.3119
 4648SOL     OW25402   4.376   2.818  12.802 -0.4120 -0.1571 -0.6200
 4648SOL    HW125403   4.459   2.856  12.772 -0.0441  1.1955  2.0642
 4648SOL    HW225404   4.401   2.729  12.826  0.5091  0.3785  0.4621
 4649SOL     OW25405   4.627   1.137   4.230 -0.1302  0.0654 -0.3036
 4649SOL    HW125406   4.596   1.080   4.300  1.5662 -2.5993 -1.7270
 4649SOL    HW225407   4.672   1.068   4.182  0.0712  0.0674 -0.1200
 4650SOL     OW25408   2.170   4.467   5.408 -0.1671  0.0192 -0.4216
 4650SOL    HW125409   2.173   4.523   5.486  1.6901  0.5155 -0.8467
 4650SOL    HW225410   2.254   4.473   5.363  0.5607  1.2115  1.0592
 4651SOL     OW25411   3.763   4.236  16.280  0.4014 -0.3746 -0.7681
 4651SOL    HW125412   3.834   4.174  16.264  2.7637  1.7234  1.3601
 4651SOL    HW225413   3.684   4.195  16.244 -0.8152 -0.0356  1.5382
 4652SOL     OW25414   1.074   2.458  11.665 -0.6177  0.4427 -0.3818
 4652SOL    HW125415   1.119   2.382  11.703 -0.8310  1.3627  1.6975
 4652SOL    HW225416   1.135   2.485  11.596  1.7295 -0.2914  1.4138
 4653SOL     OW25417   4.707   1.929   7.707  0.8330 -0.3512 -0.4157
 4653SOL    HW125418   4.679   1.964   7.792 -0.8160  0.5735 -1.3354
 4653SOL    HW225419   0.061   1.885   7.740  0.1291 -0.5547  0.9999
 4654SOL     OW25420   3.929   1.949  10.515  0.1902 -0.9899  0.1222
 4654SOL    HW125421   3.939   1.954  10.420  2.4421 -0.3683  0.3888
 4654SOL    HW225422   3.835   1.966  10.522  0.0431  0.0706 -4.4528
 4655SOL     OW25423   3.204   2.366   2.924 -0.1383  0.5338 -0.3934
 4655SOL    HW125424   3.278   2.409   2.882 -1.0845  2.8271  0.3075
 4655SOL    HW225425   3.244   2.284   2.953 -1.4139  0.4676  1.1543
 4656SOL     OW25426   4.302   2.724   8.402  0.0194  0.0422  0.6814
 4656SOL    HW125427   4.254   2.800   8.435 -1.8613 -2.0147  2.7470
 4656SOL    HW225428   4.373   2.711   8.464 -0.0749 -0.4566  0.6838
 4657SOL     OW25429   2.662   1.001   8.147 -0.1705 -0.0596 -0.3256
 4657SOL    HW125430   2.621   1.080   8.112 -0.4667 -0.3254 -0.5731
 4657SOL    HW225431   2.723   1.037   8.212  0.5133  0.8377 -1.4638
 4658SOL     OW25432   3.086   4.398   2.403  0.0930  0.7277  0.3918
 4658SOL    HW125433   3.043   4.481   2.380  1.1008  0.4707 -2.4364
 4658SOL    HW225434   3.062   4.392   2.495 -1.9992 -1.9096 -0.3320
 4659SOL     OW25435   3.825   2.698  17.587 -0.1235 -0.2956 -0.1413
 4659SOL    HW125436   3.845   2.791  17.578  1.6245 -0.7342 -0.8135
 4659SOL    HW225437   3.740   2.682  17.547  0.4806 -2.2881 -0.6626
 4660SOL     OW25438   0.255   2.332  10.212 -0.3477 -0.4035 -0.4094
 4660SOL    HW125439   0.219   2.263  10.268 -0.2939 -0.5674 -0.5771
 4660SOL    HW225440   0.242   2.408  10.269 -0.4128 -0.5269 -0.2586
 4661SOL     OW25441   3.984   2.454   3.515 -0.6658  0.1669  0.4168
 4661SOL    HW125442   3.929   2.377   3.526 -0.1576 -0.1637  0.6431
 4661SOL    HW225443   3.934   2.510   3.456  0.8164  0.5084 -0.5014
 4662SOL     OW25444   2.182   3.206   5.440  0.1190 -0.2028  0.0383
 4662SOL    HW125445   2.137   3.288   5.420 -1.4707 -1.2372 -0.5861
 4662SOL    HW225446   2.170   3.205   5.534  0.9104 -1.5791  0.1223
 4663SOL     OW25447   4.101   3.252   4.393  0.2363 -0.3504  0.0798
 4663SOL    HW125448   4.107   3.159   4.417  1.0127  0.4379  2.9184
 4663SOL    HW225449   4.185   3.277   4.354  1.0015  1.4044  2.9199
 4664SOL     OW25450   4.139   3.456   4.962  0.2080 -0.4209 -0.0643
 4664SOL    HW125451   4.218   3.493   4.999  0.3434 -0.3717 -0.4045
 4664SOL    HW225452   4.155   3.365   4.989 -0.4661 -1.0275 -1.7462
 4665SOL     OW25453   1.152   2.041   7.394  0.3027 -0.1911  0.0667
 4665SOL    HW125454   1.230   2.094   7.382  0.3365 -0.0803  0.7686
 4665SOL    HW225455   1.106   2.039   7.310  0.1296  1.3840  0.1280
 4666SOL     OW25456   3.332   2.098  10.861 -0.0574  0.3748 -0.1257
 4666SOL    HW125457   3.389   2.130  10.931  2.1403 -0.2730 -1.6229
 4666SOL    HW225458   3.399   2.076  10.796  1.4354 -2.4848  2.3706
 4667SOL     OW25459   2.637   0.932   2.871 -0.1636  0.2840  0.2282
 4667SOL    HW125460   2.607   0.968   2.788 -2.2662  2.8653  2.1202
 4667SOL    HW225461   2.558   0.880   2.888  0.8179 -1.3271 -0.1359
 4668SOL     OW25462   0.406   3.054   3.548 -0.0023 -0.5134 -0.2228
 4668SOL    HW125463   0.396   3.061   3.643  1.4947  0.9218 -0.1545
 4668SOL    HW225464   0.447   3.137   3.525 -0.4407 -0.1513  0.2942
 4669SOL     OW25465   3.071   1.101  14.744 -0.2851 -0.4012  0.1173
 4669SOL    HW125466   3.090   1.064  14.657  3.3490 -0.0708  0.7792
 4669SOL    HW225467   2.990   1.150  14.731  0.8616  1.7023  1.0163
 4670SOL     OW25468   4.052   1.311   3.300  0.2078 -0.3369 -0.5584
 4670SOL    HW125469   4.056   1.224   3.339 -0.1688 -0.6568 -1.2443
 4670SOL    HW225470   4.015   1.361   3.373  1.6151  1.3459 -0.9797
 4671SOL     OW25471   0.106   0.380   1.564  0.0212 -0.7550  0.2106
 4671SOL    HW125472   0.022   0.412   1.596  0.1413  0.9448 -1.1294
 4671SOL    HW225473   0.108   0.287   1.585  1.4805 -0.9277 -0.7288
 4672SOL     OW25474   1.892   1.663   1.939  0.1713  0.1533  0.6143
 4672SOL    HW125475   1.893   1.720   2.017 -1.0820  0.3284  0.5090
 4672SOL    HW225476   1.906   1.731   1.874 -1.1606  0.1477  0.3117
 4673SOL     OW25477   0.303   4.148   2.649 -0.1527  0.8049 -0.0122
 4673SOL    HW125478   0.228   4.188   2.606 -0.5225 -3.2429 -3.2186
 4673SOL    HW225479   0.368   4.191   2.594 -1.1524  1.9246 -0.3063
 4674SOL     OW25480   3.660   0.333  14.389 -0.2533 -0.3541  0.5550
 4674SOL    HW125481   3.700   0.272  14.327  0.7250 -0.8214  1.6494
 4674SOL    HW225482   3.741   0.367  14.427  0.5999 -0.7032 -0.9494
 4675SOL     OW25483   3.417   0.423   6.340  0.0226 -0.5773 -0.1055
 4675SOL    HW125484   3.508   0.393   6.341  0.0760 -0.3772  1.0357
 4675SOL    HW225485   3.406   0.449   6.432 -3.6863  0.6899 -0.9394
 4676SOL     OW25486   0.720   2.603   3.639 -0.8898 -0.7245 -0.1369
 4676SOL    HW125487   0.637   2.649   3.627 -0.0328  0.8452 -0.0430
 4676SOL    HW225488   0.742   2.661   3.712 -0.2048  1.4232 -2.0637
 4677SOL     OW25489   4.234   2.498   8.247 -0.1219 -0.1749 -0.2212
 4677SOL    HW125490   4.313   2.463   8.206 -0.5711 -0.8588 -0.5083
 4677SOL    HW225491   4.260   2.571   8.302  1.4442  0.1384 -1.4003
 4678SOL     OW25492   0.576   3.888   7.085 -0.1514 -0.9006 -0.1025
 4678SOL    HW125493   0.556   3.920   7.173 -2.1412 -1.0309 -0.5142
 4678SOL    HW225494   0.489   3.859   7.058 -0.7104  2.2242 -1.5606
 4679SOL     OW25495   4.573   1.521   5.059 -0.3875  0.1195  0.2499
 4679SOL    HW125496   4.534   1.597   5.017  0.9843  0.3880 -0.5186
 4679SOL    HW225497   4.508   1.453   5.037  2.3026 -1.4849 -2.7508
 4680SOL     OW25498   1.667   3.007   4.651 -0.1417 -0.3771  0.1624
 4680SOL    HW125499   1.727   2.942   4.688 -1.3417 -1.1047  0.8418
 4680SOL    HW225500   1.677   2.979   4.560 -0.7722  0.3882 -0.1383
 4681SOL     OW25501   4.528   2.828  17.435  0.0775  0.6218 -0.3479
 4681SOL    HW125502   4.436   2.802  17.425 -1.1841  3.7697  2.9467
 4681SOL    HW225503   4.564   2.763  17.375 -0.4960  0.6214 -0.6991
 4682SOL     OW25504   1.102   2.656   1.574 -0.0435  0.2415 -0.4781
 4682SOL    HW125505   1.131   2.683   1.487  1.1809 -0.9626 -0.4375
 4682SOL    HW225506   1.057   2.734   1.607  0.6794  0.3107  0.3351
 4683SOL     OW25507   1.941   0.844   8.313  0.0802  0.3861 -0.1066
 4683SOL    HW125508   2.026   0.806   8.334  1.1600  1.6068 -2.2870
 4683SOL    HW225509   1.906   0.772   8.260  1.0176  0.1400 -0.3966
 4684SOL     OW25510   3.530   3.277   0.801  0.8446 -0.0911  0.3019
 4684SOL    HW125511   3.458   3.217   0.819  1.5977 -0.9239  0.5608
 4684SOL    HW225512   3.604   3.218   0.813  1.2423  0.5018  0.7182
 4685SOL     OW25513   3.398   4.460  17.072 -0.4888  0.3806  0.9272
 4685SOL    HW125514   3.429   4.384  17.120 -2.7287 -0.2484  1.4068
 4685SOL    HW225515   3.457   4.467  16.997  0.1815 -0.8135  1.3545
 4686SOL     OW25516   0.496   1.132   6.148 -0.5328 -0.2460  0.3718
 4686SOL    HW125517   0.531   1.117   6.236  1.9326  0.5498 -0.4690
 4686SOL    HW225518   0.570   1.093   6.101 -0.2616 -1.6574  1.9692
 4687SOL     OW25519   2.493   2.475  15.297  0.1290  0.8416 -0.5804
 4687SOL    HW125520   2.421   2.532  15.327 -1.3426 -0.2520 -2.0296
 4687SOL    HW225521   2.439   2.399  15.277 -0.4843  0.9167  0.7593
 4688SOL     OW25522   2.974   0.305   7.263 -0.4200  0.6594 -0.0667
 4688SOL    HW125523   3.023   0.268   7.336  0.9325  0.9150 -0.8412
 4688SOL    HW225524   2.923   0.380   7.294  0.6751  1.1862  0.4536
 4689SOL     OW25525   0.809   4.445   8.700  0.1214 -0.3725  0.0996
 4689SOL    HW125526   0.762   4.362   8.708  0.0027 -0.5319 -2.2559
 4689SOL    HW225527   0.797   4.466   8.608 -0.6099 -0.0960  0.2580
 4690SOL     OW25528   2.076   3.720  10.301 -0.2463 -0.0565  0.7877
 4690SOL    HW125529   1.992   3.760  10.278  0.5583  0.4575 -1.2738
 4690SOL    HW225530   2.141   3.786  10.276 -0.0837 -1.3841 -2.2600
 4691SOL     OW25531   4.064   0.713  14.165 -0.2737  0.4105 -0.4282
 4691SOL    HW125532   3.973   0.692  14.187  0.3187  0.0157  1.6922
 4691SOL    HW225533   4.105   0.750  14.243 -0.9262 -1.6410  0.8944
 4692SOL     OW25534   0.365   3.109   3.828  0.0055  0.2498 -0.1447
 4692SOL    HW125535   0.285   3.063   3.854 -1.7754  3.3035 -0.1901
 4692SOL    HW225536   0.381   3.146   3.914  1.0091 -1.4091  0.3775
 4693SOL     OW25537   3.490   1.534   8.170 -0.1513  0.2023  0.2784
 4693SOL    HW125538   3.523   1.491   8.249 -0.5766 -1.6485 -0.5477
 4693SOL    HW225539   3.523   1.474   8.103 -1.8740  1.1618 -1.4332
 4694SOL     OW25540   4.478   3.912   6.241  0.3089 -0.2425 -0.0256
 4694SOL    HW125541   4.484   3.907   6.336  1.5941 -2.0622 -0.2027
 4694SOL    HW225542   4.488   4.006   6.222  0.5022 -0.2120  0.2213
 4695SOL     OW25543   2.486   0.865   7.744  0.4959  0.9012  0.4574
 4695SOL    HW125544   2.428   0.880   7.819  1.3501 -0.4523  1.3936
 4695SOL    HW225545   2.424   0.897   7.678 -0.7335  1.5778  1.9602
 4696SOL     OW25546   1.199   3.269  12.635 -0.7599  0.8395  0.2334
 4696SOL    HW125547   1.189   3.362  12.617 -1.6126  0.7048 -0.0054
 4696SOL    HW225548   1.124   3.242  12.581  1.3908 -0.9206 -1.9062
 4697SOL     OW25549   1.161   3.859   6.399 -0.1195  0.2952 -0.0732
 4697SOL    HW125550   1.208   3.881   6.318  2.1471 -2.8923  0.3963
 4697SOL    HW225551   1.211   3.785   6.434  0.2114  0.8250  0.5751
 4698SOL     OW25552   3.224   0.131  15.964  0.0776  1.0730 -0.7094
 4698SOL    HW125553   3.239   0.056  15.906  0.3729 -1.0717  2.1251
 4698SOL    HW225554   3.300   0.124  16.022 -1.3288 -0.9425  0.8832
 4699SOL     OW25555   2.874   0.707   3.901  0.3318 -0.4558  0.0489
 4699SOL    HW125556   2.844   0.659   3.824 -0.6295 -0.6063  0.5108
 4699SOL    HW225557   2.955   0.656   3.908  0.6964  0.2647  1.1576
 4700SOL     OW25558   1.213   2.929  13.319 -0.7125 -0.6214  0.1824
 4700SOL    HW125559   1.252   2.855  13.272 -0.6198 -0.3551 -0.1641
 4700SOL    HW225560   1.131   2.885  13.342 -1.2368 -0.5185 -1.4906
 4701SOL     OW25561   1.461   1.895   0.315  0.7228 -0.4434  0.0937
 4701SOL    HW125562   1.531   1.940   0.267 -0.0524  1.2375  0.5102
 4701SOL    HW225563   1.420   1.971   0.357 -1.1967 -0.1269 -2.3844
 4702SOL     OW25564   3.574   3.725   8.036  0.0370  0.4009 -0.4979
 4702SOL    HW125565   3.546   3.645   8.081  0.6420 -0.0766 -0.9647
 4702SOL    HW225566   3.600   3.774   8.113 -0.3185 -0.8775  0.4310
 4703SOL     OW25567   3.679   1.681   8.004  0.1892  0.4842 -0.1670
 4703SOL    HW125568   3.651   1.590   8.010  0.1019  0.4374 -1.1934
 4703SOL    HW225569   3.623   1.709   7.932 -0.9634 -1.6270 -0.0849
 4704SOL     OW25570   0.762   1.055  15.856 -0.0799  0.6094  0.3924
 4704SOL    HW125571   0.736   1.125  15.796 -3.8266 -1.2683 -0.1907
 4704SOL    HW225572   0.675   1.015  15.859 -0.1706  0.7871  0.1670
 4705SOL     OW25573   1.083   0.947   6.729 -0.9708  0.0246 -0.0627
 4705SOL    HW125574   1.021   0.903   6.787 -1.7803  0.9901 -0.1891
 4705SOL    HW225575   1.128   0.866   6.708 -0.0660  0.9806 -1.8236
 4706SOL     OW25576   3.999   4.603   9.396 -0.1765 -0.0349 -0.9165
 4706SOL    HW125577   4.035   4.529   9.445 -2.4906 -1.8189 -1.8772
 4706SOL    HW225578   3.958   4.661   9.460 -0.3619 -0.6055 -0.5189
 4707SOL     OW25579   0.053   1.179  12.977  0.0268 -0.1136 -0.0119
 4707SOL    HW125580   4.706   1.139  12.926 -0.2105  0.5149 -0.1746
 4707SOL    HW225581   0.110   1.207  12.905 -1.7117  1.2153 -0.8717
 4708SOL     OW25582   0.417   0.492   7.986 -0.0745 -0.1211 -0.4168
 4708SOL    HW125583   0.348   0.437   7.950 -2.1109  1.0649  1.7086
 4708SOL    HW225584   0.365   0.557   8.033 -0.3813 -0.3478 -0.4495
 4709SOL     OW25585   1.375   2.040  15.233  0.0011 -0.1241  0.1059
 4709SOL    HW125586   1.459   2.004  15.205  0.4033  0.7085  0.2461
 4709SOL    HW225587   1.319   1.966  15.210  0.8998 -0.1578 -1.9922
 4710SOL     OW25588   3.874   3.924  14.385 -0.1948 -0.2064  0.1135
 4710SOL    HW125589   3.962   3.949  14.413  0.3569 -0.9176 -0.9706
 4710SOL    HW225590   3.830   4.008  14.371 -0.6399 -0.0320  2.5234
 4711SOL     OW25591   4.554   1.260   0.435 -0.1166 -0.1541  0.0003
 4711SOL    HW125592   4.631   1.289   0.485  0.4535 -1.6416 -0.0275
 4711SOL    HW225593   4.601   1.207   0.371 -1.7721 -2.4591  0.7209
 4712SOL     OW25594   0.328   2.096  14.082  0.0944  0.4303  0.0167
 4712SOL    HW125595   0.410   2.140  14.105  0.4672 -0.0192 -0.4527
 4712SOL    HW225596   0.286   2.104  14.168  0.7128 -0.7779  0.4365
 4713SOL     OW25597   0.436   1.984  15.247  0.3680 -0.3033 -0.0318
 4713SOL    HW125598   0.447   2.060  15.191  1.2306  0.6561  1.4464
 4713SOL    HW225599   0.476   1.920  15.188 -0.0644  0.1927 -0.8586
 4714SOL     OW25600   3.724   2.669  10.976  0.1836  0.1365 -0.6104
 4714SOL    HW125601   3.692   2.745  11.024  2.0414 -0.0022  0.8028
 4714SOL    HW225602   3.698   2.698  10.888 -1.2468 -2.1940 -0.9522
 4715SOL     OW25603   1.053   1.156   2.871  0.2221 -0.5720 -0.4310
 4715SOL    HW125604   0.999   1.085   2.908 -2.7138  1.2054 -1.2549
 4715SOL    HW225605   1.127   1.108   2.835  0.0500 -0.6393 -0.7020
 4716SOL     OW25606   2.178   4.699   5.891 -0.2275 -0.0154  0.0768
 4716SOL    HW125607   2.198   4.608   5.913  0.7692  0.3529  0.7102
 4716SOL    HW225608   2.237   0.021   5.952 -1.3589 -0.2461  1.3481
 4717SOL     OW25609   4.066   0.665  13.462 -0.0573 -0.8147 -0.0487
 4717SOL    HW125610   3.980   0.691  13.496 -0.0618 -0.3468 -0.4211
 4717SOL    HW225611   4.114   0.656  13.544 -1.5040 -1.2250  0.7658
 4718SOL     OW25612   1.306   1.728   0.474  0.3392 -0.0595 -0.2547
 4718SOL    HW125613   1.359   1.651   0.494 -0.8264 -0.1672  2.3932
 4718SOL    HW225614   1.365   1.769   0.411  0.6596 -0.8122 -0.4491
 4719SOL     OW25615   0.039   3.498  16.595  0.4732  0.3698  0.0220
 4719SOL    HW125616   0.084   3.562  16.539  1.1374  0.7968  1.0558
 4719SOL    HW225617   4.689   3.558  16.611 -0.1029 -0.4902  0.5807
 4720SOL     OW25618   2.744   0.102   3.038  0.3286  0.0147  0.2929
 4720SOL    HW125619   2.724   0.179   3.092  0.8312 -0.2923  0.9178
 4720SOL    HW225620   2.830   0.077   3.073 -0.5799 -2.1659  0.9415
 4721SOL     OW25621   0.484   2.403   3.252  0.0203  0.0236 -0.4977
 4721SOL    HW125622   0.489   2.406   3.348 -0.7302  0.2271 -0.4659
 4721SOL    HW225623   0.561   2.348   3.239  0.3115 -0.0900  1.6805
 4722SOL     OW25624   3.810   1.271  12.061  0.8675 -0.2974 -0.4882
 4722SOL    HW125625   3.884   1.332  12.057  1.3511 -0.9520 -1.4396
 4722SOL    HW225626   3.741   1.337  12.061  0.2879 -0.8978 -0.3715
 4723SOL     OW25627   4.351   2.870   9.178  0.3445  0.2156 -0.4178
 4723SOL    HW125628   4.418   2.891   9.113  2.1151 -2.4563  0.5357
 4723SOL    HW225629   4.306   2.799   9.132 -0.1373 -0.6490  1.3842
 4724SOL     OW25630   3.363   1.172   8.171 -0.1200  0.3357 -0.3203
 4724SOL    HW125631   3.287   1.221   8.202  0.6877  1.0364  0.5532
 4724SOL    HW225632   3.324   1.099   8.123 -0.8939  0.9230 -0.5883
 4725SOL     OW25633   1.938   1.120   3.819  0.0941 -0.6101 -0.3264
 4725SOL    HW125634   2.027   1.140   3.847  0.7916 -1.0825 -2.1503
 4725SOL    HW225635   1.943   1.024   3.825 -0.5968 -0.6749 -0.8193
 4726SOL     OW25636   1.545   3.499  11.800  0.2587 -0.4338  0.6851
 4726SOL    HW125637   1.596   3.544  11.733 -2.7618  0.7772 -0.8242
 4726SOL    HW225638   1.607   3.497  11.873  1.8320  3.3902 -0.5194
 4727SOL     OW25639   4.363   3.228  11.900  0.8438  0.1224  0.3723
 4727SOL    HW125640   4.269   3.213  11.889  0.5910  1.0337  1.2533
 4727SOL    HW225641   4.373   3.251  11.808 -1.4833 -0.9121 -0.1449
 4728SOL     OW25642   3.282   2.462   4.279  0.6706 -0.0621 -0.0603
 4728SOL    HW125643   3.220   2.394   4.252  0.2950 -0.2649  1.3235
 4728SOL    HW225644   3.312   2.428   4.363 -1.4361  1.4207  1.2842
 4729SOL     OW25645   0.307   1.321   6.145  0.3572  0.1248  0.0537
 4729SOL    HW125646   0.340   1.249   6.199  0.7775  0.7844  0.6699
 4729SOL    HW225647   0.390   1.362   6.122  2.3878 -3.0099  1.7122
 4730SOL     OW25648   3.833   1.101   5.246 -0.0436 -0.1407  0.6336
 4730SOL    HW125649   3.752   1.126   5.202  0.6975  0.5256 -0.3655
 4730SOL    HW225650   3.887   1.128   5.172 -1.2585 -0.4486 -0.3755
 4731SOL     OW25651   1.342   4.633   0.649 -0.2698 -0.6386 -0.4079
 4731SOL    HW125652   1.428   4.601   0.623 -0.6127 -1.4587 -0.5362
 4731SOL    HW225653   1.340   4.723   0.615  2.1572 -0.8140 -0.9645
 4732SOL     OW25654   0.912   1.403  11.671 -0.0527  0.2693  0.4095
 4732SOL    HW125655   0.973   1.475  11.688  2.2021 -0.8377 -2.8217
 4732SOL    HW225656   0.973   1.329  11.667  1.1605  1.2770  0.3764
 4733SOL     OW25657   0.546   0.534  16.166  0.2327  0.0347  0.5304
 4733SOL    HW125658   0.546   0.440  16.147  1.9783 -0.6008  3.6467
 4733SOL    HW225659   0.529   0.574  16.081 -0.1885 -1.9367 -0.3059
 4734SOL     OW25660   2.172   4.577   2.388 -0.0139 -0.3706  0.2484
 4734SOL    HW125661   2.244   4.534   2.434  2.0230  2.2701 -0.5000
 4734SOL    HW225662   2.190   4.554   2.297  0.1184  0.9086 -0.0486
 4735SOL     OW25663   3.519   4.200   5.244 -0.0065 -0.5368 -0.1252
 4735SOL    HW125664   3.501   4.129   5.183  0.8385 -0.5298 -0.3849
 4735SOL    HW225665   3.614   4.192   5.241  0.0219 -0.4782  0.6024
 4736SOL     OW25666   4.346   3.548   3.428 -0.2825  0.2448  0.2420
 4736SOL    HW125667   4.326   3.466   3.384  0.8038  0.9465 -1.5447
 4736SOL    HW225668   4.420   3.574   3.373  1.0035 -2.1114  0.8187
 4737SOL     OW25669   4.442   1.342   2.849 -0.6058  0.4736 -0.1453
 4737SOL    HW125670   4.398   1.363   2.766 -0.3245  2.1927  0.1431
 4737SOL    HW225671   4.534   1.335   2.823 -1.3236 -4.0373 -1.3960
 4738SOL     OW25672   3.349   3.836  14.117  0.2659  0.4530 -0.2536
 4738SOL    HW125673   3.376   3.785  14.193 -2.0550  1.9605  1.5780
 4738SOL    HW225674   3.387   3.782  14.048  1.5061  0.4944  0.4031
 4739SOL     OW25675   2.960   4.526  17.186  0.0700  0.0804  0.8098
 4739SOL    HW125676   2.964   4.612  17.227  2.3048  0.4035 -0.1116
 4739SOL    HW225677   2.870   4.498  17.201 -0.2034 -0.3106 -1.4701
 4740SOL     OW25678   3.617   4.648   8.935  0.5029 -0.4706 -0.1202
 4740SOL    HW125679   3.708   4.653   8.965  0.1337  3.6121  0.3255
 4740SOL    HW225680   3.621   4.712   8.864  0.5477 -1.1865 -0.7648
 4741SOL     OW25681   1.463   3.709   0.058 -0.1045 -0.1672  0.0817
 4741SOL    HW125682   1.372   3.680   0.054 -1.1048  2.5376  2.9715
 4741SOL    HW225683   1.478   3.759  17.673 -1.1596  1.4287  0.8895
 4742SOL     OW25684   4.722   2.150   8.366  0.4569 -0.6497  0.5903
 4742SOL    HW125685   0.029   2.238   8.384 -1.0505  0.4609 -2.2871
 4742SOL    HW225686   0.077   2.114   8.324 -0.8710 -1.7213 -0.9988
 4743SOL     OW25687   1.711   0.094   7.324 -0.4644  0.5343  0.1401
 4743SOL    HW125688   1.792   0.069   7.280 -1.1532  0.1450 -0.9170
 4743SOL    HW225689   1.708   0.037   7.401  0.2431 -0.3748 -0.5041
 4744SOL     OW25690   4.601   4.568  11.194 -0.1521  0.2933  0.4121
 4744SOL    HW125691   4.596   4.503  11.264  0.7871 -0.9400 -0.6616
 4744SOL    HW225692   4.553   4.539  11.116 -2.1419 -0.9732  2.1064
 4745SOL     OW25693   4.213   4.464  10.812  0.3039  0.2191  0.0682
 4745SOL    HW125694   4.214   4.455  10.907  1.7623 -0.8550 -0.0384
 4745SOL    HW225695   4.143   4.527  10.795 -0.9563 -0.9385  1.0256
 4746SOL     OW25696   0.658   2.824  17.551 -1.3398  0.1041 -0.1797
 4746SOL    HW125697   0.726   2.889  17.570 -1.2579 -0.7583  2.4456
 4746SOL    HW225698   0.724   2.758  17.527 -0.3045  1.1083 -0.1229
 4747SOL     OW25699   1.803   2.438   9.025  0.0049  0.6722  0.0694
 4747SOL    HW125700   1.782   2.430   9.118  1.9068  1.5055  0.5705
 4747SOL    HW225701   1.890   2.476   9.017  0.4289  0.1789  2.4787
 4748SOL     OW25702   1.389   4.656   5.908 -0.7079 -0.3448 -0.2533
 4748SOL    HW125703   1.457   4.607   5.862  0.5283  1.3094 -0.1867
 4748SOL    HW225704   1.436   4.678   5.988 -0.6609 -2.9680  0.4477
 4749SOL     OW25705   3.303   0.409   5.992  0.5672  0.5100  0.3502
 4749SOL    HW125706   3.249   0.453   6.058  0.5934  0.5016  0.3772
 4749SOL    HW225707   3.374   0.473   5.986  0.8851  0.2337  1.2237
 4750SOL     OW25708   4.711   1.684   4.763  0.8412  0.0909  0.7381
 4750SOL    HW125709   4.631   1.635   4.745 -0.3477  1.7997  1.3395
 4750SOL    HW225710   0.060   1.625   4.745 -0.8830 -1.2986 -1.7345
 4751SOL     OW25711   0.191   1.292   6.677  0.0715  0.4569 -0.1918
 4751SOL    HW125712   0.185   1.236   6.754  1.0048 -0.2767 -0.6513
 4751SOL    HW225713   0.243   1.370   6.699  0.5951 -0.2437  1.0720
 4752SOL     OW25714   1.369   2.980  10.818 -0.2527 -0.7108 -0.4188
 4752SOL    HW125715   1.277   2.955  10.828 -0.9568  2.4222  0.9936
 4752SOL    HW225716   1.404   2.910  10.763 -2.5266 -2.6391  0.6373
 4753SOL     OW25717   2.108   1.544  14.383 -0.3760  0.1999  0.1555
 4753SOL    HW125718   2.139   1.457  14.407 -0.1118  0.6709  1.5225
 4753SOL    HW225719   2.028   1.536  14.331  1.3920 -0.4529 -2.4013
 4754SOL     OW25720   3.440   1.167   2.647  0.6207 -0.1571  0.2809
 4754SOL    HW125721   3.379   1.227   2.688  0.0483 -1.7946  1.8289
 4754SOL    HW225722   3.451   1.103   2.717  0.3757  1.9328  2.2253
 4755SOL     OW25723   2.518   3.340   7.510 -0.3247 -0.4312 -0.3409
 4755SOL    HW125724   2.485   3.252   7.493  0.5978 -0.6024 -1.2176
 4755SOL    HW225725   2.554   3.367   7.426  2.2514 -1.1245  0.5548
 4756SOL     OW25726   4.083   1.044   1.658  0.2467 -0.6739 -0.5406
 4756SOL    HW125727   4.034   0.966   1.684 -2.4535  1.3009  0.3905
 4756SOL    HW225728   4.008   1.101   1.643  1.7808  1.1767 -1.1695
 4757SOL     OW25729   2.537   0.558  14.979 -0.1437 -0.8497 -0.7110
 4757SOL    HW125730   2.462   0.578  14.924 -0.0667 -0.4200 -0.6609
 4757SOL    HW225731   2.607   0.607  14.936 -0.0285 -1.3714 -1.1103
 4758SOL     OW25732   3.727   0.101   4.384 -0.1513  0.0463  0.2562
 4758SOL    HW125733   3.661   0.112   4.453  0.2947 -1.1526  0.8805
 4758SOL    HW225734   3.668   0.130   4.314  0.4497 -0.3511 -0.4128
 4759SOL     OW25735   1.533   2.681  14.634  0.8391 -0.1820 -0.4360
 4759SOL    HW125736   1.440   2.669  14.655  0.9912  1.3497  1.1722
 4759SOL    HW225737   1.565   2.591  14.639 -0.3633 -0.5349  0.9790
 4760SOL     OW25738   4.504   2.437   5.936 -0.1702 -0.2571 -0.2719
 4760SOL    HW125739   4.533   2.522   5.970  1.5462 -0.8670 -0.1942
 4760SOL    HW225740   4.461   2.399   6.012 -1.4310 -1.2746 -1.4935
 4761SOL     OW25741   0.081   1.946   0.251 -0.1825 -0.1342  0.4224
 4761SOL    HW125742   4.721   1.900   0.257 -0.6095  0.6681  0.7170
 4761SOL    HW225743   0.062   2.031   0.210 -0.3664 -0.2866  0.1950
 4762SOL     OW25744   3.265   0.088  15.370 -0.1792  0.3536 -0.0048
 4762SOL    HW125745   3.278   0.009  15.317  0.2177 -0.1126  0.7849
 4762SOL    HW225746   3.212   0.136  15.306 -0.0944  1.2350  0.5840
 4763SOL     OW25747   2.490   1.142   8.423 -0.2091 -0.1600  0.4151
 4763SOL    HW125748   2.585   1.129   8.418 -0.0069  1.7828 -0.6252
 4763SOL    HW225749   2.471   1.115   8.333  2.7431 -0.3821 -0.1426
 4764SOL     OW25750   4.375   4.361   8.004  0.0704  0.0773  0.1165
 4764SOL    HW125751   4.393   4.429   7.940 -0.1096 -0.4733 -0.5172
 4764SOL    HW225752   4.292   4.330   7.968  0.0272 -2.7686  2.5812
 4765SOL     OW25753   0.909   0.399  10.593 -0.1329 -0.4547 -0.4427
 4765SOL    HW125754   0.880   0.338  10.525 -0.2191  0.2699 -1.0594
 4765SOL    HW225755   0.836   0.392  10.653 -0.0596 -0.1061 -0.3111
 4766SOL     OW25756   2.666   2.066   6.047 -0.1705  0.3641 -0.2216
 4766SOL    HW125757   2.704   2.101   5.966 -0.2742  0.8356 -0.0641
 4766SOL    HW225758   2.599   2.011   6.007 -0.2332  0.5786 -0.4089
 4767SOL     OW25759   3.670   2.506   3.640 -0.0701 -0.6150  0.0350
 4767SOL    HW125760   3.708   2.570   3.700 -1.0930  1.0894 -1.1279
 4767SOL    HW225761   3.709   2.525   3.555 -0.4904 -1.4410 -0.3481
 4768SOL     OW25762   3.979   3.715   6.590  0.6821  0.2917 -0.1171
 4768SOL    HW125763   4.005   3.806   6.609  0.2407  0.3802  0.0553
 4768SOL    HW225764   3.904   3.714   6.648  2.1522  3.3958  1.8400
 4769SOL     OW25765   1.221   3.706   3.278  0.2820  0.1984  0.7318
 4769SOL    HW125766   1.267   3.622   3.277  0.0987  0.1036  0.1736
 4769SOL    HW225767   1.214   3.721   3.372  3.3081 -1.1009  1.1631
 4770SOL     OW25768   2.452   2.594   2.738 -0.4207 -0.2934  0.7818
 4770SOL    HW125769   2.479   2.535   2.809 -0.1493  0.6491  1.4686
 4770SOL    HW225770   2.393   2.537   2.688 -0.3838 -0.3039  0.7506
 4771SOL     OW25771   4.256   0.216   6.618 -0.1563 -0.1482  0.0652
 4771SOL    HW125772   4.335   0.271   6.623 -2.0830  2.4278  1.9279
 4771SOL    HW225773   4.283   0.131   6.654  2.0816  0.6321  0.2568
 4772SOL     OW25774   2.629   2.457   7.495  0.1803 -0.5034  0.1089
 4772SOL    HW125775   2.622   2.363   7.513  0.0706 -1.0826 -3.0003
 4772SOL    HW225776   2.541   2.478   7.465  0.6891  2.6568  0.8254
 4773SOL     OW25777   3.895   2.858   3.979  0.3562  0.6172 -0.7843
 4773SOL    HW125778   3.802   2.869   3.960  0.1562 -1.2291 -0.9194
 4773SOL    HW225779   3.890   2.866   4.075 -0.7048  1.7962 -0.9369
 4774SOL     OW25780   0.655   3.098   1.114  0.1878  0.0227 -0.7124
 4774SOL    HW125781   0.716   3.151   1.063  1.1813 -0.4622 -0.0444
 4774SOL    HW225782   0.592   3.169   1.121  0.9449  0.7205 -1.0478
 4775SOL     OW25783   4.478   4.212  14.222  0.1879  0.0079 -0.1588
 4775SOL    HW125784   4.511   4.199  14.133 -0.1928 -4.6729  0.4007
 4775SOL    HW225785   4.452   4.123  14.244  0.0648 -0.2534 -1.3603
 4776SOL     OW25786   4.466   3.994   5.069 -0.0821  0.4374  0.1978
 4776SOL    HW125787   4.414   3.917   5.043  3.6943 -1.4508 -1.7641
 4776SOL    HW225788   4.401   4.044   5.118  0.9879  0.1846  1.8952
 4777SOL     OW25789   3.367   2.422   4.980 -0.2425 -0.1909 -0.0927
 4777SOL    HW125790   3.455   2.430   5.015  0.8224  0.9571 -3.0673
 4777SOL    HW225791   3.345   2.515   4.971 -0.7809 -0.3457 -0.4062
 4778SOL     OW25792   2.025   0.027   3.102  0.7960 -0.2538 -0.4536
 4778SOL    HW125793   2.050   0.075   3.181  0.9024  0.4513 -0.9230
 4778SOL    HW225794   2.043   0.088   3.031  0.2234 -0.1383 -0.5065
 4779SOL     OW25795   2.967   2.251   8.418 -0.4653 -0.1553 -0.2915
 4779SOL    HW125796   2.938   2.181   8.360  0.9124  0.0740 -1.2609
 4779SOL    HW225797   2.900   2.243   8.486 -0.0849  0.6190  0.1707
 4780SOL     OW25798   3.703   0.667  13.207 -0.1181 -0.1685  0.3695
 4780SOL    HW125799   3.721   0.723  13.131  0.2457 -0.0597  0.5347
 4780SOL    HW225800   3.633   0.611  13.175 -0.5027  0.3778  0.2497
 4781SOL     OW25801   1.940   0.997   3.219 -0.2165 -0.6438 -0.4019
 4781SOL    HW125802   1.885   0.952   3.282 -1.2233  1.9230  0.5527
 4781SOL    HW225803   1.999   1.051   3.272 -0.4803  1.4977 -2.2702
 4782SOL     OW25804   1.196   2.832   4.867 -0.0992 -0.0955 -0.6602
 4782SOL    HW125805   1.142   2.889   4.921 -3.3610 -2.5725 -1.3531
 4782SOL    HW225806   1.138   2.833   4.791 -2.1225  0.9262  0.9229
 4783SOL     OW25807   1.328   4.260   6.708  0.2847 -0.1603 -0.1018
 4783SOL    HW125808   1.252   4.213   6.744  0.6684  0.4144  1.4458
 4783SOL    HW225809   1.402   4.215   6.748  0.6482 -1.3026 -2.0952
 4784SOL     OW25810   1.585   1.879   3.037  0.2082  0.4508  0.2175
 4784SOL    HW125811   1.667   1.838   3.065  0.3508 -0.0506 -0.9319
 4784SOL    HW225812   1.595   1.851   2.946  0.1846  1.0772  0.0237
 4785SOL     OW25813   4.250   1.579  13.592  0.2611 -0.1415 -0.0415
 4785SOL    HW125814   4.251   1.662  13.639 -0.8284  1.1377 -2.2594
 4785SOL    HW225815   4.215   1.598  13.505 -1.7074  0.6867  0.9238
 4786SOL     OW25816   1.434   1.472   0.473 -0.6338 -0.1601 -0.6192
 4786SOL    HW125817   1.431   1.386   0.516  0.6122  0.3675  0.5105
 4786SOL    HW225818   1.405   1.447   0.385 -0.7897  0.7667 -0.8220
 4787SOL     OW25819   4.117   3.564   6.993 -0.3872 -0.2504 -0.0897
 4787SOL    HW125820   4.159   3.579   7.077 -0.0972  0.6761 -0.4042
 4787SOL    HW225821   4.066   3.490   7.025 -1.8160  1.1958  0.9377
 4788SOL     OW25822   4.217   3.849  11.198  0.6497 -0.6039 -0.3548
 4788SOL    HW125823   4.122   3.849  11.216  0.0751  2.4955 -3.3314
 4788SOL    HW225824   4.239   3.940  11.217 -0.1596  0.1069 -2.7750
 4789SOL     OW25825   3.691   4.504   9.375 -0.3186 -0.5881  0.7866
 4789SOL    HW125826   3.708   4.596   9.354 -1.5789 -0.4471  0.4127
 4789SOL    HW225827   3.601   4.510   9.405 -0.1319 -3.4676  1.9819
 4790SOL     OW25828   3.486   1.339   2.141 -0.4984 -0.3673 -0.0489
 4790SOL    HW125829   3.448   1.295   2.217  0.2051 -1.8969 -0.5928
 4790SOL    HW225830   3.477   1.432   2.164 -2.4458 -0.2425 -1.2996
 4791SOL     OW25831   1.599   4.070   7.448  0.0439 -0.0965  0.4510
 4791SOL    HW125832   1.547   4.143   7.414  2.5377  1.6589  0.4371
 4791SOL    HW225833   1.666   4.062   7.380  0.4116  1.2258  0.6557
 4792SOL     OW25834   0.337   1.139  17.199 -0.1838 -0.3702  0.5890
 4792SOL    HW125835   0.347   1.072  17.267 -0.0957 -0.9926 -0.0300
 4792SOL    HW225836   0.264   1.186  17.239  1.0907  1.3646  0.8679
 4793SOL     OW25837   3.068   2.054  17.197 -0.1889 -0.3067 -0.1368
 4793SOL    HW125838   3.007   2.102  17.254 -1.2919 -3.7197  1.5850
 4793SOL    HW225839   3.078   1.976  17.252  2.1086  0.5955  0.7094
 4794SOL     OW25840   2.186   3.910  11.049 -0.4098 -0.2685 -0.1545
 4794SOL    HW125841   2.135   3.835  11.019  1.1094 -0.5217 -2.1560
 4794SOL    HW225842   2.239   3.930  10.971  0.7167 -1.1234  0.4012
 4795SOL     OW25843   0.919   4.428  14.725 -0.0192  0.0974  0.2521
 4795SOL    HW125844   0.845   4.476  14.762  0.5436  0.9614  0.2613
 4795SOL    HW225845   0.906   4.442  14.631 -0.8713  0.0958  0.3740
 4796SOL     OW25846   3.581   1.057  13.491 -0.0471  0.4644  0.2881
 4796SOL    HW125847   3.578   1.128  13.555  1.8002  0.2436  0.6241
 4796SOL    HW225848   3.671   1.024  13.498 -0.4979 -0.8990 -0.4225
 4797SOL     OW25849   2.939   4.455  16.913 -0.0942 -0.0003 -0.2349
 4797SOL    HW125850   2.943   4.455  17.008  1.7009  3.6785 -0.3070
 4797SOL    HW225851   2.880   4.530  16.901  0.7116  0.9073  1.4136
 4798SOL     OW25852   0.358   2.660   2.644  0.0859  0.0775  0.1378
 4798SOL    HW125853   0.399   2.601   2.581 -0.3209 -0.7549  0.6536
 4798SOL    HW225854   0.431   2.679   2.704  0.9106  1.4902 -1.3139
 4799SOL     OW25855   2.348   0.792   2.869 -0.3089  0.0760  0.3119
 4799SOL    HW125856   2.301   0.818   2.790  1.5707 -0.5553 -1.0169
 4799SOL    HW225857   2.375   0.707   2.834  0.3861  1.7859 -3.2206
 4800SOL     OW25858   2.654   1.711   6.349 -0.0160 -0.1200 -0.1538
 4800SOL    HW125859   2.681   1.664   6.270 -0.3598  0.6074 -0.7036
 4800SOL    HW225860   2.564   1.727   6.319  0.4541  1.3596 -0.7818
 4801SOL     OW25861   1.560   4.079  15.294 -0.4397 -0.0011 -0.5911
 4801SOL    HW125862   1.573   4.158  15.242  0.7620  0.1609 -0.0669
 4801SOL    HW225863   1.644   4.034  15.284 -0.8749 -1.1954  1.1014
 4802SOL     OW25864   1.146   3.369   6.934 -0.1844 -0.5715 -0.3484
 4802SOL    HW125865   1.092   3.296   6.904 -0.3021  0.6787 -3.1634
 4802SOL    HW225866   1.083   3.430   6.973  0.2852 -0.1943 -0.1764
 4803SOL     OW25867   1.286   0.776   5.619  0.7708 -0.0820  0.2595
 4803SOL    HW125868   1.326   0.813   5.540 -1.4786 -1.6429 -1.6017
 4803SOL    HW225869   1.233   0.709   5.576 -0.2251  1.6389 -1.2210
 4804SOL     OW25870   1.431   1.310   3.442  0.3792 -0.1830  0.1635
 4804SOL    HW125871   1.461   1.341   3.356 -2.4286 -3.1104 -1.8803
 4804SOL    HW225872   1.508   1.257   3.462  1.7688  2.3135  1.4987
 4805SOL     OW25873   1.446   2.255   8.156 -0.1174  0.2291 -0.3440
 4805SOL    HW125874   1.474   2.226   8.069 -1.3745 -3.0523  0.3568
 4805SOL    HW225875   1.430   2.349   8.155 -0.2066  0.2296  2.1992
 4806SOL     OW25876   0.677   4.204   0.916 -0.1848  0.4162  0.1227
 4806SOL    HW125877   0.772   4.193   0.912  0.0127  1.8018  0.9899
 4806SOL    HW225878   0.680   4.266   0.989 -1.1622 -0.2498  0.7197
 4807SOL     OW25879   1.298   3.935  14.352  0.4399 -0.2237  0.1191
 4807SOL    HW125880   1.391   3.915  14.344  0.7687  0.8817  1.1212
 4807SOL    HW225881   1.280   3.974  14.266 -1.4003  2.3604  1.6763
 4808SOL     OW25882   1.788   1.327   6.414 -0.1391 -0.0136 -0.1282
 4808SOL    HW125883   1.720   1.261   6.426 -2.0369  2.3798  2.3830
 4808SOL    HW225884   1.755   1.372   6.337 -2.1311 -0.8713  0.2278
 4809SOL     OW25885   0.001   2.374   6.694 -0.7157  0.7597 -0.5309
 4809SOL    HW125886   4.671   2.300   6.666 -0.2261  0.9187 -1.9330
 4809SOL    HW225887   4.711   2.374   6.788  2.4018  1.5570 -0.0974
 4810SOL     OW25888   1.748   0.643  11.121 -0.3224  0.0684 -0.5762
 4810SOL    HW125889   1.765   0.583  11.194  1.0411  0.0882 -0.8712
 4810SOL    HW225890   1.663   0.604  11.102 -0.1782  0.3643 -1.7913
 4811SOL     OW25891   0.477   3.457   8.077  0.0398 -0.4363  0.4212
 4811SOL    HW125892   0.554   3.450   8.021 -0.8596 -0.3659 -0.8117
 4811SOL    HW225893   0.513   3.399   8.145 -1.0445 -1.9792 -0.3334
 4812SOL     OW25894   2.530   4.198   5.211  0.0761  0.3395 -0.4030
 4812SOL    HW125895   2.515   4.197   5.117  0.6059  0.6402 -0.4913
 4812SOL    HW225896   2.623   4.218   5.199 -0.1711  1.4171 -0.5557
 4813SOL     OW25897   3.475   0.191   0.285  0.7733  0.1968  0.3468
 4813SOL    HW125898   3.455   0.228   0.371  2.5878 -0.5956  1.1014
 4813SOL    HW225899   3.483   0.271   0.233 -1.7268  0.2458  0.0393
 4814SOL     OW25900   4.199   3.125   3.514 -0.0683  0.6321 -0.0595
 4814SOL    HW125901   4.104   3.124   3.508  0.0029 -1.8855 -0.5270
 4814SOL    HW225902   4.225   3.182   3.442  0.9957  0.1344 -0.0711
 4815SOL     OW25903   3.972   3.562  14.609 -0.9731 -0.2467  0.1786
 4815SOL    HW125904   4.028   3.639  14.601  0.0422 -0.8209  1.6805
 4815SOL    HW225905   4.036   3.490  14.607  1.5500  2.0011  0.0456
 4816SOL     OW25906   3.659   0.581   4.741  0.0548 -0.0399  0.1857
 4816SOL    HW125907   3.591   0.552   4.802 -0.9327  0.4703 -0.6646
 4816SOL    HW225908   3.665   0.507   4.681  0.3202 -0.6958  1.0170
 4817SOL     OW25909   0.491   0.550   7.341 -0.3124 -0.2687 -0.2220
 4817SOL    HW125910   0.435   0.505   7.278  0.7821 -1.5688 -0.2555
 4817SOL    HW225911   0.503   0.499   7.421  1.4918 -0.5977 -0.7076
 4818SOL     OW25912   1.210   1.592   3.981  0.0515  0.3608 -0.6334
 4818SOL    HW125913   1.288   1.623   3.934  1.1228  0.1188  0.9769
 4818SOL    HW225914   1.236   1.506   4.015 -0.3097  0.6921  0.4886
 4819SOL     OW25915   2.689   4.050   1.938 -0.3103 -0.1591  0.9100
 4819SOL    HW125916   2.727   4.075   2.021  2.4119  0.5600 -0.5695
 4819SOL    HW225917   2.657   4.134   1.904  1.8966  0.1931 -0.2980
 4820SOL     OW25918   2.600   0.689   2.527  0.0283 -1.3269 -0.0117
 4820SOL    HW125919   2.519   0.705   2.478  0.0308  0.8783  0.7090
 4820SOL    HW225920   2.612   0.597   2.503  0.8535 -2.0684  3.2551
 4821SOL     OW25921   0.001   2.707   0.587  0.3420  0.2419  0.3733
 4821SOL    HW125922   0.060   2.779   0.565  1.9206 -0.3700  2.6037
 4821SOL    HW225923   4.654   2.733   0.528 -1.5933 -2.7243  1.3666
 4822SOL     OW25924   1.044   3.115   0.350  0.5190  0.3031  0.1918
 4822SOL    HW125925   0.961   3.159   0.334  0.5664  0.6540  0.9483
 4822SOL    HW225926   1.042   3.040   0.290  0.0736 -0.4015  1.0941
 4823SOL     OW25927   4.674   1.662   8.349  0.4806 -0.2961  0.9130
 4823SOL    HW125928   4.662   1.752   8.319 -1.4407 -1.4667 -1.7823
 4823SOL    HW225929   0.020   1.664   8.415  0.5773 -0.4452  0.8164
 4824SOL     OW25930   3.392   4.681   5.258  0.1644 -0.1250  0.1355
 4824SOL    HW125931   3.485   4.706   5.253  0.6775 -1.8852  0.8645
 4824SOL    HW225932   3.389   4.615   5.327 -1.2916 -2.1750 -1.8840
 4825SOL     OW25933   3.627   3.223   4.514  0.2121 -0.6627 -0.1260
 4825SOL    HW125934   3.550   3.228   4.457  1.0999  0.9322 -1.1863
 4825SOL    HW225935   3.629   3.130   4.538  2.3702 -0.9950 -1.5786
 4826SOL     OW25936   0.349   2.011   3.496 -0.0516  0.5059 -0.0076
 4826SOL    HW125937   0.266   1.962   3.495  0.2057  0.0799 -0.3779
 4826SOL    HW225938   0.404   1.964   3.433 -0.2665 -0.1292  0.2777
 4827SOL     OW25939   1.294   3.489  12.164 -0.2797 -0.4691  0.7291
 4827SOL    HW125940   1.314   3.395  12.159  1.7793  0.0065  0.0055
 4827SOL    HW225941   1.337   3.509  12.247  0.5298 -1.4884  0.5661
 4828SOL     OW25942   3.543   0.282  15.297  0.1484 -0.4376 -0.2929
 4828SOL    HW125943   3.546   0.244  15.210  0.7022  0.6828 -0.7681
 4828SOL    HW225944   3.618   0.244  15.342 -0.1506 -2.6950 -1.7368
 4829SOL     OW25945   3.172   1.572   4.296  0.7294  0.2345 -0.6734
 4829SOL    HW125946   3.240   1.541   4.356  0.2690 -0.2446 -0.3946
 4829SOL    HW225947   3.090   1.551   4.342  2.3528 -1.6442  1.4223
 4830SOL     OW25948   3.838   4.276   3.642  0.6347  0.2604  0.6638
 4830SOL    HW125949   3.901   4.259   3.712 -0.8339  1.0115  2.1576
 4830SOL    HW225950   3.780   4.344   3.676  0.5640  0.4995  0.0754
 4831SOL     OW25951   2.451   4.506   4.963  0.0685 -0.3305  0.2116
 4831SOL    HW125952   2.528   4.561   4.979  1.1285 -1.8838  0.4727
 4831SOL    HW225953   2.492   4.419   4.965 -0.8754 -0.8387 -2.4280
 4832SOL     OW25954   0.009   0.850   8.292 -0.0666  0.0452  0.0052
 4832SOL    HW125955   0.010   0.863   8.197 -0.0540  0.6774  0.0891
 4832SOL    HW225956   4.715   0.938   8.327 -0.5606 -0.2266  0.4422
 4833SOL     OW25957   1.083   1.949  12.420  0.1325 -0.3195  0.5299
 4833SOL    HW125958   1.114   2.026  12.468 -0.5857 -0.4561  1.2001
 4833SOL    HW225959   1.020   1.990  12.360  1.4263 -0.8201 -1.1856
 4834SOL     OW25960   0.423   3.312   3.465 -0.1566 -0.1900 -0.0973
 4834SOL    HW125961   0.328   3.301   3.465 -0.3644  1.6441 -1.4039
 4834SOL    HW225962   0.440   3.380   3.401 -2.1482 -1.3902 -1.9004
 4835SOL     OW25963   4.492   0.884  15.182 -0.1847 -0.5896  0.2231
 4835SOL    HW125964   4.563   0.946  15.195 -0.4790 -0.0320 -0.7386
 4835SOL    HW225965   4.518   0.862  15.092 -2.1487 -1.0232 -0.2581
 4836SOL     OW25966   2.124   0.334   6.123  0.1122  0.1928 -0.2492
 4836SOL    HW125967   2.062   0.341   6.196  0.0328  0.4639 -0.3442
 4836SOL    HW225968   2.072   0.271   6.073  2.0409 -1.7743  0.2540
 4837SOL     OW25969   3.540   2.417   8.253  0.3358  0.0808 -0.6822
 4837SOL    HW125970   3.622   2.390   8.213 -0.0680  1.4783 -2.4570
 4837SOL    HW225971   3.566   2.497   8.299  1.2664 -1.0030  0.6361
 4838SOL     OW25972   4.119   3.353  10.715 -0.3782  0.1866 -0.0738
 4838SOL    HW125973   4.136   3.288  10.647  0.6936  0.5047 -0.1089
 4838SOL    HW225974   4.105   3.289  10.784  1.4439 -0.8710 -0.6867
 4839SOL     OW25975   0.977   0.741   1.025 -0.3021 -0.3132 -0.0725
 4839SOL    HW125976   0.919   0.666   1.032  0.4609 -0.7057  1.7952
 4839SOL    HW225977   0.905   0.794   0.989 -0.8226 -2.0211 -1.5900
 4840SOL     OW25978   1.883   1.583   8.851 -0.7518 -0.0845  0.0421
 4840SOL    HW125979   1.906   1.567   8.943 -0.9858  0.3007  0.1714
 4840SOL    HW225980   1.917   1.672   8.838 -0.2341 -0.5611 -1.8355
 4841SOL     OW25981   1.272   1.593   2.285  0.6925 -0.8127  0.4101
 4841SOL    HW125982   1.278   1.677   2.241  2.0752 -0.6930  0.8496
 4841SOL    HW225983   1.328   1.609   2.360 -0.8277  0.5213  1.2687
 4842SOL     OW25984   3.911   1.153   5.502  0.2511  0.0218 -0.4639
 4842SOL    HW125985   3.977   1.204   5.455  0.5583 -0.9923 -1.1173
 4842SOL    HW225986   3.863   1.117   5.428 -0.3481  0.3342 -0.2332
 4843SOL     OW25987   0.138   3.475   2.799 -0.2272 -0.1943  0.4051
 4843SOL    HW125988   0.143   3.531   2.876 -0.4270 -0.1601  0.3928
 4843SOL    HW225989   0.138   3.540   2.729  0.6432 -1.9255 -1.1970
 4844SOL     OW25990   3.661   1.029   4.073 -0.6353  0.2489  0.2213
 4844SOL    HW125991   3.718   1.105   4.082  0.4581 -0.2634 -2.4311
 4844SOL    HW225992   3.625   1.017   4.161 -0.5806  0.6819  0.3003
 4845SOL     OW25993   4.166   3.990   9.917 -0.2866  0.0778  0.2330
 4845SOL    HW125994   4.184   3.914   9.862 -0.2154  1.8933 -2.2289
 4845SOL    HW225995   4.111   4.049   9.865 -1.4737 -0.4385  0.9070
 4846SOL     OW25996   3.741   2.517   2.868 -0.2694  0.9632  0.2266
 4846SOL    HW125997   3.818   2.463   2.854 -0.4956 -0.0518  2.9088
 4846SOL    HW225998   3.672   2.451   2.882 -1.1960  2.3231  2.1816
 4847SOL     OW25999   2.470   1.910  13.377  0.4918  0.0762 -0.7787
 4847SOL    HW126000   2.482   1.820  13.408  3.8970  0.8473  0.0380
 4847SOL    HW226001   2.561   1.927  13.354  0.2209  2.7804  0.2226
 4848SOL     OW26002   3.708   0.049   8.532 -0.0731  0.0284 -0.0405
 4848SOL    HW126003   3.758   4.694   8.508 -0.6794 -0.7611  1.2483
 4848SOL    HW226004   3.783   0.109   8.537 -0.0688 -0.0460  0.9645
 4849SOL     OW26005   1.229   2.468   7.481  0.1845 -0.0782  0.0147
 4849SOL    HW126006   1.285   2.516   7.541  0.6541 -0.8788  0.2209
 4849SOL    HW226007   1.283   2.389   7.471  0.0542 -0.1394 -0.2113
 4850SOL     OW26008   2.119   4.452  14.531  0.1105  0.6251 -0.0003
 4850SOL    HW126009   2.197   4.405  14.561 -2.1077 -1.9600  1.6676
 4850SOL    HW226010   2.048   4.412  14.581  0.8808 -1.7000 -0.7244
 4851SOL     OW26011   0.439   1.823  11.086 -0.4360  0.1641 -0.0684
 4851SOL    HW126012   0.468   1.893  11.145 -1.9741  0.2213  0.6229
 4851SOL    HW226013   0.403   1.876  11.014  1.1752  1.2416 -0.0712
 4852SOL     OW26014   4.411   3.573   4.811  0.7407 -0.4664 -0.2191
 4852SOL    HW126015   4.475   3.604   4.747  0.1133 -2.4183 -1.7802
 4852SOL    HW226016   4.439   3.481   4.810  1.6679 -0.1710 -1.2634
 4853SOL     OW26017   2.769   0.907   8.782  0.2373  0.3451  0.6038
 4853SOL    HW126018   2.800   0.994   8.759 -0.4067 -0.2676 -2.5204
 4853SOL    HW226019   2.848   0.877   8.827  2.2599  1.4801 -2.2349
 4854SOL     OW26020   1.140   0.163  13.906 -0.3513  0.1131  0.2033
 4854SOL    HW126021   1.146   0.109  13.827 -1.9170 -0.5531  0.5447
 4854SOL    HW226022   1.234   0.178  13.921 -0.0488 -1.6182  0.1596
 4855SOL     OW26023   1.898   2.962   8.438  0.2228  0.6020 -0.3328
 4855SOL    HW126024   1.854   3.047   8.450  1.6971  1.2755  0.3662
 4855SOL    HW226025   1.958   2.963   8.512  0.3352  1.0793 -0.4288
 4856SOL     OW26026   3.364   0.082   3.913 -0.0550  0.2464  0.0601
 4856SOL    HW126027   3.288   0.041   3.954  1.4913 -1.9738  0.6946
 4856SOL    HW226028   3.426   0.011   3.927 -1.9580 -1.5511 -0.7371
 4857SOL     OW26029   2.313   4.059   6.122 -0.1213 -0.5291  0.2210
 4857SOL    HW126030   2.301   4.105   6.039 -0.7219 -1.3306 -0.1377
 4857SOL    HW226031   2.403   4.073   6.150 -0.1419  2.2829 -1.1603
 4858SOL     OW26032   3.924   0.677   6.612  0.0353  0.5603 -0.2073
 4858SOL    HW126033   3.857   0.732   6.573  0.4044  0.4277 -1.0412
 4858SOL    HW226034   3.886   0.589   6.607  0.3475  0.4521 -0.7846
 4859SOL     OW26035   2.251   1.779   8.998  0.4234 -0.4635  0.2684
 4859SOL    HW126036   2.302   1.709   8.957  1.7559  0.7933 -0.1982
 4859SOL    HW226037   2.181   1.734   9.047 -1.0367 -0.6006 -1.9195
 4860SOL     OW26038   2.638   2.436   2.891  0.3401 -0.2738  0.3756
 4860SOL    HW126039   2.721   2.479   2.910 -0.7791  1.5622  1.0480
 4860SOL    HW226040   2.650   2.341   2.898  0.1899 -0.2311  1.2167
 4861SOL     OW26041   4.310   2.164   2.590 -0.5279  0.6473 -0.2579
 4861SOL    HW126042   4.245   2.153   2.659  1.8791  3.8707  2.5484
 4861SOL    HW226043   4.376   2.200   2.649 -2.1895  0.2184  1.8595
 4862SOL     OW26044   1.832   0.049   8.630  0.5831 -0.6878 -0.2118
 4862SOL    HW126045   1.746   0.076   8.597  2.0044  2.2302 -1.5052
 4862SOL    HW226046   1.801   4.716   8.701  1.7592 -1.1030 -0.0301
 4863SOL     OW26047   4.590   1.689   7.269 -0.0652  0.8746  0.0715
 4863SOL    HW126048   4.583   1.599   7.239 -0.9797  0.4038  1.7090
 4863SOL    HW226049   4.610   1.680   7.362 -3.6294 -0.1660  0.7387
 4864SOL     OW26050   1.745   3.660   3.077 -0.6707 -0.7113  0.1012
 4864SOL    HW126051   1.672   3.656   3.016 -0.7943 -0.6767  0.2458
 4864SOL    HW226052   1.825   3.650   3.026  0.4825  2.9059  1.1642
 4865SOL     OW26053   1.940   4.550   7.082 -0.3593  0.5567 -0.2877
 4865SOL    HW126054   1.936   4.586   6.993 -0.7324  1.1013 -0.0537
 4865SOL    HW226055   1.950   4.632   7.130  2.0772 -1.0773  2.0107
 4866SOL     OW26056   4.603   1.748   1.093  0.2246  0.1045 -1.3270
 4866SOL    HW126057   4.574   1.821   1.039  3.0903  1.0475 -1.5986
 4866SOL    HW226058   4.541   1.676   1.088 -1.2876  1.3723 -0.8531
 4867SOL     OW26059   1.725   1.231   7.913 -0.7087 -0.8203 -0.4199
 4867SOL    HW126060   1.815   1.263   7.906 -0.8087 -0.1876  1.1853
 4867SOL    HW226061   1.699   1.237   7.821  0.3942 -0.8506 -0.7336
 4868SOL     OW26062   0.617   4.361   9.303 -1.0071 -0.0584 -0.2851
 4868SOL    HW126063   0.567   4.298   9.252 -0.8009  1.3761 -2.2875
 4868SOL    HW226064   0.571   4.344   9.385 -3.5813  2.1196 -1.2292
 4869SOL     OW26065   2.977   0.671   7.606  0.0120 -0.3450  0.2112
 4869SOL    HW126066   2.991   0.678   7.700  0.0332  0.4760  0.1405
 4869SOL    HW226067   3.063   0.639   7.580  1.1845  2.2367  0.9469
 4870SOL     OW26068   3.931   0.137   8.229  0.1055 -0.3230 -0.2641
 4870SOL    HW126069   3.867   0.200   8.196  0.1173 -0.4255 -0.4885
 4870SOL    HW226070   4.010   0.187   8.207  0.1155 -1.0576 -1.9555
 4871SOL     OW26071   4.154   1.705  10.921 -0.2098  0.2816  0.1336
 4871SOL    HW126072   4.180   1.684  11.011  1.9289  5.2412  0.6848
 4871SOL    HW226073   4.097   1.631  10.902 -0.7636  0.6889  0.2070
 4872SOL     OW26074   0.489   2.472  15.631 -0.6501 -0.1056 -0.0810
 4872SOL    HW126075   0.561   2.536  15.630  0.6252 -1.5609 -0.5194
 4872SOL    HW226076   0.492   2.440  15.721  1.2190 -1.3936 -0.6023
 4873SOL     OW26077   0.601   1.635   4.313  0.3612  0.1788  0.1969
 4873SOL    HW126078   0.523   1.689   4.297 -1.1661 -3.2212 -3.7518
 4873SOL    HW226079   0.635   1.631   4.224  0.8962 -1.0320  0.4575
 4874SOL     OW26080   4.379   0.674   7.507  0.1683 -0.1108  0.1074
 4874SOL    HW126081   4.333   0.593   7.485 -1.3563  0.9712 -0.7395
 4874SOL    HW226082   4.451   0.636   7.556  1.1292  1.2584 -0.2439
 4875SOL     OW26083   0.175   0.939   4.931 -0.4994 -0.0294  0.1673
 4875SOL    HW126084   0.253   0.994   4.934  0.0142 -0.7290 -0.2634
 4875SOL    HW226085   0.143   0.945   5.021 -3.0324  0.0746 -0.7342
 4876SOL     OW26086   3.606   1.338   8.688 -0.3003  0.2651 -0.0024
 4876SOL    HW126087   3.634   1.421   8.650 -0.5799  0.2900 -0.1565
 4876SOL    HW226088   3.530   1.362   8.740 -1.9045 -1.7766 -1.3737
 4877SOL     OW26089   4.534   2.443   1.737  0.5077  0.5580  0.0727
 4877SOL    HW126090   4.542   2.518   1.796  0.6283 -0.3574  1.2166
 4877SOL    HW226091   4.574   2.484   1.661 -0.7264 -1.0644 -1.4326
 4878SOL     OW26092   2.187   3.662   5.598  0.1546 -0.5559 -0.1051
 4878SOL    HW126093   2.172   3.752   5.568 -0.3104  0.0708  2.0156
 4878SOL    HW226094   2.130   3.662   5.675 -0.7499 -0.1946 -0.7661
 4879SOL     OW26095   1.175   4.613   1.748 -0.4715  0.2000 -0.4508
 4879SOL    HW126096   1.224   4.598   1.829 -1.8224  2.5726  0.8070
 4879SOL    HW226097   1.115   4.676   1.789 -0.5116 -0.0442 -0.1310
 4880SOL     OW26098   4.451   0.434   3.688  0.5843  0.4260  0.4981
 4880SOL    HW126099   4.358   0.425   3.666  1.1758 -3.3661 -0.3366
 4880SOL    HW226100   4.485   0.465   3.604  0.3729  1.0809  0.6542
 4881SOL     OW26101   0.100   1.316   3.323 -0.2512 -0.1806  0.5411
 4881SOL    HW126102   0.152   1.340   3.399  3.2199  1.3671 -2.3591
 4881SOL    HW226103   0.116   1.382   3.256 -2.8275 -0.5964 -0.4853
 4882SOL     OW26104   1.688   3.124   1.556  0.8103  0.0563  0.8250
 4882SOL    HW126105   1.758   3.185   1.530  0.2471  0.6270  0.6655
 4882SOL    HW226106   1.638   3.166   1.626 -2.4418  1.0981 -2.1466
 4883SOL     OW26107   3.507   2.751  16.309  0.3346  0.8364 -0.0817
 4883SOL    HW126108   3.423   2.782  16.344  2.1812  2.2076  3.1384
 4883SOL    HW226109   3.505   2.810  16.234 -1.7646 -1.0460 -1.5293
 4884SOL     OW26110   1.155   3.748   6.715 -0.3446 -0.4045  0.3870
 4884SOL    HW126111   1.126   3.745   6.806 -1.2222  0.6359  0.1390
 4884SOL    HW226112   1.101   3.684   6.669  0.2979 -0.7691  0.1237
 4885SOL     OW26113   1.609   1.851  17.149 -0.2886  0.0131 -0.1403
 4885SOL    HW126114   1.704   1.843  17.163 -0.5385  1.1108  2.0946
 4885SOL    HW226115   1.571   1.811  17.227 -1.2307  1.7751  0.3034
 4886SOL     OW26116   1.367   2.967   7.320  0.1611 -0.2944 -0.2099
 4886SOL    HW126117   1.435   3.016   7.273 -0.3930  0.1703 -0.5309
 4886SOL    HW226118   1.405   2.943   7.404 -0.0654  3.9632  1.1090
 4887SOL     OW26119   3.011   4.509   0.734 -0.0952  0.3283 -0.0271
 4887SOL    HW126120   3.011   4.605   0.723 -1.0068 -0.0229 -3.3437
 4887SOL    HW226121   3.063   4.474   0.661  0.3887 -0.8643  0.8872
 4888SOL     OW26122   2.341   1.986  16.830 -0.4873  0.3941  0.7142
 4888SOL    HW126123   2.259   1.954  16.866 -0.7125  0.7965  0.5683
 4888SOL    HW226124   2.403   1.923  16.867 -2.4061 -1.9378 -0.0545
 4889SOL     OW26125   4.601   2.002   6.155  0.4113  0.4434  0.2851
 4889SOL    HW126126   4.625   1.914   6.126  0.3719 -0.3806  2.7783
 4889SOL    HW226127   4.506   1.997   6.147  0.3170 -1.6259  2.6455
 4890SOL     OW26128   4.712   4.303  11.945  0.2771  0.3757  0.3443
 4890SOL    HW126129   0.071   4.255  11.939 -0.2100 -0.2576 -1.2740
 4890SOL    HW226130   0.021   4.391  11.965  2.8106  0.1064 -2.5296
 4891SOL     OW26131   1.085   0.611   2.028  0.4259  0.5543  0.0194
 4891SOL    HW126132   1.010   0.556   2.005  0.2667  0.2731  1.2058
 4891SOL    HW226133   1.156   0.554   1.999  0.7541  0.3207  1.2794
 4892SOL     OW26134   0.352   4.460   2.949 -0.2343 -0.1690  0.2180
 4892SOL    HW126135   0.266   4.460   2.907  0.7430  0.8791 -1.8232
 4892SOL    HW226136   0.406   4.486   2.874 -0.0363 -0.2220  0.3418
 4893SOL     OW26137   3.241   4.308   8.624 -0.1084 -0.3062 -0.5860
 4893SOL    HW126138   3.299   4.351   8.562  1.1165  0.8159  1.3573
 4893SOL    HW226139   3.178   4.376   8.649  0.5295 -0.6836  2.0467
 4894SOL     OW26140   1.129   1.133   8.379 -0.3695 -0.1035  0.2314
 4894SOL    HW126141   1.061   1.193   8.411  0.1339  0.4241  0.3123
 4894SOL    HW226142   1.182   1.111   8.455  0.9296 -0.6426 -0.8237
 4895SOL     OW26143   1.783   2.125   4.842  0.6767  0.9205  0.3936
 4895SOL    HW126144   1.780   2.040   4.886 -0.3272  0.4008 -0.6708
 4895SOL    HW226145   1.694   2.131   4.807  1.2696  0.6456 -1.1829
 4896SOL     OW26146   2.445   0.004   4.204  0.2682 -0.5994 -0.1984
 4896SOL    HW126147   2.455   0.044   4.118 -0.3975 -0.1255 -0.0600
 4896SOL    HW226148   2.501   4.652   4.187 -0.0633 -0.7495 -0.6500
 4897SOL     OW26149   1.763   1.448   3.115 -0.2272 -0.2414 -0.1523
 4897SOL    HW126150   1.770   1.410   3.203  1.8370  2.0624  0.6779
 4897SOL    HW226151   1.854   1.443   3.085 -0.4491  0.0901 -0.8660
 4898SOL     OW26152   1.039   2.274   4.326  0.2710 -0.2109 -0.1509
 4898SOL    HW126153   0.949   2.270   4.294  1.1034 -0.5196 -2.4423
 4898SOL    HW226154   1.025   2.285   4.420 -3.0335  1.3695 -0.8003
 4899SOL     OW26155   0.100   0.445   7.170  0.2868 -0.1201  0.4161
 4899SOL    HW126156   0.065   0.534   7.168  0.8785  0.0891 -0.7323
 4899SOL    HW226157   0.018   0.402   7.195  0.3016  0.4537  1.4629
 4900SOL     OW26158   2.278   0.417   8.079  0.0510  0.1709  0.1648
 4900SOL    HW126159   2.209   0.370   8.031  1.2558 -2.3266  0.8432
 4900SOL    HW226160   2.275   0.506   8.044 -1.2408  0.9590  2.3167
 4901SOL     OW26161   4.641   3.512  10.108 -0.4452  0.1336 -0.0177
 4901SOL    HW126162   4.625   3.518  10.013  0.5036  1.5822 -0.0831
 4901SOL    HW226163   4.659   3.419  10.122 -0.8015  0.1608  0.6239
 4902SOL     OW26164   1.387   3.165  14.118 -0.2015 -0.4987  0.5263
 4902SOL    HW126165   1.388   3.070  14.126  1.8624 -0.3342  2.2959
 4902SOL    HW226166   1.313   3.188  14.062  1.0255  1.9817 -0.1051
 4903SOL     OW26167   4.233   1.026   8.807 -0.3077  0.2621 -0.1267
 4903SOL    HW126168   4.249   0.933   8.791 -2.6620 -0.2949  0.7352
 4903SOL    HW226169   4.316   1.064   8.780 -0.1697 -0.4775 -0.7649
 4904SOL     OW26170   3.942   1.727   8.268 -0.3646 -0.0875  0.2147
 4904SOL    HW126171   3.906   1.641   8.290 -0.5301 -0.7839 -2.7150
 4904SOL    HW226172   3.924   1.768   8.352 -1.5910  0.6284 -0.3951
 4905SOL     OW26173   0.996   0.976   6.135 -0.1909  0.4829  0.2734
 4905SOL    HW126174   1.040   1.025   6.066  3.1326 -2.6304  0.2300
 4905SOL    HW226175   1.049   1.008   6.208 -1.4303  1.1983  0.8617
 4906SOL     OW26176   4.007   4.723  17.654  0.5524 -0.7748  0.1035
 4906SOL    HW126177   4.047   4.641  17.624 -0.7305 -2.0495  1.8920
 4906SOL    HW226178   3.919   4.709  17.619  0.8081 -0.6639 -0.5782
 4907SOL     OW26179   3.377   0.034   9.001 -0.3337 -0.0875 -0.0716
 4907SOL    HW126180   3.342   0.006   9.085 -0.4832 -2.7171 -1.0180
 4907SOL    HW226181   3.463   4.716   8.999  0.3028  1.2922 -2.4389
 4908SOL     OW26182   0.254   3.786  10.012  0.0761  0.3648 -0.3863
 4908SOL    HW126183   0.267   3.705  10.061 -0.7610 -1.4429 -3.1570
 4908SOL    HW226184   0.306   3.843  10.068  0.4557 -1.6468  1.3149
 4909SOL     OW26185   2.516   3.622  13.599 -0.0417 -0.0621  0.1095
 4909SOL    HW126186   2.490   3.571  13.522 -0.0682 -1.3182  0.9447
 4909SOL    HW226187   2.597   3.657  13.562  0.4362 -1.8796 -0.5649
 4910SOL     OW26188   4.689   2.564  10.686  0.0570 -0.1464  0.1656
 4910SOL    HW126189   0.052   2.598  10.667  0.1486 -0.0780  0.6990
 4910SOL    HW226190   4.688   2.547  10.781  1.3207 -2.2473 -0.1929
 4911SOL     OW26191   3.958   4.025   6.602 -0.7067  0.3221 -0.3527
 4911SOL    HW126192   3.969   4.065   6.515 -0.6216 -0.9504 -0.9245
 4911SOL    HW226193   4.047   3.991   6.605 -1.6318 -2.0077  0.3131
 4912SOL     OW26194   1.150   0.465   2.374  0.5258 -0.2056  0.6438
 4912SOL    HW126195   1.150   0.544   2.428 -1.3822  0.5766 -0.5209
 4912SOL    HW226196   1.221   0.494   2.317 -0.3203  1.5891  0.5265
 4913SOL     OW26197   1.383   1.970   4.459 -0.0060 -0.0143 -0.0079
 4913SOL    HW126198   1.407   2.022   4.382 -0.9965  1.9859  1.0337
 4913SOL    HW226199   1.292   1.957   4.431  0.1582  1.0710 -1.0931
 4914SOL     OW26200   1.187   4.518  17.570  0.0809 -0.4889 -0.2935
 4914SOL    HW126201   1.263   4.556  17.526  1.2368 -1.6199  0.7358
 4914SOL    HW226202   1.146   4.478  17.493  1.0138 -3.0907  0.5701
 4915SOL     OW26203   1.814   1.280   2.608  0.6617  0.4572  0.3496
 4915SOL    HW126204   1.747   1.345   2.631  2.9369  2.6164  0.9034
 4915SOL    HW226205   1.765   1.198   2.617  0.4340  0.2805 -2.3461
 4916SOL     OW26206   2.495   4.031   5.442 -0.0990 -0.3993  0.7552
 4916SOL    HW126207   2.505   4.095   5.371 -1.9076 -0.5825  0.3248
 4916SOL    HW226208   2.519   4.083   5.519 -0.2413  0.3511  0.2962
 4917SOL     OW26209   1.988   0.432   9.199 -0.0778  0.0502 -0.0416
 4917SOL    HW126210   1.927   0.462   9.131 -0.8920 -1.1928  0.1563
 4917SOL    HW226211   1.926   0.446   9.270  0.5804  0.9864  0.3532
 4918SOL     OW26212   3.253   2.280  11.368 -0.0815  0.1150 -0.1822
 4918SOL    HW126213   3.194   2.288  11.443  0.0659  1.4748 -0.2058
 4918SOL    HW226214   3.195   2.313  11.299 -2.1013 -1.8918  0.5661
 4919SOL     OW26215   0.116   2.942   5.554 -1.1232 -0.6088  0.1046
 4919SOL    HW126216   0.143   2.873   5.616 -0.0004 -2.1639 -2.1407
 4919SOL    HW226217   0.144   3.012   5.613 -0.6148  0.0241 -0.8870
 4920SOL     OW26218   0.272   4.445   4.223  0.1652  0.0742  0.3238
 4920SOL    HW126219   0.191   4.483   4.259 -0.7331 -0.7641 -0.8181
 4920SOL    HW226220   0.312   4.512   4.169 -1.9532  2.6161  1.8728
 4921SOL     OW26221   4.352   4.390   6.257 -0.5814 -0.0035  0.3137
 4921SOL    HW126222   4.445   4.411   6.256 -0.1913 -1.7594  0.5869
 4921SOL    HW226223   4.346   4.349   6.343  1.6146  1.5423  1.2004
 4922SOL     OW26224   3.142   3.650   7.534 -0.4137  0.0480 -0.1779
 4922SOL    HW126225   3.190   3.632   7.454  0.2980 -1.0527  0.5028
 4922SOL    HW226226   3.096   3.734   7.526 -1.8485 -0.8442 -1.2952
 4923SOL     OW26227   3.479   3.737   2.604 -0.0309  0.1015 -0.3571
 4923SOL    HW126228   3.523   3.719   2.521  1.6812  2.0739  0.1238
 4923SOL    HW226229   3.396   3.691   2.592  0.6788 -0.8667 -1.5073
 4924SOL     OW26230   1.581   2.291  11.553 -1.1502  0.4712  0.8709
 4924SOL    HW126231   1.580   2.223  11.620  0.6102  0.5307  0.9393
 4924SOL    HW226232   1.668   2.330  11.557 -1.8397  1.9147  1.9458
 4925SOL     OW26233   2.977   0.211  12.654 -0.0872 -0.4252  0.1927
 4925SOL    HW126234   2.936   0.188  12.570 -0.0174 -1.0249  0.3191
 4925SOL    HW226235   3.049   0.254  12.608  0.4867 -0.9609  0.5868
 4926SOL     OW26236   4.429   1.869   6.985 -0.6172  0.2883  0.1510
 4926SOL    HW126237   4.357   1.902   7.039 -0.1051  0.6981  0.5766
 4926SOL    HW226238   4.510   1.889   7.032 -2.2745 -1.1649  3.6126
 4927SOL     OW26239   2.802   4.320   6.504 -0.1845  0.5876 -0.0438
 4927SOL    HW126240   2.718   4.358   6.532  0.2948  0.8081  1.0908
 4927SOL    HW226241   2.809   4.358   6.417 -0.1765  0.1617 -0.2277
 4928SOL     OW26242   3.771   2.322   7.225  0.1129  0.3700 -0.4790
 4928SOL    HW126243   3.682   2.301   7.198 -0.0068 -0.3106  0.4509
 4928SOL    HW226244   3.787   2.408   7.187  1.3053 -0.1197 -1.1189
 4929SOL     OW26245   2.701   1.762  11.965  0.2367  0.3566  0.0270
 4929SOL    HW126246   2.711   1.687  12.025 -1.5473  0.3847  0.3673
 4929SOL    HW226247   2.743   1.751  11.880  0.1829 -0.4420  0.0974
 4930SOL     OW26248   2.205   4.006  11.757  0.1281 -0.2615  0.1704
 4930SOL    HW126249   2.178   3.948  11.829 -0.9166 -1.8646 -1.4794
 4930SOL    HW226250   2.145   3.970  11.691 -0.0283 -1.7626  1.1165
 4931SOL     OW26251   1.410   2.240  13.894 -0.5933 -0.6255 -0.8189
 4931SOL    HW126252   1.387   2.149  13.879 -1.7961 -0.6856  1.3233
 4931SOL    HW226253   1.431   2.231  13.987  0.8392 -1.8579 -1.2809
 4932SOL     OW26254   3.904   2.513   5.085  0.2806  0.0973  0.5626
 4932SOL    HW126255   3.937   2.593   5.127  0.7686 -0.9201  2.1015
 4932SOL    HW226256   3.842   2.483   5.151 -0.5019 -1.1481 -0.7403
 4933SOL     OW26257   0.575   1.853   1.169  0.8028 -0.1738  0.1380
 4933SOL    HW126258   0.519   1.780   1.141 -0.5110  1.6878 -2.1846
 4933SOL    HW226259   0.554   1.871   1.260  1.1640  1.6243 -0.1429
 4934SOL     OW26260   2.654   0.303   5.796 -0.0453 -0.3022 -0.1260
 4934SOL    HW126261   2.682   0.213   5.777  0.8909 -0.3556  1.5165
 4934SOL    HW226262   2.738   0.349   5.798  0.8141 -1.9777  2.1513
 4935SOL     OW26263   0.005   1.733  16.532 -0.0668 -0.1502  0.5063
 4935SOL    HW126264   0.036   1.766  16.448 -0.0082  0.7593  0.8915
 4935SOL    HW226265   4.721   1.806  16.594 -1.3685  0.4218 -0.3398
 4936SOL     OW26266   3.818   2.674  10.428  0.4300 -0.5142  0.0077
 4936SOL    HW126267   3.875   2.598  10.436  0.9143 -0.0900  0.5876
 4936SOL    HW226268   3.755   2.639  10.365 -1.4669 -0.0257  1.6309
 4937SOL     OW26269   3.405   3.275   5.746  0.3828  0.4083  0.2463
 4937SOL    HW126270   3.386   3.184   5.724  0.6835  0.2259  0.7558
 4937SOL    HW226271   3.500   3.272   5.761  0.2384  1.4586  1.3330
 4938SOL     OW26272   4.136   4.418   6.443  0.8663 -0.4234  0.1190
 4938SOL    HW126273   4.125   4.323   6.443 -0.8032 -0.2469 -1.3905
 4938SOL    HW226274   4.230   4.421   6.427  0.9113  1.1179  0.6595
 4939SOL     OW26275   0.812   0.216   7.256  0.4682  0.4603  0.2536
 4939SOL    HW126276   0.799   0.190   7.165 -0.6218  0.2526  0.4557
 4939SOL    HW226277   0.749   0.162   7.304  1.1055  0.0578  0.6224
 4940SOL     OW26278   4.662   4.656   7.061  0.3015  0.1575 -0.3733
 4940SOL    HW126279   4.711   4.619   6.988  0.0731  0.2642 -0.5817
 4940SOL    HW226280   4.718   4.722   7.102  1.9939 -0.9298 -0.9223
 4941SOL     OW26281   4.387   3.595   1.962 -0.0700 -0.0334  0.4824
 4941SOL    HW126282   4.291   3.588   1.958 -0.0672  1.3263 -1.8482
 4941SOL    HW226283   4.416   3.520   1.910  0.0901  0.0824  0.4057
 4942SOL     OW26284   3.488   2.910   0.001 -0.1347  0.8582  0.1169
 4942SOL    HW126285   3.474   2.823  17.658 -1.0945  0.7211  0.7518
 4942SOL    HW226286   3.536   2.959  17.631  0.6038 -1.1310 -0.8354
 4943SOL     OW26287   3.495   4.602   4.004  0.0287 -0.6310 -0.0369
 4943SOL    HW126288   3.577   4.554   4.018  1.5672  1.7044 -1.1089
 4943SOL    HW226289   3.428   4.533   4.010  0.3248 -0.7442  2.0085
 4944SOL     OW26290   4.103   4.149   5.773 -0.4623  0.7264 -0.1180
 4944SOL    HW126291   4.169   4.096   5.818 -1.5195 -0.5624 -0.0665
 4944SOL    HW226292   4.120   4.233   5.814 -0.6560  0.2443  0.9638
 4945SOL     OW26293   1.787   0.108  15.321 -0.1431 -0.1034  0.3598
 4945SOL    HW126294   1.801   0.202  15.306 -0.7750 -0.1525 -0.5545
 4945SOL    HW226295   1.700   0.104  15.361 -0.1969 -0.6825  0.1749
 4946SOL     OW26296   3.974   1.822   2.942  0.6843  0.2967 -0.0423
 4946SOL    HW126297   3.983   1.894   3.003  2.7202  0.1614 -0.1909
 4946SOL    HW226298   3.882   1.796   2.951  0.8534 -0.2226  0.1542
 4947SOL     OW26299   1.644   3.823   4.337  0.9584 -0.5118 -0.8059
 4947SOL    HW126300   1.678   3.907   4.305 -0.1853  0.3222  0.1782
 4947SOL    HW226301   1.555   3.825   4.302 -0.2326  1.2570  2.4247
 4948SOL     OW26302   4.301   4.644   2.743 -0.2051 -0.1729 -0.1224
 4948SOL    HW126303   4.286   4.677   2.654 -1.3020 -1.6499 -0.4957
 4948SOL    HW226304   4.209   4.624   2.762 -0.6096  1.2344 -0.6462
 4949SOL     OW26305   2.930   1.537   3.683 -0.1909  0.0419 -0.2075
 4949SOL    HW126306   3.019   1.504   3.694 -0.0727  0.1936 -0.7068
 4949SOL    HW226307   2.877   1.466   3.721 -0.1953 -1.5894 -3.2481
 4950SOL     OW26308   3.031   3.326  14.345 -0.4989  0.3862 -0.4708
 4950SOL    HW126309   3.026   3.291  14.256  0.9828  1.7428 -1.0989
 4950SOL    HW226310   3.126   3.329  14.361 -0.7073  0.7321  0.7238
 4951SOL     OW26311   1.056   1.734  14.831  0.0431 -0.1814  0.2056
 4951SOL    HW126312   1.106   1.653  14.821  1.4021  0.4880  1.4792
 4951SOL    HW226313   1.125   1.797  14.810  0.0609  0.4205  2.0174
 4952SOL     OW26314   3.024   2.907   5.693  0.0238  0.1663  0.4822
 4952SOL    HW126315   3.027   2.888   5.787 -0.2751  0.0247  0.4624
 4952SOL    HW226316   3.019   3.002   5.695  0.3352  0.2133 -1.0792
 4953SOL     OW26317   2.336   1.941   2.793 -0.1166 -0.3974 -0.2122
 4953SOL    HW126318   2.364   1.979   2.710 -0.3272 -0.4717 -0.3190
 4953SOL    HW226319   2.352   1.855   2.755 -0.5631 -0.4440 -0.3012
 4954SOL     OW26320   3.187   1.995   1.466  0.6722  0.0088 -0.3926
 4954SOL    HW126321   3.234   2.028   1.390  0.6691  0.0128 -0.3929
 4954SOL    HW226322   3.120   1.939   1.427 -0.6221  1.0935  0.2548
 4955SOL     OW26323   0.976   3.820  13.029 -0.1530  0.5355 -0.4181
 4955SOL    HW126324   0.979   3.740  12.976 -1.8501  0.8451 -1.0023
 4955SOL    HW226325   0.887   3.812  13.063 -0.2661 -0.5383 -0.9672
 4956SOL     OW26326   4.328   4.219   4.141  0.4581  0.8974  0.1798
 4956SOL    HW126327   4.387   4.226   4.216  0.6286 -0.3294  0.1542
 4956SOL    HW226328   4.242   4.208   4.182 -0.6019 -0.2358 -2.3538
 4957SOL     OW26329   2.298   1.440   4.298  0.2562 -0.8326  0.0323
 4957SOL    HW126330   2.239   1.401   4.361 -1.2660  0.5454 -0.5245
 4957SOL    HW226331   2.379   1.404   4.334  0.6530  1.1600  1.1075
 4958SOL     OW26332   3.477   1.730   5.139  1.0138  0.1667 -0.4321
 4958SOL    HW126333   3.428   1.696   5.064  2.6530  0.3298 -1.5731
 4958SOL    HW226334   3.529   1.802   5.104  1.8265 -0.8572 -1.3181
 4959SOL     OW26335   2.533   2.237   8.136  0.2234 -0.8328  0.9561
 4959SOL    HW126336   2.594   2.185   8.083 -0.6979  0.5645 -1.4820
 4959SOL    HW226337   2.485   2.286   8.070  0.2738  0.3588  1.8053
 4960SOL     OW26338   2.808   1.771   3.767 -0.2282 -0.2632  0.4107
 4960SOL    HW126339   2.825   1.755   3.860 -0.2781  3.2199  1.0148
 4960SOL    HW226340   2.888   1.731   3.733 -0.6960 -0.7578 -0.1096
 4961SOL     OW26341   2.683   3.962  16.454 -0.0336 -0.4070 -0.3074
 4961SOL    HW126342   2.623   4.013  16.401  0.0599 -1.9622 -1.9047
 4961SOL    HW226343   2.699   4.025  16.524 -1.9220 -1.6056  1.1853
 4962SOL     OW26344   3.698   2.217   6.697 -0.2478 -0.6944  0.2288
 4962SOL    HW126345   3.677   2.310   6.697 -2.9329 -1.3132 -0.3331
 4962SOL    HW226346   3.718   2.210   6.603 -0.2754 -4.1458  0.4579
 4963SOL     OW26347   3.541   2.518   3.254 -0.1744  0.2296 -0.0185
 4963SOL    HW126348   3.518   2.477   3.337 -0.7800 -1.5500 -1.0617
 4963SOL    HW226349   3.551   2.609   3.280  2.7989 -0.2111  0.4326
 4964SOL     OW26350   3.235   3.110  17.563  0.4751 -0.2728 -0.5875
 4964SOL    HW126351   3.325   3.110  17.531  1.2283 -1.7533  1.5456
 4964SOL    HW226352   3.215   3.017  17.553 -0.4869 -0.2377  1.1082
 4965SOL     OW26353   2.471   1.287   6.468  0.1893  0.2076  0.0236
 4965SOL    HW126354   2.432   1.211   6.423  0.0589  1.4275 -1.9372
 4965SOL    HW226355   2.554   1.279   6.420  0.6933  3.2368  0.4474
 4966SOL     OW26356   2.914   3.841  13.677 -0.0352  0.0699  0.0162
 4966SOL    HW126357   2.884   3.918  13.628 -1.7781 -0.2292  0.6008
 4966SOL    HW226358   2.962   3.791  13.610 -0.4898 -0.7286  0.2842
 4967SOL     OW26359   3.441   1.464   5.232  0.1397 -0.2857 -0.3057
 4967SOL    HW126360   3.468   1.553   5.211  0.2430  0.0482  1.2451
 4967SOL    HW226361   3.350   1.475   5.259 -0.4363 -1.6106 -1.7421
 4968SOL     OW26362   3.377   3.447  17.191  0.2273  0.0867  0.2690
 4968SOL    HW126363   3.285   3.457  17.170  0.7635 -0.1069 -2.2379
 4968SOL    HW226364   3.391   3.531  17.234  1.3492 -0.5504  1.1394
 4969SOL     OW26365   2.455   0.182   9.363  0.3129 -0.2223 -0.4326
 4969SOL    HW126366   2.400   0.168   9.440  0.8275 -1.1253 -0.2387
 4969SOL    HW226367   2.418   0.270   9.352  0.8185 -0.1312 -1.3633
 4970SOL     OW26368   0.982   3.270   5.158  0.1421  0.4130 -0.6531
 4970SOL    HW126369   1.058   3.299   5.209 -1.0724  0.9094  0.8834
 4970SOL    HW226370   0.916   3.325   5.201 -0.6492  0.6026 -2.1200
 4971SOL     OW26371   2.160   1.249  11.554  0.3719 -0.3538  0.5893
 4971SOL    HW126372   2.101   1.309  11.601 -0.4963 -1.3836  0.7960
 4971SOL    HW226373   2.132   1.246  11.463 -2.6504  0.6313  1.4810
 4972SOL     OW26374   0.519   0.041   8.935  0.1614 -0.0905 -0.0784
 4972SOL    HW126375   0.577   4.716   8.994 -1.7408 -2.4128 -0.0901
 4972SOL    HW226376   0.468   0.091   8.999 -1.6136 -0.8332 -0.9032
 4973SOL     OW26377   4.113   3.199   5.549 -0.4090 -0.4906 -0.2633
 4973SOL    HW126378   4.133   3.235   5.463 -2.1994  1.2619  0.0613
 4973SOL    HW226379   4.118   3.107   5.524 -0.1751 -0.7723  0.8009
 4974SOL     OW26380   1.155   0.856   2.703 -0.1855 -0.1672 -0.2308
 4974SOL    HW126381   1.134   0.770   2.666 -0.0680 -0.4044  0.2596
 4974SOL    HW226382   1.126   0.839   2.792 -0.5353 -3.5364 -0.9883
 4975SOL     OW26383   0.046   0.522   4.475  0.0123 -0.1365  0.1408
 4975SOL    HW126384   0.083   0.574   4.404  0.1144  1.5166  1.4037
 4975SOL    HW226385   4.676   0.520   4.456 -0.1584  0.3590  0.9406
 4976SOL     OW26386   1.311   4.547   5.045 -0.5156  0.3939 -0.2734
 4976SOL    HW126387   1.391   4.589   5.015 -0.1093  0.5935  1.0846
 4976SOL    HW226388   1.264   4.542   4.962  0.4300  3.3677 -0.9971
 4977SOL     OW26389   3.371   1.974   4.791  0.2543 -0.2631  0.4549
 4977SOL    HW126390   3.314   1.989   4.866  1.8863  0.1584  1.6082
 4977SOL    HW226391   3.299   1.967   4.728 -1.5490 -0.6733  2.5669
 4978SOL     OW26392   0.571   2.151   2.671  0.2844 -0.1090 -0.3959
 4978SOL    HW126393   0.580   2.239   2.708  0.4690 -0.3566  0.1400
 4978SOL    HW226394   0.586   2.090   2.743 -1.3880  0.6562  0.6049
 4979SOL     OW26395   2.095   4.098  14.914  0.4769  0.2445 -0.2786
 4979SOL    HW126396   2.064   4.171  14.862  1.9773  0.5102 -0.7844
 4979SOL    HW226397   2.050   4.122  14.996  1.1535  2.1004 -0.4500
 4980SOL     OW26398   3.219   4.139   7.615  0.5326  0.9462  0.3517
 4980SOL    HW126399   3.277   4.081   7.565 -0.5660 -1.4584  1.8519
 4980SOL    HW226400   3.263   4.120   7.698  0.4374  0.3553  0.2696
 4981SOL     OW26401   3.809   3.482  16.365  0.0782 -0.2297  0.2605
 4981SOL    HW126402   3.835   3.415  16.302  0.7919 -1.2004  1.5904
 4981SOL    HW226403   3.752   3.431  16.423 -0.8429  1.0902  0.5269
 4982SOL     OW26404   3.961   2.577   2.301 -0.8521  0.4169 -0.0902
 4982SOL    HW126405   3.946   2.573   2.395 -0.7878  0.1045 -0.0925
 4982SOL    HW226406   3.996   2.666   2.298  0.3428 -0.0107  0.8921
 4983SOL     OW26407   2.234   0.079  13.735  0.6352  0.1138 -0.0529
 4983SOL    HW126408   2.243   0.161  13.783  1.6753 -0.6632  1.0833
 4983SOL    HW226409   2.187   0.028  13.800  1.2895  1.3361  1.3758
 4984SOL     OW26410   0.205   3.179   1.289  0.0439  0.0851  0.6454
 4984SOL    HW126411   0.194   3.085   1.303 -2.2862  0.6033  2.2336
 4984SOL    HW226412   0.235   3.197   1.378 -0.8136 -0.4116  1.0364
 4985SOL     OW26413   0.894   4.169   7.953 -0.5470 -0.0614  0.0976
 4985SOL    HW126414   0.807   4.144   7.923  0.2226  0.2674 -2.4763
 4985SOL    HW226415   0.925   4.227   7.883 -0.6344  0.2337  0.3045
 4986SOL     OW26416   2.203   1.801   5.326 -0.0439 -0.3277  0.3822
 4986SOL    HW126417   2.205   1.752   5.408 -0.4439 -0.3854  0.3574
 4986SOL    HW226418   2.110   1.824   5.329 -0.4242 -1.7973 -0.0574
 4987SOL     OW26419   3.360   2.264  16.208 -0.1917  0.1823  0.0486
 4987SOL    HW126420   3.369   2.169  16.221 -2.5933 -0.0014  0.4180
 4987SOL    HW226421   3.284   2.290  16.261  1.1323  2.2126  0.9255
 4988SOL     OW26422   1.826   3.475   7.665  0.2563 -0.4521  0.2995
 4988SOL    HW126423   1.750   3.466   7.607 -0.2522 -0.5592  0.9845
 4988SOL    HW226424   1.843   3.569   7.657 -2.6476  0.2558  2.2363
 4989SOL     OW26425   3.912   2.584   3.803  0.0604 -0.1420 -0.0069
 4989SOL    HW126426   3.902   2.676   3.830 -2.0856  0.1828 -1.8438
 4989SOL    HW226427   4.003   2.586   3.773 -0.6447 -1.4996 -2.1974
 4990SOL     OW26428   0.931   2.426  14.526  0.1654  0.5586 -0.0716
 4990SOL    HW126429   1.015   2.473  14.520 -0.1953  1.2651  0.3268
 4990SOL    HW226430   0.908   2.451  14.615 -0.2944  0.9496 -0.3024
 4991SOL     OW26431   3.440   2.454   1.601  0.2677  0.1749  0.5243
 4991SOL    HW126432   3.451   2.475   1.508 -0.9506 -0.1946  0.2978
 4991SOL    HW226433   3.425   2.360   1.594  0.9833  0.1096 -0.2099
 4992SOL     OW26434   1.229   0.735   5.281 -0.6727  0.0050 -0.1731
 4992SOL    HW126435   1.187   0.681   5.348 -0.4844  0.0299 -0.0346
 4992SOL    HW226436   1.303   0.676   5.267 -0.7161 -0.1740  0.3347
 4993SOL     OW26437   1.452   2.627   3.632 -0.4399 -0.7782 -0.1362
 4993SOL    HW126438   1.486   2.663   3.550  0.6010  1.9395  1.4782
 4993SOL    HW226439   1.514   2.562   3.665 -0.8016 -1.2662 -0.4141
 4994SOL     OW26440   3.092   4.108   9.105 -0.0482 -0.5888  0.0892
 4994SOL    HW126441   3.159   4.122   9.039  0.3664  0.7627  0.7870
 4994SOL    HW226442   3.050   4.194   9.104  1.8466  0.3500  1.1434
 4995SOL     OW26443   2.841   2.818  14.628  0.0296 -0.1968 -0.4730
 4995SOL    HW126444   2.845   2.905  14.668  1.6198 -0.7188  0.4951
 4995SOL    HW226445   2.846   2.761  14.705  2.4968  1.2073  0.3764
 4996SOL     OW26446   3.522   2.811   6.708 -0.4966 -0.1305 -0.2078
 4996SOL    HW126447   3.481   2.890   6.742 -1.7560 -0.7085 -0.3556
 4996SOL    HW226448   3.447   2.752   6.714  0.0252 -0.6297  1.3523
 4997SOL     OW26449   4.308   1.436  13.192  0.2976  0.2579  0.1482
 4997SOL    HW126450   4.310   1.427  13.287  2.3576 -1.0863 -0.0201
 4997SOL    HW226451   4.349   1.522  13.185  0.5222  0.2809  1.6473
 4998SOL     OW26452   0.404   2.487   6.007 -0.0542 -0.0353 -0.1215
 4998SOL    HW126453   0.479   2.502   6.065  2.3725  0.4762 -3.4181
 4998SOL    HW226454   0.342   2.450   6.071 -0.3189 -0.9116 -0.8720
 4999SOL     OW26455   3.607   3.113   4.169  0.1049 -0.6183 -0.7036
 4999SOL    HW126456   3.702   3.120   4.157  0.5579 -3.1756  1.2609
 4999SOL    HW226457   3.571   3.128   4.082  1.5518  0.6657 -1.0890
 5000SOL     OW26458   3.289   4.443   3.869 -0.3330 -1.0726 -0.4007
 5000SOL    HW126459   3.262   4.400   3.950 -2.0024  1.6209  0.4917
 5000SOL    HW226460   3.321   4.368   3.819 -0.5352 -0.1825 -1.8629
 5001SOL     OW26461   3.900   2.676   4.522 -0.7619 -0.0258  0.0936
 5001SOL    HW126462   3.816   2.632   4.505 -0.3615  0.0623 -2.2121
 5001SOL    HW226463   3.961   2.621   4.473 -1.4154 -0.3430 -0.3693
 5002SOL     OW26464   0.861   1.058  11.737 -0.0690 -0.3213  0.5174
 5002SOL    HW126465   0.796   1.127  11.721 -0.3534 -0.8855 -0.7110
 5002SOL    HW226466   0.948   1.096  11.723 -1.3434  1.6837 -2.0241
 5003SOL     OW26467   1.572   3.755  14.642  0.2087  0.4459 -0.2010
 5003SOL    HW126468   1.522   3.675  14.659 -0.5862  0.9596 -0.0774
 5003SOL    HW226469   1.566   3.750  14.546 -0.0274 -0.1808 -0.1539
 5004SOL     OW26470   0.085   3.227   2.957 -0.1978  0.0083  0.0598
 5004SOL    HW126471   0.123   3.178   2.884  2.3928  0.9097  0.8167
 5004SOL    HW226472   0.085   3.318   2.927 -0.5435 -0.2526 -0.7438
 5005SOL     OW26473   1.909   3.444   4.565 -0.2739  0.3941 -0.3481
 5005SOL    HW126474   1.910   3.407   4.476 -0.1671 -0.7641  0.1408
 5005SOL    HW226475   1.826   3.492   4.563 -0.1012  0.5489 -3.7004
 5006SOL     OW26476   0.976   4.108  10.636 -0.9593 -0.5283 -0.2601
 5006SOL    HW126477   1.069   4.123  10.619 -1.0747 -0.3585 -0.7513
 5006SOL    HW226478   0.938   4.098  10.549  0.1792 -0.6813 -0.7484
 5007SOL     OW26479   4.666   1.083  15.274  0.0494  0.1953  0.4947
 5007SOL    HW126480   4.647   1.048  15.361  2.2185 -0.3865  0.7428
 5007SOL    HW226481   4.668   1.173  15.304  2.4368  1.1384 -2.4864
 5008SOL     OW26482   1.638   3.221  14.095 -0.0226 -0.5081  0.6298
 5008SOL    HW126483   1.640   3.311  14.063  2.1419 -1.0124 -0.5699
 5008SOL    HW226484   1.545   3.202  14.084 -0.1041 -1.0051  2.1748
 5009SOL     OW26485   1.165   4.628   5.739  0.4396  0.1325 -0.6089
 5009SOL    HW126486   1.239   4.648   5.796  1.3626 -0.3219 -1.6387
 5009SOL    HW226487   1.093   4.634   5.801  1.0739 -1.4073  0.2634
 5010SOL     OW26488   0.823   0.112  15.927  0.6218 -0.2232  0.1350
 5010SOL    HW126489   0.762   0.178  15.893 -0.2128  0.5028  3.1088
 5010SOL    HW226490   0.800   0.119  16.019 -0.2560 -1.1961 -0.0171
 5011SOL     OW26491   0.086   2.408   3.434 -0.1667 -0.4123  0.1321
 5011SOL    HW126492   0.102   2.397   3.340 -0.8507 -0.8609  0.0724
 5011SOL    HW226493   0.035   2.489   3.430  0.3361 -0.1440 -0.9482
 5012SOL     OW26494   4.459   4.070   3.422 -0.0949  0.3487 -0.1547
 5012SOL    HW126495   4.426   4.159   3.413 -1.1832 -0.3566 -3.0185
 5012SOL    HW226496   4.420   4.049   3.507  3.7057 -1.6828  1.1067
 5013SOL     OW26497   2.944   1.806  14.195  0.2374 -0.4799 -0.2485
 5013SOL    HW126498   2.985   1.890  14.216  1.1686 -1.1432  0.5757
 5013SOL    HW226499   2.958   1.803  14.100  0.4472 -0.1625 -0.2255
 5014SOL     OW26500   2.273   1.073   6.397  0.1679  0.1766  0.6008
 5014SOL    HW126501   2.257   0.981   6.374 -2.5293  0.7477  0.1763
 5014SOL    HW226502   2.269   1.100   6.305  1.7997  1.0861  0.8088
 5015SOL     OW26503   2.086   0.582  14.689  0.1965 -0.0504  0.0242
 5015SOL    HW126504   2.177   0.611  14.677 -0.6309  2.3985 -0.3400
 5015SOL    HW226505   2.115   0.496  14.720  0.2765  0.5614  1.6625
 5016SOL     OW26506   0.405   3.638   5.908 -0.4539  0.1184  0.2496
 5016SOL    HW126507   0.364   3.596   5.984  1.5895  0.4889  1.5494
 5016SOL    HW226508   0.398   3.568   5.844 -0.5518 -2.0523  2.6509
 5017SOL     OW26509   1.018   1.179   2.069  0.1609  0.2448  0.1694
 5017SOL    HW126510   0.945   1.172   2.132 -0.4041  3.5772 -0.1150
 5017SOL    HW226511   1.025   1.274   2.067 -0.6274  0.3248  0.9155
 5018SOL     OW26512   3.152   1.585  11.710 -0.7511  0.0093 -0.2952
 5018SOL    HW126513   3.243   1.607  11.691 -1.0712 -0.7479 -2.7074
 5018SOL    HW226514   3.133   1.648  11.780  2.5696  0.2564  0.3449
 5019SOL     OW26515   3.527   1.862  17.264 -0.2954 -0.2199 -0.0583
 5019SOL    HW126516   3.437   1.837  17.242 -0.4589  1.1748 -0.9821
 5019SOL    HW226517   3.503   1.935  17.322 -1.6143 -0.8156  0.1576
 5020SOL     OW26518   0.050   4.656  10.030 -0.1409  0.0151 -0.6223
 5020SOL    HW126519   0.032   4.567  10.063 -1.2579  0.4878  0.0583
 5020SOL    HW226520   0.087   4.636   9.944 -0.4313 -2.0486 -0.2650
 5021SOL     OW26521   4.569   4.692   4.953  0.1130 -0.3107 -0.0884
 5021SOL    HW126522   4.509   4.625   4.922 -0.6666 -0.0537  0.8571
 5021SOL    HW226523   4.595   4.663   5.041  0.8653  1.1736  0.1783
 5022SOL     OW26524   3.385   3.280  11.415  0.9400 -0.6060  0.0367
 5022SOL    HW126525   3.292   3.299  11.429  0.9225 -0.5179 -0.1994
 5022SOL    HW226526   3.403   3.329  11.334  1.7278  1.4560  1.4637
 5023SOL     OW26527   4.414   3.982  10.079 -0.9153 -0.1855 -0.0476
 5023SOL    HW126528   4.497   3.975  10.031 -0.4168 -2.6292  1.1534
 5023SOL    HW226529   4.354   4.027  10.021  1.2857  0.8887 -1.5073
 5024SOL     OW26530   1.189   3.029   3.992 -0.1370  0.2191  0.7932
 5024SOL    HW126531   1.279   3.012   4.019  0.5863 -1.5993 -2.7928
 5024SOL    HW226532   1.199   3.100   3.928  2.8518 -0.2744  0.7252
 5025SOL     OW26533   3.122   2.248  16.394  0.7290  0.4267 -0.6010
 5025SOL    HW126534   3.184   2.235  16.466  0.1424 -2.6903 -0.6773
 5025SOL    HW226535   3.105   2.158  16.368  1.6364  1.3112 -4.2579
 5026SOL     OW26536   2.034   3.382   0.193  0.1687  0.0432 -0.5342
 5026SOL    HW126537   1.957   3.325   0.204 -0.6877  0.7030 -3.2118
 5026SOL    HW226538   2.066   3.382   0.283 -0.8302  1.9814 -0.1874
 5027SOL     OW26539   3.276   3.510  14.091  0.1336 -0.4004 -0.0835
 5027SOL    HW126540   3.297   3.426  14.131 -1.0285 -0.6438 -0.0004
 5027SOL    HW226541   3.181   3.504  14.086  0.1046 -0.9098  1.1074
 5028SOL     OW26542   4.455   4.583  12.972 -0.1232 -0.0652 -0.0800
 5028SOL    HW126543   4.405   4.662  12.952 -0.2423  0.2436  1.4464
 5028SOL    HW226544   4.399   4.511  12.943  1.2277 -1.4361  0.7001
 5029SOL     OW26545   4.059   0.111   1.520 -0.2858 -0.0114  0.0334
 5029SOL    HW126546   4.094   0.113   1.431 -2.9467  3.8856 -0.9247
 5029SOL    HW226547   4.032   0.020   1.534 -1.1254  0.6898  2.9608
 5030SOL     OW26548   2.578   3.067   2.606 -0.5850 -0.0320  0.2112
 5030SOL    HW126549   2.494   3.086   2.646 -0.3759 -2.2256  1.6952
 5030SOL    HW226550   2.574   2.971   2.598  0.0828 -0.1173  0.8867
 5031SOL     OW26551   3.052   3.693   6.140  0.1785  0.5689  0.3201
 5031SOL    HW126552   3.029   3.717   6.050  0.0022 -0.1515  0.1711
 5031SOL    HW226553   3.060   3.597   6.136  2.7932  0.7778  0.5581
 5032SOL     OW26554   4.543   3.238   1.317 -0.5452  0.4181  0.0858
 5032SOL    HW126555   4.527   3.144   1.323 -2.9866  0.8242 -0.0547
 5032SOL    HW226556   4.455   3.262   1.290 -0.0581  1.5550 -0.5005
 5033SOL     OW26557   0.971   0.351   7.605 -0.6779  0.1623 -0.4488
 5033SOL    HW126558   1.019   0.407   7.666 -1.2067  0.1361 -0.0086
 5033SOL    HW226559   0.928   0.420   7.554 -1.0191  0.1422 -0.1854
 5034SOL     OW26560   2.360   0.950   4.919  0.0318 -0.2354 -0.3336
 5034SOL    HW126561   2.332   1.029   4.964 -1.1360 -0.3928 -0.7851
 5034SOL    HW226562   2.444   0.929   4.960 -0.4106 -1.8812 -0.2634
 5035SOL     OW26563   2.940   1.448   5.585  0.1208 -0.2748  0.7995
 5035SOL    HW126564   2.899   1.459   5.500  1.8249 -0.5530 -0.0481
 5035SOL    HW226565   3.013   1.508   5.569  0.1137 -0.1135  1.3674
 5036SOL     OW26566   1.923   1.102  13.160 -0.6102 -0.1016 -0.0139
 5036SOL    HW126567   1.901   1.155  13.083  3.3229 -0.8213 -1.6174
 5036SOL    HW226568   1.970   1.160  13.221 -1.7723  0.4128  0.3864
 5037SOL     OW26569   0.359   2.311   3.485 -0.1878 -0.4819 -0.0503
 5037SOL    HW126570   0.275   2.354   3.470  0.3006  0.3807 -0.3057
 5037SOL    HW226571   0.337   2.218   3.496  0.7675 -0.3908  2.6404
 5038SOL     OW26572   0.053   2.576   1.675  0.5075 -0.2492 -0.2867
 5038SOL    HW126573   0.123   2.600   1.614  1.5425  0.3633  1.1534
 5038SOL    HW226574   0.062   2.630   1.753 -0.0978  0.8754 -0.9910
 5039SOL     OW26575   0.025   2.340   8.888 -0.2705  0.2933 -0.1881
 5039SOL    HW126576   0.048   2.399   8.960  1.0651  0.5943 -0.8521
 5039SOL    HW226577   0.064   2.261   8.924  0.9683  0.6425 -0.7657
 5040SOL     OW26578   3.330   4.059   3.297 -0.2384  0.2350 -0.4048
 5040SOL    HW126579   3.256   3.999   3.289 -0.9439  1.1561 -0.8939
 5040SOL    HW226580   3.329   4.085   3.390  0.1022  3.8059 -1.3880
 5041SOL     OW26581   2.795   1.274   5.755 -0.0520  0.0243  0.0153
 5041SOL    HW126582   2.839   1.306   5.676 -0.9451 -1.9348 -1.2812
 5041SOL    HW226583   2.874   1.228   5.782  0.6391  1.3265  0.2496
 5042SOL     OW26584   1.694   3.813  12.558 -0.0707  0.0464  0.6472
 5042SOL    HW126585   1.779   3.776  12.535  0.4122  0.2921  2.0495
 5042SOL    HW226586   1.712   3.867  12.635 -0.5782 -0.3407  1.0442
 5043SOL     OW26587   2.312   2.816   9.197  0.1751  0.1354 -0.1708
 5043SOL    HW126588   2.307   2.724   9.170 -3.2111 -0.0272  1.0612
 5043SOL    HW226589   2.407   2.820   9.212  0.5457 -2.0546 -1.8695
 5044SOL     OW26590   0.999   0.573   4.117 -0.1043  0.3618 -0.3678
 5044SOL    HW126591   1.048   0.628   4.055  2.0450 -1.0499  0.0825
 5044SOL    HW226592   0.969   0.505   4.058  0.2755  1.0783 -1.3989
 5045SOL     OW26593   1.188   3.296  17.205  0.3869 -0.1956 -0.7964
 5045SOL    HW126594   1.104   3.329  17.172  0.6633 -0.1516 -1.4364
 5045SOL    HW226595   1.247   3.359  17.165  1.3439  1.5470  3.3923
 5046SOL     OW26596   4.540   2.835  15.817 -0.1636  0.2309  0.0045
 5046SOL    HW126597   4.572   2.795  15.736 -1.0207 -0.5618  0.0608
 5046SOL    HW226598   4.572   2.779  15.888  0.6512  1.3994  0.5682
 5047SOL     OW26599   3.426   3.726   4.760  0.0561  0.4988 -0.2705
 5047SOL    HW126600   3.506   3.692   4.721  0.0219 -1.2696  1.2082
 5047SOL    HW226601   3.370   3.709   4.683 -0.1460  1.0796 -0.2505
 5048SOL     OW26602   1.488   3.331   6.423 -0.2327 -0.7866 -0.4146
 5048SOL    HW126603   1.473   3.329   6.518 -1.2873  1.7256 -0.5460
 5048SOL    HW226604   1.526   3.243   6.415  0.8893 -0.5849  2.4509
 5049SOL     OW26605   4.172   0.371  11.809  0.2295 -0.0488 -0.5946
 5049SOL    HW126606   4.106   0.431  11.775  1.9953  3.3136  1.9851
 5049SOL    HW226607   4.243   0.395  11.750  0.0818  1.8035 -0.0203
 5050SOL     OW26608   2.553   3.403   4.772 -0.3900 -0.4116 -0.4261
 5050SOL    HW126609   2.508   3.465   4.829 -0.7795 -1.3529  0.2723
 5050SOL    HW226610   2.485   3.336   4.768 -0.4716 -0.3069 -0.7705
 5051SOL     OW26611   3.420   2.450   3.924 -0.5414 -0.5366 -0.0480
 5051SOL    HW126612   3.448   2.434   4.015  0.5939 -1.5386 -0.5820
 5051SOL    HW226613   3.325   2.437   3.929 -0.6822 -0.7287 -3.2306
 5052SOL     OW26614   3.341   3.093  13.232  0.3253  0.0350  0.0427
 5052SOL    HW126615   3.345   3.021  13.168  0.9957 -0.6003  0.8082
 5052SOL    HW226616   3.327   3.035  13.307 -0.6533 -0.3995 -0.4726
 5053SOL     OW26617   2.022   0.983   4.087 -0.5701 -0.2107  0.2856
 5053SOL    HW126618   2.088   0.928   4.044 -0.6879  0.0692 -0.2519
 5053SOL    HW226619   1.940   0.936   4.073 -0.2878 -1.0082  1.2845
 5054SOL     OW26620   3.036   3.775   8.233 -0.1132 -0.4400 -0.3503
 5054SOL    HW126621   3.105   3.840   8.245 -0.2619 -0.0868 -1.4218
 5054SOL    HW226622   3.078   3.706   8.182 -2.6633 -2.0011 -0.3623
 5055SOL     OW26623   0.864   1.530  10.589 -0.3747 -0.2073 -0.1879
 5055SOL    HW126624   0.801   1.460  10.607  1.2275 -1.3834  0.8515
 5055SOL    HW226625   0.818   1.603  10.630 -0.6340  0.3287 -1.4306
 5056SOL     OW26626   1.956   1.922   1.028  0.0144  0.1983 -0.4208
 5056SOL    HW126627   2.019   1.929   1.100  0.0571  0.3247 -0.4705
 5056SOL    HW226628   1.895   1.991   1.054 -1.2309 -0.7782 -0.7524
 5057SOL     OW26629   3.682   1.514   5.380  0.5692 -0.1337 -0.0318
 5057SOL    HW126630   3.599   1.487   5.341  0.0900  0.3610  0.6535
 5057SOL    HW226631   3.742   1.498   5.307  0.5250 -1.0731  0.1309
 5058SOL     OW26632   3.063   3.000   2.664 -0.6121 -0.3615 -0.3636
 5058SOL    HW126633   3.150   3.020   2.628 -1.2842  2.3679 -0.4976
 5058SOL    HW226634   3.020   2.944   2.599  1.3313 -0.6625 -1.4144
 5059SOL     OW26635   4.318   2.315   2.876  0.1989 -0.1693 -0.2726
 5059SOL    HW126636   4.276   2.401   2.882  0.6236  0.0935 -0.9785
 5059SOL    HW226637   4.281   2.283   2.958 -1.1419  1.8506 -0.0831
 5060SOL     OW26638   3.372   3.554   0.882 -0.1440  0.3275 -0.2326
 5060SOL    HW126639   3.399   3.469   0.847  0.0728 -0.1111  0.9766
 5060SOL    HW226640   3.361   3.603   0.801  1.2314  0.1093 -0.5597
 5061SOL     OW26641   0.290   3.731  15.018  0.5759  0.5205 -0.1001
 5061SOL    HW126642   0.299   3.699  14.928 -1.3097  1.5325 -0.6436
 5061SOL    HW226643   0.213   3.788  15.023  1.3511  1.6477 -0.8892
 5062SOL     OW26644   3.924   0.123  12.407 -0.8405  0.5466  0.3381
 5062SOL    HW126645   3.898   0.129  12.315  0.3210 -1.4334 -0.1195
 5062SOL    HW226646   4.017   0.100  12.399 -0.7666  0.1332  2.6213
 5063SOL     OW26647   0.787   0.238   8.007 -0.0717 -0.0939  0.4072
 5063SOL    HW126648   0.866   0.193   8.039 -0.4850 -0.9744  0.2081
 5063SOL    HW226649   0.791   0.319   8.058 -0.6833 -0.2111  0.6369
 5064SOL     OW26650   1.929   1.848  17.138 -0.0558 -0.2235  0.3068
 5064SOL    HW126651   1.875   1.770  17.153 -1.8437  0.8611 -0.5213
 5064SOL    HW226652   1.996   1.853  17.205  1.6071  1.4543 -1.4892
 5065SOL     OW26653   1.846   4.227   2.849  0.4290  0.1067 -0.0485
 5065SOL    HW126654   1.906   4.154   2.862  1.6615  1.6369  2.8308
 5065SOL    HW226655   1.794   4.195   2.775 -0.5288  1.8305 -0.1370
 5066SOL     OW26656   2.023   3.834  11.633  0.2882 -0.3028  0.0516
 5066SOL    HW126657   1.948   3.805  11.582  0.9217  0.5715 -1.3708
 5066SOL    HW226658   2.034   3.769  11.702 -2.0625 -0.6649  0.0869
 5067SOL     OW26659   0.248   1.224   8.850  0.5836  0.4444  0.2473
 5067SOL    HW126660   0.204   1.159   8.905 -0.4844  0.3016 -0.8004
 5067SOL    HW226661   0.186   1.250   8.783 -1.7559 -0.5043  2.0111
 5068SOL     OW26662   3.164   2.465   6.859  0.1569  0.0869 -0.5103
 5068SOL    HW126663   3.077   2.433   6.883 -0.6335  2.4217 -0.2060
 5068SOL    HW226664   3.224   2.421   6.919 -1.8434 -1.2231  0.5341
 5069SOL     OW26665   1.125   4.378  10.775  0.2588 -0.0696 -0.1941
 5069SOL    HW126666   1.125   4.435  10.851 -2.2751 -1.0853  0.5860
 5069SOL    HW226667   1.197   4.423  10.732  0.1313 -1.2074 -1.5829
 5070SOL     OW26668   0.323   3.275  16.795 -0.0971 -0.1613 -0.8071
 5070SOL    HW126669   0.380   3.291  16.720 -0.7887 -1.0086 -1.5116
 5070SOL    HW226670   0.366   3.198  16.833 -0.3112 -0.2838 -0.8103
 5071SOL     OW26671   2.664   0.851  10.908 -0.2880 -0.3436 -0.8032
 5071SOL    HW126672   2.606   0.879  10.979  0.0531 -1.0035 -0.2673
 5071SOL    HW226673   2.610   0.890  10.839 -0.7755 -0.8216 -0.6873
 5072SOL     OW26674   0.323   3.694   8.577  0.4457 -0.0591  0.0646
 5072SOL    HW126675   0.316   3.624   8.512 -1.9887  0.4884 -0.2536
 5072SOL    HW226676   0.411   3.668   8.605  0.5220  2.0939  1.8277
 5073SOL     OW26677   1.473   2.575   1.908  0.0226  0.0272  0.1036
 5073SOL    HW126678   1.544   2.627   1.945  0.4945 -0.3248 -0.3080
 5073SOL    HW226679   1.409   2.560   1.977 -2.4539  0.3922 -2.1075
 5074SOL     OW26680   4.151   4.436   5.857 -0.2400 -0.4264 -0.5558
 5074SOL    HW126681   4.159   4.496   5.783  0.4852  0.9095  0.5857
 5074SOL    HW226682   4.181   4.495   5.927 -0.9921 -0.8001  0.0875
 5075SOL     OW26683   0.610   3.673   2.220 -0.5181  0.1103  0.3262
 5075SOL    HW126684   0.535   3.690   2.276 -1.0045  0.0196 -0.2995
 5075SOL    HW226685   0.629   3.761   2.188 -0.2363 -0.6697 -1.6485
 5076SOL     OW26686   3.786   4.355   5.884 -0.3229 -0.1937  0.0206
 5076SOL    HW126687   3.820   4.438   5.850  0.6589 -0.0448  1.3466
 5076SOL    HW226688   3.690   4.358   5.887 -0.1166  3.3867  3.6303
 5077SOL     OW26689   3.563   2.644   8.401 -0.5667  0.3020 -0.2047
 5077SOL    HW126690   3.567   2.738   8.421 -0.9494  0.3495 -0.3597
 5077SOL    HW226691   3.585   2.610   8.488 -1.3332 -2.1854 -0.9872
 5078SOL     OW26692   3.032   1.538   7.001 -0.3009  0.1943 -0.5644
 5078SOL    HW126693   2.954   1.483   7.009 -0.2131 -0.2573 -2.9549
 5078SOL    HW226694   3.074   1.485   6.934 -1.7698 -2.5039  0.6421
 5079SOL     OW26695   0.879   0.426   9.357 -0.1733  0.3179 -0.8051
 5079SOL    HW126696   0.856   0.397   9.445 -0.9476 -2.4315 -1.8925
 5079SOL    HW226697   0.965   0.386   9.344 -0.9153 -1.2775 -0.8110
 5080SOL     OW26698   2.322   3.615   7.442 -0.1449  0.3759  0.1087
 5080SOL    HW126699   2.282   3.528   7.434 -0.3298  0.6520 -1.9459
 5080SOL    HW226700   2.265   3.642   7.514 -1.1506 -0.7436 -0.2664
 5081SOL     OW26701   0.083   1.601  13.262  0.3834  0.0826 -0.4460
 5081SOL    HW126702   0.066   1.579  13.170 -2.5490  1.4626 -0.2288
 5081SOL    HW226703   0.090   1.697  13.263 -1.9585  0.2395 -0.3941
 5082SOL     OW26704   4.628   4.364   2.366 -0.1249  0.3200  0.5752
 5082SOL    HW126705   4.586   4.450   2.362 -1.3662 -0.2808  0.4690
 5082SOL    HW226706   4.707   4.367   2.312  1.3440  2.5428  2.8277
 5083SOL     OW26707   1.555   1.598   7.331  0.6148  0.1659 -0.2538
 5083SOL    HW126708   1.591   1.616   7.244 -3.7121  0.5482 -1.9846
 5083SOL    HW226709   1.464   1.625   7.320  0.9940  1.4136 -0.3381
 5084SOL     OW26710   0.093   4.030   3.499 -0.0397  0.2553  0.2227
 5084SOL    HW126711   0.094   4.098   3.432 -0.5748 -0.0405 -0.0868
 5084SOL    HW226712   0.046   3.960   3.453  0.7360  1.1207 -1.9033
 5085SOL     OW26713   0.571   2.880   8.621  0.7729  0.4099  0.2930
 5085SOL    HW126714   0.498   2.865   8.561 -0.6228  2.0573  1.5617
 5085SOL    HW226715   0.573   2.794   8.662  0.2047 -0.2732 -1.0971
 5086SOL     OW26716   0.477   3.297   0.691 -0.5114 -0.3390 -0.0587
 5086SOL    HW126717   0.464   3.278   0.784 -0.0168 -1.4182 -0.2070
 5086SOL    HW226718   0.434   3.383   0.692 -2.3617 -1.2604 -0.2223
 5087SOL     OW26719   4.677   1.294   1.513 -0.1702  0.0392 -0.1143
 5087SOL    HW126720   4.620   1.282   1.589  0.9616 -0.0556  0.7138
 5087SOL    HW226721   0.029   1.341   1.549  0.5773  0.0811 -1.7266
 5088SOL     OW26722   2.488   2.606   3.096 -0.7397 -0.2756 -0.1893
 5088SOL    HW126723   2.537   2.585   3.016 -0.9833 -0.7706 -0.2098
 5088SOL    HW226724   2.420   2.539   3.106 -1.1294  0.0107 -0.9090
 5089SOL     OW26725   0.177   2.781  12.195 -0.7533  0.4024  0.1801
 5089SOL    HW126726   0.249   2.728  12.162  1.8311  1.7865  3.6496
 5089SOL    HW226727   0.191   2.783  12.289  2.0266  0.4642 -0.2449
 5090SOL     OW26728   0.542   0.885   5.095  0.4997  0.3798  0.0805
 5090SOL    HW126729   0.620   0.908   5.045 -0.4446  0.9611 -1.1306
 5090SOL    HW226730   0.486   0.953   5.057  2.4091  1.7729 -0.2143
 5091SOL     OW26731   4.041   4.510   4.301  0.3389  0.0460 -0.3013
 5091SOL    HW126732   3.965   4.551   4.343  0.0199 -1.3178  0.4270
 5091SOL    HW226733   3.996   4.450   4.242  1.2065 -0.1286 -0.7690
 5092SOL     OW26734   3.776   0.854   5.154  0.4229 -0.0596 -0.5707
 5092SOL    HW126735   3.774   0.820   5.244 -1.2272 -1.8057 -1.2883
 5092SOL    HW226736   3.822   0.936   5.175 -2.8338  1.4699  0.5218
 5093SOL     OW26737   3.728   1.636   4.906  0.2245 -0.2669  0.3094
 5093SOL    HW126738   3.675   1.563   4.873  2.5300 -0.2771 -3.3038
 5093SOL    HW226739   3.659   1.693   4.940  0.5046  0.2804 -0.0461
 5094SOL     OW26740   1.807   2.829   4.816 -0.7755 -0.4106 -0.0502
 5094SOL    HW126741   1.767   2.745   4.793 -0.3845 -0.2062 -1.4790
 5094SOL    HW226742   1.896   2.797   4.803 -1.8193 -2.9285 -0.8957
 5095SOL     OW26743   2.703   2.760   2.793  0.3213 -0.2913 -0.0186
 5095SOL    HW126744   2.761   2.759   2.717  1.2222  0.0518  0.6681
 5095SOL    HW226745   2.625   2.721   2.754  0.2446  1.1814 -1.3428
 5096SOL     OW26746   3.276   4.091  12.390 -0.1598  0.5397  0.8880
 5096SOL    HW126747   3.368   4.098  12.364 -0.0725  0.0483  1.0711
 5096SOL    HW226748   3.253   4.183  12.374 -0.2755  0.8883  3.1356
 5097SOL     OW26749   4.284   3.866  17.414  0.0406 -0.1078  0.8893
 5097SOL    HW126750   4.347   3.926  17.374  0.6356 -0.6966  0.9408
 5097SOL    HW226751   4.218   3.852  17.346  1.0410  1.7967 -0.4537
 5098SOL     OW26752   3.220   3.151   5.267  0.2180 -0.2012  0.0526
 5098SOL    HW126753   3.247   3.074   5.317 -2.6776  0.6296  2.8998
 5098SOL    HW226754   3.131   3.176   5.289  0.4058 -0.8294  1.5642
 5099SOL     OW26755   4.640   0.268   5.943  0.1529  0.2972  0.1895
 5099SOL    HW126756   4.618   0.282   6.035  1.2891 -0.7376  0.6209
 5099SOL    HW226757   4.553   0.252   5.907  0.2799 -0.0119  0.0173
 5100SOL     OW26758   3.600   2.089   4.136  0.2850 -0.1472  0.0649
 5100SOL    HW126759   3.508   2.097   4.114  0.5767 -0.4052 -1.2723
 5100SOL    HW226760   3.597   2.139   4.218 -0.0952  1.0414 -0.6743
 5101SOL     OW26761   2.218   2.738   4.381  0.9391 -0.5425 -0.3156
 5101SOL    HW126762   2.295   2.766   4.331  0.8645  0.6114  0.2053
 5101SOL    HW226763   2.145   2.743   4.319  1.5643 -0.2527 -1.0273
 5102SOL     OW26764   3.447   0.426   6.860 -0.0710 -0.2818 -0.3654
 5102SOL    HW126765   3.513   0.369   6.899  1.4491  2.2612  0.7806
 5102SOL    HW226766   3.374   0.404   6.919 -1.1324  0.7424 -1.2827
 5103SOL     OW26767   3.329   4.262   4.555  0.1836  0.0985  0.2570
 5103SOL    HW126768   3.414   4.237   4.520  0.3850  1.3203 -0.1112
 5103SOL    HW226769   3.355   4.347   4.589  2.9765  0.5416 -3.0009
 5104SOL     OW26770   3.687   0.203   6.604 -0.9703  0.0567 -0.3299
 5104SOL    HW126771   3.662   0.138   6.670  1.0759  1.4524  1.8259
 5104SOL    HW226772   3.765   0.153   6.580 -0.2318  0.3924  1.3482
 5105SOL     OW26773   1.794   3.771   8.002  0.3656  0.1522  0.4080
 5105SOL    HW126774   1.805   3.795   7.910  0.5599  2.5518  1.0403
 5105SOL    HW226775   1.839   3.846   8.043  0.5013  0.6531 -0.6564
 5106SOL     OW26776   0.375   4.695   2.795  0.0785 -0.1602 -0.7618
 5106SOL    HW126777   0.422   4.671   2.716 -0.7775  0.0217 -1.3305
 5106SOL    HW226778   0.286   4.717   2.767 -0.0675 -0.6481 -0.6818
 5107SOL     OW26779   3.993   2.780   5.155 -0.2601  0.0176 -0.3872
 5107SOL    HW126780   3.930   2.817   5.094 -0.5007  0.8256  0.3429
 5107SOL    HW226781   3.946   2.763   5.236  1.0911 -2.8349 -0.1978
 5108SOL     OW26782   1.612   3.337   3.140  0.5430 -0.3056  0.7279
 5108SOL    HW126783   1.518   3.341   3.120  0.4082 -2.5618  0.9119
 5108SOL    HW226784   1.640   3.337   3.049 -1.8846  1.4951 -0.0295
 5109SOL     OW26785   1.874   2.185   2.666 -0.3210 -0.5956  0.0783
 5109SOL    HW126786   1.901   2.136   2.744  1.6914 -2.3520 -1.7465
 5109SOL    HW226787   1.810   2.122   2.633 -2.3134  0.5032  1.8154
 5110SOL     OW26788   2.492   2.137   6.373  0.5201 -0.0672  0.4168
 5110SOL    HW126789   2.426   2.104   6.434 -1.8017 -0.3279 -2.2375
 5110SOL    HW226790   2.559   2.075   6.403  1.1695 -0.5839 -2.0948
 5111SOL     OW26791   4.688   1.745   6.072  0.2503 -0.2654 -0.1260
 5111SOL    HW126792   0.017   1.697   6.136  0.2620 -0.7687 -0.5178
 5111SOL    HW226793   0.035   1.776   6.016  1.7286 -1.2199  1.1915
 5112SOL     OW26794   3.864   1.041  11.956 -0.3781 -0.0425  0.0989
 5112SOL    HW126795   3.782   1.001  11.988 -1.4820  1.5225 -0.7759
 5112SOL    HW226796   3.839   1.129  11.983 -1.6660 -0.9815  2.0155
 5113SOL     OW26797   1.610   1.657   1.758 -0.4423 -0.3632 -0.1599
 5113SOL    HW126798   1.561   1.639   1.678 -0.4345 -0.0911 -0.2239
 5113SOL    HW226799   1.545   1.689   1.821 -0.5627  1.8583 -1.4264
 5114SOL     OW26800   3.324   0.875   6.673  0.0995  0.1150  0.4907
 5114SOL    HW126801   3.345   0.878   6.579 -1.5764 -1.4073  0.0603
 5114SOL    HW226802   3.413   0.870   6.708  0.3599  0.9330 -0.0557
 5115SOL     OW26803   4.200   2.371   2.098  0.1056  0.8118 -0.1590
 5115SOL    HW126804   4.262   2.314   2.053 -0.4657 -0.9418  1.2610
 5115SOL    HW226805   4.223   2.367   2.191 -1.2160 -4.2532 -0.0805
 5116SOL     OW26806   2.756   3.047   6.818 -0.4000  0.3406  0.3629
 5116SOL    HW126807   2.665   3.049   6.848 -0.5984  1.0193 -0.2893
 5116SOL    HW226808   2.749   2.978   6.752  1.9643  1.2404 -0.8136
 5117SOL     OW26809   1.379   1.200   4.539 -0.0933 -0.0724  0.2353
 5117SOL    HW126810   1.410   1.141   4.470  1.1308 -0.5458  1.2052
 5117SOL    HW226811   1.284   1.196   4.527  0.0164 -1.4341 -0.1547
 5118SOL     OW26812   2.743   3.247   1.941  0.2850  0.4918  0.4439
 5118SOL    HW126813   2.789   3.207   2.015  2.9243 -0.9872 -1.9623
 5118SOL    HW226814   2.793   3.327   1.930  0.4411  0.2322 -0.7525
 5119SOL     OW26815   1.424   3.918   1.282  0.1714 -0.1165 -0.3236
 5119SOL    HW126816   1.387   3.899   1.196 -1.8757  1.4048  0.2001
 5119SOL    HW226817   1.468   4.003   1.273 -1.7535  0.8445 -0.8088
 5120SOL     OW26818   2.361   4.266   5.832  0.2655  0.3897 -0.5595
 5120SOL    HW126819   2.326   4.351   5.859  1.9855  1.0392 -0.3961
 5120SOL    HW226820   2.284   4.216   5.803 -0.1745 -0.0732  1.3747
 5121SOL     OW26821   3.202   0.915   5.306 -0.1110 -0.1892  0.1043
 5121SOL    HW126822   3.252   0.890   5.383  1.0776 -1.0966 -0.9589
 5121SOL    HW226823   3.242   0.850   5.248 -0.7438 -0.4981  0.0227
 5122SOL     OW26824   4.528   4.101   6.661  0.0505  0.0144  0.2823
 5122SOL    HW126825   4.502   4.051   6.584 -2.1410  0.3211  0.8290
 5122SOL    HW226826   4.596   4.045   6.699  1.8557  0.6464 -2.0241
 5123SOL     OW26827   4.386   2.477  10.116 -0.1662  0.7283 -0.5658
 5123SOL    HW126828   4.322   2.496  10.184 -0.0112  0.0337 -0.2226
 5123SOL    HW226829   4.442   2.410  10.155 -1.6382 -0.7720 -1.0112
 5124SOL     OW26830   3.931   3.335   2.565  0.5231 -0.0187  0.5878
 5124SOL    HW126831   3.909   3.259   2.619  0.9358 -0.9840 -0.6280
 5124SOL    HW226832   3.916   3.409   2.625 -0.4866 -0.9532  1.4871
 5125SOL     OW26833   4.662   4.024   4.903 -0.0936 -0.3487 -0.3866
 5125SOL    HW126834   4.634   4.114   4.885 -1.0214 -0.0272  2.5628
 5125SOL    HW226835   4.602   4.000   4.974  2.1731  3.3099  2.8029
 5126SOL     OW26836   2.366   3.100   7.499 -0.1586  0.3225  0.0083
 5126SOL    HW126837   2.293   3.105   7.560  0.9510 -0.1359  1.3978
 5126SOL    HW226838   2.431   3.046   7.545  0.1496  0.0191 -0.7883
 5127SOL     OW26839   2.187   2.602   9.936  0.2614 -0.3346  0.7133
 5127SOL    HW126840   2.214   2.559  10.017  2.4702  1.1671  0.7816
 5127SOL    HW226841   2.172   2.522   9.886  1.2229  0.2248 -0.4959
 5128SOL     OW26842   0.301   3.642  14.427 -0.5728 -0.2051 -0.0925
 5128SOL    HW126843   0.284   3.597  14.345 -0.7803 -0.5331  0.1274
 5128SOL    HW226844   0.269   3.728  14.400 -0.4011 -0.4229 -0.9590
 5129SOL     OW26845   4.329   3.863   2.319  0.3664 -0.0735 -0.0126
 5129SOL    HW126846   4.405   3.818   2.281 -0.1558  0.2780 -1.4650
 5129SOL    HW226847   4.362   3.953   2.313  2.7672 -0.9270  0.1423
 5130SOL     OW26848   2.062   2.978   2.783 -0.3149 -0.3022 -0.3873
 5130SOL    HW126849   2.141   2.924   2.776 -0.5625 -0.6341 -0.6131
 5130SOL    HW226850   2.004   2.935   2.720  0.4532 -0.0390 -1.2747
 5131SOL     OW26851   2.247   2.790   2.761 -0.4103 -0.0949 -0.2194
 5131SOL    HW126852   2.213   2.704   2.783  0.3504 -0.0710  1.0331
 5131SOL    HW226853   2.333   2.768   2.727 -1.4543 -2.1284 -1.5356
 5132SOL     OW26854   0.905   0.737   3.586  0.2744  0.4594 -0.1749
 5132SOL    HW126855   0.965   0.776   3.522 -1.6613  3.1069 -0.3491
 5132SOL    HW226856   0.878   0.819   3.627 -0.3319  1.7405 -3.1194
 5133SOL     OW26857   0.942   2.674   2.200 -0.7237  0.0321 -0.0422
 5133SOL    HW126858   0.988   2.755   2.220  0.1089  0.3182 -3.0920
 5133SOL    HW226859   1.016   2.633   2.156 -0.6071 -1.7466  1.8135
 5134SOL     OW26860   2.415   2.760   8.150 -0.4909  0.3863 -0.2073
 5134SOL    HW126861   2.363   2.840   8.154 -0.0085  0.6853  0.0667
 5134SOL    HW226862   2.505   2.793   8.148 -0.7460  1.1311  1.4569
 5135SOL     OW26863   0.653   2.161   8.704  0.1190  0.1858 -0.4514
 5135SOL    HW126864   0.583   2.105   8.738  2.3009 -1.8118  0.8206
 5135SOL    HW226865   0.719   2.156   8.773 -0.0398  1.4777 -0.2158
 5136SOL     OW26866   4.609   3.734  16.591  0.6270 -0.2029 -0.7345
 5136SOL    HW126867   4.618   3.800  16.660 -1.3403  0.3740 -1.0383
 5136SOL    HW226868   4.551   3.770  16.524 -0.0746 -2.4256 -1.3207
 5137SOL     OW26869   3.464   2.722   3.763  0.0624  0.1062  0.3398
 5137SOL    HW126870   3.442   2.637   3.799 -2.8147  0.7064 -0.0228
 5137SOL    HW226871   3.382   2.767   3.745  1.4281  1.8474 -1.5626
 5138SOL     OW26872   1.856   3.877   6.153 -0.0342 -0.1199 -0.9651
 5138SOL    HW126873   1.796   3.925   6.210 -1.3086 -2.4550 -0.3319
 5138SOL    HW226874   1.802   3.822   6.096 -1.2809 -0.5156  0.6094
 5139SOL     OW26875   0.992   1.752   8.904 -0.2190  0.0115 -0.6818
 5139SOL    HW126876   0.940   1.762   8.825 -1.3056  1.0304  0.1671
 5139SOL    HW226877   1.080   1.741   8.867  0.0228  1.6907 -0.5956
 5140SOL     OW26878   1.091   3.613   7.446  0.2536 -0.0206 -0.2932
 5140SOL    HW126879   1.028   3.633   7.377  1.8359  2.2700 -1.0725
 5140SOL    HW226880   1.083   3.693   7.498  1.7827  1.5874 -2.5368
 5141SOL     OW26881   1.903   2.151   1.192 -0.5363  0.5825  0.5242
 5141SOL    HW126882   1.987   2.104   1.197 -1.3002 -0.7082  1.1993
 5141SOL    HW226883   1.856   2.101   1.259 -0.4639 -0.9049 -0.5363
 5142SOL     OW26884   0.994   1.654   2.747  0.5011  0.6344  0.0119
 5142SOL    HW126885   0.928   1.587   2.762  0.4592  0.9547  1.2793
 5142SOL    HW226886   0.953   1.686   2.667 -3.0117  0.4740  1.7432
 5143SOL     OW26887   4.352   0.385   7.914  0.1985  0.0317  0.6003
 5143SOL    HW126888   4.304   0.443   7.973 -0.9229 -1.6091  1.3309
 5143SOL    HW226889   4.438   0.424   7.925 -1.0165  2.6522  0.7275
 5144SOL     OW26890   1.575   4.156   1.272  0.1511 -0.5631 -0.3409
 5144SOL    HW126891   1.504   4.216   1.294  0.0807 -0.3146 -1.2549
 5144SOL    HW226892   1.656   4.207   1.274 -0.9741  1.1714  0.9899
 5145SOL     OW26893   4.406   1.764   4.989 -0.2188 -0.1103  0.6616
 5145SOL    HW126894   4.388   1.764   4.895  0.9547  1.2555  0.4280
 5145SOL    HW226895   4.372   1.847   5.022 -2.0016 -1.9762  3.4398
 5146SOL     OW26896   1.462   1.767  14.787  0.1029 -0.1018  0.1124
 5146SOL    HW126897   1.382   1.806  14.823 -0.1656 -0.2138 -0.3693
 5146SOL    HW226898   1.488   1.821  14.713  0.0153  1.0082  0.8885
 5147SOL     OW26899   4.267   0.712   5.092  0.2250 -0.3655 -0.0430
 5147SOL    HW126900   4.347   0.762   5.075  0.3529 -1.4196 -2.4997
 5147SOL    HW226901   4.213   0.782   5.129 -2.2258 -2.4688  0.4011
 5148SOL     OW26902   2.668   4.265  17.604 -0.0215  0.3500 -0.5440
 5148SOL    HW126903   2.762   4.265  17.620 -0.1469 -1.2922  0.1686
 5148SOL    HW226904   2.646   4.358  17.609  0.6611  0.5182 -0.7581
 5149SOL     OW26905   4.628   1.948   3.159 -0.5244  0.5886 -0.3737
 5149SOL    HW126906   4.661   1.908   3.240  1.8844  0.0876 -1.6071
 5149SOL    HW226907   4.705   1.964   3.106  0.1256 -1.9918 -0.2334
 5150SOL     OW26908   1.157   2.377   4.918 -0.1095  0.2554  0.0275
 5150SOL    HW126909   1.179   2.286   4.940 -0.3885  0.4222  0.9703
 5150SOL    HW226910   1.122   2.415   4.998  1.8297  0.1005  0.9392
 5151SOL     OW26911   1.254   3.601   2.282 -0.0635  0.4240 -0.1614
 5151SOL    HW126912   1.313   3.571   2.351 -1.5469 -0.3463  0.7622
 5151SOL    HW226913   1.204   3.664   2.334  0.8239 -0.5386  1.8388
 5152SOL     OW26914   4.246   2.264   3.917  0.5719 -0.6163 -0.3150
 5152SOL    HW126915   4.255   2.203   3.990  0.3424 -1.6832 -1.1789
 5152SOL    HW226916   4.160   2.233   3.887 -0.7416  0.2993  2.4845
 5153SOL     OW26917   0.515   3.142   7.957  0.6729 -0.0976 -0.3097
 5153SOL    HW126918   0.606   3.159   7.930  0.9400 -0.2268  0.5321
 5153SOL    HW226919   0.470   3.083   7.897  0.2153 -0.7798  0.7216
 5154SOL     OW26920   1.261   1.812  15.183  0.6112 -0.0027 -1.1617
 5154SOL    HW126921   1.215   1.786  15.263 -1.3553  0.2293 -2.2020
 5154SOL    HW226922   1.273   1.732  15.133  1.6636 -0.8376  0.4385
 5155SOL     OW26923   2.372   3.997   3.880  0.1875  0.2255 -0.2207
 5155SOL    HW126924   2.293   3.960   3.919  0.1246  2.6311  1.9835
 5155SOL    HW226925   2.348   4.090   3.874 -1.8498 -0.2075  1.2228
 5156SOL     OW26926   0.754   1.971   4.043  0.1705  0.0425 -0.3508
 5156SOL    HW126927   0.800   1.952   4.125  0.5825  3.3513  0.1905
 5156SOL    HW226928   0.680   2.021   4.076  1.2590  0.7115  1.0730
 5157SOL     OW26929   3.102   2.532  16.393 -0.3459 -0.3527 -0.1146
 5157SOL    HW126930   3.116   2.438  16.404 -3.9936 -0.8898 -0.1067
 5157SOL    HW226931   3.017   2.523  16.351  0.0266 -0.0710 -0.9306
 5158SOL     OW26932   1.112   4.458   3.556  0.0798  0.3356  0.3750
 5158SOL    HW126933   1.113   4.505   3.639  2.2733 -0.3326  0.7429
 5158SOL    HW226934   1.046   4.389   3.563  0.7387 -0.2201  1.1000
 5159SOL     OW26935   3.946   3.683   4.544 -0.9220  0.3048  0.1868
 5159SOL    HW126936   3.940   3.662   4.638 -1.4314 -1.4014 -0.2287
 5159SOL    HW226937   4.032   3.648   4.525 -0.1661  2.0021  0.4510
 5160SOL     OW26938   1.280   2.251   6.498 -0.1472 -0.4798 -0.4605
 5160SOL    HW126939   1.329   2.333   6.504 -1.3273 -0.0424  3.6044
 5160SOL    HW226940   1.345   2.188   6.529  0.5355  0.0403 -0.8240
 5161SOL     OW26941   0.264   0.997   1.145 -0.0528  0.1647  0.5353
 5161SOL    HW126942   0.186   1.021   1.095  0.3723 -1.3181 -0.8340
 5161SOL    HW226943   0.247   1.055   1.219  1.0082  1.3888 -0.1618
 5162SOL     OW26944   1.918   4.005   0.176 -0.0511  0.1943  0.1620
 5162SOL    HW126945   1.976   4.081   0.178 -0.0719  0.3703 -4.8633
 5162SOL    HW226946   1.908   3.991   0.082  1.2498  1.7120 -0.2143
 5163SOL     OW26947   1.186   2.574   6.731  0.0716 -0.3604 -0.4380
 5163SOL    HW126948   1.119   2.506   6.728  1.5960 -1.9425  1.7621
 5163SOL    HW226949   1.224   2.552   6.816  2.6868  3.7341 -0.5723
 5164SOL     OW26950   3.771   0.969  11.006 -0.2599  0.4034 -0.1964
 5164SOL    HW126951   3.860   1.005  11.003 -0.8016  1.8885  2.0170
 5164SOL    HW226952   3.717   1.032  10.959 -1.7372 -2.1527 -1.9378
 5165SOL     OW26953   4.626   3.838   6.970  0.1627  0.0394  0.1164
 5165SOL    HW126954   4.684   3.774   7.013  1.1993 -0.9003 -2.7224
 5165SOL    HW226955   4.574   3.867   7.046  0.0767  1.6320 -0.5467
 5166SOL     OW26956   2.005   3.837  16.395 -0.2341  0.5143  0.3988
 5166SOL    HW126957   1.976   3.746  16.387  1.0180  0.0208  1.5797
 5166SOL    HW226958   2.096   3.823  16.370 -0.5795 -0.0020 -0.5799
 5167SOL     OW26959   0.158   4.306   6.330 -0.2762 -0.5303  0.4282
 5167SOL    HW126960   0.159   4.212   6.314 -0.3489 -0.3832 -0.4580
 5167SOL    HW226961   0.216   4.317   6.405 -0.5182 -2.5805  0.9168
 5168SOL     OW26962   1.574   3.542   3.338  0.3098 -0.4062  0.1073
 5168SOL    HW126963   1.601   3.473   3.277 -0.5389 -1.0471  0.4374
 5168SOL    HW226964   1.650   3.599   3.350  0.4615 -0.4435 -0.7240
 5169SOL     OW26965   4.465   2.916   3.487  0.1020 -0.1319 -0.1000
 5169SOL    HW126966   4.499   2.957   3.407 -3.0652 -0.5029 -1.6331
 5169SOL    HW226967   4.375   2.950   3.488 -0.3818 -1.4204 -0.1834
 5170SOL     OW26968   1.434   4.321   3.925 -0.2293  0.2466  0.1671
 5170SOL    HW126969   1.361   4.346   3.983 -0.9301  0.1505 -0.6718
 5170SOL    HW226970   1.502   4.373   3.967 -0.9756  1.0438  0.4050
 5171SOL     OW26971   3.682   0.024   9.275 -0.4472 -0.5571 -0.0854
 5171SOL    HW126972   3.733   0.013   9.195  1.5343  1.0005  0.9725
 5171SOL    HW226973   3.631   0.100   9.248  2.2056  1.7667  1.4961
 5172SOL     OW26974   3.470   0.048   1.231  0.3047 -0.3111  0.4722
 5172SOL    HW126975   3.424   0.081   1.308  0.4674 -0.3911  0.6041
 5172SOL    HW226976   3.490   0.125   1.178  0.8523 -0.9752 -0.2845
 5173SOL     OW26977   0.809   1.463  13.677  0.4458 -0.0588 -0.0106
 5173SOL    HW126978   0.770   1.433  13.760  1.4346 -1.3074  0.0105
 5173SOL    HW226979   0.813   1.378  13.634 -2.2406 -0.6283  0.8508
 5174SOL     OW26980   3.271   3.184   3.045 -0.2526 -0.2044  0.1628
 5174SOL    HW126981   3.299   3.269   3.079  0.1178 -0.4851  0.5601
 5174SOL    HW226982   3.215   3.218   2.975  0.4438  2.1933  0.7667
 5175SOL     OW26983   3.832   2.901   2.982 -0.0549  0.0850  0.3586
 5175SOL    HW126984   3.768   2.894   3.053 -0.8575 -0.3081 -0.4135
 5175SOL    HW226985   3.788   2.967   2.928  1.7554  0.0288 -1.1874
 5176SOL     OW26986   3.792   4.554   3.009 -0.1920  0.4394  0.4629
 5176SOL    HW126987   3.744   4.494   2.952  2.6773 -0.2183 -1.2417
 5176SOL    HW226988   3.873   4.503   3.008 -0.1720  0.4661  0.6691
 5177SOL     OW26989   2.921   1.369  11.225 -0.4754 -0.2689  0.5751
 5177SOL    HW126990   2.879   1.409  11.149  1.2505 -0.9968 -0.7758
 5177SOL    HW226991   2.872   1.405  11.299 -0.4213  1.2082 -0.1194
 5178SOL     OW26992   3.384   4.224   4.923  0.4390  0.3907 -0.4604
 5178SOL    HW126993   3.465   4.220   4.872  1.2061  0.1408  0.7745
 5178SOL    HW226994   3.349   4.134   4.922  0.7223  0.2769 -0.0452
 5179SOL     OW26995   1.465   0.474   5.038  0.1559 -0.2956 -0.2251
 5179SOL    HW126996   1.481   0.551   5.092 -1.4072  0.1384 -0.3936
 5179SOL    HW226997   1.437   0.406   5.099 -0.4740  1.3017  1.2635
 5180SOL     OW26998   3.568   1.525   3.232 -0.5574  0.5453  0.0954
 5180SOL    HW126999   3.597   1.505   3.143  0.2635 -0.9025  0.6804
 5180SOL    HW227000   3.634   1.481   3.285 -0.5837 -0.7585 -0.9301
 5181SOL     OW27001   0.667   2.796   4.748  0.1080  0.0585  0.4507
 5181SOL    HW127002   0.595   2.745   4.712  0.4347  0.8466 -1.3158
 5181SOL    HW227003   0.648   2.881   4.710  0.1426  0.3162  1.0095
 5182SOL     OW27004   1.861   2.251   6.545 -0.2125  0.2979 -0.8729
 5182SOL    HW127005   1.792   2.283   6.488 -2.8541  2.9602  3.8113
 5182SOL    HW227006   1.934   2.258   6.484  2.9068  0.4783  2.8436
 5183SOL     OW27007   3.875   2.459  17.485 -0.1020  0.3853 -0.5332
 5183SOL    HW127008   3.843   2.539  17.528  1.5577  0.1921  1.0791
 5183SOL    HW227009   3.969   2.479  17.477  0.2774 -1.1899  0.0354
 5184SOL     OW27010   0.567   2.128   5.602  0.7882 -0.2786 -0.5200
 5184SOL    HW127011   0.585   2.194   5.534  3.1097  0.4416  0.7939
 5184SOL    HW227012   0.625   2.161   5.671 -0.6708 -0.2950  0.7106
 5185SOL     OW27013   2.798   0.112   9.076  0.6145  0.4109  0.0068
 5185SOL    HW127014   2.718   0.060   9.085  0.4208  1.1979  2.5977
 5185SOL    HW227015   2.784   0.173   9.148  1.1589 -0.6810  1.0262
 5186SOL     OW27016   1.251   1.039   5.428 -0.6556 -0.1632 -0.4981
 5186SOL    HW127017   1.218   1.105   5.490 -0.3269  0.4172 -0.9477
 5186SOL    HW227018   1.171   0.997   5.395 -0.1696 -0.5245 -1.2278
 5187SOL     OW27019   1.106   0.491   8.563  0.5747  0.3844 -0.7286
 5187SOL    HW127020   1.011   0.485   8.574  0.8788 -1.2237  0.9693
 5187SOL    HW227021   1.134   0.495   8.654 -2.8800 -2.7988  0.4755
 5188SOL     OW27022   2.294   1.394   8.602 -0.0367  0.2471 -0.3323
 5188SOL    HW127023   2.245   1.393   8.684 -1.2912 -0.7004 -1.1048
 5188SOL    HW227024   2.336   1.480   8.595  2.0327 -0.7022  0.4583
 5189SOL     OW27025   3.350   1.256   5.765  0.5796  0.4105  0.6169
 5189SOL    HW127026   3.280   1.300   5.814  0.5017  1.1092 -0.1219
 5189SOL    HW227027   3.409   1.330   5.749 -0.3060  0.9143 -0.2788
 5190SOL     OW27028   2.000   2.312   2.451 -0.1927 -0.3350  0.6520
 5190SOL    HW127029   2.029   2.403   2.451  0.8494 -0.6632 -0.1431
 5190SOL    HW227030   1.940   2.301   2.525  0.2991 -2.6419  0.7159
 5191SOL     OW27031   4.509   3.166   9.620  0.2234 -0.0971  0.8737
 5191SOL    HW127032   4.445   3.104   9.655 -1.0330  0.1128 -1.0016
 5191SOL    HW227033   4.472   3.193   9.535  1.0894 -1.6151  0.0009
 5192SOL     OW27034   0.391   1.873   2.111  0.3788  0.4188  0.3253
 5192SOL    HW127035   0.455   1.856   2.180  0.1129  0.4210  0.5731
 5192SOL    HW227036   0.449   1.844   2.041  1.9846 -2.0410  2.6723
 5193SOL     OW27037   0.783   0.483   7.277  0.1665 -0.3826 -0.2921
 5193SOL    HW127038   0.779   0.387   7.272  0.5180 -0.4628  0.9099
 5193SOL    HW227039   0.695   0.512   7.301  0.7451 -0.4409  1.9402
 5194SOL     OW27040   4.016   2.142   3.804 -0.6884  0.6658 -0.3704
 5194SOL    HW127041   3.971   2.155   3.721  0.5917  1.2800 -0.9867
 5194SOL    HW227042   4.023   2.048   3.815  0.6163  0.8479  0.4123
 5195SOL     OW27043   4.680   1.400  13.397 -0.2726 -0.1844  0.7521
 5195SOL    HW127044   4.603   1.457  13.399  0.1597  0.4187  0.1453
 5195SOL    HW227045   0.012   1.454  13.341 -2.2503 -0.4680 -1.4590
 5196SOL     OW27046   1.785   3.964  13.996  0.3338 -0.9932 -0.3481
 5196SOL    HW127047   1.773   4.051  13.958 -1.9357 -0.6894  1.0423
 5196SOL    HW227048   1.717   3.908  13.959 -0.0043  0.7184 -2.3427
 5197SOL     OW27049   1.087   2.233   3.718 -0.3952 -0.0431  0.8424
 5197SOL    HW127050   1.042   2.314   3.743  0.7803 -0.0175  2.8063
 5197SOL    HW227051   1.035   2.166   3.761 -0.0910 -0.2798  0.8337
 5198SOL     OW27052   0.533   3.467   5.049  0.6926  0.3909  0.1995
 5198SOL    HW127053   0.479   3.431   5.119 -0.3060 -1.2329 -1.4052
 5198SOL    HW227054   0.463   3.524   5.018  0.1301  0.7272  2.1223
 5199SOL     OW27055   0.999   2.656  10.762 -0.0349 -0.2727 -0.2395
 5199SOL    HW127056   0.946   2.717  10.711  1.5307  0.4386 -0.9987
 5199SOL    HW227057   0.928   2.613  10.810  2.4220 -0.0793  3.5653
 5200SOL     OW27058   4.706   1.436  10.099 -0.0817 -0.0719 -0.2678
 5200SOL    HW127059   0.003   1.530  10.103  0.1184 -0.1165 -0.2446
 5200SOL    HW227060   4.611   1.434  10.089 -0.2252  1.2883  0.6830
 5201SOL     OW27061   4.457   3.760   4.151  0.8640  0.1046 -0.1250
 5201SOL    HW127062   4.529   3.700   4.173 -0.7573 -1.7228  0.2358
 5201SOL    HW227063   4.454   3.756   4.055 -0.7950 -2.9535  0.0443
 5202SOL     OW27064   0.437   3.487   3.929  0.1607  0.5185  0.3494
 5202SOL    HW127065   0.504   3.491   3.861  0.0682 -1.4390  0.1247
 5202SOL    HW227066   0.360   3.468   3.876  0.2316  0.2895  0.3271
 5203SOL     OW27067   0.859   0.379   5.974 -0.0056 -0.0684  0.3868
 5203SOL    HW127068   0.778   0.365   6.023 -0.7616  0.0793 -0.8203
 5203SOL    HW227069   0.875   0.472   5.989  2.5506 -0.3140 -0.9645
 5204SOL     OW27070   4.496   3.890   0.812  0.9076  0.0495  0.2449
 5204SOL    HW127071   4.512   3.861   0.902 -0.9823 -1.2885  0.1509
 5204SOL    HW227072   4.583   3.875   0.776  1.0773 -0.5753  0.9137
 5205SOL     OW27073   0.005   2.799   5.169 -0.0032  0.5897  0.1276
 5205SOL    HW127074   4.656   2.859   5.184  0.9219  1.5382  0.7807
 5205SOL    HW227075   0.009   2.808   5.073  1.0369  2.6996  0.3615
 5206SOL     OW27076   2.774   2.670   7.399  0.1166 -0.0407 -0.5073
 5206SOL    HW127077   2.721   2.597   7.430  0.0539  0.5674  0.8000
 5206SOL    HW227078   2.716   2.709   7.334  2.0224  0.0422 -2.1545
 5207SOL     OW27079   0.898   1.272   6.745 -0.7315  0.4293 -0.0305
 5207SOL    HW127080   0.868   1.289   6.835 -1.1706  1.6003 -0.4048
 5207SOL    HW227081   0.978   1.325   6.744  0.0836 -0.8144 -0.2738
 5208SOL     OW27082   2.961   0.896   8.130 -0.0077  0.2430 -0.1376
 5208SOL    HW127083   2.931   0.961   8.067  0.4075 -0.4771 -1.0885
 5208SOL    HW227084   2.977   0.950   8.207 -0.8797 -3.0433  2.3864
 5209SOL     OW27085   3.887   0.286   2.553  0.5902 -0.0980 -0.6014
 5209SOL    HW127086   3.819   0.219   2.559 -0.2136  0.7837  0.0730
 5209SOL    HW227087   3.943   0.263   2.626  1.9157  0.6416 -1.3865
 5210SOL     OW27088   0.866   3.476   4.293 -0.3465  0.0351 -0.5050
 5210SOL    HW127089   0.907   3.554   4.329 -1.7817 -1.0991  3.5875
 5210SOL    HW227090   0.793   3.514   4.245 -0.8490  1.1228  1.1306
 5211SOL     OW27091   3.292   3.137   8.533 -0.4110 -0.3913 -0.3540
 5211SOL    HW127092   3.255   3.207   8.479  1.9927  0.4483 -0.9436
 5211SOL    HW227093   3.247   3.055   8.513 -3.1368  1.3114 -1.1688
 5212SOL     OW27094   0.135   1.007  11.258  0.7204 -0.0551 -0.5148
 5212SOL    HW127095   0.048   1.045  11.269  0.1635 -0.8681 -2.0623
 5212SOL    HW227096   0.115   0.917  11.232 -1.4110  0.7863 -1.8259
 5213SOL     OW27097   0.338   0.803   4.140  0.6040 -0.1629 -0.6359
 5213SOL    HW127098   0.418   0.752   4.127  1.1180  0.5216 -0.2317
 5213SOL    HW227099   0.347   0.854   4.060  1.3655  0.0336 -0.4339
 5214SOL     OW27100   3.339   0.688   9.449 -0.0584  0.1184 -0.2360
 5214SOL    HW127101   3.382   0.644   9.523 -1.7920 -2.2832 -0.6678
 5214SOL    HW227102   3.416   0.677   9.393 -0.1867  0.2132 -0.4292
 5215SOL     OW27103   2.853   2.345   6.553  0.7055  0.6320  0.5235
 5215SOL    HW127104   2.773   2.363   6.503  1.4142  0.0436 -0.8108
 5215SOL    HW227105   2.810   2.330   6.638  0.4070  1.9579  0.6089
 5216SOL     OW27106   1.170   2.744   1.036 -0.0079 -0.2912 -0.2496
 5216SOL    HW127107   1.179   2.656   1.000  0.1612 -1.1047  1.8023
 5216SOL    HW227108   1.081   2.731   1.070  1.1024 -3.5020  1.4060
 5217SOL     OW27109   1.123   2.990   7.208  0.1390 -0.0785  0.2255
 5217SOL    HW127110   1.209   2.963   7.239 -0.0905 -1.7264 -0.5522
 5217SOL    HW227111   1.071   2.909   7.203 -1.0276  0.6396  0.7495
 5218SOL     OW27112   2.268   1.123   8.601 -0.8958 -0.6212 -0.2255
 5218SOL    HW127113   2.255   1.218   8.595  0.2676 -0.5047 -0.8677
 5218SOL    HW227114   2.335   1.113   8.534 -1.4132 -1.1812 -0.6530
 5219SOL     OW27115   1.592   4.697   7.606 -0.1846  0.3266 -0.8029
 5219SOL    HW127116   1.670   0.002   7.654 -0.4248 -0.3586 -0.0085
 5219SOL    HW227117   1.535   4.686   7.682 -1.2490  0.3556 -1.6121
 5220SOL     OW27118   4.333   0.032   9.564  0.6792 -0.1687 -0.0146
 5220SOL    HW127119   4.301   0.015   9.653 -1.0103 -0.1240 -0.6065
 5220SOL    HW227120   4.314   4.672   9.522  1.4522 -1.5082  2.3250
 5221SOL     OW27121   3.057   3.452  13.257  0.6067  0.0361 -0.1327
 5221SOL    HW127122   3.057   3.530  13.202 -0.9353  0.8276  0.9839
 5221SOL    HW227123   3.111   3.387  13.212 -0.6708 -0.0941 -1.4624
 5222SOL     OW27124   3.212   4.554  16.873  0.1259 -0.6729 -0.4467
 5222SOL    HW127125   3.260   4.544  16.955  1.5899  2.1785 -0.9314
 5222SOL    HW227126   3.128   4.518  16.899 -0.7699  1.1582 -0.8060
 5223SOL     OW27127   4.592   1.942   7.179  0.5036 -0.0608 -0.0932
 5223SOL    HW127128   4.594   1.852   7.211  2.4574  0.6969  1.9786
 5223SOL    HW227129   4.682   1.968   7.199 -0.7781  1.9572  3.1258
 5224SOL     OW27130   3.330   2.590  16.572 -0.3424 -0.1695 -0.2854
 5224SOL    HW127131   3.403   2.547  16.527  0.2937 -0.2440  0.8240
 5224SOL    HW227132   3.258   2.578  16.510 -1.8541  3.4653  0.7441
 5225SOL     OW27133   1.384   3.117   8.092 -0.4425  0.4044  0.2287
 5225SOL    HW127134   1.291   3.101   8.082 -0.5013  0.8307  0.1004
 5225SOL    HW227135   1.424   3.044   8.045 -3.6568  0.1306 -2.0535
 5226SOL     OW27136   1.619   4.561   1.991 -0.1768 -0.4084  0.0176
 5226SOL    HW127137   1.536   4.556   1.944 -1.2107 -1.4103  1.9794
 5226SOL    HW227138   1.630   4.654   1.974  1.5058 -0.8332 -1.3483
 5227SOL     OW27139   2.646   0.644  17.091 -0.3088  0.0866 -0.6752
 5227SOL    HW127140   2.613   0.657  17.180 -0.5263 -4.1059 -0.1344
 5227SOL    HW227141   2.736   0.625  17.115 -0.1128  0.8795 -0.7885
 5228SOL     OW27142   0.061   1.027   8.686 -0.1361  0.3061  0.6495
 5228SOL    HW127143   0.033   1.109   8.727  0.1034  0.3992  0.6281
 5228SOL    HW227144   0.009   0.962   8.732 -0.4502 -1.9546 -2.9417
 5229SOL     OW27145   1.562   4.642   8.307 -0.0264  0.1688  0.2697
 5229SOL    HW127146   1.483   4.683   8.271 -0.7513 -0.1942  1.4551
 5229SOL    HW227147   1.559   4.676   8.396 -0.2141 -1.6463  0.9641
 5230SOL     OW27148   1.287   2.589   9.540  0.2259  0.4915  0.6638
 5230SOL    HW127149   1.373   2.580   9.499 -0.7993  0.1306 -1.3755
 5230SOL    HW227150   1.290   2.675   9.583  1.9696  0.7897 -0.0497
 5231SOL     OW27151   3.079   0.646   5.941  0.2958  0.0214  0.1189
 5231SOL    HW127152   3.036   0.570   5.902 -1.5741  2.1168 -1.9086
 5231SOL    HW227153   3.012   0.694   5.990 -0.6666 -0.9298 -0.2752
 5232SOL     OW27154   0.585   2.085   8.434  0.4802 -0.5603  0.4070
 5232SOL    HW127155   0.496   2.051   8.435 -0.4525  1.8299 -2.0031
 5232SOL    HW227156   0.606   2.127   8.518 -1.6121  1.3962 -0.0593
 5233SOL     OW27157   4.547   4.637   5.808 -0.5943 -0.3849 -0.6069
 5233SOL    HW127158   4.640   4.660   5.801  0.0042 -1.4990  3.5347
 5233SOL    HW227159   4.537   4.618   5.901 -0.2215  0.3210 -0.4158
 5234SOL     OW27160   4.104   1.593  13.345 -0.0076  0.5859  0.3693
 5234SOL    HW127161   4.137   1.659  13.284 -0.1021 -0.3173 -0.6616
 5234SOL    HW227162   4.014   1.584  13.312  0.3970  1.3430 -0.9362
 5235SOL     OW27163   0.343   4.329   3.182 -0.4674  0.3168  0.5187
 5235SOL    HW127164   0.343   4.372   3.097  0.0104 -1.1937 -0.2362
 5235SOL    HW227165   0.258   4.285   3.179  0.0857 -0.8446  1.9490
 5236SOL     OW27166   1.775   0.766   2.509 -0.0744  0.8469  0.5920
 5236SOL    HW127167   1.707   0.822   2.471 -0.6569  0.1324  0.5700
 5236SOL    HW227168   1.772   0.792   2.601  0.3881 -0.4688  0.9809
 5237SOL     OW27169   0.618   0.335   8.450 -0.7652  0.6804 -0.5014
 5237SOL    HW127170   0.660   0.411   8.491  2.0862 -0.6995 -0.8748
 5237SOL    HW227171   0.570   0.310   8.529 -3.0742 -0.0650 -2.1491
 5238SOL     OW27172   0.109   4.427  16.778  0.2621  0.0583  0.0529
 5238SOL    HW127173   0.079   4.474  16.855  0.5216 -0.8936  0.7285
 5238SOL    HW227174   0.056   4.457  16.704  1.5580  1.4219 -0.3499
 5239SOL     OW27175   1.083   1.833   3.904  0.8723  0.3466  0.1134
 5239SOL    HW127176   1.092   1.746   3.943  0.1416 -0.6200 -1.8845
 5239SOL    HW227177   1.176   1.838   3.881  0.9065  0.2847  0.2387
 5240SOL     OW27178   3.977   3.157   6.645  0.5831 -0.0648 -0.0335
 5240SOL    HW127179   3.933   3.243   6.651 -0.9358 -1.0119  2.5113
 5240SOL    HW227180   4.070   3.178   6.639  0.6776 -0.7046 -0.8662
 5241SOL     OW27181   2.430   2.025   7.008 -0.1872  0.6262  0.6111
 5241SOL    HW127182   2.515   2.006   7.047 -0.2848  0.3448  0.6919
 5241SOL    HW227183   2.410   2.099   7.066 -0.4310  0.5153  0.6715
 5242SOL     OW27184   3.353   2.617   4.689  0.3045 -0.1641  0.7828
 5242SOL    HW127185   3.404   2.592   4.766 -1.7661 -0.8151  1.9538
 5242SOL    HW227186   3.268   2.642   4.727  0.9299  0.6916  1.6166
 5243SOL     OW27187   4.065   4.620   6.668  0.7524  0.6896 -0.4473
 5243SOL    HW127188   4.155   4.641   6.693 -0.1882  1.1628  2.5504
 5243SOL    HW227189   4.076   4.565   6.590  1.5740  0.0412  0.1143
 5244SOL     OW27190   0.982   1.764   5.048  0.7752 -0.5482  0.6585
 5244SOL    HW127191   0.937   1.847   5.065 -0.9039 -1.3231  0.0322
 5244SOL    HW227192   1.013   1.774   4.958  0.1315 -3.9446  0.0620
 5245SOL     OW27193   4.638   0.950   7.098  0.3343  0.2472  0.0133
 5245SOL    HW127194   4.661   0.923   7.009  0.3361 -1.6919  0.6093
 5245SOL    HW227195   4.720   0.990   7.124 -0.0610  3.5601 -3.8046
 5246SOL     OW27196   0.812   2.179  14.430 -0.1371  0.3782 -0.2365
 5246SOL    HW127197   0.856   2.246  14.483 -0.4351  2.1325 -2.1983
 5246SOL    HW227198   0.865   2.194  14.352  2.1422  1.5810  1.5194
 5247SOL     OW27199   2.869   1.809  10.270 -0.1840 -0.3869  0.4126
 5247SOL    HW127200   2.923   1.782  10.345  0.3625  3.8597  1.5206
 5247SOL    HW227201   2.919   1.885  10.241 -1.6909  0.4190 -0.0020
 5248SOL     OW27202   2.853   0.482  17.550 -0.3268  0.4794 -0.2744
 5248SOL    HW127203   2.764   0.448  17.540  0.2402 -0.6644 -1.2859
 5248SOL    HW227204   2.899   0.400  17.568  0.3277  1.2318  1.5133
 5249SOL     OW27205   2.725   0.371   3.536 -0.4963  0.4039 -0.2022
 5249SOL    HW127206   2.637   0.345   3.509 -0.9609  0.7625  0.9693
 5249SOL    HW227207   2.773   0.295   3.501 -1.8338 -0.7561  0.5098
 5250SOL     OW27208   0.179   3.640  16.004  0.5485 -0.0700 -0.3539
 5250SOL    HW127209   0.112   3.684  16.055 -1.1356 -0.7400 -2.0004
 5250SOL    HW227210   0.127   3.575  15.957  1.1255 -1.5357  1.0461
 5251SOL     OW27211   4.265   0.339   4.063 -0.8543  0.7012  0.0481
 5251SOL    HW127212   4.321   0.283   4.010 -1.5107  0.2067 -0.1289
 5251SOL    HW227213   4.181   0.338   4.016 -0.4790  1.0389 -0.6247
 5252SOL     OW27214   1.583   1.478  17.303 -0.6520 -0.1349  0.3295
 5252SOL    HW127215   1.516   1.447  17.242  2.6729  0.2974 -3.5874
 5252SOL    HW227216   1.583   1.405  17.365  2.3670 -0.4077  0.0380
 5253SOL     OW27217   2.413   0.714   4.692  0.4450 -0.5405 -0.5708
 5253SOL    HW127218   2.378   0.631   4.660  1.0277 -0.4919 -1.3222
 5253SOL    HW227219   2.423   0.693   4.785  1.3098 -0.1873 -0.5779
 5254SOL     OW27220   3.839   4.258  14.053 -0.4730 -0.0487  0.0228
 5254SOL    HW127221   3.773   4.324  14.074 -0.0996  0.7260 -1.1804
 5254SOL    HW227222   3.830   4.189  14.118  0.8394 -1.8483 -1.7065
 5255SOL     OW27223   1.713   0.490   3.633 -0.4898 -0.1266 -0.5074
 5255SOL    HW127224   1.676   0.578   3.627 -0.4695  0.1225  2.8309
 5255SOL    HW227225   1.804   0.511   3.616 -0.6104  2.3596  1.9721
 5256SOL     OW27226   1.220   3.099  11.250 -0.4343  0.1015  0.1822
 5256SOL    HW127227   1.312   3.083  11.227 -0.8027 -3.5455  1.1993
 5256SOL    HW227228   1.240   3.126  11.339 -0.5895  0.2017  0.1871
 5257SOL     OW27229   0.395   2.585  13.702  0.0984  0.1965  0.3117
 5257SOL    HW127230   0.453   2.515  13.732 -1.3687 -1.8037 -1.4646
 5257SOL    HW227231   0.397   2.639  13.781 -0.3742  0.1066  0.3864
 5258SOL     OW27232   1.261   1.543  15.897 -1.3126  0.2750  0.4413
 5258SOL    HW127233   1.258   1.462  15.845 -1.8165  0.5984 -0.0385
 5258SOL    HW227234   1.200   1.527  15.968 -0.6903 -1.2076  0.6515
 5259SOL     OW27235   1.378   3.370   7.087  0.2918  0.0175  0.2744
 5259SOL    HW127236   1.302   3.401   7.037 -0.9597 -3.3185  0.0683
 5259SOL    HW227237   1.397   3.292   7.035  1.3816  0.5197 -0.0654
 5260SOL     OW27238   4.521   0.039   8.210  0.3791 -0.4357 -0.4252
 5260SOL    HW127239   4.476   0.044   8.295  3.2038 -2.0089  1.1652
 5260SOL    HW227240   4.571   0.121   8.204  0.2791 -0.3724 -0.4012
 5261SOL     OW27241   2.373   0.310   0.681  0.2983  0.8043 -0.6132
 5261SOL    HW127242   2.390   0.361   0.602  0.0150 -0.1349 -1.2918
 5261SOL    HW227243   2.405   0.221   0.667  0.5602  1.4372 -4.0302
 5262SOL     OW27244   3.044   1.767   8.269 -0.0771  0.4519  0.5538
 5262SOL    HW127245   3.038   1.675   8.296 -0.7987  0.5374  0.6941
 5262SOL    HW227246   3.094   1.800   8.343  1.6209  0.4424 -0.5996
 5263SOL     OW27247   0.972   3.279   3.325 -0.0188  0.8794 -0.2045
 5263SOL    HW127248   0.916   3.353   3.348 -0.6653 -0.0027  1.0231
 5263SOL    HW227249   1.036   3.285   3.397 -1.0201 -2.7806  0.9999
 5264SOL     OW27250   0.419   2.606   3.532  0.6524  0.2622  0.0935
 5264SOL    HW127251   0.377   2.556   3.462 -1.1152 -1.1718  2.1765
 5264SOL    HW227252   0.396   2.693   3.497  0.8534  1.6886  3.5146
 5265SOL     OW27253   1.968   1.341   2.390 -0.2297 -0.2066  0.0799
 5265SOL    HW127254   2.043   1.281   2.383 -1.5639 -1.7879 -0.5247
 5265SOL    HW227255   1.923   1.298   2.463  0.4192  0.0409  0.6260
 5266SOL     OW27256   2.731   4.159   4.291 -0.3898 -0.2342  0.7220
 5266SOL    HW127257   2.752   4.227   4.355 -2.1377  1.6753 -0.7126
 5266SOL    HW227258   2.640   4.135   4.311 -0.4978 -2.3194 -2.2071
 5267SOL     OW27259   1.652   2.774   0.813  0.3595 -0.5399  0.1493
 5267SOL    HW127260   1.733   2.724   0.820  0.4714 -0.1073  1.9618
 5267SOL    HW227261   1.596   2.732   0.878  1.2293  0.9788  1.8924
 5268SOL     OW27262   4.234   0.812   5.741  0.2279 -0.2669  0.1554
 5268SOL    HW127263   4.270   0.768   5.664 -3.6916 -0.8484 -1.3681
 5268SOL    HW227264   4.167   0.867   5.699 -0.3898  0.7165  2.4186
 5269SOL     OW27265   0.065   0.772   3.680 -0.2263 -0.1959 -0.4514
 5269SOL    HW127266   0.038   0.682   3.663 -1.7743 -0.0911  1.5063
 5269SOL    HW227267   0.153   0.750   3.711 -1.2422 -1.2563  1.6911
 5270SOL     OW27268   0.204   3.973   5.026 -0.2492  0.6662  0.3883
 5270SOL    HW127269   0.112   3.976   5.001 -0.0525  1.7019 -0.2065
 5270SOL    HW227270   0.192   4.001   5.117 -1.7176 -1.2679  0.7866
 5271SOL     OW27271   0.751   0.483   4.798  0.1551  0.4822 -0.2440
 5271SOL    HW127272   0.671   0.437   4.772 -0.1885 -0.0199  1.6704
 5271SOL    HW227273   0.783   0.415   4.858 -1.7725 -1.0767 -0.9842
 5272SOL     OW27274   4.193   1.127  16.915  0.7703 -0.2473  0.2490
 5272SOL    HW127275   4.250   1.083  16.978  1.6810  1.8848  0.9490
 5272SOL    HW227276   4.123   1.065  16.896 -1.6965  2.1856  1.3801
 5273SOL     OW27277   2.230   2.297   4.281  0.3196  0.1817  0.2825
 5273SOL    HW127278   2.196   2.207   4.290  0.2946  0.2746  1.1059
 5273SOL    HW227279   2.149   2.343   4.260  1.2726  1.4409 -0.6255
 5274SOL     OW27280   1.495   0.165  16.205 -0.3513 -0.4374  0.5204
 5274SOL    HW127281   1.452   0.248  16.224  0.8078  0.8246 -2.3575
 5274SOL    HW227282   1.427   0.107  16.239 -1.3798  0.7076  0.4046
 5275SOL     OW27283   3.813   1.075   2.799 -0.1318 -0.0813 -0.6012
 5275SOL    HW127284   3.781   1.165   2.800  1.2462  0.3879  2.7601
 5275SOL    HW227285   3.897   1.085   2.755  0.2879 -1.1798 -0.0522
 5276SOL     OW27286   2.311   0.698   5.544 -0.2511 -0.0163 -0.0681
 5276SOL    HW127287   2.298   0.634   5.474 -2.2484  0.5501 -0.2295
 5276SOL    HW227288   2.401   0.692   5.574 -0.5929  0.5030  1.0582
 5277SOL     OW27289   0.129   4.448   2.795 -0.4707 -0.2155 -0.0625
 5277SOL    HW127290   0.110   4.536   2.764  0.1702 -0.5150 -1.3223
 5277SOL    HW227291   0.134   4.399   2.713  0.0148 -1.2741  0.5959
 5278SOL     OW27292   3.634   0.246   6.342  0.1844 -0.6303 -0.0588
 5278SOL    HW127293   3.673   0.184   6.281  0.8194  0.5116 -0.8049
 5278SOL    HW227294   3.651   0.209   6.429 -1.6626  0.3729  0.7362
 5279SOL     OW27295   0.803   3.418   2.416  0.0804 -0.2090  0.2825
 5279SOL    HW127296   0.754   3.343   2.382  0.0896  0.5278 -1.3481
 5279SOL    HW227297   0.741   3.441   2.486 -0.3364  2.3251 -0.9184
 5280SOL     OW27298   3.702   0.069   2.968  0.4121  0.0862  0.3953
 5280SOL    HW127299   3.644   0.044   2.896  0.7482  1.8617 -0.4855
 5280SOL    HW227300   3.733   4.703   2.976  1.3161  0.4153  0.5486
 5281SOL     OW27301   0.093   4.058   7.023 -0.2728  0.3411 -0.0039
 5281SOL    HW127302   0.090   4.105   6.939 -0.4997  0.9363  0.3316
 5281SOL    HW227303   0.019   3.998   7.033 -0.8646  0.8840 -1.1175
 5282SOL     OW27304   0.912   2.053   3.844  0.4250 -0.0935  0.4994
 5282SOL    HW127305   0.970   1.981   3.866 -1.0895 -1.5548 -0.2805
 5282SOL    HW227306   0.836   2.040   3.901 -0.0077  0.6037  0.0949
 5283SOL     OW27307   1.157   0.700  17.462 -0.0757 -0.1580 -0.1342
 5283SOL    HW127308   1.131   0.789  17.486  1.0319  0.1296  0.0209
 5283SOL    HW227309   1.230   0.720  17.403 -1.4541 -1.1911 -2.1906
 5284SOL     OW27310   4.441   4.100   2.436 -0.1115  0.1432 -0.0507
 5284SOL    HW127311   4.420   4.191   2.414  0.9295 -0.0616 -1.8779
 5284SOL    HW227312   4.389   4.085   2.515  0.7165 -1.2972  0.2101
 5285SOL     OW27313   0.558   2.017   2.929 -0.7556 -0.7220  0.7242
 5285SOL    HW127314   0.615   2.018   3.006 -0.1729  1.1979  0.2667
 5285SOL    HW227315   0.485   1.962   2.959 -1.1005 -0.5638  0.1749
 5286SOL     OW27316   1.108   2.807   6.603  0.2438 -0.2958 -0.4816
 5286SOL    HW127317   1.171   2.804   6.531 -0.4859 -1.4771 -1.0791
 5286SOL    HW227318   1.132   2.731   6.656 -0.4115 -1.4442 -1.8173
 5287SOL     OW27319   4.237   2.944  13.749  0.6471 -0.2515  0.3250
 5287SOL    HW127320   4.213   2.891  13.673 -1.8373 -0.6252  1.3757
 5287SOL    HW227321   4.176   2.909  13.814  1.5196 -0.9026  0.7932
 5288SOL     OW27322   1.960   1.776  10.746  0.1976 -0.0654 -0.1108
 5288SOL    HW127323   1.913   1.793  10.665  2.1380 -1.1592 -1.4771
 5288SOL    HW227324   2.015   1.854  10.748  2.5255 -1.6907 -0.8987
 5289SOL     OW27325   4.600   2.520   5.056  0.0406  0.2091  0.1138
 5289SOL    HW127326   4.574   2.491   4.968 -0.8992  1.6192 -0.0757
 5289SOL    HW227327   4.625   2.608   5.027  1.3485 -0.0389  0.4995
 5290SOL     OW27328   0.571   3.724   5.293  0.1153 -0.7766 -0.3839
 5290SOL    HW127329   0.578   3.795   5.356  2.9980 -0.3894 -1.1420
 5290SOL    HW227330   0.476   3.710   5.296  0.2772 -1.5079  1.1482
 5291SOL     OW27331   2.750   4.006   5.956  0.0178 -0.0561 -0.1213
 5291SOL    HW127332   2.835   4.011   5.912  0.3885  0.3900  0.6488
 5291SOL    HW227333   2.715   3.937   5.900  0.0895  1.4010 -2.0002
 5292SOL     OW27334   1.242   4.454  13.312 -0.3819  0.2202  0.1938
 5292SOL    HW127335   1.260   4.360  13.318  0.7845  0.4235 -0.0850
 5292SOL    HW227336   1.226   4.462  13.218  1.2128  0.3437 -0.0719
 5293SOL     OW27337   4.655   2.020   9.538  0.0130 -0.7461 -0.7159
 5293SOL    HW127338   0.006   2.079   9.550  0.0098 -0.8461 -0.1852
 5293SOL    HW227339   4.684   1.930   9.551 -0.1696 -0.7342 -0.2271
 5294SOL     OW27340   2.208   3.766  11.400 -0.1529 -0.2671  0.1230
 5294SOL    HW127341   2.174   3.759  11.489 -1.9463 -0.4087 -0.5713
 5294SOL    HW227342   2.182   3.678  11.374  1.7557 -0.5133 -1.0012
 5295SOL     OW27343   1.026   1.053  15.865  0.0579  0.2246 -0.1829
 5295SOL    HW127344   0.932   1.035  15.859 -0.0603  0.7109  0.2118
 5295SOL    HW227345   1.029   1.148  15.875 -0.9066  0.0839  1.4781
 5296SOL     OW27346   4.715   4.452  10.945  0.3360  0.2191 -0.1204
 5296SOL    HW127347   0.014   4.501  11.024  1.3964 -2.2538  1.1164
 5296SOL    HW227348   0.010   4.360  10.965  0.7134 -0.1867 -2.3075
 5297SOL     OW27349   4.721   0.352  17.300 -0.4010  0.0774  0.4411
 5297SOL    HW127350   4.708   0.340  17.394 -1.5805 -0.2769  0.2395
 5297SOL    HW227351   4.659   0.289  17.263 -0.2084 -1.3605  2.5948
 5298SOL     OW27352   3.507   2.147   0.672 -0.0567  0.5468 -0.2134
 5298SOL    HW127353   3.498   2.138   0.577  0.3079  0.0332 -0.1961
 5298SOL    HW227354   3.419   2.138   0.707 -0.5361  0.9200 -1.3324
 5299SOL     OW27355   2.597   0.122   7.505  0.1525 -0.4361  0.5812
 5299SOL    HW127356   2.535   0.102   7.576  0.6942 -0.7973  0.9541
 5299SOL    HW227357   2.654   0.045   7.506  2.1429  1.0072 -1.5981
 5300SOL     OW27358   4.002   0.743   6.214 -0.4255  0.3685  0.1072
 5300SOL    HW127359   4.024   0.783   6.298  0.2507  2.7830 -1.2274
 5300SOL    HW227360   4.056   0.796   6.156  0.4950  0.5200  1.1073
 5301SOL     OW27361   1.170   1.363   2.671  0.2383  0.6927  0.3195
 5301SOL    HW127362   1.138   1.349   2.760 -1.0863 -0.0025 -0.2742
 5301SOL    HW227363   1.129   1.290   2.625 -0.2635  2.0566 -1.3623
 5302SOL     OW27364   0.717   2.328  11.324 -0.7285  0.2760  0.0470
 5302SOL    HW127365   0.695   2.246  11.368 -1.4273  0.7266  0.5443
 5302SOL    HW227366   0.731   2.384  11.401  2.5818 -0.5602  0.0495
 5303SOL     OW27367   3.756   1.512   3.991 -0.2696  0.3005 -0.2094
 5303SOL    HW127368   3.730   1.598   4.023 -1.2208  0.1609 -0.6151
 5303SOL    HW227369   3.684   1.481   3.936  1.1697 -2.4347 -0.5286
 5304SOL     OW27370   3.038   2.511  11.497 -0.6894  0.0006 -0.6728
 5304SOL    HW127371   2.968   2.574  11.477 -1.3522 -0.2084  1.0159
 5304SOL    HW227372   2.994   2.434  11.460 -0.8338 -0.3616  0.2488
 5305SOL     OW27373   3.468   4.708   9.836 -0.0188 -0.5925  0.3601
 5305SOL    HW127374   3.382   4.698   9.877  0.5217 -0.8844  1.4400
 5305SOL    HW227375   3.521   4.683   9.912  0.1810  2.5680  1.2435
 5306SOL     OW27376   2.991   0.025   7.971 -0.0715  0.1972 -0.1483
 5306SOL    HW127377   3.074   4.709   7.998  0.4779  0.2809 -1.7352
 5306SOL    HW227378   2.983   0.102   8.027 -1.6599  0.3348 -0.5859
 5307SOL     OW27379   1.704   3.608   4.543 -0.2218  0.0870  0.2286
 5307SOL    HW127380   1.609   3.602   4.557 -0.2949 -3.2992 -1.6918
 5307SOL    HW227381   1.710   3.672   4.472 -0.0624 -1.9859 -1.6549
 5308SOL     OW27382   4.613   0.004   9.553 -0.1267  0.4375 -0.1418
 5308SOL    HW127383   4.523   0.006   9.585  0.0489  1.0453  0.3136
 5308SOL    HW227384   4.658   4.700   9.633  1.9902 -0.7109 -1.7267
 5309SOL     OW27385   2.363   1.299   4.756 -0.1326  0.6020  0.7920
 5309SOL    HW127386   2.414   1.354   4.696 -1.9769  1.2264 -0.2132
 5309SOL    HW227387   2.434   1.264   4.810  0.3251  1.2402  0.6013
 5310SOL     OW27388   0.735   0.838   5.534 -0.2198 -0.5470 -0.0628
 5310SOL    HW127389   0.771   0.765   5.483 -1.2540 -1.7550  0.9677
 5310SOL    HW227390   0.659   0.802   5.579 -0.7999 -0.7834 -1.2230
 5311SOL     OW27391   3.488   1.832   1.547 -0.3241  0.3138 -0.1319
 5311SOL    HW127392   3.533   1.802   1.468 -2.6636 -2.8762 -0.2454
 5311SOL    HW227393   3.559   1.840   1.610  0.4441  1.7734 -1.1699
 5312SOL     OW27394   2.792   0.502   6.521 -0.7181 -0.4601 -0.2292
 5312SOL    HW127395   2.857   0.556   6.566 -2.1023  0.4598  0.6861
 5312SOL    HW227396   2.711   0.534   6.561  0.2110  0.0288  1.2762
 5313SOL     OW27397   4.320   4.569   5.649 -0.3780 -0.4811 -0.6793
 5313SOL    HW127398   4.331   4.625   5.572 -0.2359 -0.2371 -0.4782
 5313SOL    HW227399   4.400   4.574   5.701 -0.7758  1.9066 -0.3095
 5314SOL     OW27400   0.986   1.278  16.476 -0.3363  0.5114 -0.3766
 5314SOL    HW127401   0.997   1.199  16.528 -0.8767  0.2356 -0.6861
 5314SOL    HW227402   1.045   1.346  16.509 -0.8113 -0.1713  1.8661
 5315SOL     OW27403   4.325   3.338   6.820  0.3440  0.0354 -0.1396
 5315SOL    HW127404   4.271   3.284   6.878  1.5954 -1.0843 -0.0250
 5315SOL    HW227405   4.257   3.357   6.756  0.8119  0.2504 -0.5745
 5316SOL     OW27406   2.509   2.747  12.292  0.0337 -0.0358 -0.3462
 5316SOL    HW127407   2.511   2.828  12.342  0.6639  0.7147 -1.5995
 5316SOL    HW227408   2.603   2.730  12.289 -0.1118 -1.4447  2.7369
 5317SOL     OW27409   4.552   4.661   4.156 -0.3744  0.1569  0.5322
 5317SOL    HW127410   4.476   4.604   4.144 -0.3189  0.8136 -3.1558
 5317SOL    HW227411   4.598   4.642   4.074  0.2797 -1.1903  1.2137
 5318SOL     OW27412   1.914   2.270  15.641  0.3209 -0.5171  0.6955
 5318SOL    HW127413   1.887   2.351  15.596 -1.9436 -1.6120  0.0524
 5318SOL    HW227414   1.938   2.285  15.732 -1.2655  0.2703  0.9881
 5319SOL     OW27415   0.908   3.655   9.028  0.1314  0.0676 -0.0962
 5319SOL    HW127416   0.928   3.562   9.041 -2.9357 -0.6473 -0.4999
 5319SOL    HW227417   0.830   3.662   9.083 -0.6309 -0.1145 -1.1410
 5320SOL     OW27418   1.608   0.646   7.091 -0.3160  0.1632  0.4934
 5320SOL    HW127419   1.595   0.569   7.147 -1.3027 -0.4269 -0.5537
 5320SOL    HW227420   1.597   0.716   7.155 -0.3217 -0.6534  1.3935
 5321SOL     OW27421   4.002   4.098   8.369 -0.0821  0.7725 -0.8468
 5321SOL    HW127422   3.942   4.116   8.441  0.0863 -1.4107 -0.1557
 5321SOL    HW227423   4.053   4.179   8.359  0.0787  0.6394 -1.1124
 5322SOL     OW27424   2.038   0.137   2.814  0.1717 -0.4307  0.0858
 5322SOL    HW127425   2.093   0.059   2.801  1.3715  0.1787  1.6217
 5322SOL    HW227426   2.093   0.190   2.757  0.1885 -0.0409  0.4707
 5323SOL     OW27427   0.733   3.804   5.060  0.5732  0.2045 -0.6521
 5323SOL    HW127428   0.660   3.757   5.100  0.2294  1.6890  0.4710
 5323SOL    HW227429   0.709   3.890   5.096  2.1919  0.0872  0.7000
 5324SOL     OW27430   3.574   1.577   3.598 -0.3858 -0.6713  0.6506
 5324SOL    HW127431   3.582   1.523   3.677 -1.2195 -0.9721  0.5294
 5324SOL    HW227432   3.563   1.662   3.641  1.9981 -0.4074  0.7184
 5325SOL     OW27433   0.854   1.752   0.581 -0.3059  0.1862 -0.4623
 5325SOL    HW127434   0.920   1.695   0.621 -1.3183 -1.5435 -1.2360
 5325SOL    HW227435   0.783   1.688   0.573  0.1111  0.0402 -3.0070
 5326SOL     OW27436   2.028   2.736   2.467  0.2899  0.4487 -0.5425
 5326SOL    HW127437   2.091   2.674   2.504  0.5664  0.3560 -1.1804
 5326SOL    HW227438   2.052   2.726   2.375  0.4821  0.1528 -0.4616
 5327SOL     OW27439   4.437   2.182   7.029  0.1899 -0.5213  0.0026
 5327SOL    HW127440   4.403   2.105   7.075  0.2082 -0.1805  0.5717
 5327SOL    HW227441   4.378   2.174   6.954 -1.9096  2.0260  1.4350
 5328SOL     OW27442   0.726   3.450  10.540 -0.0775  0.1681 -0.7677
 5328SOL    HW127443   0.754   3.358  10.541  0.4590  0.3425  2.3598
 5328SOL    HW227444   0.631   3.450  10.550  0.0836 -0.4085  0.8485
 5329SOL     OW27445   2.588   0.843   5.096 -0.0369  0.8198  1.1386
 5329SOL    HW127446   2.537   0.797   5.162  0.1655  1.0142  1.4336
 5329SOL    HW227447   2.675   0.832   5.135 -0.5099  0.3098  2.0668
 5330SOL     OW27448   3.812   1.671   2.334  0.1853  0.1366  0.4220
 5330SOL    HW127449   3.780   1.673   2.243 -0.1319  2.3163  0.5663
 5330SOL    HW227450   3.885   1.610   2.329  0.2652  0.0462  2.6501
 5331SOL     OW27451   2.572   4.308   2.162 -0.2879 -0.4084 -0.4198
 5331SOL    HW127452   2.592   4.319   2.069  1.3132  2.2560  0.2442
 5331SOL    HW227453   2.476   4.305   2.159 -0.3169 -0.4755  0.5768
 5332SOL     OW27454   3.631   2.142   7.965 -0.8088  0.2853 -0.0662
 5332SOL    HW127455   3.674   2.062   7.994 -1.3887  0.2287  0.6633
 5332SOL    HW227456   3.660   2.140   7.874  0.3734 -0.3444  0.3393
 5333SOL     OW27457   2.513   4.682  11.500 -0.4276 -0.0858 -0.6599
 5333SOL    HW127458   2.475   4.606  11.456  0.9837  0.0480 -2.1109
 5333SOL    HW227459   2.600   4.643  11.508  0.9774  3.6615  2.3750
 5334SOL     OW27460   2.148   1.675   9.751 -0.0631 -0.6439  0.2946
 5334SOL    HW127461   2.059   1.655   9.721  0.5342 -1.5155 -0.9130
 5334SOL    HW227462   2.130   1.757   9.796  0.6265 -0.3250 -0.0031
 5335SOL     OW27463   4.182   4.494   7.053  0.0667 -0.2144 -0.3785
 5335SOL    HW127464   4.111   4.545   7.093  1.2210 -0.0444  1.4562
 5335SOL    HW227465   4.160   4.416   7.104 -1.3930  1.2275  1.2466
 5336SOL     OW27466   2.603   0.197   6.628  0.1047 -0.3038 -0.0373
 5336SOL    HW127467   2.661   0.204   6.703 -0.6958  1.7477  0.4022
 5336SOL    HW227468   2.669   0.208   6.559  0.8384  2.3077  1.0753
 5337SOL     OW27469   1.238   1.579  16.323  0.1379  0.2260  0.5059
 5337SOL    HW127470   1.295   1.641  16.369  2.3461  0.1066 -2.0581
 5337SOL    HW227471   1.215   1.528  16.401 -0.9019 -0.1111 -0.0224
 5338SOL     OW27472   2.869   2.424   3.079  0.1355 -0.6425  0.4513
 5338SOL    HW127473   2.852   2.496   3.141  0.8500  0.1392 -0.2548
 5338SOL    HW227474   2.941   2.473   3.038  0.1958 -1.2507 -0.1652
 5339SOL     OW27475   0.694   4.432  12.635 -0.5538 -0.0935  0.5261
 5339SOL    HW127476   0.668   4.379  12.560 -1.2878 -2.0983  2.2071
 5339SOL    HW227477   0.660   4.395  12.717 -2.1935  0.8298  0.2495
 5340SOL     OW27478   0.187   1.662   6.199  0.0268 -0.2483  0.3646
 5340SOL    HW127479   0.229   1.748   6.194  2.6144 -1.5000  0.5407
 5340SOL    HW227480   0.263   1.605   6.191  1.1726  1.3085  0.2013
 5341SOL     OW27481   1.709   1.939   0.135  0.0647  0.5142  0.2014
 5341SOL    HW127482   1.653   1.978   0.067 -0.5999 -0.1286  0.3810
 5341SOL    HW227483   1.738   2.026   0.163 -2.0586  1.0384  0.7493
 5342SOL     OW27484   1.499   1.220   6.641  0.2055 -0.1798  0.6644
 5342SOL    HW127485   1.545   1.167   6.577  0.1874 -1.1214  1.4309
 5342SOL    HW227486   1.415   1.180   6.661  0.2050 -0.1297  0.7626
 5343SOL     OW27487   2.639   2.051  12.342 -0.0314 -0.0439  0.0535
 5343SOL    HW127488   2.654   2.114  12.413 -0.5765 -0.1513  0.2644
 5343SOL    HW227489   2.694   2.087  12.273 -0.5144 -1.4850 -1.0769
 5344SOL     OW27490   3.977   3.717   5.846  1.0229 -0.1878  0.4123
 5344SOL    HW127491   3.906   3.772   5.811 -0.3624 -2.9101 -1.0213
 5344SOL    HW227492   4.003   3.764   5.926 -0.0027 -0.6049  0.9906
 5345SOL     OW27493   0.471   1.422  16.280 -0.1005 -0.4953  0.2262
 5345SOL    HW127494   0.524   1.375  16.343  1.1533 -0.8133 -1.0621
 5345SOL    HW227495   0.462   1.363  16.205 -3.6552 -1.7786  1.6672
 5346SOL     OW27496   2.147   1.909  10.112 -0.5479 -0.3321  0.1943
 5346SOL    HW127497   2.117   1.821  10.135  0.6755 -1.3617 -2.0643
 5346SOL    HW227498   2.109   1.907  10.024 -1.5843  1.1736  0.6236
 5347SOL     OW27499   0.201   1.871   6.656 -0.2397 -0.1235 -0.0628
 5347SOL    HW127500   0.199   1.958   6.696  1.9172  0.1912 -0.6285
 5347SOL    HW227501   0.254   1.884   6.577  1.8697 -0.4383  1.3042
 5348SOL     OW27502   2.535   0.009  13.114 -0.4330 -0.3188 -0.3769
 5348SOL    HW127503   2.483   0.076  13.158  0.2048 -0.3252  0.3745
 5348SOL    HW227504   2.624   0.039  13.131 -1.5534  2.1547  1.0315
 5349SOL     OW27505   1.097   2.293  17.672 -0.9764  0.0386 -0.2473
 5349SOL    HW127506   1.056   2.243   0.047  0.1316  1.1530  1.1540
 5349SOL    HW227507   1.181   2.251  17.689 -0.3184  0.8965 -1.3920
 5350SOL     OW27508   0.303   3.769   7.059  0.3367  0.3826 -0.1648
 5350SOL    HW127509   0.301   3.705   7.130  1.8967  0.0645 -0.3955
 5350SOL    HW227510   0.210   3.788   7.063  0.2953  0.0428  0.6047
 5351SOL     OW27511   3.078   1.368   5.827 -0.0208  0.0644  0.5706
 5351SOL    HW127512   3.048   1.395   5.740  0.5734 -0.0573  0.3260
 5351SOL    HW227513   3.118   1.451   5.853  1.0818 -0.4064  0.3664
 5352SOL     OW27514   1.200   3.625   0.064 -0.6395  0.0977  0.5488
 5352SOL    HW127515   1.189   3.546   0.117  0.1503  0.3626  1.1069
 5352SOL    HW227516   1.132   3.680   0.103 -1.1129  0.3309 -0.5966
 5353SOL     OW27517   2.073   3.698   4.627 -0.6155  0.3528 -0.2375
 5353SOL    HW127518   2.050   3.631   4.563  0.5395 -0.6770  0.4312
 5353SOL    HW227519   1.992   3.748   4.623 -0.5529  0.5033  0.3027
 5354SOL     OW27520   3.262   4.413  10.813  0.1083  0.2575  0.7446
 5354SOL    HW127521   3.329   4.476  10.839  0.7659 -0.2801  0.3729
 5354SOL    HW227522   3.289   4.356  10.886  1.6724  0.2746  0.1876
 5355SOL     OW27523   3.671   1.048   0.320 -0.2394 -0.2639 -0.5056
 5355SOL    HW127524   3.589   1.018   0.361 -0.1451 -0.0184 -0.1413
 5355SOL    HW227525   3.639   1.072   0.233 -0.0175  2.2286  0.1052
 5356SOL     OW27526   1.679   1.788   2.798  0.4138  0.5940  0.2330
 5356SOL    HW127527   1.755   1.755   2.846 -2.0889 -2.3229  2.2075
 5356SOL    HW227528   1.641   1.707   2.764  1.1787  0.3064  0.0508
 5357SOL     OW27529   4.414   2.687   4.140 -0.1443  0.3870 -0.7762
 5357SOL    HW127530   4.366   2.613   4.103 -2.2171  1.7598 -0.8252
 5357SOL    HW227531   4.447   2.728   4.060  0.6447  1.1226 -0.0711
 5358SOL     OW27532   3.941   2.747   2.793 -0.5989  0.0647  0.2495
 5358SOL    HW127533   4.014   2.808   2.781  1.4631 -2.8424 -1.9071
 5358SOL    HW227534   3.888   2.790   2.860 -1.7453 -0.8881 -0.0485
 5359SOL     OW27535   1.333   2.700   8.888  0.5968 -0.3116 -0.4237
 5359SOL    HW127536   1.408   2.673   8.941  2.2609  2.8162 -1.1408
 5359SOL    HW227537   1.311   2.775   8.944  0.2909  0.9676 -2.2393
 5360SOL     OW27538   1.896   1.661   3.909  0.5303 -0.3088 -0.2618
 5360SOL    HW127539   1.847   1.720   3.852 -0.5777 -0.1614  0.8428
 5360SOL    HW227540   1.906   1.713   3.989 -2.1626 -0.6096  0.2629
 5361SOL     OW27541   0.344   1.637   8.730  0.2313 -0.0660  0.2104
 5361SOL    HW127542   0.370   1.580   8.658 -1.1948 -0.0907 -0.2770
 5361SOL    HW227543   0.424   1.628   8.783  1.5355 -1.9077 -2.0780
 5362SOL     OW27544   0.372   4.523   7.072 -0.5551 -0.4200  0.5953
 5362SOL    HW127545   0.333   4.498   7.156  1.5926  1.4050  2.1435
 5362SOL    HW227546   0.458   4.550   7.103 -0.4716 -0.8771  0.7664
 5363SOL     OW27547   1.630   1.793   2.084  0.1178 -0.1053  0.6310
 5363SOL    HW127548   1.581   1.862   2.040 -0.3219 -1.2171 -0.6390
 5363SOL    HW227549   1.699   1.844   2.127  1.3447 -0.9471 -0.3543
 5364SOL     OW27550   2.272   0.472   4.635  0.1954 -0.1289  0.3828
 5364SOL    HW127551   2.254   0.480   4.729 -0.5631  1.1433  0.1290
 5364SOL    HW227552   2.209   0.403   4.616  1.0196 -0.2309 -1.9318
 5365SOL     OW27553   0.505   1.235   2.711  0.2588 -0.0996 -0.1216
 5365SOL    HW127554   0.431   1.274   2.758 -0.4031  0.7011 -1.8507
 5365SOL    HW227555   0.543   1.173   2.774  0.1118  0.0834  0.1500
 5366SOL     OW27556   2.040   3.921   0.777  0.6958 -0.1580 -0.0128
 5366SOL    HW127557   2.075   3.842   0.734  0.6083 -0.2197  0.0288
 5366SOL    HW227558   2.004   3.965   0.700  3.3407  0.3413 -0.9616
 5367SOL     OW27559   3.056   2.002  12.319  0.0326  0.0583  0.4139
 5367SOL    HW127560   3.017   1.974  12.236 -1.0219 -1.2243  1.3456
 5367SOL    HW227561   3.052   1.922  12.370  0.5408 -0.9321 -1.1037
 5368SOL     OW27562   2.002   1.036   7.886 -0.6123  0.4547 -0.1606
 5368SOL    HW127563   1.941   0.994   7.826 -0.7238  0.7121 -0.2231
 5368SOL    HW227564   1.969   1.005   7.971  0.1857 -0.0355 -0.0183
 5369SOL     OW27565   3.877   2.619   2.576  0.3895  0.1323  0.6937
 5369SOL    HW127566   3.877   2.648   2.668 -2.2367  0.5103  0.5742
 5369SOL    HW227567   3.853   2.527   2.584  3.0703 -0.7319 -1.2058
 5370SOL     OW27568   1.745   2.197   2.024 -0.5571 -0.7983 -0.3158
 5370SOL    HW127569   1.740   2.180   2.118  0.1296  0.4184 -0.0713
 5370SOL    HW227570   1.832   2.237   2.028 -0.6194 -0.5816 -1.1385
 5371SOL     OW27571   3.710   3.024  11.859 -0.0755 -0.9610 -0.0431
 5371SOL    HW127572   3.644   2.972  11.906  0.2102 -0.8097  0.5147
 5371SOL    HW227573   3.772   2.951  11.855 -0.8004 -1.6478  1.2000
 5372SOL     OW27574   1.769   0.544   3.042  0.1844  0.2310 -0.2142
 5372SOL    HW127575   1.742   0.523   3.131 -0.5622  2.2731  0.0488
 5372SOL    HW227576   1.799   0.462   3.002 -0.1615 -0.1039  0.2171
 5373SOL     OW27577   1.007   0.795   2.222  0.0268 -0.0442 -0.2392
 5373SOL    HW127578   1.031   0.729   2.158 -0.0914 -0.3510  0.0360
 5373SOL    HW227579   0.912   0.794   2.207  0.4685 -1.4890 -2.8067
 5374SOL     OW27580   0.222   2.783   4.581 -0.2777  0.6716  0.3643
 5374SOL    HW127581   0.144   2.779   4.526 -1.2321  0.8934  1.7130
 5374SOL    HW227582   0.202   2.871   4.613 -0.4178  0.8673 -0.2568
 5375SOL     OW27583   1.114   0.560   5.773 -0.0671 -0.3329  0.4010
 5375SOL    HW127584   1.151   0.527   5.691  2.0566  0.9564  0.8377
 5375SOL    HW227585   1.189   0.538   5.828  0.7994  0.7553 -0.3602
 5376SOL     OW27586   2.788   4.037   3.235 -0.0784 -0.1008 -0.4019
 5376SOL    HW127587   2.781   3.943   3.254 -1.3168 -0.0802 -0.7859
 5376SOL    HW227588   2.725   4.075   3.295 -2.0532 -1.5188 -1.5794
 5377SOL     OW27589   0.527   1.203   5.664  0.7817 -0.6537  0.2841
 5377SOL    HW127590   0.592   1.169   5.603  0.4219  1.1729 -1.0964
 5377SOL    HW227591   0.559   1.291   5.680  1.6679 -0.5263 -2.2736
 5378SOL     OW27592   0.144   1.035   9.003  0.3400 -0.7122  0.2296
 5378SOL    HW127593   0.104   0.949   9.017  0.6050 -1.0380 -0.9951
 5378SOL    HW227594   0.134   1.081   9.086  2.3307  0.1584 -0.0008
 5379SOL     OW27595   3.426   0.670   3.745  0.0600  0.2724  0.2151
 5379SOL    HW127596   3.466   0.757   3.744 -2.1575  1.2883 -0.0533
 5379SOL    HW227597   3.494   0.632   3.800 -0.8470 -0.7591  0.6422
 5380SOL     OW27598   2.068   0.342   1.030  0.0476  0.2042  0.3062
 5380SOL    HW127599   1.999   0.391   0.984  1.3819  0.1837 -1.7183
 5380SOL    HW227600   2.064   0.376   1.119  1.3733 -0.3699  0.5852
 5381SOL     OW27601   2.854   2.568   1.181 -0.1017  0.1738  0.6591
 5381SOL    HW127602   2.776   2.582   1.127  1.0926 -0.5862 -1.2696
 5381SOL    HW227603   2.917   2.534   1.117  1.1981  0.5862  1.7216
 5382SOL     OW27604   3.438   0.110  16.122 -0.0255 -0.0926 -0.0005
 5382SOL    HW127605   3.426   0.023  16.160 -0.1426 -1.3748 -2.9244
 5382SOL    HW227606   3.521   0.139  16.160  0.2833  0.1067 -0.8245
 5383SOL     OW27607   3.190   3.049  12.882 -0.7251  0.0992 -0.4565
 5383SOL    HW127608   3.241   2.992  12.939  0.3678  0.7339 -0.8019
 5383SOL    HW227609   3.215   3.017  12.796  2.2476 -1.6418  1.0745
 5384SOL     OW27610   4.127   3.349   7.683  0.5650  0.2238  0.1433
 5384SOL    HW127611   4.091   3.429   7.721  1.4259 -0.2826  2.0030
 5384SOL    HW227612   4.061   3.316   7.622  0.3292  0.2152  0.4025
 5385SOL     OW27613   1.306   4.513   6.702 -0.0865  0.8963  0.5574
 5385SOL    HW127614   1.358   4.561   6.767  1.6889 -1.4720  0.9131
 5385SOL    HW227615   1.331   4.424   6.727 -1.0837 -0.0444 -1.7728
 5386SOL     OW27616   2.682   1.988   3.973  0.2120 -0.4505  0.0947
 5386SOL    HW127617   2.685   1.926   3.900  4.0298 -0.3978  0.1708
 5386SOL    HW227618   2.709   1.932   4.047 -0.2839 -1.1526 -0.2565
 5387SOL     OW27619   4.137   0.550   9.146 -0.4147 -0.2380  0.1368
 5387SOL    HW127620   4.158   0.477   9.204  1.8702 -0.0504 -0.4442
 5387SOL    HW227621   4.046   0.525   9.127 -0.3988  1.0653 -1.6577
 5388SOL     OW27622   4.361   0.031   8.937 -0.0595 -0.1383  0.0928
 5388SOL    HW127623   4.355   0.053   9.030 -3.5012  1.7359 -0.6089
 5388SOL    HW227624   4.453   0.003   8.935 -0.4702 -1.5136 -0.1753
 5389SOL     OW27625   2.396   3.430   7.060 -0.0214  0.5385 -0.0417
 5389SOL    HW127626   2.389   3.393   7.148 -0.3392  2.3075  0.6750
 5389SOL    HW227627   2.422   3.521   7.076 -0.8056  1.0254 -1.5188
 5390SOL     OW27628   3.860   0.022   1.892  0.8511 -0.5734 -0.5634
 5390SOL    HW127629   3.873   4.650   1.896  1.3985 -0.5153 -1.0410
 5390SOL    HW227630   3.899   0.050   1.810  0.8802 -0.0637 -0.3771
 5391SOL     OW27631   2.629   1.065  10.094  0.4683  0.4004  0.2165
 5391SOL    HW127632   2.647   1.159  10.090 -2.0238  0.8770  0.3569
 5391SOL    HW227633   2.709   1.028  10.056 -0.6844 -0.4181 -1.3901
 5392SOL     OW27634   0.141   3.627   4.330  0.1654  0.5172 -0.1947
 5392SOL    HW127635   0.137   3.554   4.391  0.4051  0.7433  0.0923
 5392SOL    HW227636   0.210   3.601   4.268  1.0774  1.9185  0.2305
 5393SOL     OW27637   4.679   1.828   1.520  0.4166  0.5406  0.5153
 5393SOL    HW127638   4.691   1.780   1.602 -0.7149  2.3279  1.7374
 5393SOL    HW227639   4.630   1.760   1.473 -1.5695  0.9644  1.9820
 5394SOL     OW27640   0.886   0.593   7.794  0.3715  0.2355  0.3160
 5394SOL    HW127641   0.973   0.554   7.806 -0.8066 -2.2924  0.5884
 5394SOL    HW227642   0.895   0.628   7.705 -0.0228 -1.5862 -0.4290
 5395SOL     OW27643   3.615   3.982   9.001 -0.2715 -0.3614 -0.1980
 5395SOL    HW127644   3.654   4.054   9.051  0.9257 -2.3553  1.7497
 5395SOL    HW227645   3.697   3.960   8.956 -0.2306 -1.1612  0.2836
 5396SOL     OW27646   2.877   2.342   6.015 -0.0594 -0.1678  0.0544
 5396SOL    HW127647   2.858   2.263   6.066  1.2930 -0.0300  0.7598
 5396SOL    HW227648   2.844   2.312   5.930  1.8455  0.7813 -1.0063
 5397SOL     OW27649   4.229   3.918   3.144 -0.1389  0.2661  0.4571
 5397SOL    HW127650   4.168   3.982   3.108 -1.7646 -1.1485  0.6929
 5397SOL    HW227651   4.170   3.854   3.183 -0.8759  0.1601 -0.8245
 5398SOL     OW27652   4.511   2.289   0.858 -0.0951 -0.2475 -0.0370
 5398SOL    HW127653   4.476   2.304   0.946 -0.6166  3.5086 -0.8664
 5398SOL    HW227654   4.562   2.369   0.840 -2.7827  1.2377 -0.9915
 5399SOL     OW27655   1.045   1.895   2.326 -0.4960 -0.8171  0.0119
 5399SOL    HW127656   1.075   1.905   2.236  0.6220 -0.9980  0.3685
 5399SOL    HW227657   1.004   1.977   2.353 -0.2881 -0.5589 -0.4679
 5400SOL     OW27658   3.991   4.261   4.704 -0.6160  0.1348 -0.0844
 5400SOL    HW127659   4.072   4.259   4.653 -1.5571 -0.5078 -1.5805
 5400SOL    HW227660   3.944   4.195   4.653 -2.1781 -0.5763  2.2600
 5401SOL     OW27661   2.468   1.591   2.242  0.4959 -0.0106  0.0464
 5401SOL    HW127662   2.404   1.527   2.272  1.2909 -0.9814 -0.3249
 5401SOL    HW227663   2.409   1.665   2.257 -2.0261 -1.5374 -2.4181
 5402SOL     OW27664   4.111   3.382  14.236 -0.5354  0.0475  0.4536
 5402SOL    HW127665   4.144   3.336  14.312 -0.2606 -0.0994  0.2440
 5402SOL    HW227666   4.068   3.313  14.186 -0.7298 -0.9406  1.9855
 5403SOL     OW27667   3.129   0.321  12.460 -0.3126 -0.1842  0.6606
 5403SOL    HW127668   3.155   0.269  12.385  1.8342  0.2206  1.1268
 5403SOL    HW227669   3.199   0.385  12.444  0.3009 -1.1736 -0.5374
 5404SOL     OW27670   0.999   1.958   1.806  0.3885  0.5948  0.6642
 5404SOL    HW127671   1.004   2.044   1.764 -0.7593  1.1611  1.6866
 5404SOL    HW227672   1.049   1.908   1.742 -0.4948 -1.1397  1.3291
 5405SOL     OW27673   0.141   2.333   1.751  0.0868 -0.1860 -0.3787
 5405SOL    HW127674   0.072   2.266   1.752 -0.2059  0.1155 -0.1523
 5405SOL    HW227675   0.101   2.407   1.706 -0.3475  0.4409  1.0185
 5406SOL     OW27676   3.862   4.172   9.049  0.0494  0.0167  0.3472
 5406SOL    HW127677   3.869   4.265   9.069  0.7094 -0.3757  1.9051
 5406SOL    HW227678   3.947   4.159   9.008 -0.6311  2.0107 -1.6891
 5407SOL     OW27679   3.004   4.080   6.557  0.2827  0.1640  0.1313
 5407SOL    HW127680   2.987   4.013   6.491 -2.0512  0.4102  0.4745
 5407SOL    HW227681   2.929   4.140   6.554 -1.3000 -1.8391 -0.1372
 5408SOL     OW27682   1.626   2.957   0.608 -0.4372  0.1947 -0.1914
 5408SOL    HW127683   1.539   2.995   0.620 -0.1064 -0.0579  2.8521
 5408SOL    HW227684   1.618   2.878   0.661 -0.0976  0.1344 -0.2299
 5409SOL     OW27685   1.023   3.143   6.867  0.1691 -0.1994  0.3509
 5409SOL    HW127686   0.969   3.142   6.946  0.1291  1.2978  0.3410
 5409SOL    HW227687   1.055   3.053   6.872  0.4531 -0.0692  0.8337
 5410SOL     OW27688   4.654   3.280  14.966  0.5482  0.0023  0.2814
 5410SOL    HW127689   4.657   3.184  14.964 -1.3863 -0.0445 -0.0787
 5410SOL    HW227690   4.715   3.299  14.895 -0.7967  1.4527 -0.4592
 5411SOL     OW27691   0.710   1.830   7.326 -0.2175 -0.1022 -0.0476
 5411SOL    HW127692   0.722   1.855   7.234 -1.0128  1.5086  0.2801
 5411SOL    HW227693   0.627   1.875   7.345 -0.8862 -1.2909 -0.1725
 5412SOL     OW27694   3.369   2.430   2.197 -0.0292 -0.4484 -0.1345
 5412SOL    HW127695   3.305   2.379   2.147 -0.0263 -0.6511  0.0672
 5412SOL    HW227696   3.363   2.390   2.284 -2.9279  0.8940  0.2840
 5413SOL     OW27697   1.200   1.811   6.874 -0.2016  0.9609 -0.3729
 5413SOL    HW127698   1.225   1.873   6.942 -0.9238  0.2586  0.5365
 5413SOL    HW227699   1.243   1.730   6.901 -1.6684  0.5721  0.7974
 5414SOL     OW27700   1.564   3.760  13.969  0.3105 -0.0006 -0.0053
 5414SOL    HW127701   1.536   3.806  14.048  1.9614  0.8690  0.0862
 5414SOL    HW227702   1.496   3.791  13.909  0.1299  1.0858  0.7489
 5415SOL     OW27703   1.400   3.618   2.526  0.1621 -0.4927  0.3760
 5415SOL    HW127704   1.477   3.663   2.493  0.5356 -1.4134 -0.0279
 5415SOL    HW227705   1.358   3.673   2.593 -0.9670  2.1944 -2.5541
 5416SOL     OW27706   0.643   3.656  11.289 -0.2859 -0.0048  0.2818
 5416SOL    HW127707   0.712   3.619  11.233 -1.2929  0.5163 -1.2926
 5416SOL    HW227708   0.646   3.748  11.264  0.8233  0.0548  0.6408
 5417SOL     OW27709   2.903   0.995   3.310 -0.0685  0.3686 -0.0522
 5417SOL    HW127710   2.943   1.082   3.313  0.6542  0.0074  0.9934
 5417SOL    HW227711   2.835   1.008   3.245  0.0788 -3.3069 -0.8976
 5418SOL     OW27712   0.363   3.295   1.962  0.4176 -0.1268 -0.2358
 5418SOL    HW127713   0.384   3.340   2.045 -0.7535 -1.1170  0.6040
 5418SOL    HW227714   0.267   3.290   1.966  0.4338 -0.3261 -0.1271
 5419SOL     OW27715   0.840   1.674   4.755  0.1917  0.0109  0.1469
 5419SOL    HW127716   0.903   1.701   4.688  0.4257  2.5566  1.3869
 5419SOL    HW227717   0.897   1.610   4.799  0.6904 -0.6685 -1.4849
 5420SOL     OW27718   2.237   1.554   3.233  0.2781  0.3225  0.0623
 5420SOL    HW127719   2.310   1.495   3.214 -0.9234 -0.4879 -2.0031
 5420SOL    HW227720   2.202   1.514   3.313  0.6702  0.1725  0.1571
 5421SOL     OW27721   2.936   3.273   3.259  0.0064  0.1110 -0.3473
 5421SOL    HW127722   2.912   3.366   3.260 -1.8061 -0.3650  0.1262
 5421SOL    HW227723   3.001   3.291   3.191  1.5705 -1.4694  0.7383
 5422SOL     OW27724   4.397   1.762   9.707  0.1422 -0.1529  0.3340
 5422SOL    HW127725   4.425   1.854   9.707  2.2473 -0.8169  2.0370
 5422SOL    HW227726   4.383   1.756   9.612  0.6610  0.5443  0.2109
 5423SOL     OW27727   2.718   4.642  11.832  0.2412  0.0438 -0.0104
 5423SOL    HW127728   2.715   4.549  11.857 -2.6517 -0.1071 -0.8478
 5423SOL    HW227729   2.744   4.640  11.740 -0.0704 -1.4855 -0.0658
 5424SOL     OW27730   1.801   4.014  10.789 -0.3426  0.2189 -0.6201
 5424SOL    HW127731   1.867   4.068  10.833 -2.8480  2.5927  0.2310
 5424SOL    HW227732   1.728   4.075  10.782  0.6574  1.6175  1.1443
 5425SOL     OW27733   0.637   1.225   7.463 -0.1500  0.0614 -0.4387
 5425SOL    HW127734   0.685   1.291   7.514  0.2052  0.9816 -1.9926
 5425SOL    HW227735   0.695   1.219   7.387 -2.5094 -1.2312 -2.1261
 5426SOL     OW27736   1.470   0.846   5.405  0.0370  0.4989 -0.2575
 5426SOL    HW127737   1.533   0.878   5.469 -0.3186  1.9636 -0.6206
 5426SOL    HW227738   1.415   0.925   5.402 -0.2720  0.2412 -1.1791
 5427SOL     OW27739   1.063   2.394  13.417 -0.1122  0.0079 -0.1090
 5427SOL    HW127740   0.993   2.448  13.453 -0.2537 -0.8582  0.9050
 5427SOL    HW227741   1.049   2.309  13.458  0.7529  0.0436  0.2675
 5428SOL     OW27742   2.668   3.177  12.398 -0.6591 -0.1299 -0.1817
 5428SOL    HW127743   2.648   3.239  12.469  0.4447  0.0826 -0.0524
 5428SOL    HW227744   2.753   3.136  12.414 -0.9235 -0.5754  0.0854
 5429SOL     OW27745   2.921   1.908  12.097 -0.1916  0.3636 -0.3394
 5429SOL    HW127746   2.902   1.995  12.061 -4.1970 -0.0524  0.7844
 5429SOL    HW227747   2.839   1.861  12.085 -0.9939  1.6950 -0.0444
 5430SOL     OW27748   3.553   2.136   0.401  0.1108 -0.4786 -0.0634
 5430SOL    HW127749   3.578   2.157   0.311 -1.6659  0.3624 -0.3657
 5430SOL    HW227750   3.607   2.062   0.428  1.9836  1.3022  1.0626
 5431SOL     OW27751   1.490   0.699   5.759 -0.5361  0.0997  0.3566
 5431SOL    HW127752   1.424   0.719   5.693 -0.2457  0.6441  0.2315
 5431SOL    HW227753   1.563   0.666   5.707 -1.7184 -0.9369 -0.6432
 5432SOL     OW27754   1.531   4.700   6.130 -0.2276  0.1851  0.4106
 5432SOL    HW127755   1.575   0.018   6.204  0.8202  0.0478 -0.1372
 5432SOL    HW227756   1.516   4.610   6.157 -0.0896  0.2162  0.5890
 5433SOL     OW27757   4.415   0.171   8.435 -0.0649  0.1591  0.0045
 5433SOL    HW127758   4.485   0.232   8.459  0.0441  0.1076 -0.1860
 5433SOL    HW227759   4.431   0.116   8.511 -0.8839  0.3215  0.3011
 5434SOL     OW27760   4.697   2.778  14.544  0.3051 -0.5937 -0.0862
 5434SOL    HW127761   0.068   2.775  14.560  0.4541  0.8301 -0.7130
 5434SOL    HW227762   4.695   2.729  14.462 -2.1228 -0.4666 -0.1111
 5435SOL     OW27763   4.633   1.101   2.417 -0.0899 -0.2396 -0.1266
 5435SOL    HW127764   4.554   1.110   2.471  0.1965  0.7315  0.1308
 5435SOL    HW227765   4.649   1.195   2.406 -0.0518 -0.3324 -0.8423
 5436SOL     OW27766   2.694   0.167   4.868 -0.1465 -0.3559  0.4100
 5436SOL    HW127767   2.716   0.111   4.793  1.9775 -0.6174  1.2153
 5436SOL    HW227768   2.633   0.220   4.817  1.0379 -0.1147 -0.7723
 5437SOL     OW27769   0.293   4.387   6.573 -0.5501 -0.3123 -0.1440
 5437SOL    HW127770   0.253   4.474   6.572 -1.2544 -0.6595 -1.5358
 5437SOL    HW227771   0.378   4.421   6.601  0.3280 -1.6770 -1.1539
 5438SOL     OW27772   1.079   1.622  14.542  0.0531 -0.7017 -0.3799
 5438SOL    HW127773   1.145   1.678  14.500  0.4039 -0.2564  0.7605
 5438SOL    HW227774   0.999   1.669  14.518 -1.7579 -3.0011  1.1827
 5439SOL     OW27775   3.954   2.824  14.755  0.5471  0.1821 -0.3224
 5439SOL    HW127776   3.985   2.776  14.678 -0.9791 -0.6592 -0.4057
 5439SOL    HW227777   4.037   2.846  14.799  0.0138  0.8423  0.3382
 5440SOL     OW27778   0.063   0.838   7.460  0.3415  0.2005 -0.1963
 5440SOL    HW127779   0.150   0.811   7.431 -0.0503 -1.0633 -0.1898
 5440SOL    HW227780   0.010   0.758   7.456 -0.9982  1.0462  0.5455
 5441SOL     OW27781   1.880   3.172  16.079 -0.3281  0.3330 -0.3158
 5441SOL    HW127782   1.869   3.258  16.038 -3.0293  0.0989 -0.0351
 5441SOL    HW227783   1.879   3.191  16.173  0.6583 -1.0992 -0.0158
 5442SOL     OW27784   3.386   1.315   7.043  0.3392 -0.0651  0.1475
 5442SOL    HW127785   3.403   1.343   6.953  4.6469  0.3066  1.0456
 5442SOL    HW227786   3.342   1.391   7.080 -0.3462 -0.1693 -0.4608
 5443SOL     OW27787   1.261   3.431   6.658  0.4124 -0.6165  0.3541
 5443SOL    HW127788   1.291   3.475   6.737  1.1011  0.1078 -0.3049
 5443SOL    HW227789   1.179   3.388   6.680  0.7619 -1.6658 -0.3919
 5444SOL     OW27790   2.773   0.570   6.103 -0.2526 -0.0501  0.2902
 5444SOL    HW127791   2.712   0.632   6.142 -0.5960 -0.9166  1.1474
 5444SOL    HW227792   2.740   0.535   6.020 -1.7773 -0.0601  0.9007
 5445SOL     OW27793   2.046   1.713   7.676 -0.5690 -0.3643 -0.2872
 5445SOL    HW127794   2.052   1.806   7.698 -1.3990 -0.3340 -0.1637
 5445SOL    HW227795   1.983   1.675   7.737  0.3537 -0.5980  0.5121
 5446SOL     OW27796   0.801   1.792  14.870  0.0355 -0.2842 -0.2744
 5446SOL    HW127797   0.752   1.767  14.791 -0.3001 -1.4701  0.3154
 5446SOL    HW227798   0.891   1.770  14.845 -0.2231  0.4607 -1.8875
 5447SOL     OW27799   1.983   0.287  14.904 -0.1271 -0.1550 -0.1430
 5447SOL    HW127800   1.978   0.194  14.928  3.1989 -0.3571 -0.3360
 5447SOL    HW227801   2.014   0.281  14.813  1.9044  0.1160  0.5451
 5448SOL     OW27802   3.669   0.855   7.196  0.3879 -0.2347 -0.5443
 5448SOL    HW127803   3.646   0.948   7.193  0.5581 -0.2769 -3.2479
 5448SOL    HW227804   3.613   0.818   7.127  1.1909 -0.9285 -0.8208
 5449SOL     OW27805   1.270   3.881   4.758 -0.2188 -0.1639 -0.7946
 5449SOL    HW127806   1.194   3.924   4.720 -0.5881 -0.4138 -0.3347
 5449SOL    HW227807   1.253   3.787   4.747 -0.6667 -0.1283 -0.4015
 5450SOL     OW27808   0.389   1.856  16.219 -0.4960 -0.6552 -0.0794
 5450SOL    HW127809   0.324   1.805  16.268 -0.9171 -1.8058 -1.8473
 5450SOL    HW227810   0.473   1.812  16.231 -1.1921 -1.4234  2.0021
 5451SOL     OW27811   0.497   1.511   3.956 -0.3446  0.6050  0.3401
 5451SOL    HW127812   0.448   1.592   3.943  0.9531  1.2170 -0.7023
 5451SOL    HW227813   0.574   1.511   3.899  1.7823  1.6666  3.1616
 5452SOL     OW27814   4.211   1.052   9.230 -0.6002 -0.1928  0.3193
 5452SOL    HW127815   4.230   1.131   9.280 -0.2751 -0.6486  0.9262
 5452SOL    HW227816   4.167   1.089   9.155 -1.3614 -1.2498  0.2367
 5453SOL     OW27817   1.002   4.487   0.274 -0.1015 -0.0794 -0.2791
 5453SOL    HW127818   0.999   4.531   0.189 -2.9985  1.3932  0.5448
 5453SOL    HW227819   1.090   4.513   0.301  0.5219 -1.0974 -1.3193
 5454SOL     OW27820   0.404   1.920   7.425  0.6360 -0.3374  0.0055
 5454SOL    HW127821   0.419   1.872   7.507  1.3038  1.7402  1.1090
 5454SOL    HW227822   0.324   1.879   7.394 -0.5900  2.2092 -0.1763
 5455SOL     OW27823   3.565   0.591   2.997 -0.0486 -0.5814 -0.4161
 5455SOL    HW127824   3.472   0.572   2.981 -0.1987 -0.1069 -0.0922
 5455SOL    HW227825   3.601   0.504   3.015 -0.4151 -0.1454  2.3754
 5456SOL     OW27826   3.517   0.823  11.772  0.1757  0.7194  0.2510
 5456SOL    HW127827   3.478   0.897  11.726 -1.3843  0.2023  0.7374
 5456SOL    HW227828   3.545   0.863  11.855 -0.0668 -0.4271  0.8907
 5457SOL     OW27829   3.639   4.397   6.972 -0.5156 -0.2504  0.1015
 5457SOL    HW127830   3.590   4.471   7.008  1.0597  0.6466  0.4229
 5457SOL    HW227831   3.573   4.332   6.949 -1.0659 -0.4498  2.2234
 5458SOL     OW27832   4.437   3.452   5.861 -0.0360  0.0621  0.1886
 5458SOL    HW127833   4.413   3.388   5.927 -0.4693 -0.7437 -0.7634
 5458SOL    HW227834   4.483   3.512   5.921  0.0194  1.2556 -1.0679
 5459SOL     OW27835   2.890   2.905  16.187 -0.3004 -0.3348 -0.3083
 5459SOL    HW127836   2.896   2.851  16.265  1.6243  1.3238  0.6980
 5459SOL    HW227837   2.800   2.882  16.163  0.4968 -1.7974 -1.9226
 5460SOL     OW27838   0.496   4.155  15.139 -0.1591 -0.3089 -0.2121
 5460SOL    HW127839   0.417   4.102  15.152 -0.2116  0.6364  3.3163
 5460SOL    HW227840   0.533   4.123  15.057  1.4719  0.6732  0.1604
 5461SOL     OW27841   2.313   3.171   8.695 -0.1659 -0.3467  0.1535
 5461SOL    HW127842   2.268   3.230   8.756  0.6033 -1.2739  1.6258
 5461SOL    HW227843   2.356   3.110   8.756 -0.1319 -0.7241 -0.2439
 5462SOL     OW27844   0.868   1.633   0.172 -0.4559 -0.4015  0.6974
 5462SOL    HW127845   0.784   1.612   0.132 -0.2636  0.5767 -0.2267
 5462SOL    HW227846   0.835   1.702   0.229  1.5810  0.3919  0.9133
 5463SOL     OW27847   2.831   1.802   9.157  0.5411 -0.6075 -0.4293
 5463SOL    HW127848   2.838   1.876   9.097 -2.9084 -1.6796 -2.1555
 5463SOL    HW227849   2.739   1.795   9.184  0.2850  0.8882 -0.8706
 5464SOL     OW27850   2.031   1.319   7.857 -0.1765  0.5212 -0.4648
 5464SOL    HW127851   2.101   1.312   7.922  0.8384  1.7928 -1.4012
 5464SOL    HW227852   2.021   1.226   7.837  0.7229  0.4051 -0.3810
 5465SOL     OW27853   3.247   1.359  16.649 -0.4371  0.0850  0.3611
 5465SOL    HW127854   3.187   1.335  16.719  0.2133 -1.0296  0.5427
 5465SOL    HW227855   3.212   1.324  16.567  1.0707 -1.3173  0.2968
 5466SOL     OW27856   2.019   2.816   9.989 -0.3733 -0.3155  0.0892
 5466SOL    HW127857   2.039   2.864  10.069 -0.4416  0.6800 -0.4881
 5466SOL    HW227858   2.077   2.741   9.998  0.9215  0.5176 -1.1391
 5467SOL     OW27859   3.817   3.498   7.338  0.6596  0.1797  0.2746
 5467SOL    HW127860   3.889   3.560   7.350 -0.3646  1.4942 -0.4673
 5467SOL    HW227861   3.843   3.419   7.386 -2.3050 -1.3508 -0.6012
 5468SOL     OW27862   2.489   4.367   1.182 -0.2119 -0.3488  0.1985
 5468SOL    HW127863   2.465   4.404   1.266  1.0343 -0.2948  0.5264
 5468SOL    HW227864   2.572   4.408   1.156 -0.5435  0.5724  0.6095
 5469SOL     OW27865   1.918   3.149   1.944 -0.4300 -0.5869 -0.0269
 5469SOL    HW127866   1.940   3.065   1.986  1.0626  0.3247  1.0051
 5469SOL    HW227867   1.917   3.117   1.854 -0.2502 -2.7990  0.7502
 5470SOL     OW27868   1.014   1.783   9.929 -0.6083  0.0121 -0.5683
 5470SOL    HW127869   1.038   1.762  10.020 -2.6081  1.6870  0.3565
 5470SOL    HW227870   0.920   1.770   9.939 -0.8960  1.2029 -1.7952
 5471SOL     OW27871   3.361   3.374   5.336  0.0188  0.4999 -0.6047
 5471SOL    HW127872   3.343   3.287   5.300 -0.5436  0.9528 -1.4113
 5471SOL    HW227873   3.293   3.375   5.403 -2.2584  2.1983 -2.9450
 5472SOL     OW27874   2.174   3.044   9.266 -0.5357 -0.4451  0.3514
 5472SOL    HW127875   2.240   3.104   9.230 -1.6510  1.1216  0.9196
 5472SOL    HW227876   2.214   2.962   9.237  0.9766  0.3691  0.1112
 5473SOL     OW27877   1.637   1.981   4.556  0.2119  0.2455  0.4689
 5473SOL    HW127878   1.557   1.983   4.504 -0.7664 -1.3828  1.9253
 5473SOL    HW227879   1.612   2.051   4.616  0.8862  0.3396  0.6406
 5474SOL     OW27880   3.974   3.713   7.384  0.0749 -0.2316  0.8341
 5474SOL    HW127881   3.994   3.788   7.329 -1.1754 -0.7346 -0.3121
 5474SOL    HW227882   4.030   3.718   7.461  0.4392 -0.2534  0.5661
 5475SOL     OW27883   1.574   1.528  16.310  0.2482  0.3794 -0.5965
 5475SOL    HW127884   1.519   1.487  16.243 -0.5460 -2.3321  1.6911
 5475SOL    HW227885   1.529   1.613  16.313  1.8205  1.1706  0.8762
 5476SOL     OW27886   4.353   3.175   8.658  0.5847  0.1774 -0.3862
 5476SOL    HW127887   4.406   3.237   8.709  0.1730 -0.0700  0.3465
 5476SOL    HW227888   4.272   3.172   8.709  0.8062 -0.7719 -0.0875
 5477SOL     OW27889   3.514   0.496   6.615 -0.2467 -0.2210 -0.4123
 5477SOL    HW127890   3.505   0.469   6.706  0.0981  0.5399 -0.1512
 5477SOL    HW227891   3.604   0.528   6.621 -0.1596 -0.0532 -2.4828
 5478SOL     OW27892   1.884   2.847   0.543  0.1315 -0.1176  0.3723
 5478SOL    HW127893   1.791   2.869   0.548  0.4761  1.2392  0.7194
 5478SOL    HW227894   1.922   2.920   0.592 -1.2651  1.1258 -0.4087
 5479SOL     OW27895   4.471   4.564  14.691 -0.1884 -0.5113  0.0506
 5479SOL    HW127896   4.553   4.532  14.729  1.7395  0.8397 -2.9439
 5479SOL    HW227897   4.467   4.526  14.603 -0.2247 -0.2192 -0.0743
 5480SOL     OW27898   3.191   1.279   5.480 -0.3865  0.2994 -0.1396
 5480SOL    HW127899   3.194   1.353   5.419 -2.0111 -0.3188 -0.9936
 5480SOL    HW227900   3.098   1.285   5.502 -0.6177  1.0518 -1.3531
 5481SOL     OW27901   1.711   1.139   9.221 -0.5710 -0.0581  0.5998
 5481SOL    HW127902   1.765   1.061   9.232  0.5376  0.7335  0.8548
 5481SOL    HW227903   1.649   1.131   9.293 -0.7874 -1.5656  0.2421
 5482SOL     OW27904   0.301   2.356   5.796 -0.1634 -0.0336  0.1403
 5482SOL    HW127905   0.336   2.390   5.713 -0.3803 -1.2245 -0.4479
 5482SOL    HW227906   0.340   2.412   5.863  0.3370 -0.9713  0.6223
 5483SOL     OW27907   4.400   2.228   1.953 -0.7454  0.2350  0.1804
 5483SOL    HW127908   4.452   2.158   1.915  0.2110  0.6553  0.7240
 5483SOL    HW227909   4.344   2.244   1.877 -1.0925 -3.5266 -0.3618
 5484SOL     OW27910   1.745   4.332  14.865  0.2895 -0.5961 -0.3388
 5484SOL    HW127911   1.730   4.254  14.919  0.4180 -1.2847 -1.3087
 5484SOL    HW227912   1.704   4.397  14.923  2.9702  2.7126 -2.1728
 5485SOL     OW27913   1.750   3.770   3.310  0.1723 -0.0175  0.6915
 5485SOL    HW127914   1.741   3.727   3.226  0.1839  0.5183  0.4159
 5485SOL    HW227915   1.741   3.861   3.280 -0.1949 -1.3906 -3.3087
 5486SOL     OW27916   0.685   4.195   2.413  0.7525  0.1154  0.4748
 5486SOL    HW127917   0.747   4.202   2.340  1.5027  0.2805  1.1287
 5486SOL    HW227918   0.704   4.106   2.443  0.6817  0.0948  0.4567
 5487SOL     OW27919   0.519   0.091   5.678  0.0369  0.2624  0.5342
 5487SOL    HW127920   0.492   0.074   5.587  2.1151 -1.8310  0.2999
 5487SOL    HW227921   0.553   0.007   5.707 -0.9058 -0.4454 -0.4083
 5488SOL     OW27922   1.448   2.167   2.625  0.1387 -0.9837  0.1845
 5488SOL    HW127923   1.522   2.109   2.642 -1.0722 -2.6265 -0.1173
 5488SOL    HW227924   1.456   2.166   2.529  1.3273  0.0806  0.2638
 5489SOL     OW27925   0.247   0.576   5.434  0.3203 -0.2113 -0.4450
 5489SOL    HW127926   0.301   0.511   5.480 -0.3632 -1.1266 -0.9397
 5489SOL    HW227927   0.303   0.588   5.357  1.3639 -3.1076 -0.1643
 5490SOL     OW27928   4.530   4.680   1.814 -0.4132 -0.2512  0.1235
 5490SOL    HW127929   4.489   4.594   1.814 -0.7619 -0.0878 -1.3253
 5490SOL    HW227930   4.478   4.723   1.882  1.1171  1.0415  0.4825
 5491SOL     OW27931   2.293   1.775   2.252  0.2622  0.5278 -0.1581
 5491SOL    HW127932   2.302   1.869   2.237 -1.4793  0.7631  0.2693
 5491SOL    HW227933   2.280   1.744   2.162  1.9026  0.9384 -0.5300
 5492SOL     OW27934   4.425   3.005   8.458  0.1553  0.0643 -0.2946
 5492SOL    HW127935   4.379   3.067   8.515  0.5600 -1.0834  1.2989
 5492SOL    HW227936   4.511   3.025   8.496  0.7473 -1.9415 -0.5709
 5493SOL     OW27937   2.987   1.112   7.153 -0.1996  0.5796  0.4852
 5493SOL    HW127938   2.971   1.019   7.136 -1.7393  0.8739  0.3292
 5493SOL    HW227939   3.073   1.116   7.195 -0.0406  0.8457  0.1356
 5494SOL     OW27940   1.200   1.343   1.223  0.3456 -0.0946  0.3459
 5494SOL    HW127941   1.216   1.373   1.312 -2.2161 -0.0426  0.7968
 5494SOL    HW227942   1.262   1.270   1.230  1.4787  0.5187 -3.1363
 5495SOL     OW27943   3.317   2.738  13.904  0.1612 -0.0690  0.2713
 5495SOL    HW127944   3.266   2.786  13.970  0.0635 -0.4316  0.4593
 5495SOL    HW227945   3.324   2.650  13.941 -0.5081 -0.0268  0.5027
 5496SOL     OW27946   4.714   4.551   9.779  0.2382  0.4868 -0.3823
 5496SOL    HW127947   0.027   4.468   9.807 -0.0671  0.6750  0.5822
 5496SOL    HW227948   4.623   4.525   9.790  0.0270  0.8457 -1.3238
 5497SOL     OW27949   0.309   0.358   8.986 -0.0933 -0.5165  0.4931
 5497SOL    HW127950   0.322   0.272   9.026 -0.2566 -1.3650 -1.3195
 5497SOL    HW227951   0.303   0.416   9.062 -0.8689 -1.8759  1.4808
 5498SOL     OW27952   2.379   0.605   5.970 -0.0191 -0.4721  0.0982
 5498SOL    HW127953   2.310   0.574   6.029 -1.2133  2.1997  0.1085
 5498SOL    HW227954   2.375   0.534   5.905  1.6949  0.5809 -1.1680
 5499SOL     OW27955   0.411   1.207   3.356 -0.0750 -0.2028 -0.3141
 5499SOL    HW127956   0.454   1.244   3.434  0.0114 -0.0057 -0.4540
 5499SOL    HW227957   0.366   1.285   3.322 -0.0056  1.3346  3.0793
 5500SOL     OW27958   0.252   1.609  16.276  0.6177  0.0094  0.1219
 5500SOL    HW127959   0.228   1.596  16.184  2.0041  0.8676 -0.3708
 5500SOL    HW227960   0.331   1.562  16.300 -0.7794 -1.0212  2.6958
 5501SOL     OW27961   1.382   3.326   7.919 -0.0862 -1.0534 -0.5961
 5501SOL    HW127962   1.393   3.255   7.983  0.1140  2.0733  2.8175
 5501SOL    HW227963   1.308   3.376   7.954  1.0459  1.5438 -1.9043
 5502SOL     OW27964   0.738   1.319   7.741  0.3781  0.1547 -0.0659
 5502SOL    HW127965   0.649   1.285   7.728  0.2829  0.8336 -1.2795
 5502SOL    HW227966   0.742   1.321   7.836  0.0220 -1.7559 -0.0220
 5503SOL     OW27967   4.256   2.604   6.278 -0.1628 -0.0855 -0.5232
 5503SOL    HW127968   4.197   2.582   6.350  0.9388 -0.9757  0.1038
 5503SOL    HW227969   4.264   2.524   6.226 -1.0370 -0.4063 -0.1679
 5504SOL     OW27970   4.558   2.994   3.249 -0.1886 -0.0748  0.6466
 5504SOL    HW127971   4.647   2.975   3.219  0.9709  2.6619  2.3455
 5504SOL    HW227972   4.573   3.085   3.275 -4.8995  0.9094 -0.0051
 5505SOL     OW27973   0.371   2.650   9.610 -0.5791 -0.3966  0.0855
 5505SOL    HW127974   0.432   2.709   9.567 -0.0329 -1.0553 -0.0512
 5505SOL    HW227975   0.420   2.644   9.693 -0.9679  0.9271  0.4160
 5506SOL     OW27976   4.618   4.414   6.311  0.0478 -0.3850 -0.4298
 5506SOL    HW127977   4.583   4.433   6.398 -2.9444  0.4488 -1.8262
 5506SOL    HW227978   4.710   4.392   6.328  0.6255  1.7175 -0.7740
 5507SOL     OW27979   2.652   1.115  13.554  0.5532 -0.1134 -0.0888
 5507SOL    HW127980   2.639   1.057  13.629 -1.6810  0.6279  0.0924
 5507SOL    HW227981   2.566   1.114  13.512  0.5726  0.7404 -0.1334
 5508SOL     OW27982   3.293   1.783   4.180  0.0069  0.0579  0.2932
 5508SOL    HW127983   3.382   1.769   4.213  0.4006  2.5396  0.2761
 5508SOL    HW227984   3.250   1.701   4.203  1.2429 -0.0367  2.2887
 5509SOL     OW27985   0.803   4.159  12.892  0.1858 -0.0933 -0.3128
 5509SOL    HW127986   0.815   4.133  12.800 -0.4608 -0.7644 -0.2084
 5509SOL    HW227987   0.748   4.237  12.887  0.2897 -0.0716 -1.0825
 5510SOL     OW27988   1.755   3.187   8.462 -0.3199  0.1987 -0.1059
 5510SOL    HW127989   1.755   3.282   8.473  0.3886  0.3827 -1.6847
 5510SOL    HW227990   1.701   3.181   8.383 -1.0608 -1.2765  0.5020
 5511SOL     OW27991   3.706   2.176  12.068  0.2793 -0.7164 -0.2281
 5511SOL    HW127992   3.617   2.212  12.076 -0.5993 -2.6945 -0.9062
 5511SOL    HW227993   3.760   2.247  12.101 -1.8448  0.5814  0.4532
 5512SOL     OW27994   1.689   0.093   8.992  0.2007 -0.1471 -0.2240
 5512SOL    HW127995   1.602   0.055   8.975  0.8571 -1.8900  0.3467
 5512SOL    HW227996   1.682   0.184   8.963  0.3856 -0.7772 -2.1849
 5513SOL     OW27997   0.231   1.016  17.535  0.0345 -0.4042 -0.7100
 5513SOL    HW127998   0.162   0.991  17.473 -0.9486 -2.1215  1.0994
 5513SOL    HW227999   0.274   0.933  17.554  0.8374  0.3700  0.8328
 5514SOL     OW28000   3.353   0.334   2.800  0.1058 -0.1555  0.0094
 5514SOL    HW128001   3.380   0.246   2.827 -1.7660 -0.7183  0.0873
 5514SOL    HW228002   3.430   0.378   2.767  0.3969  0.5230  1.5924
 5515SOL     OW28003   1.310   3.646   8.193  0.3257 -0.1488  0.1717
 5515SOL    HW128004   1.399   3.641   8.158  0.4196 -3.5204  0.9135
 5515SOL    HW228005   1.264   3.607   8.118 -0.0213  0.2624  0.1711
 5516SOL     OW28006   1.594   3.254   6.839 -0.0064 -0.1673 -0.1166
 5516SOL    HW128007   1.510   3.220   6.868  0.6512 -0.7310  1.1455
 5516SOL    HW228008   1.575   3.347   6.845  0.6569 -0.1149  1.2774
 5517SOL     OW28009   1.826   3.108   5.015 -0.0110 -0.3454  0.0065
 5517SOL    HW128010   1.823   3.012   5.008 -0.0069 -0.2055 -1.8426
 5517SOL    HW228011   1.789   3.139   4.933  0.6997  0.3859 -0.0312
 5518SOL     OW28012   1.267   2.647   5.061 -0.0824  0.2961 -0.3546
 5518SOL    HW128013   1.179   2.635   5.095 -0.5034  0.8878 -1.2368
 5518SOL    HW228014   1.248   2.709   4.990 -1.2483 -0.5550 -0.7809
 5519SOL     OW28015   4.156   0.462   2.235  0.5929 -0.0497 -0.3286
 5519SOL    HW128016   4.072   0.423   2.261 -0.5172  0.1636 -3.6180
 5519SOL    HW228017   4.151   0.471   2.140 -0.4334  0.3445 -0.2396
 5520SOL     OW28018   2.199   2.248   8.545 -0.4229  0.5255 -0.0345
 5520SOL    HW128019   2.259   2.232   8.472 -0.8337  1.0173 -0.4835
 5520SOL    HW228020   2.201   2.342   8.563 -4.5813  1.2298 -3.0520
 5521SOL     OW28021   3.739   1.643   2.052 -0.3882 -0.7951  0.2618
 5521SOL    HW128022   3.833   1.631   2.046 -0.1081  1.0890  0.8748
 5521SOL    HW228023   3.723   1.568   1.993  2.0912 -0.6741 -0.5538
 5522SOL     OW28024   0.381   2.921   7.809  0.1444 -0.3172 -0.2036
 5522SOL    HW128025   0.337   2.837   7.816 -3.1215  1.4779  1.1296
 5522SOL    HW228026   0.467   2.897   7.775 -0.8197 -2.2425 -1.2770
 5523SOL     OW28027   0.642   3.443   7.076 -0.1937 -0.1787  0.1694
 5523SOL    HW128028   0.575   3.475   7.016  0.3192 -0.6974 -0.6854
 5523SOL    HW228029   0.593   3.382   7.132 -0.7897  0.8364  0.7515
 5524SOL     OW28030   2.215   4.084   5.282 -0.1058  0.5767  0.4327
 5524SOL    HW128031   2.301   4.125   5.283  0.5662 -0.9002  2.0024
 5524SOL    HW228032   2.205   4.066   5.375  0.2116 -0.4414  0.2695
 5525SOL     OW28033   4.231   2.258   7.659 -0.1797 -0.4537 -0.0130
 5525SOL    HW128034   4.148   2.214   7.679  1.2327 -1.9152  2.7774
 5525SOL    HW228035   4.209   2.351   7.664 -1.1883 -0.7034  0.1016
 5526SOL     OW28036   1.752   2.011   7.112  0.4126  0.1810 -1.1082
 5526SOL    HW128037   1.825   2.066   7.142  0.4697 -1.8530  2.4895
 5526SOL    HW228038   1.779   1.985   7.024  0.5112 -0.2781 -0.9405
 5527SOL     OW28039   1.602   1.601   2.370  0.3874  0.1977 -0.6144
 5527SOL    HW128040   1.592   1.694   2.390  1.4789 -0.5175  3.3318
 5527SOL    HW228041   1.554   1.585   2.289 -0.6389  0.4966 -0.0621
 5528SOL     OW28042   1.289   0.606  14.490  0.0974 -0.2283  0.1174
 5528SOL    HW128043   1.257   0.687  14.451 -0.5824 -0.7646 -0.4318
 5528SOL    HW228044   1.323   0.640  14.573 -1.7989 -1.2203  1.3039
 5529SOL     OW28045   0.808   0.580  12.789  0.0060 -0.3149  0.0888
 5529SOL    HW128046   0.817   0.516  12.860  1.8800  0.5796  0.6662
 5529SOL    HW228047   0.794   0.658  12.843 -1.8114  0.2797 -1.2382
 5530SOL     OW28048   4.102   3.928   3.772 -0.7418 -0.5161  0.0426
 5530SOL    HW128049   4.113   4.010   3.725 -2.0250  1.1581  2.6892
 5530SOL    HW228050   4.139   3.863   3.712  0.4704 -0.9749  1.2931
 5531SOL     OW28051   3.640   4.644   3.339 -0.4983 -0.9284  0.5602
 5531SOL    HW128052   3.580   4.579   3.374 -1.7974 -0.0084  0.0596
 5531SOL    HW228053   3.576   4.711   3.314  0.2251 -0.7673 -0.8974
 5532SOL     OW28054   0.296   1.104   1.750  0.7284  0.2369  0.4850
 5532SOL    HW128055   0.282   1.017   1.787  2.2557  1.4788  3.9669
 5532SOL    HW228056   0.376   1.097   1.698  1.9769  4.4084  1.8199
 5533SOL     OW28057   4.137   0.557   7.031 -0.3200  0.0143 -0.0954
 5533SOL    HW128058   4.115   0.499   6.958  2.5974 -1.4047  0.1868
 5533SOL    HW228059   4.050   0.579   7.064 -0.6799 -0.4776 -0.7154
 5534SOL     OW28060   2.185   1.202   4.935 -0.1123 -0.3905 -0.1351
 5534SOL    HW128061   2.124   1.275   4.925  0.0116 -0.3682 -0.7317
 5534SOL    HW228062   2.245   1.225   4.863  1.2247 -1.8091  0.5316
 5535SOL     OW28063   0.473   0.192   2.495  0.3585 -0.4840 -0.3691
 5535SOL    HW128064   0.523   0.127   2.545  1.2083 -0.1320 -0.7679
 5535SOL    HW228065   0.503   0.172   2.406  0.3768 -1.2690 -0.1854
 5536SOL     OW28066   3.502   0.785  11.459  0.4686 -0.0087  0.1076
 5536SOL    HW128067   3.419   0.799  11.506  0.2549 -1.1371  0.0615
 5536SOL    HW228068   3.502   0.863  11.404 -0.3832  2.5904  3.8107
 5537SOL     OW28069   1.904   1.022   6.022  0.1324  0.3861 -0.0949
 5537SOL    HW128070   1.954   1.099   5.997 -0.3266  1.6104  2.7617
 5537SOL    HW228071   1.815   1.056   6.027 -0.8039 -2.3041  1.9012
 5538SOL     OW28072   3.886   3.123   5.871  0.5176  0.1845 -0.5198
 5538SOL    HW128073   3.811   3.111   5.813  1.9573 -4.7402 -1.3096
 5538SOL    HW228074   3.925   3.039   5.897 -0.5277 -0.5870 -1.4646
 5539SOL     OW28075   1.945   3.948   5.571 -0.1316  0.2264 -0.2978
 5539SOL    HW128076   2.026   3.964   5.522 -0.3642 -0.5160 -0.9223
 5539SOL    HW228077   1.925   3.857   5.550 -1.5152  0.3415  0.4881
 5540SOL     OW28078   2.457   3.877   1.891  0.4204  0.3693 -0.5705
 5540SOL    HW128079   2.442   3.917   1.805 -0.0993 -2.7664 -1.9040
 5540SOL    HW228080   2.537   3.927   1.908 -0.7906  1.8115  0.8913
 5541SOL     OW28081   4.171   4.565  10.199  0.3933 -0.0804  0.2989
 5541SOL    HW128082   4.159   4.512  10.120 -0.1628 -0.2914  0.5250
 5541SOL    HW228083   4.084   4.563  10.238  0.3586 -1.4684  0.1763
 5542SOL     OW28084   3.067   0.027   4.690 -0.1847 -0.6804  0.4687
 5542SOL    HW128085   3.051   4.702   4.770 -0.7812  0.1946  0.8778
 5542SOL    HW228086   2.993   0.087   4.693 -0.5796 -1.0947 -0.6495
 5543SOL     OW28087   1.015   1.335   4.227 -0.3694 -0.6393  0.3701
 5543SOL    HW128088   1.020   1.427   4.252 -3.4903 -0.4693  0.3649
 5543SOL    HW228089   1.094   1.320   4.175  1.6632  0.4221  3.1741
 5544SOL     OW28090   3.438   0.233   1.624  0.8525 -0.7217  0.0276
 5544SOL    HW128091   3.457   0.255   1.715  0.5529  1.0499 -0.3322
 5544SOL    HW228092   3.524   0.199   1.599  0.2926 -0.6071 -2.0315
 5545SOL     OW28093   4.172   3.671  12.763 -0.2242 -0.1442 -0.1052
 5545SOL    HW128094   4.261   3.640  12.777 -0.1791  0.7471  1.5485
 5545SOL    HW228095   4.144   3.682  12.854 -1.7414 -1.3262 -0.4114
 5546SOL     OW28096   0.028   1.559   3.557  0.9289  0.1463 -0.2515
 5546SOL    HW128097   0.076   1.477   3.570  1.3633  1.0704  3.8713
 5546SOL    HW228098   4.685   1.539   3.623  1.4776 -1.2756 -0.1218
 5547SOL     OW28099   2.424   3.284   3.043 -0.5559 -0.0091  0.0281
 5547SOL    HW128100   2.467   3.283   2.958  1.1544 -0.1972  0.8994
 5547SOL    HW228101   2.348   3.228   3.027  0.6338 -0.6973 -3.1992
 5548SOL     OW28102   3.906   0.267  16.008  0.1528  0.3807 -0.2366
 5548SOL    HW128103   3.934   0.334  15.945 -1.0467  1.6937  0.6403
 5548SOL    HW228104   3.987   0.229  16.043 -1.0574 -1.0465  0.9854
 5549SOL     OW28105   1.418   3.805   3.503  0.0494  0.1577  0.0031
 5549SOL    HW128106   1.462   3.750   3.438  3.0284  0.9041  1.3667
 5549SOL    HW228107   1.402   3.883   3.450 -0.9129  0.4664  0.7533
 5550SOL     OW28108   3.262   3.786   6.303 -0.5809  0.0622  1.1669
 5550SOL    HW128109   3.192   3.762   6.243  0.7196  1.1507 -0.7888
 5550SOL    HW228110   3.237   3.732   6.379 -1.7587 -2.4184 -1.0000
 5551SOL     OW28111   2.907   2.749  13.879 -0.1273 -0.1597  0.1495
 5551SOL    HW128112   2.926   2.729  13.787  3.7508  0.7982  0.7319
 5551SOL    HW228113   2.861   2.675  13.918 -1.5010  1.0594  0.8276
 5552SOL     OW28114   1.042   2.069   2.768 -0.7320 -0.6590 -0.5408
 5552SOL    HW128115   0.967   2.020   2.733 -0.7476 -1.2764  0.3587
 5552SOL    HW228116   1.010   2.156   2.743 -1.5077 -0.5982  0.6502
 5553SOL     OW28117   0.218   3.756   4.749  0.4103 -0.5389 -0.2269
 5553SOL    HW128118   0.288   3.690   4.743  0.0390 -0.8419 -1.2929
 5553SOL    HW228119   0.276   3.827   4.722  0.9996 -0.5963  0.9064
 5554SOL     OW28120   1.014   3.913   0.596 -0.4635 -0.4733  0.0675
 5554SOL    HW128121   1.014   3.972   0.521  0.4831  0.3248  0.6902
 5554SOL    HW228122   0.964   3.838   0.562 -0.8723  1.9318 -4.5835
 5555SOL     OW28123   1.722   3.032  12.445  0.1110  0.0891  0.8486
 5555SOL    HW128124   1.805   3.025  12.398 -0.1106 -0.9864  0.6280
 5555SOL    HW228125   1.723   3.126  12.465  3.1359  0.0528  0.8828
 5556SOL     OW28126   0.363   3.709   5.596  0.1689  0.4204  0.2271
 5556SOL    HW128127   0.335   3.638   5.654 -0.4868 -1.5337 -2.4639
 5556SOL    HW228128   0.387   3.783   5.651  0.4776 -0.6940  1.5980
 5557SOL     OW28129   4.477   0.457  13.940 -0.0123  0.2076  0.5092
 5557SOL    HW128130   4.436   0.427  14.021  0.1358 -0.0125  0.5022
 5557SOL    HW228131   4.421   0.405  13.883 -0.7096  1.0825  0.3952
 5558SOL     OW28132   2.878   4.555   6.820  0.5864 -0.7047  1.0640
 5558SOL    HW128133   2.838   4.607   6.889 -0.6190 -1.3294  0.8294
 5558SOL    HW228134   2.820   4.479   6.824  1.3657 -1.4527 -2.0596
 5559SOL     OW28135   1.389   3.144  15.416 -0.2329 -0.3890  0.2424
 5559SOL    HW128136   1.402   3.109  15.328 -0.6323 -0.7287  0.3207
 5559SOL    HW228137   1.480   3.166  15.435  0.3302 -2.2003 -0.4046
 5560SOL     OW28138   1.632   1.029   5.537  0.0371  0.3044  0.4288
 5560SOL    HW128139   1.655   1.032   5.444  1.2876  0.8647  0.7563
 5560SOL    HW228140   1.704   0.972   5.564 -0.3585  0.4016  1.7011
 5561SOL     OW28141   2.500   4.244  16.930 -0.1639 -0.0481  0.2732
 5561SOL    HW128142   2.492   4.168  16.988 -1.4810 -0.8891 -1.0194
 5561SOL    HW228143   2.486   4.199  16.847  1.4905  0.0166 -0.0398
 5562SOL     OW28144   4.643   4.480   2.996 -0.1533  0.0254  0.1253
 5562SOL    HW128145   4.609   4.390   2.996 -0.7181  0.2384 -0.1362
 5562SOL    HW228146   4.691   4.477   2.913 -0.3590  0.4891 -0.0112
 5563SOL     OW28147   1.720   1.826   8.092  0.3748  0.1102  0.3191
 5563SOL    HW128148   1.725   1.836   8.187 -1.0200 -0.3182  0.4475
 5563SOL    HW228149   1.630   1.799   8.075 -0.8120  3.1211  1.7417
 5564SOL     OW28150   4.160   3.184  14.430 -0.7064  0.5539  0.6897
 5564SOL    HW128151   4.218   3.135  14.489  0.7384 -0.7128 -1.7985
 5564SOL    HW228152   4.074   3.148  14.450 -1.4942  2.4119  0.6691
 5565SOL     OW28153   1.528   2.358   9.257 -0.3233  0.1070 -0.0346
 5565SOL    HW128154   1.524   2.399   9.344  1.6899 -1.7277  0.9294
 5565SOL    HW228155   1.618   2.327   9.254  0.1594  1.4162  1.0426
 5566SOL     OW28156   1.091   1.997   3.062 -0.4959  0.0450  0.6516
 5566SOL    HW128157   1.068   2.042   2.981 -0.2531 -0.0844  0.5123
 5566SOL    HW228158   1.093   1.908   3.027  1.7206  1.2539 -2.2820
 5567SOL     OW28159   3.265   0.868   4.148 -0.0281 -0.2072  0.0773
 5567SOL    HW128160   3.195   0.873   4.083 -0.8979  0.3203  1.0446
 5567SOL    HW228161   3.332   0.907   4.091 -0.0030 -1.4652 -0.7357
 5568SOL     OW28162   2.070   3.011   8.656  0.0267  0.2103 -0.5035
 5568SOL    HW128163   2.059   3.027   8.749  0.7314  0.3354 -0.4422
 5568SOL    HW228164   2.160   3.042   8.648  1.4641 -3.2077  2.4566
 5569SOL     OW28165   0.026   3.630   7.109 -0.6629 -0.2342  0.1996
 5569SOL    HW128166   4.708   3.545   7.124 -2.1673  0.4659 -0.0738
 5569SOL    HW228167   0.112   3.620   7.149 -0.8603  0.5461  0.8109
 5570SOL     OW28168   1.154   2.142  14.216  0.0896  0.4582  0.3354
 5570SOL    HW128169   1.063   2.169  14.204  0.2161 -1.1537 -4.1042
 5570SOL    HW228170   1.181   2.203  14.285 -0.4001  2.4504 -1.2351
 5571SOL     OW28171   3.681   1.832  12.751 -0.1206  0.3103  0.1814
 5571SOL    HW128172   3.733   1.849  12.673 -1.2005  1.2078 -0.3502
 5571SOL    HW228173   3.730   1.883  12.816 -1.2313 -0.8360  1.9136
 5572SOL     OW28174   1.468   0.956   8.589  0.6498 -1.1505 -0.4278
 5572SOL    HW128175   1.403   1.021   8.612  0.3236 -1.7706  0.3928
 5572SOL    HW228176   1.532   0.971   8.659  1.1033  1.1387 -1.3448
 5573SOL     OW28177   3.012   2.896   3.644 -0.4648  0.1108 -0.2678
 5573SOL    HW128178   3.020   2.918   3.551 -0.2097  0.5384 -0.1457
 5573SOL    HW228179   2.961   2.971   3.677  0.2242  0.5672 -0.2450
 5574SOL     OW28180   4.651   1.366   2.332 -0.3463  0.7246 -0.2527
 5574SOL    HW128181   4.630   1.446   2.380 -0.2317 -0.2768  1.4593
 5574SOL    HW228182   0.007   1.395   2.287 -0.1372  0.0287 -0.3183
 5575SOL     OW28183   1.820   0.329   1.862 -0.2542 -0.3971  0.4675
 5575SOL    HW128184   1.760   0.263   1.829  0.8634 -0.9614 -0.4558
 5575SOL    HW228185   1.775   0.404   1.822 -0.2118 -1.9659 -2.5351
 5576SOL     OW28186   2.963   4.207   0.484  0.1490  0.0653  0.1125
 5576SOL    HW128187   3.025   4.134   0.483 -0.5160 -0.4952  0.7028
 5576SOL    HW228188   3.022   4.277   0.456  0.0145  0.9107  1.9350
 5577SOL     OW28189   0.856   1.805   6.524 -0.0496  0.3845  0.3521
 5577SOL    HW128190   0.844   1.757   6.442 -3.0326  0.6572  0.6351
 5577SOL    HW228191   0.925   1.756   6.569 -0.2885 -1.0974 -0.8895
 5578SOL     OW28192   2.309   0.015   9.980  0.4719  0.5737  0.0904
 5578SOL    HW128193   2.254   0.002   9.903 -0.1625 -0.1421  0.6649
 5578SOL    HW228194   2.395   0.042   9.948 -0.2552  2.1456 -0.5239
 5579SOL     OW28195   3.767   0.758   5.421 -0.3064  0.3926 -0.4889
 5579SOL    HW128196   3.738   0.669   5.441  3.1044 -0.5897 -0.0211
 5579SOL    HW228197   3.692   0.803   5.460  0.1583  0.8462 -0.1198
 5580SOL     OW28198   3.668   3.338  10.623 -0.1343 -0.2290  0.0161
 5580SOL    HW128199   3.574   3.323  10.620  0.2085 -2.3016 -0.4243
 5580SOL    HW228200   3.680   3.347  10.528  2.2983  1.9541  0.5269
 5581SOL     OW28201   0.685   3.574   4.104 -0.2006  0.1368  0.2463
 5581SOL    HW128202   0.678   3.663   4.138  1.9371 -0.1579  1.5108
 5581SOL    HW228203   0.606   3.562   4.051  0.6771 -1.2720 -0.7587
 5582SOL     OW28204   3.576   4.155   4.444  0.1568  0.0137  0.1300
 5582SOL    HW128205   3.671   4.146   4.450  0.3820  2.5273  0.3893
 5582SOL    HW228206   3.565   4.108   4.361 -0.8184 -0.5453  0.5715
 5583SOL     OW28207   0.019   0.418  14.233 -0.7230 -0.3636  0.1681
 5583SOL    HW128208   0.062   0.428  14.318 -0.9466 -0.7418  0.3262
 5583SOL    HW228209   4.656   0.455  14.250 -0.1302  2.0729 -2.1513
 5584SOL     OW28210   2.317   3.390   0.126 -0.5203  0.1696  0.1865
 5584SOL    HW128211   2.325   3.351   0.213  1.0561  3.0017  1.2995
 5584SOL    HW228212   2.230   3.429   0.130 -1.0817 -0.8881 -1.2785
 5585SOL     OW28213   2.650   3.822   5.769  0.1888  0.2226 -0.1619
 5585SOL    HW128214   2.711   3.827   5.695  0.0429  1.5241 -0.1803
 5585SOL    HW228215   2.578   3.771   5.732 -0.6467  0.5349  1.0822
 5586SOL     OW28216   0.969   2.704   2.932 -0.2245  0.0108  0.1008
 5586SOL    HW128217   1.063   2.689   2.934 -0.4263 -0.9995  2.0696
 5586SOL    HW228218   0.953   2.680   3.023 -1.5180  1.1957  0.1828
 5587SOL     OW28219   0.250   1.162  10.726 -0.2296 -0.0854 -0.1972
 5587SOL    HW128220   0.200   1.193  10.651  0.5902  0.6951 -0.4202
 5587SOL    HW228221   0.321   1.226  10.717 -0.7395  0.5496  0.2626
 5588SOL     OW28222   4.699   0.646   8.456 -0.0985  0.0657 -0.0310
 5588SOL    HW128223   4.708   0.731   8.413  1.6835 -0.6682 -1.1316
 5588SOL    HW228224   0.064   0.643   8.494 -0.6826  0.4300  1.3402
 5589SOL     OW28225   2.696   3.528   6.861 -0.2410  0.2355  0.3433
 5589SOL    HW128226   2.766   3.534   6.795 -0.5353 -1.3770 -0.1276
 5589SOL    HW228227   2.744   3.519   6.943 -0.1576  1.5875  0.4449
 5590SOL     OW28228   3.909   3.158   2.340 -0.0249 -0.2829  0.0708
 5590SOL    HW128229   3.959   3.165   2.421 -1.6628  1.8220  0.8845
 5590SOL    HW228230   3.825   3.200   2.360 -0.4546 -1.1552  0.0929
 5591SOL     OW28231   3.928   0.799   7.686  0.3621 -0.0240  0.1653
 5591SOL    HW128232   3.849   0.814   7.634 -1.0346 -3.2646  1.3482
 5591SOL    HW228233   3.973   0.736   7.630 -0.3682 -0.0264 -0.4280
 5592SOL     OW28234   0.861   3.410   6.744 -0.0124 -0.0598  0.1969
 5592SOL    HW128235   0.871   3.434   6.836 -1.0616 -0.3290  0.3879
 5592SOL    HW228236   0.814   3.327   6.753 -0.8174  0.2614 -0.9459
 5593SOL     OW28237   0.920   2.462   3.412 -0.6668 -0.6446  0.5141
 5593SOL    HW128238   0.873   2.535   3.452 -2.2386  0.3411 -3.1595
 5593SOL    HW228239   0.998   2.456   3.467  0.1563  1.0424 -0.4687
 5594SOL     OW28240   3.550   3.661   6.345 -0.0811 -0.1639  1.3180
 5594SOL    HW128241   3.536   3.723   6.415  0.0052  1.4361 -0.0839
 5594SOL    HW228242   3.528   3.711   6.266  2.7797 -0.0835  0.5539
 5595SOL     OW28243   1.693   1.638   0.136  0.4864  0.5815  0.4888
 5595SOL    HW128244   1.699   1.721   0.087 -0.1039  0.4122  0.1233
 5595SOL    HW228245   1.713   1.573   0.068  0.2008 -3.6297  4.4904
 5596SOL     OW28246   1.826   3.093   6.194  0.2102 -0.8255 -0.4770
 5596SOL    HW128247   1.815   3.012   6.144  0.4117 -1.4341  0.4600
 5596SOL    HW228248   1.919   3.084   6.217  0.1595  0.4589  0.2488
 5597SOL     OW28249   4.040   0.454   5.583  0.0952  0.6310 -0.3180
 5597SOL    HW128250   4.031   0.545   5.555 -0.6560 -0.7346 -4.5873
 5597SOL    HW228251   3.985   0.456   5.661  0.1899  2.0099 -0.2940
 5598SOL     OW28252   1.098   4.218  17.149 -0.1825 -0.0255 -0.2996
 5598SOL    HW128253   1.015   4.249  17.114  0.3141  0.1409 -1.3534
 5598SOL    HW228254   1.140   4.200  17.064  0.2238  0.9898 -0.3184
 5599SOL     OW28255   2.055   0.827   8.980 -0.2274 -0.2338  0.2799
 5599SOL    HW128256   2.107   0.787   9.050  1.2185 -0.1884 -0.7544
 5599SOL    HW228257   2.104   0.808   8.900 -0.6210 -0.6071  0.1269
 5600SOL     OW28258   0.674   3.509   0.871 -0.1857  0.1511 -0.3923
 5600SOL    HW128259   0.588   3.535   0.837 -0.5027 -1.0231 -0.4691
 5600SOL    HW228260   0.709   3.596   0.892  0.0289  1.0324 -4.3024
 5601SOL     OW28261   2.730   1.470  15.467 -0.2623  1.1496  0.0879
 5601SOL    HW128262   2.813   1.434  15.436 -0.4646 -1.1444  2.1666
 5601SOL    HW228263   2.704   1.497  15.379 -0.4410  1.1760  0.1491
 5602SOL     OW28264   2.184   0.316  11.301  0.0018 -0.4387  0.2532
 5602SOL    HW128265   2.243   0.308  11.226  0.3481  2.3034  0.2314
 5602SOL    HW228266   2.099   0.310  11.258 -0.1507  3.3779  0.0435
 5603SOL     OW28267   4.481   0.826   0.930 -0.0871 -0.2864  0.0948
 5603SOL    HW128268   4.445   0.875   0.855 -1.7331  0.7508  1.5613
 5603SOL    HW228269   4.566   0.801   0.893 -0.8330  0.3309 -2.0491
 5604SOL     OW28270   1.945   4.607  15.269 -0.0578 -0.2339 -0.1010
 5604SOL    HW128271   1.982   4.563  15.345  0.2693  2.5122  1.3539
 5604SOL    HW228272   1.901   4.684  15.306 -0.6262 -0.1552 -0.9324
 5605SOL     OW28273   2.446   4.269   3.225  0.3433 -0.3295 -0.3289
 5605SOL    HW128274   2.434   4.317   3.143  2.0441  2.6234  1.1838
 5605SOL    HW228275   2.465   4.182   3.187  0.6615 -1.4935  2.5412
 5606SOL     OW28276   3.591   1.408   9.085 -0.0801 -0.2073  0.4145
 5606SOL    HW128277   3.639   1.490   9.097 -0.8393  0.1782  0.7476
 5606SOL    HW228278   3.533   1.434   9.014  0.4940 -3.9122 -1.4327
 5607SOL     OW28279   4.667   3.418   8.590  0.0518 -0.2687  0.1891
 5607SOL    HW128280   0.016   3.415   8.652 -0.2946 -0.2402  0.5990
 5607SOL    HW228281   4.588   3.426   8.644  0.6463  1.5238  0.7812
 5608SOL     OW28282   2.750   3.081   7.516  0.0598  0.1627 -0.2675
 5608SOL    HW128283   2.830   3.084   7.568 -0.3244 -1.7050  0.4177
 5608SOL    HW228284   2.684   3.068   7.584 -0.3038  2.0876 -0.2364
 5609SOL     OW28285   1.894   3.671   9.415 -0.2212  0.2367  0.6174
 5609SOL    HW128286   1.905   3.615   9.338 -0.6788 -2.0716  2.2356
 5609SOL    HW228287   1.984   3.658   9.445 -0.5917 -0.8163  1.2337
 5610SOL     OW28288   2.237   0.295   4.265  0.7381 -0.1795  0.5377
 5610SOL    HW128289   2.176   0.222   4.256 -0.7979  1.0658  0.7651
 5610SOL    HW228290   2.316   0.250   4.237  1.4377  1.1531  0.3851
 5611SOL     OW28291   0.092   1.710   2.789 -0.6861 -0.2160 -0.1504
 5611SOL    HW128292   0.012   1.740   2.831  1.6472  0.7683  3.6022
 5611SOL    HW228293   0.138   1.790   2.763 -3.2455  0.9250 -1.2020
 5612SOL     OW28294   4.024   3.815   5.281  0.1451  0.1563 -0.3273
 5612SOL    HW128295   3.952   3.787   5.338 -0.1932 -0.0946 -0.8795
 5612SOL    HW228296   4.095   3.817   5.346 -0.3316  2.0820  0.1354
 5613SOL     OW28297   3.262   0.886  11.564 -0.5763  0.2503  0.2770
 5613SOL    HW128298   3.239   0.861  11.654 -2.8510 -1.5463 -0.7969
 5613SOL    HW228299   3.244   0.979  11.555 -0.2440  0.2880 -0.0097
 5614SOL     OW28300   1.113   1.208  15.000 -0.5476 -0.5892 -0.3483
 5614SOL    HW128301   1.024   1.203  15.036 -0.5470  1.4178 -0.0830
 5614SOL    HW228302   1.097   1.199  14.906 -1.2447  0.9028 -0.3767
 5615SOL     OW28303   0.916   1.218   0.363  0.0931  0.0804 -0.9621
 5615SOL    HW128304   0.924   1.134   0.407 -1.0669  1.2118  1.4328
 5615SOL    HW228305   0.924   1.183   0.275 -1.0112  1.5982 -1.6843
 5616SOL     OW28306   2.679   0.494   9.628  0.0527 -0.4663 -0.1431
 5616SOL    HW128307   2.696   0.528   9.715 -0.5796 -2.6168  0.8333
 5616SOL    HW228308   2.692   0.400   9.644  1.6119  0.0322  1.4517
 5617SOL     OW28309   0.071   0.902  13.199 -0.2913  0.5329  0.6159
 5617SOL    HW128310   0.066   0.824  13.144  2.3265  1.5276 -1.0435
 5617SOL    HW228311   4.708   0.940  13.196 -0.1350  0.6893 -2.0543
 5618SOL     OW28312   3.519   1.702   6.875  0.3373 -0.2084 -0.4958
 5618SOL    HW128313   3.603   1.697   6.829  0.7762  0.0178  0.2951
 5618SOL    HW228314   3.535   1.685   6.967  0.2382 -1.9047 -0.7903
 5619SOL     OW28315   2.143   3.587   4.969  0.2487 -0.2260  0.3262
 5619SOL    HW128316   2.120   3.525   5.038 -0.6310  0.5325  0.7219
 5619SOL    HW228317   2.074   3.563   4.907  0.3055 -0.4224  0.3395
 5620SOL     OW28318   3.802   3.179   3.254 -0.0944 -0.2013  0.0576
 5620SOL    HW128319   3.708   3.188   3.244  0.1055  0.0928 -1.5188
 5620SOL    HW228320   3.833   3.244   3.191 -0.3462  0.3986  0.5434
 5621SOL     OW28321   0.612   2.423   8.725  0.0341 -0.4819  0.1072
 5621SOL    HW128322   0.625   2.334   8.694 -0.8369 -0.1418 -1.2469
 5621SOL    HW228323   0.647   2.416   8.814 -0.7688  1.5524  0.5798
 5622SOL     OW28324   1.480   1.054   3.248 -0.3107 -0.7015  0.2213
 5622SOL    HW128325   1.421   1.116   3.205  1.8511 -0.1809 -1.9558
 5622SOL    HW228326   1.547   1.052   3.180  0.3785  1.6052  0.8022
 5623SOL     OW28327   2.994   4.426   5.851  0.6617  0.1359  0.1721
 5623SOL    HW128328   2.987   4.520   5.833 -0.6300  0.1308  0.6692
 5623SOL    HW228329   2.996   4.424   5.946 -2.9365  1.0018  0.2557
 5624SOL     OW28330   0.456   2.921   8.976 -0.3467 -0.2118  0.1633
 5624SOL    HW128331   0.544   2.896   8.948 -0.9079 -1.8424 -0.1468
 5624SOL    HW228332   0.465   2.994   9.037 -1.9689 -0.7701  1.0861
 5625SOL     OW28333   3.952   3.927  11.175 -0.2627  0.1850  0.5524
 5625SOL    HW128334   3.897   4.001  11.198 -0.8160 -0.1411  0.2636
 5625SOL    HW228335   3.927   3.919  11.083  0.4599  1.7331  0.2214
 5626SOL     OW28336   1.541   0.471   7.359  0.3649  0.0144  0.8111
 5626SOL    HW128337   1.476   0.401   7.366 -1.1758  1.2595 -1.2786
 5626SOL    HW228338   1.532   0.520   7.441 -2.3349 -1.6337  1.4968
 5627SOL     OW28339   1.877   4.059  12.115 -0.0557 -0.7111 -0.1446
 5627SOL    HW128340   1.796   4.010  12.123 -1.4528  1.8578  1.4232
 5627SOL    HW228341   1.887   4.089  12.205  1.7259  0.9982 -0.9141
 5628SOL     OW28342   3.018   1.885   4.226  0.2482 -0.0429  0.4036
 5628SOL    HW128343   3.114   1.886   4.225  0.2687 -3.0322  1.0074
 5628SOL    HW228344   2.994   1.952   4.290  0.8846  0.4831  0.0955
 5629SOL     OW28345   0.888   4.290   6.816 -0.2729 -0.1635 -0.8469
 5629SOL    HW128346   0.965   4.269   6.868 -0.4276  0.8748 -0.1906
 5629SOL    HW228347   0.815   4.257   6.868  0.1843 -1.3629 -0.9674
 5630SOL     OW28348   4.228   2.533   5.670 -0.4348 -0.3230  0.0947
 5630SOL    HW128349   4.266   2.555   5.585 -1.8511  2.6428  0.2405
 5630SOL    HW228350   4.306   2.565   5.714  1.3357 -2.1930 -1.6943
 5631SOL     OW28351   0.266   0.550  11.191  0.3901 -0.3246 -0.4748
 5631SOL    HW128352   0.302   0.507  11.268  0.3143  0.3382 -0.0688
 5631SOL    HW228353   0.203   0.483  11.163 -0.7255  0.2579  0.6333
 5632SOL     OW28354   4.304   3.358   8.900  0.5681  0.0492  0.0114
 5632SOL    HW128355   4.381   3.410   8.875 -0.2917  0.9400 -0.8011
 5632SOL    HW228356   4.283   3.385   8.989 -1.8371 -0.8217 -0.2925
 5633SOL     OW28357   1.096   0.794   4.485  0.0968  0.3862  0.5483
 5633SOL    HW128358   1.070   0.864   4.544  0.5282  1.2155 -0.2579
 5633SOL    HW228359   1.022   0.734   4.495  0.5273 -0.4940 -1.5570
 5634SOL     OW28360   4.042   1.750  17.135  0.4777  0.2926 -0.0577
 5634SOL    HW128361   3.949   1.725  17.138  0.6434 -0.1065  2.4883
 5634SOL    HW228362   4.056   1.742  17.230 -0.7917  3.8781  0.4314
 5635SOL     OW28363   4.606   3.187   8.822  0.5584 -0.9531 -0.1872
 5635SOL    HW128364   4.633   3.176   8.730  0.3863  1.0484 -0.4904
 5635SOL    HW228365   4.667   3.257   8.846  1.8044 -1.2884 -2.3515
 5636SOL     OW28366   0.215   2.627   9.010  0.5773  0.1549 -0.2462
 5636SOL    HW128367   0.291   2.583   9.049  1.9809  2.4779 -0.3996
 5636SOL    HW228368   0.143   2.576   9.048  1.1705 -1.3591 -1.1308
 5637SOL     OW28369   4.092   2.902   8.456 -0.1903  0.2673 -0.0815
 5637SOL    HW128370   4.024   2.836   8.468  1.5142 -1.6962 -1.3238
 5637SOL    HW228371   4.061   2.942   8.374 -0.4201 -3.7951 -1.9486
 5638SOL     OW28372   2.681   3.401  16.746  0.5754 -0.4357 -0.1088
 5638SOL    HW128373   2.619   3.471  16.723  0.7712 -0.1943  0.1081
 5638SOL    HW228374   2.744   3.440  16.686  0.1036 -2.8476 -2.2212
 5639SOL     OW28375   0.648   1.511   1.675 -0.6530  0.6018  0.4602
 5639SOL    HW128376   0.627   1.458   1.598  1.5855 -1.3717  1.2021
 5639SOL    HW228377   0.643   1.444   1.744 -1.4517  0.1708 -0.0173
 5640SOL     OW28378   1.338   1.401   7.495 -0.1588 -0.1021  0.1271
 5640SOL    HW128379   1.277   1.474   7.507  0.8048  0.3892  2.1507
 5640SOL    HW228380   1.299   1.357   7.420  0.7210 -2.7455  1.2182
 5641SOL     OW28381   3.804   2.763   7.548 -0.0949 -0.1423  0.4132
 5641SOL    HW128382   3.714   2.733   7.541 -0.5060  1.0777  0.4951
 5641SOL    HW228383   3.801   2.816   7.628 -0.1831  0.8963 -0.2785
 5642SOL     OW28384   0.768   3.268   0.891 -0.1617 -0.3865  0.6259
 5642SOL    HW128385   0.736   3.357   0.872  2.4174  0.1071 -1.4525
 5642SOL    HW228386   0.863   3.282   0.896 -0.1158 -0.7206  0.6455
 5643SOL     OW28387   2.292   4.224   7.023  0.4897  0.3635  0.3742
 5643SOL    HW128388   2.375   4.210   7.070 -0.1009 -1.5601  0.8532
 5643SOL    HW228389   2.315   4.312   6.994  1.4002  0.1198  0.3541
 5644SOL     OW28390   2.933   3.888   6.334  0.2046 -0.1063  0.0266
 5644SOL    HW128391   2.983   3.832   6.274 -1.9053  1.2165 -2.9685
 5644SOL    HW228392   2.913   3.965   6.282 -1.2816 -0.6703 -0.2423
 5645SOL     OW28393   4.424   3.938  14.212 -0.0484 -0.4156 -0.4883
 5645SOL    HW128394   4.472   3.892  14.143  0.8443 -2.2516  1.3786
 5645SOL    HW228395   4.336   3.914  14.182 -0.8143  0.1145  1.3596
 5646SOL     OW28396   2.862   4.194   9.762 -0.1679  0.1165 -0.1048
 5646SOL    HW128397   2.815   4.112   9.743 -2.0181  0.9832  0.6987
 5646SOL    HW228398   2.794   4.257   9.739  1.0916  1.3999 -0.2731
 5647SOL     OW28399   3.229   3.119   3.844  0.1856  0.2002 -0.3963
 5647SOL    HW128400   3.154   3.142   3.899  1.5380  0.3449  1.3902
 5647SOL    HW228401   3.205   3.168   3.765 -2.0874  0.4057  0.4129
 5648SOL     OW28402   3.266   0.412   8.631 -0.0695  0.5070 -0.6677
 5648SOL    HW128403   3.207   0.468   8.579  1.0022  2.7707  0.5288
 5648SOL    HW228404   3.248   0.326   8.593 -4.8620  1.5248 -0.7815
 5649SOL     OW28405   4.610   1.099  11.332 -0.5584 -0.5195 -0.4102
 5649SOL    HW128406   4.574   1.110  11.244 -0.0386 -1.6981 -0.7623
 5649SOL    HW228407   4.533   1.085  11.387 -0.5274 -1.7299 -0.6750
 5650SOL     OW28408   2.801   1.380   4.604  0.2779  0.0719 -0.2830
 5650SOL    HW128409   2.815   1.460   4.553 -1.6005 -1.0182 -2.5422
 5650SOL    HW228410   2.738   1.402   4.673  0.5369 -4.1285  1.3115
 5651SOL     OW28411   2.511   3.941  15.833 -0.1458 -0.0440  0.1643
 5651SOL    HW128412   2.597   3.903  15.850 -0.5295 -1.5441 -1.3105
 5651SOL    HW228413   2.521   4.031  15.864 -0.6656  0.0655  0.0164
 5652SOL     OW28414   1.408   3.940   7.110  0.1404 -0.6619  0.3143
 5652SOL    HW128415   1.474   4.008   7.095 -0.4258 -0.6352 -2.1074
 5652SOL    HW228416   1.366   3.981   7.186  1.3820  0.3897  0.4254
 5653SOL     OW28417   0.193   4.023  11.691 -0.4859  0.0383  0.1229
 5653SOL    HW128418   0.282   4.056  11.698 -0.9276  1.0884  0.7272
 5653SOL    HW228419   0.192   3.987  11.602 -0.3373 -0.2519  0.2407
 5654SOL     OW28420   3.900   4.176   0.743  0.1498  0.4873 -0.2838
 5654SOL    HW128421   3.980   4.180   0.691 -0.6894 -1.1447 -1.6964
 5654SOL    HW228422   3.915   4.096   0.794 -0.4599  1.7496  1.8864
 5655SOL     OW28423   0.900   2.431   0.597  0.1895  0.0344 -0.2491
 5655SOL    HW128424   0.854   2.481   0.664  1.7965  0.9265  0.2056
 5655SOL    HW228425   0.857   2.346   0.601 -0.2183  0.3589  2.3046
 5656SOL     OW28426   0.944   0.769   8.517 -0.2998 -0.7195 -0.2074
 5656SOL    HW128427   0.850   0.786   8.522 -0.0157  0.8907 -0.0945
 5656SOL    HW228428   0.975   0.827   8.587  0.4058  0.0097 -1.1371
 5657SOL     OW28429   1.129   2.538  17.593  0.0589 -0.0755  0.5418
 5657SOL    HW128430   1.107   2.450  17.623 -0.5714 -0.0863  0.0385
 5657SOL    HW228431   1.075   2.583  17.659 -2.7943 -0.7172 -1.3441
 5658SOL     OW28432   2.199   0.798   8.416 -0.0604 -0.9838 -0.0643
 5658SOL    HW128433   2.224   0.849   8.493 -0.9653  0.0618 -0.4641
 5658SOL    HW228434   2.216   0.708   8.442  2.7495 -0.5740 -0.4408
 5659SOL     OW28435   3.091   0.112   5.689  0.3084 -0.0396 -1.1613
 5659SOL    HW128436   3.037   0.062   5.750  0.0916  1.4031 -0.1653
 5659SOL    HW228437   3.158   0.142   5.751 -1.3190 -0.1942  0.6833
 5660SOL     OW28438   0.423   3.287   4.671 -0.7124  0.4771 -0.1503
 5660SOL    HW128439   0.416   3.374   4.711 -1.1183  0.4487 -0.1650
 5660SOL    HW228440   0.424   3.303   4.576 -0.8505 -1.3678 -0.4595
 5661SOL     OW28441   2.794   4.705  17.398 -0.0915  0.3206 -0.1383
 5661SOL    HW128442   2.884   4.693  17.428 -0.6418 -0.6345  1.1582
 5661SOL    HW228443   2.795   0.073  17.370  1.6726  0.5374  0.6281
 5662SOL     OW28444   2.262   4.267   3.450  0.1286  0.6419 -0.2848
 5662SOL    HW128445   2.224   4.355   3.449 -0.4195  0.4477  3.2740
 5662SOL    HW228446   2.303   4.264   3.364  1.5283  1.2252  0.3565
 5663SOL     OW28447   0.773   2.521   4.752  0.0813  0.5966  0.1082
 5663SOL    HW128448   0.766   2.601   4.804  1.4567  0.8345 -0.0886
 5663SOL    HW228449   0.792   2.552   4.664  1.7296 -0.8965 -0.0547
 5664SOL     OW28450   3.334   2.959  12.234  0.1646  0.4648 -0.4229
 5664SOL    HW128451   3.265   2.917  12.183  0.0834  1.9244 -1.4893
 5664SOL    HW228452   3.294   2.964  12.321 -0.4904  2.1766 -0.8340
 5665SOL     OW28453   0.895   2.591   7.459 -0.5908  0.5938 -0.3967
 5665SOL    HW128454   0.816   2.551   7.496  0.9698 -1.4549  0.6827
 5665SOL    HW228455   0.946   2.603   7.539 -1.7025 -0.4854  0.4783
 5666SOL     OW28456   3.282   2.035   8.681 -0.5691  0.2037 -0.6755
 5666SOL    HW128457   3.376   2.051   8.691 -1.1575  3.1476  0.2206
 5666SOL    HW228458   3.275   1.983   8.600 -0.4947  1.1495 -1.2872
 5667SOL     OW28459   2.297   1.969   4.567 -0.1582 -0.7839 -0.4173
 5667SOL    HW128460   2.392   1.974   4.582 -0.2284 -1.2488  0.1844
 5667SOL    HW228461   2.268   1.940   4.653 -2.1320  0.6070 -0.6329
 5668SOL     OW28462   3.874   3.582  13.906  0.8155  0.4204 -0.1576
 5668SOL    HW128463   3.797   3.529  13.927 -1.2491  2.1537 -3.3254
 5668SOL    HW228464   3.942   3.575  13.973 -0.2894 -3.8478  0.4980
 5669SOL     OW28465   0.547   0.858   7.794  0.6591 -0.5298 -0.3100
 5669SOL    HW128466   0.535   0.922   7.724  0.9326 -0.1222  0.0187
 5669SOL    HW228467   0.631   0.818   7.774  0.7781  0.6236 -2.1545
 5670SOL     OW28468   0.403   0.024   0.870  0.1015 -0.3043  0.5150
 5670SOL    HW128469   0.356   4.672   0.834 -1.4917  1.0807 -0.3173
 5670SOL    HW228470   0.368   0.094   0.815 -0.2042  1.3634  2.8852
 5671SOL     OW28471   3.789   4.385   6.272  0.2117 -0.3960  0.4656
 5671SOL    HW128472   3.724   4.425   6.215  1.4384 -0.8524 -1.2291
 5671SOL    HW228473   3.767   4.420   6.359 -1.8821 -0.2216 -0.1216
 5672SOL     OW28474   1.171   3.887   2.352  0.0668 -0.2591  0.3877
 5672SOL    HW128475   1.101   3.870   2.290  0.3646 -2.4992  0.6508
 5672SOL    HW228476   1.132   3.958   2.403 -4.1583 -2.8048  0.7453
 5673SOL     OW28477   3.183   1.739   7.915 -0.0211  0.2889  0.7797
 5673SOL    HW128478   3.212   1.648   7.916 -0.9598  0.0008  1.0870
 5673SOL    HW228479   3.197   1.758   7.822  0.3100 -0.5190  0.6701
 5674SOL     OW28480   3.511   4.503   5.643 -0.0374 -0.1852 -0.5484
 5674SOL    HW128481   3.570   4.430   5.627  0.9037 -0.2268  3.1293
 5674SOL    HW228482   3.477   4.476   5.728  3.9380 -0.7872  0.8177
 5675SOL     OW28483   0.269   4.194   2.107  0.3492  0.0991  0.0760
 5675SOL    HW128484   0.225   4.165   2.028  1.0942 -0.2027 -0.2221
 5675SOL    HW228485   0.323   4.120   2.131  0.5241  0.0630 -0.4457
 5676SOL     OW28486   3.642   3.913   3.873 -0.0674  0.1357  0.1937
 5676SOL    HW128487   3.561   3.864   3.890 -0.4381  0.8920  0.6463
 5676SOL    HW228488   3.602   3.999   3.889 -2.9070 -1.4020  1.4262
 5677SOL     OW28489   0.118   0.232  14.684 -0.2164  0.4941 -0.0952
 5677SOL    HW128490   0.136   0.243  14.591  0.5682  0.0713  0.0021
 5677SOL    HW228491   0.043   0.290  14.691 -0.4044  0.1183  1.0547
 5678SOL     OW28492   4.548   3.919   5.338  0.3378 -0.2984  0.7776
 5678SOL    HW128493   4.540   3.978   5.264 -2.8942 -1.2917  0.3293
 5678SOL    HW228494   4.510   3.837   5.305 -2.7309  2.3184 -2.1538
 5679SOL     OW28495   4.468   1.503   6.212  0.2074  0.1843 -0.5645
 5679SOL    HW128496   4.524   1.549   6.274 -0.7368  0.6177 -0.0262
 5679SOL    HW228497   4.383   1.547   6.217  0.3132  0.2490  0.7243
 5680SOL     OW28498   4.557   4.541  13.262  0.3615  0.2347 -0.1062
 5680SOL    HW128499   4.606   4.598  13.202 -0.5009  0.0059 -1.0386
 5680SOL    HW228500   4.490   4.513  13.199  3.3560 -4.0687 -1.4598
 5681SOL     OW28501   4.604   3.946   7.238 -0.0851 -0.0821 -0.0279
 5681SOL    HW128502   4.584   3.868   7.288  0.5978  1.3892  2.5489
 5681SOL    HW228503   4.618   4.011   7.307  0.0296  1.5820 -1.6179
 5682SOL     OW28504   4.046   2.328   4.908 -0.0959  0.2836 -0.6643
 5682SOL    HW128505   3.993   2.371   4.975  2.5221  2.0908  0.2657
 5682SOL    HW228506   4.009   2.242   4.891 -0.3266  0.1892  0.3295
 5683SOL     OW28507   0.344   3.636   7.839  0.2733 -0.3386 -0.2121
 5683SOL    HW128508   0.402   3.586   7.781 -0.7983 -1.9532  0.1284
 5683SOL    HW228509   0.324   3.576   7.910 -0.0847 -0.4376 -0.3955
 5684SOL     OW28510   1.895   0.643   7.373  0.1018  0.0917 -0.4224
 5684SOL    HW128511   1.933   0.565   7.414  1.8067  0.5125 -1.2332
 5684SOL    HW228512   1.858   0.689   7.448  0.9427 -0.1219  0.1122
 5685SOL     OW28513   0.383   4.676   8.413 -0.2868  0.2983 -0.1232
 5685SOL    HW128514   0.452   4.649   8.474 -0.8755  0.5985  0.6764
 5685SOL    HW228515   0.445   4.718   8.353  0.3548 -1.0210 -0.3708
 5686SOL     OW28516   4.681   3.864  10.611 -0.4607  0.0232 -0.4400
 5686SOL    HW128517   4.639   3.816  10.682  0.7831 -1.4024 -0.6715
 5686SOL    HW228518   4.676   3.800  10.541  1.2330 -0.9474  0.3275
 5687SOL     OW28519   4.563   1.925  16.668  0.3038  0.2640  0.2366
 5687SOL    HW128520   4.587   1.929  16.760  0.7641  0.6535  0.0992
 5687SOL    HW228521   4.543   2.018  16.657  1.5050  0.5806  0.7678
 5688SOL     OW28522   0.604   0.690   6.978 -0.1765 -0.2844  0.0828
 5688SOL    HW128523   0.540   0.633   6.937  1.4469 -0.8307 -1.6665
 5688SOL    HW228524   0.642   0.739   6.905 -5.6636  2.3842 -0.9889
 5689SOL     OW28525   0.452   2.686   5.808  0.1335  0.0130 -0.4159
 5689SOL    HW128526   0.438   2.615   5.870 -0.9252  1.7360  1.2986
 5689SOL    HW228527   0.529   2.668   5.753  0.3368 -1.2371  0.2941
 5690SOL     OW28528   4.424   1.837  12.721  0.5089  0.5788 -0.0229
 5690SOL    HW128529   4.476   1.917  12.724 -0.1611  0.9348  2.3814
 5690SOL    HW228530   4.469   1.790  12.790 -0.4894  1.0622  0.9636
 5691SOL     OW28531   4.644   0.436  14.673  0.5195  0.8217 -0.3701
 5691SOL    HW128532   4.573   0.460  14.733  2.3768  2.1072  1.2983
 5691SOL    HW228533   4.625   0.474  14.587  2.1411 -0.3778 -1.2361
 5692SOL     OW28534   3.022   4.187   3.934 -0.3155  0.1596  0.4356
 5692SOL    HW128535   2.950   4.138   3.972 -1.6892  1.0983 -0.9515
 5692SOL    HW228536   2.987   4.276   3.932  1.6701  0.9831  1.7253
 5693SOL     OW28537   2.572   3.909   7.888  0.1154  0.6090  0.2455
 5693SOL    HW128538   2.582   3.931   7.980  0.0543  2.1345 -0.1079
 5693SOL    HW228539   2.659   3.941   7.863 -0.4467 -0.0117 -2.5501
 5694SOL     OW28540   1.235   2.807  10.518  0.2522 -0.0346  0.4185
 5694SOL    HW128541   1.257   2.790  10.427  0.9716  0.0554  0.5817
 5694SOL    HW228542   1.251   2.901  10.524  0.5939 -0.2278  2.5451
 5695SOL     OW28543   1.064   2.152  13.555  0.7195 -0.2256  0.0624
 5695SOL    HW128544   1.034   2.089  13.490  2.1056 -1.1027  0.2871
 5695SOL    HW228545   1.107   2.098  13.621 -1.6869 -0.5293  1.3698
 5696SOL     OW28546   3.524   1.695   2.216  0.0648 -0.2698  0.6563
 5696SOL    HW128547   3.449   1.655   2.172  1.6830 -0.1622 -2.1391
 5696SOL    HW228548   3.589   1.688   2.146 -0.6009  0.6537 -0.0499
 5697SOL     OW28549   3.397   0.254  13.838 -0.2840 -0.0798  0.1855
 5697SOL    HW128550   3.388   0.164  13.867  0.8104 -0.8741 -1.9122
 5697SOL    HW228551   3.345   0.250  13.758  0.7510  0.3926 -0.5202
 5698SOL     OW28552   0.535   1.969  14.237  0.0694  0.3699  0.2208
 5698SOL    HW128553   0.529   2.065  14.238 -2.7435  0.1968  1.0715
 5698SOL    HW228554   0.449   1.951  14.276 -0.1208 -0.3169 -0.5285
 5699SOL     OW28555   4.062   1.271   1.982 -0.6578 -0.1406 -0.1623
 5699SOL    HW128556   3.992   1.283   2.046 -1.2209  0.9230 -0.9834
 5699SOL    HW228557   4.033   1.343   1.926 -1.4010 -0.2615  0.0688
 5700SOL     OW28558   0.221   0.321  17.131 -0.3824 -0.1071 -0.2014
 5700SOL    HW128559   0.286   0.387  17.156 -0.1585 -0.3470 -0.1525
 5700SOL    HW228560   0.140   0.356  17.169 -1.2546 -2.6170  0.2742
 5701SOL     OW28561   2.078   4.141   4.583  0.2811  0.2568 -0.9185
 5701SOL    HW128562   1.983   4.133   4.574  0.3791 -0.9753 -0.8884
 5701SOL    HW228563   2.116   4.068   4.534 -1.5390 -0.6962 -0.8799
 5702SOL     OW28564   1.994   0.755   1.255  0.1718  0.3666  0.3043
 5702SOL    HW128565   1.991   0.673   1.303 -1.8246  0.3890  0.2005
 5702SOL    HW228566   2.026   0.820   1.318  2.4099  1.8434 -2.3402
 5703SOL     OW28567   1.213   1.144   3.538  0.1171  0.0245  0.7061
 5703SOL    HW128568   1.264   1.063   3.540 -2.0534 -1.4235 -1.9474
 5703SOL    HW228569   1.281   1.205   3.511 -1.4538  1.5740  0.2894
 5704SOL     OW28570   1.882   4.685   6.470 -0.7182 -0.1699 -0.3729
 5704SOL    HW128571   1.975   4.703   6.486 -0.4867 -0.4462 -1.4308
 5704SOL    HW228572   1.861   4.687   6.563  0.6640  1.5651 -0.1039
 5705SOL     OW28573   4.510   3.137   5.557 -0.0988 -0.2118 -0.1492
 5705SOL    HW128574   4.545   3.064   5.608  1.1881  0.3884 -0.1775
 5705SOL    HW228575   4.431   3.097   5.521 -2.2387  2.6528  1.3237
 5706SOL     OW28576   0.848   4.707  13.915 -0.9577 -0.7395  0.0722
 5706SOL    HW128577   0.806   0.058  13.959 -0.9438 -1.5386  1.4371
 5706SOL    HW228578   0.931   0.023  13.888 -0.8630  0.6635  2.3893
 5707SOL     OW28579   1.535   2.040   4.244  0.2976 -0.0691 -0.2064
 5707SOL    HW128580   1.513   1.993   4.163 -0.6165  1.1045 -0.6286
 5707SOL    HW228581   1.630   2.028   4.239  0.5352  1.5162  0.5210
 5708SOL     OW28582   1.168   2.044   5.080 -0.1493 -0.3550  0.1714
 5708SOL    HW128583   1.080   2.023   5.112 -0.0780  2.3488  2.0733
 5708SOL    HW228584   1.129   2.086   5.003 -0.7417 -0.9400  0.1491
 5709SOL     OW28585   4.562   0.842   8.047  0.5322 -0.5390 -0.1686
 5709SOL    HW128586   4.539   0.840   7.954  4.2030 -1.3055 -1.0836
 5709SOL    HW228587   4.559   0.936   8.063  0.1739 -0.0098 -3.3027
 5710SOL     OW28588   2.186   0.073   5.416 -0.5450 -0.3429  0.0245
 5710SOL    HW128589   2.201   0.053   5.323 -0.7529 -1.5256  0.2452
 5710SOL    HW228590   2.276   0.080   5.447 -0.2368  0.0963 -0.9503
 5711SOL     OW28591   1.725   0.407   3.281 -0.7373 -0.1480 -0.5099
 5711SOL    HW128592   1.751   0.315   3.269  0.5235  0.3475 -1.5705
 5711SOL    HW228593   1.635   0.396   3.310 -0.6500 -0.5363 -0.3859
 5712SOL     OW28594   4.335   2.964  16.001  0.7174 -0.3464  0.4567
 5712SOL    HW128595   4.330   3.059  16.005 -0.4446 -0.4833  2.1762
 5712SOL    HW228596   4.401   2.940  15.935 -1.3987 -3.9544 -0.3981
 5713SOL     OW28597   1.617   3.929   8.580  0.1302 -0.5071 -0.4195
 5713SOL    HW128598   1.655   3.971   8.657  1.9026 -1.1117 -0.9443
 5713SOL    HW228599   1.649   3.839   8.590  0.5774 -0.0008  2.7291
 5714SOL     OW28600   2.949   1.163  16.143  0.1719  0.1613  0.0332
 5714SOL    HW128601   2.884   1.194  16.206  0.3165 -0.2368  0.3772
 5714SOL    HW228602   2.977   1.081  16.184 -1.0035 -0.2023  0.0982
 5715SOL     OW28603   3.427   4.391   6.632  0.4297  0.9823 -0.4331
 5715SOL    HW128604   3.456   4.335   6.560  1.7032 -0.9730  1.5692
 5715SOL    HW228605   3.418   4.335   6.709 -0.1365  0.0792 -1.1509
 5716SOL     OW28606   4.202   1.268   5.654  0.2918  0.6067  0.1149
 5716SOL    HW128607   4.270   1.324   5.616  0.3127  1.1336  0.9108
 5716SOL    HW228608   4.180   1.324   5.729 -0.0559  1.4051 -0.5793
 5717SOL     OW28609   1.930   3.151   9.364  0.6418 -0.3035 -0.5174
 5717SOL    HW128610   2.000   3.104   9.317 -0.8589  0.0782 -3.1400
 5717SOL    HW228611   1.948   3.119   9.452  0.9825  1.2332 -0.0218
 5718SOL     OW28612   2.179   0.591  15.213 -0.0053  0.2937  0.5672
 5718SOL    HW128613   2.116   0.585  15.141 -0.0642 -0.1768  0.6583
 5718SOL    HW228614   2.269   0.589  15.180 -0.4299  0.7695 -0.6190
 5719SOL     OW28615   0.281   3.144   2.345 -0.0467  0.3348 -0.1156
 5719SOL    HW128616   0.215   3.189   2.291  0.7330 -1.9451 -3.0101
 5719SOL    HW228617   0.254   3.167   2.433  0.6078 -1.2910  0.5150
 5720SOL     OW28618   0.726   4.614   2.956 -0.7874  0.0251  0.2322
 5720SOL    HW128619   0.655   4.675   2.977 -0.4669  0.4998 -0.0576
 5720SOL    HW228620   0.776   4.664   2.891  0.1572 -2.0893 -0.6461
 5721SOL     OW28621   0.276   3.918   1.681 -0.2854 -0.3979  0.1762
 5721SOL    HW128622   0.182   3.930   1.667 -0.3685 -1.0356  0.2201
 5721SOL    HW228623   0.309   4.004   1.654 -1.7490  0.0537 -0.1972
 5722SOL     OW28624   1.392   3.775  15.974 -0.6502  0.5501 -0.8542
 5722SOL    HW128625   1.352   3.807  16.056  2.1284  2.9842 -0.4992
 5722SOL    HW228626   1.410   3.864  15.946  1.6728  0.2342 -0.3850
 5723SOL     OW28627   3.980   0.453  13.026  0.0940  0.2431 -0.3931
 5723SOL    HW128628   3.904   0.402  13.051  0.7055 -0.6670 -0.3857
 5723SOL    HW228629   3.949   0.543  13.039  0.8533  0.4802 -0.2210
 5724SOL     OW28630   1.766   4.696   2.945  0.2264  0.3617 -0.1134
 5724SOL    HW128631   1.730   0.016   3.022  2.5331 -2.1583  2.3575
 5724SOL    HW228632   1.859   4.683   2.964  0.2696  1.6370  0.5375
 5725SOL     OW28633   2.356   0.203  16.656 -0.4371  0.1440 -0.7422
 5725SOL    HW128634   2.280   0.260  16.666 -2.4967 -2.7003 -0.1293
 5725SOL    HW228635   2.321   0.122  16.620  0.6566 -0.5957 -0.1521
 5726SOL     OW28636   0.031   0.995   3.363 -0.3637 -0.0096 -0.4669
 5726SOL    HW128637   0.126   0.983   3.361 -0.4029 -0.7661  1.3460
 5726SOL    HW228638   0.023   1.088   3.340  0.8262  0.3053  0.3655
 5727SOL     OW28639   4.154   3.865   6.371 -0.1704  0.1325 -0.1072
 5727SOL    HW128640   4.198   3.792   6.328  1.9052  2.1301 -1.3724
 5727SOL    HW228641   4.061   3.844   6.357 -0.0813 -1.1778  1.2531
 5728SOL     OW28642   2.656   3.677   7.780 -0.0554 -0.4138 -0.1679
 5728SOL    HW128643   2.616   3.745   7.834  0.8945 -0.3450  0.4663
 5728SOL    HW228644   2.583   3.617   7.768 -0.9531  0.8358 -0.9047
 5729SOL     OW28645   1.752   0.399   2.623 -0.2570 -0.5605 -0.2183
 5729SOL    HW128646   1.726   0.324   2.676  0.1558  0.2338  1.0978
 5729SOL    HW228647   1.787   0.352   2.547  1.4034 -1.2443  0.9842
 5730SOL     OW28648   0.846   4.189   2.760 -0.3691 -0.1221  0.1825
 5730SOL    HW128649   0.916   4.252   2.745 -0.3491 -0.3050 -0.4904
 5730SOL    HW228650   0.883   4.106   2.731  0.8078  0.7776 -0.9037
 5731SOL     OW28651   2.643   3.108  12.710 -0.1391  0.5030  0.0561
 5731SOL    HW128652   2.618   3.063  12.790  0.2618 -0.4262 -0.3299
 5731SOL    HW228653   2.734   3.125  12.735 -0.1795 -0.7956  1.0705
 5732SOL     OW28654   4.391   3.974  10.372 -0.1064 -0.1662  0.0943
 5732SOL    HW128655   4.405   3.981  10.277 -0.4383  1.0507  0.1436
 5732SOL    HW228656   4.332   4.048  10.385  1.4380  0.7599  1.7613
 5733SOL     OW28657   1.972   2.861   6.798 -0.3061 -0.8655  0.4446
 5733SOL    HW128658   1.892   2.913   6.799  0.6196  0.5899 -0.9632
 5733SOL    HW228659   2.015   2.878   6.882  0.7135  1.5010 -0.5492
 5734SOL     OW28660   0.829   0.202  11.564 -0.1378 -0.3794  0.1175
 5734SOL    HW128661   0.831   0.283  11.614  0.5462 -1.5473  1.9865
 5734SOL    HW228662   0.845   0.139  11.635  2.5064 -0.4025 -0.5054
 5735SOL     OW28663   3.421   1.198  13.831 -0.5425 -0.0491 -0.0784
 5735SOL    HW128664   3.429   1.199  13.736 -1.1080  1.6111 -0.1271
 5735SOL    HW228665   3.368   1.278  13.842 -1.5049 -0.4007 -2.0630
 5736SOL     OW28666   1.654   1.102   6.019  0.3138  0.0245  0.0790
 5736SOL    HW128667   1.620   1.134   6.103  1.7633 -3.5586  2.0358
 5736SOL    HW228668   1.571   1.115   5.974  0.5362  0.9425 -0.0771
 5737SOL     OW28669   3.214   0.881   3.706  0.2635 -0.4987 -0.0658
 5737SOL    HW128670   3.245   0.797   3.673 -0.7774 -0.0757 -2.1078
 5737SOL    HW228671   3.209   0.928   3.624  1.8570  1.5896  1.0355
 5738SOL     OW28672   3.957   1.722   1.273 -0.1693 -0.6915  0.4464
 5738SOL    HW128673   3.923   1.670   1.345  2.0600  0.0285  2.0227
 5738SOL    HW228674   3.891   1.790   1.266 -1.1151 -1.5938  0.5994
 5739SOL     OW28675   4.334   4.134  12.373 -0.5407 -0.3128  0.2146
 5739SOL    HW128676   4.309   4.227  12.368  0.8188 -0.0094 -1.0419
 5739SOL    HW228677   4.305   4.112  12.461  2.0913  0.9105  1.3797
 5740SOL     OW28678   0.210   4.685   4.018 -0.0913 -0.0185  1.1039
 5740SOL    HW128679   0.121   4.659   3.996  0.7214 -1.9651  0.1447
 5740SOL    HW228680   0.267   4.639   3.957 -0.3485  1.0059  0.0969
 5741SOL     OW28681   2.082   3.747   2.426 -0.1233 -0.9134  0.5427
 5741SOL    HW128682   2.021   3.817   2.403  0.9491 -1.0219 -2.6204
 5741SOL    HW228683   2.153   3.808   2.443 -0.1271 -1.2258  1.6641
 5742SOL     OW28684   2.478   3.796   8.213 -0.6239 -0.0528 -0.2967
 5742SOL    HW128685   2.569   3.808   8.186 -0.5169  0.7205  0.4309
 5742SOL    HW228686   2.480   3.839   8.298  0.7382  1.9904 -1.3618
 5743SOL     OW28687   1.737   2.733   6.261  0.7447  0.3497 -0.3311
 5743SOL    HW128688   1.751   2.761   6.351 -1.6026 -1.5820  0.6472
 5743SOL    HW228689   1.822   2.708   6.225  1.2003 -1.9426  2.3149
 5744SOL     OW28690   2.652   4.225   2.645 -0.5262 -0.6800 -0.1133
 5744SOL    HW128691   2.725   4.176   2.607 -0.0022 -0.1670  0.2309
 5744SOL    HW228692   2.642   4.284   2.570  1.9489 -1.1893 -0.8679
 5745SOL     OW28693   0.055   3.812   5.907 -0.0916 -0.4501  0.5034
 5745SOL    HW128694   0.032   3.776   5.822  0.0667 -1.1238  0.7480
 5745SOL    HW228695   4.714   3.883   5.916  0.0581 -0.2566  0.0730
 5746SOL     OW28696   0.571   3.183   1.484 -0.1894 -0.4146  0.6269
 5746SOL    HW128697   0.555   3.152   1.573  1.0377  1.6808  1.5862
 5746SOL    HW228698   0.557   3.100   1.440 -3.3098  0.0313  0.8066
 5747SOL     OW28699   2.267   4.495   7.617  0.5293  0.4030 -0.2031
 5747SOL    HW128700   2.349   4.521   7.659  1.1436 -0.9663 -0.5615
 5747SOL    HW228701   2.227   4.438   7.682 -0.2501 -1.8252 -2.6378
 5748SOL     OW28702   3.184   2.857  14.117 -0.1171  0.1212 -0.1242
 5748SOL    HW128703   3.203   2.916  14.190 -1.7345  2.5382 -1.6602
 5748SOL    HW228704   3.096   2.884  14.090 -0.2401 -1.1638 -0.9884
 5749SOL     OW28705   0.881   1.339   2.740 -0.1538 -0.1495  0.5373
 5749SOL    HW128706   0.945   1.268   2.742  0.4338  0.4607  2.6276
 5749SOL    HW228707   0.849   1.336   2.649  1.0874 -1.3751  0.1410
 5750SOL     OW28708   3.076   2.873   2.905 -0.2042  0.1281 -0.4893
 5750SOL    HW128709   2.991   2.916   2.914 -1.4027 -2.1423 -1.0371
 5750SOL    HW228710   3.085   2.881   2.811 -1.9482  0.0018 -0.6619
 5751SOL     OW28711   3.745   4.523   5.439 -0.1251  0.4250 -0.1272
 5751SOL    HW128712   3.661   4.567   5.452 -0.0672  0.6276 -0.4412
 5751SOL    HW228713   3.796   4.579   5.497  1.1384 -1.4584  0.5776
 5752SOL     OW28714   1.287   1.267  12.638 -0.3332 -0.2943  0.2424
 5752SOL    HW128715   1.261   1.253  12.547  0.4490  2.4337 -0.4149
 5752SOL    HW228716   1.276   1.187  12.689  0.6545 -1.0200 -0.7149
 5753SOL     OW28717   0.023   4.672   5.329  0.1554  0.3724 -0.6001
 5753SOL    HW128718   4.682   4.616   5.286 -0.7087  2.0117 -1.4151
 5753SOL    HW228719   0.055   4.623   5.405  0.6233  0.5650 -0.6710
 5754SOL     OW28720   3.270   3.906   1.888 -0.0842 -0.5176 -0.3383
 5754SOL    HW128721   3.280   3.987   1.837 -1.0966  0.1778  0.5664
 5754SOL    HW228722   3.199   3.926   1.950  0.2809  0.6558 -0.2956
 5755SOL     OW28723   1.663   3.981   6.303 -0.9844  0.4447  1.5588
 5755SOL    HW128724   1.623   3.906   6.347 -0.1394 -0.6837  0.4047
 5755SOL    HW228725   1.587   4.032   6.275  0.8322  1.1653 -2.0400
 5756SOL     OW28726   1.386   0.898   1.780 -0.6467 -0.0821 -0.5148
 5756SOL    HW128727   1.295   0.894   1.811 -0.0945 -0.3315  1.1047
 5756SOL    HW228728   1.399   0.818   1.729  0.8648 -0.6271  0.7288
 5757SOL     OW28729   3.095   4.436   6.434 -0.2387 -0.5064  0.1898
 5757SOL    HW128730   3.072   4.368   6.497  0.9596  1.1991  2.5026
 5757SOL    HW228731   3.033   4.504   6.462  0.4506 -1.1453  3.2967
 5758SOL     OW28732   1.443   3.222  17.328 -0.4472 -0.4152 -0.2418
 5758SOL    HW128733   1.362   3.204  17.280 -0.4261  1.0819 -0.8469
 5758SOL    HW228734   1.498   3.233  17.251  1.4232 -3.1323  0.6859
 5759SOL     OW28735   2.672   4.400   8.849  0.3668  0.3854 -0.3457
 5759SOL    HW128736   2.591   4.401   8.899  0.2706  2.6483 -0.5435
 5759SOL    HW228737   2.682   4.494   8.835 -0.6088  0.1454 -2.7305
 5760SOL     OW28738   2.788   4.673  16.901  0.0060  0.1600  0.0025
 5760SOL    HW128739   2.707   4.667  16.849  0.3706  0.8265 -0.6379
 5760SOL    HW228740   2.833   0.021  16.857  1.9660 -1.1246 -0.0822
 5761SOL     OW28741   0.491   1.362  17.262  0.5602 -0.4398  0.5763
 5761SOL    HW128742   0.420   1.302  17.239 -0.4835  0.4669  1.4512
 5761SOL    HW228743   0.442   1.437  17.295 -1.7608 -1.1325 -1.3552
 5762SOL     OW28744   2.906   4.192   3.545  0.3609  0.0482  0.0023
 5762SOL    HW128745   2.819   4.172   3.511  0.5492 -0.8483  0.0380
 5762SOL    HW228746   2.901   4.184   3.640 -0.0286 -2.0217 -0.1758
 5763SOL     OW28747   1.881   1.565   4.995  0.0832  0.7552  0.0919
 5763SOL    HW128748   1.807   1.626   4.999 -0.4388  0.1524 -0.4625
 5763SOL    HW228749   1.946   1.621   5.038  1.3340  0.3736 -1.3096
 5764SOL     OW28750   0.679   2.412   6.129 -0.1349  0.3132 -0.5463
 5764SOL    HW128751   0.676   2.362   6.048  1.7226  2.7132 -2.0921
 5764SOL    HW228752   0.750   2.473   6.111  0.6148 -0.0524  1.1107
 5765SOL     OW28753   0.679   4.630   4.758  0.4831  0.0059 -0.0405
 5765SOL    HW128754   0.705   4.712   4.716  0.7405  0.7504  1.5494
 5765SOL    HW228755   0.644   4.655   4.844  0.3364  0.7941 -0.3336
 5766SOL     OW28756   2.951   4.584   8.256 -0.2553 -0.4933  0.6014
 5766SOL    HW128757   3.010   4.525   8.210 -2.0146 -1.9748  0.2302
 5766SOL    HW228758   2.877   4.526   8.273 -0.4712 -0.4661 -0.2008
 5767SOL     OW28759   3.731   3.348   6.063  0.0414 -0.0698  0.3432
 5767SOL    HW128760   3.789   3.391   6.000  0.2562  0.5383  0.9586
 5767SOL    HW228761   3.686   3.290   6.002  1.1436 -0.7335  0.1571
 5768SOL     OW28762   3.372   3.152   6.489  0.1911 -0.5112 -0.5280
 5768SOL    HW128763   3.315   3.209   6.540 -2.0005 -0.1811 -3.3180
 5768SOL    HW228764   3.447   3.211   6.482 -2.4923  2.8917 -0.8174
 5769SOL     OW28765   4.481   0.780   2.991 -0.2482  0.3051  0.1624
 5769SOL    HW128766   4.469   0.874   2.985  0.7281  0.4401  0.2342
 5769SOL    HW228767   4.397   0.743   2.966 -1.4377  3.0630  0.1316
 5770SOL     OW28768   1.365   1.601   6.925 -0.0855  0.3136 -0.2551
 5770SOL    HW128769   1.357   1.547   6.846 -3.5319 -0.6310  0.7339
 5770SOL    HW228770   1.458   1.598   6.950 -0.7103  3.8726  2.5313
 5771SOL     OW28771   2.521   4.504   6.877  0.3249 -0.5617 -0.7326
 5771SOL    HW128772   2.443   4.525   6.929  0.3543 -0.6957 -0.6370
 5771SOL    HW228773   2.591   4.493   6.941  0.9349 -0.7479 -1.4372
 5772SOL     OW28774   2.999   1.493   2.726  0.1863  0.7061  0.2932
 5772SOL    HW128775   2.921   1.442   2.705  0.3919 -0.1708  1.7066
 5772SOL    HW228776   2.960   1.568   2.771  1.4468  1.4732  0.1271
 5773SOL     OW28777   3.131   2.734   4.397 -0.0839 -0.4889  0.0788
 5773SOL    HW128778   3.216   2.730   4.443  0.9705  2.3323 -1.6550
 5773SOL    HW228779   3.149   2.674   4.324 -1.9627  0.0309 -0.7914
 5774SOL     OW28780   1.526   4.674   3.950 -0.3747 -0.0411  0.2671
 5774SOL    HW128781   1.565   4.607   4.006 -0.9534  0.0521  0.7784
 5774SOL    HW228782   1.576   4.676   3.868 -0.3389 -1.2594  0.2551
 5775SOL     OW28783   4.611   4.193  12.299  0.2908 -0.1036 -0.2854
 5775SOL    HW128784   4.533   4.218  12.249  0.4567 -0.3313 -0.6594
 5775SOL    HW228785   4.563   4.157  12.374 -0.4192 -3.2307 -2.2365
 5776SOL     OW28786   3.931   4.465  15.376 -0.2472 -0.1837 -0.6713
 5776SOL    HW128787   3.856   4.407  15.381 -2.2505  2.5810  1.7194
 5776SOL    HW228788   3.963   4.471  15.466 -3.5532 -0.8932  0.5511
 5777SOL     OW28789   2.972   4.110   1.847  0.3034  0.0097 -0.2452
 5777SOL    HW128790   2.992   4.039   1.907  0.2681  1.5203  1.5647
 5777SOL    HW228791   2.952   4.067   1.764 -2.4916  1.8786 -0.5323
 5778SOL     OW28792   1.835   0.325   2.377  0.4416 -0.1725  0.5041
 5778SOL    HW128793   1.883   0.311   2.295  0.0428  2.6922 -0.2212
 5778SOL    HW228794   1.867   0.248   2.423  0.4006  0.7713  2.1152
 5779SOL     OW28795   0.884   4.092   1.793  0.1691 -0.4013 -0.2497
 5779SOL    HW128796   0.977   4.080   1.773  0.6045  0.6635  1.1445
 5779SOL    HW228797   0.886   4.158   1.862 -1.1164 -1.8445  1.1781
 5780SOL     OW28798   4.163   0.309   8.100 -0.0898 -0.3096 -1.0807
 5780SOL    HW128799   4.162   0.319   8.195  0.0019 -1.0095 -1.0050
 5780SOL    HW228800   4.258   0.300   8.089 -0.0289 -1.4844  0.4422
 5781SOL     OW28801   1.967   2.371   2.047 -0.1920  0.2296 -0.0073
 5781SOL    HW128802   1.921   2.442   2.091 -1.1859 -0.7869  0.6072
 5781SOL    HW228803   2.058   2.399   2.058 -0.2336 -0.2249  1.5158
 5782SOL     OW28804   2.116   3.438   8.488 -0.5253  0.2543 -0.2984
 5782SOL    HW128805   2.135   3.435   8.582 -1.0094  0.7430 -0.1869
 5782SOL    HW228806   2.181   3.505   8.469  0.2341  0.1768  1.9991
 5783SOL     OW28807   4.459   1.837   3.866  0.6749  0.3824  0.1633
 5783SOL    HW128808   4.426   1.776   3.931 -0.7592 -0.1221 -1.0398
 5783SOL    HW228809   4.500   1.908   3.916 -1.7362  2.5090 -0.8681
 5784SOL     OW28810   4.199   1.168   8.440  0.5787 -0.3046  0.1238
 5784SOL    HW128811   4.146   1.161   8.360  0.7668  2.0908 -0.2276
 5784SOL    HW228812   4.123   1.174   8.497  0.8074  0.3175  0.3690
 5785SOL     OW28813   1.504   2.707   1.035  0.2739  0.2202  0.2316
 5785SOL    HW128814   1.491   2.785   1.088 -3.1183 -2.0675  2.7496
 5785SOL    HW228815   1.586   2.681   1.077 -0.2803 -0.1151  1.0966
 5786SOL     OW28816   2.095   4.696   7.888  0.6568 -0.5522  0.3551
 5786SOL    HW128817   2.156   4.695   7.962 -0.2625 -1.3999  1.1191
 5786SOL    HW228818   2.013   4.720   7.933  0.6431  0.4892 -0.2344
 5787SOL     OW28819   1.446   1.603   3.843 -0.0381 -0.0304 -0.2167
 5787SOL    HW128820   1.389   1.541   3.797 -1.7017  0.7369  0.8189
 5787SOL    HW228821   1.520   1.615   3.783 -0.2901  0.6619 -0.3839
 5788SOL     OW28822   3.630   0.132   2.019  0.2253  0.5277  0.1347
 5788SOL    HW128823   3.607   0.044   2.048 -0.8153  0.7905  0.1080
 5788SOL    HW228824   3.695   0.121   1.950  1.0929 -0.1937  1.0788
 5789SOL     OW28825   0.594   1.926   4.733 -0.8552  0.1930  0.0163
 5789SOL    HW128826   0.618   1.894   4.646  0.0990 -1.6431  0.9652
 5789SOL    HW228827   0.527   1.990   4.708 -0.1014  1.2916  0.7829
 5790SOL     OW28828   3.161   0.297   5.258  0.5539 -0.3534 -0.3200
 5790SOL    HW128829   3.092   0.276   5.321  0.9777  1.8116  0.8681
 5790SOL    HW228830   3.165   0.216   5.207  0.0023  0.0778 -1.0558
 5791SOL     OW28831   4.454   4.314   4.500  0.2126  0.0445 -0.1270
 5791SOL    HW128832   4.507   4.364   4.563  1.1202  0.4729 -1.2272
 5791SOL    HW228833   4.521   4.253   4.471 -1.0810 -1.1805 -0.5416
 5792SOL     OW28834   3.750   3.543   2.292  0.3791  0.7973 -0.0137
 5792SOL    HW128835   3.676   3.547   2.232 -0.2098  0.7496  0.7110
 5792SOL    HW228836   3.824   3.535   2.231 -1.0073 -1.0401 -1.4454
 5793SOL     OW28837   3.619   1.922   5.009  0.6587 -0.3289  0.0243
 5793SOL    HW128838   3.674   1.990   5.048 -0.0303 -1.6989  3.3056
 5793SOL    HW228839   3.554   1.974   4.961  0.9757 -0.2948 -0.3779
 5794SOL     OW28840   2.055   0.889   9.433 -0.1934 -0.3965  0.6673
 5794SOL    HW128841   2.133   0.944   9.439  0.9631 -1.6395 -2.6250
 5794SOL    HW228842   2.007   0.903   9.515 -2.0773  1.1907 -0.7058
 5795SOL     OW28843   3.180   0.133  13.281  0.3226  0.0484 -0.0794
 5795SOL    HW128844   3.243   0.150  13.350 -1.2529 -1.0176  1.6268
 5795SOL    HW228845   3.219   0.066  13.225 -1.4625 -0.8009 -0.3156
 5796SOL     OW28846   1.313   2.034   7.916  0.0039 -0.1476  0.1743
 5796SOL    HW128847   1.289   1.942   7.924 -1.2413  0.1822  0.1699
 5796SOL    HW228848   1.311   2.033   7.821 -3.3930  1.2423  0.2481
 5797SOL     OW28849   4.171   0.213   6.127  0.2500  0.1097 -0.1830
 5797SOL    HW128850   4.092   0.176   6.087  0.6471 -2.0022  1.0018
 5797SOL    HW228851   4.147   0.297   6.165  0.0824 -0.3636  0.7526
 5798SOL     OW28852   3.576   0.921   8.124 -0.7658 -0.3148 -0.1954
 5798SOL    HW128853   3.485   0.894   8.134 -0.6832 -0.4166  0.2832
 5798SOL    HW228854   3.597   0.916   8.217  2.0586 -1.7015 -0.8955
 5799SOL     OW28855   1.056   1.053   1.339 -0.6921  0.1362  0.5854
 5799SOL    HW128856   1.141   1.059   1.296 -1.2946 -1.1564 -0.7915
 5799SOL    HW228857   1.070   1.124   1.402 -0.5878 -1.8635  2.8098
 5800SOL     OW28858   0.306   0.344   6.255  0.3536 -0.1566 -0.7171
 5800SOL    HW128859   0.358   0.267   6.278  0.7356 -0.5724 -2.9649
 5800SOL    HW228860   0.284   0.377   6.342  0.1742  2.1238 -1.6403
 5801SOL     OW28861   4.421   3.050  14.292 -0.7775 -0.0355  0.0614
 5801SOL    HW128862   4.403   3.143  14.280  1.0428  0.3914  0.6570
 5801SOL    HW228863   4.330   3.021  14.295 -1.0724  0.7842 -0.9841
 5802SOL     OW28864   1.481   2.898   6.559 -0.1673 -0.5748 -0.6137
 5802SOL    HW128865   1.404   2.885   6.503 -1.1405 -0.0802  0.6131
 5802SOL    HW228866   1.479   2.816   6.608  2.4663  1.3938  2.7443
 5803SOL     OW28867   2.406   3.549   5.004  0.0309 -0.3608  0.3144
 5803SOL    HW128868   2.337   3.614   4.994  0.4242 -0.1505 -1.0758
 5803SOL    HW228869   2.395   3.537   5.098 -0.3467  1.8438  0.5557
 5804SOL     OW28870   3.357   2.107  17.156 -0.1122 -0.3410  0.6652
 5804SOL    HW128871   3.262   2.109  17.165 -0.1767  1.8252 -0.4778
 5804SOL    HW228872   3.385   2.100  17.247 -1.9864  0.0749  1.2587
 5805SOL     OW28873   4.090   4.169   4.322 -0.4794 -0.0680  0.4480
 5805SOL    HW128874   4.159   4.103   4.330  1.3689  1.7031 -0.8913
 5805SOL    HW228875   4.100   4.196   4.414 -0.3003  0.4577  0.2776
 5806SOL     OW28876   1.247   1.602   2.578 -0.2988 -0.1714 -0.3810
 5806SOL    HW128877   1.211   1.514   2.588 -0.4877 -0.0101  0.3303
 5806SOL    HW228878   1.230   1.641   2.663 -1.0840 -0.5920 -0.3425
 5807SOL     OW28879   1.363   0.850  15.604 -0.4285 -0.3880 -0.4885
 5807SOL    HW128880   1.383   0.814  15.690 -0.9073  1.6952  0.4857
 5807SOL    HW228881   1.423   0.809  15.542  0.1678 -1.1095  0.5648
 5808SOL     OW28882   1.097   3.087   8.086 -0.1038  0.1478 -0.5200
 5808SOL    HW128883   1.095   3.171   8.131 -0.2522 -0.4069  0.5139
 5808SOL    HW228884   1.002   3.077   8.082 -0.2199  0.4448  1.3620
 5809SOL     OW28885   1.905   1.212   3.545 -0.1039 -0.2399  0.2324
 5809SOL    HW128886   1.942   1.230   3.632 -1.3783 -1.9679  1.1519
 5809SOL    HW228887   1.985   1.171   3.512 -0.0996 -0.7293  0.8466
 5810SOL     OW28888   0.323   3.229  13.019  0.1314 -0.0092  0.1257
 5810SOL    HW128889   0.230   3.222  13.041 -0.3628  0.1060 -1.9783
 5810SOL    HW228890   0.332   3.145  12.976  0.1542  1.2487 -2.3223
 5811SOL     OW28891   2.349   0.168   2.435  0.6793 -0.8767  0.3072
 5811SOL    HW128892   2.345   0.120   2.352 -0.8646 -1.2559  0.5984
 5811SOL    HW228893   2.415   0.122   2.486  1.2806  1.0143  1.2213
 5812SOL     OW28894   4.602   1.648   0.695  0.0749  0.2749  0.0703
 5812SOL    HW128895   4.694   1.641   0.670  0.4760  2.3030  0.9643
 5812SOL    HW228896   4.562   1.634   0.609 -0.3508 -1.4597  0.5559
 5813SOL     OW28897   0.873   4.230   8.453  0.1958 -0.8312  0.1192
 5813SOL    HW128898   0.949   4.223   8.510 -1.3444 -0.3755  2.2275
 5813SOL    HW228899   0.801   4.197   8.506  0.1237 -0.4178  0.2816
 5814SOL     OW28900   1.441   2.994  12.953  0.0565  0.1299  0.2669
 5814SOL    HW128901   1.397   2.909  12.954  1.5981 -0.6659  0.9952
 5814SOL    HW228902   1.502   2.989  13.027 -0.4335 -1.4665  0.5500
 5815SOL     OW28903   0.156   2.518   9.854 -0.9150 -0.2273  0.0754
 5815SOL    HW128904   0.100   2.506   9.778 -0.9326 -0.9585  0.1975
 5815SOL    HW228905   0.228   2.460   9.831 -1.0063 -0.4094  0.2431
 5816SOL     OW28906   0.134   3.228   3.424 -1.2094 -0.2254 -0.2642
 5816SOL    HW128907   0.142   3.162   3.355  1.6065  0.0806 -0.2002
 5816SOL    HW228908   0.046   3.207   3.456 -0.8855 -1.5570 -0.2453
 5817SOL     OW28909   4.558   2.279   8.174  0.2725 -0.1088  0.1828
 5817SOL    HW128910   4.482   2.223   8.190  0.9153 -0.9194  0.4172
 5817SOL    HW228911   4.610   2.261   8.253 -0.8663 -0.6778  0.8173
 5818SOL     OW28912   2.336   3.718   6.568  0.7761  0.6227 -0.1701
 5818SOL    HW128913   2.249   3.746   6.539  0.6329  0.0649 -0.2880
 5818SOL    HW228914   2.391   3.761   6.503  1.2636  0.6381  0.2583
 5819SOL     OW28915   2.948   1.346  15.433 -0.2875  0.5496  0.0092
 5819SOL    HW128916   2.952   1.257  15.397  3.4156  0.3059  0.9841
 5819SOL    HW228917   3.041   1.351  15.457  0.0343 -1.2508 -0.8237
 5820SOL     OW28918   4.353   4.501   4.046 -0.4739 -0.6062 -0.0844
 5820SOL    HW128919   4.400   4.418   4.037  0.5140 -0.0014 -0.4421
 5820SOL    HW228920   4.263   4.469   4.045 -0.5651 -0.1936 -2.4569
 5821SOL     OW28921   1.304   0.088   6.978 -0.1451  0.5351  0.2223
 5821SOL    HW128922   1.361   0.033   6.924  1.0362  2.3096 -0.3534
 5821SOL    HW228923   1.355   0.106   7.057  1.0356  0.8546 -0.6030
 5822SOL     OW28924   2.383   1.851   8.194  0.2970 -0.6511 -0.2111
 5822SOL    HW128925   2.346   1.813   8.114 -2.1247  1.6225 -0.1447
 5822SOL    HW228926   2.310   1.841   8.255 -0.1884 -1.2827 -0.8836
 5823SOL     OW28927   0.017   3.716   4.914  0.0915  0.1960 -0.0115
 5823SOL    HW128928   0.016   3.639   4.857  3.3199  0.1295 -0.0126
 5823SOL    HW228929   0.108   3.731   4.886  0.1845  1.8541  1.2132
 5824SOL     OW28930   0.189   1.435   2.664 -0.5338 -0.0371  0.6825
 5824SOL    HW128931   0.262   1.413   2.722  0.6729  2.1076 -0.0146
 5824SOL    HW228932   0.155   1.511   2.713 -1.0340 -0.5525  1.1495
 5825SOL     OW28933   4.627   3.380   7.089 -0.3599 -0.1884 -0.3625
 5825SOL    HW128934   4.554   3.395   7.149 -0.6603  0.5808 -0.9119
 5825SOL    HW228935   4.592   3.434   7.018  0.4569 -1.2903 -1.6033
 5826SOL     OW28936   0.474   0.563   2.909 -0.2905  0.0413  0.4896
 5826SOL    HW128937   0.393   0.604   2.940  1.1450  3.7306 -0.7497
 5826SOL    HW228938   0.446   0.539   2.821  0.8684  0.2224  0.0786
 5827SOL     OW28939   1.384   1.816   1.799 -0.6955  0.1488  0.2687
 5827SOL    HW128940   1.435   1.895   1.820  1.8825 -1.3180 -0.4697
 5827SOL    HW228941   1.300   1.852   1.772 -0.5128  0.3496 -0.0349
 5828SOL     OW28942   4.413   3.742   5.780  0.1340  0.3095  0.9675
 5828SOL    HW128943   4.374   3.759   5.865 -0.6794 -0.3154  0.7258
 5828SOL    HW228944   4.444   3.652   5.793 -2.0461 -0.9376 -2.3619
 5829SOL     OW28945   4.464   0.501   3.402 -0.4734  0.1813  0.0797
 5829SOL    HW128946   4.503   0.547   3.327 -0.1447 -0.3633 -0.0842
 5829SOL    HW228947   4.515   0.421   3.410 -0.3204  0.1116 -1.4192
 5830SOL     OW28948   0.374   1.952   6.429 -0.0835 -0.0542  0.2448
 5830SOL    HW128949   0.340   1.946   6.340 -0.5379  0.6189  0.3713
 5830SOL    HW228950   0.455   2.003   6.418 -0.7830  0.7481 -1.2248
 5831SOL     OW28951   0.838   3.098   8.114 -0.0964 -0.4618  0.6375
 5831SOL    HW128952   0.800   3.019   8.152  0.2870 -0.9788 -0.0571
 5831SOL    HW228953   0.802   3.159   8.178  1.2279  0.5713  0.4097
 5832SOL     OW28954   1.707   4.448  17.669  0.4885  0.4018  0.2169
 5832SOL    HW128955   1.628   4.404   0.004  2.4889 -2.6289  1.0426
 5832SOL    HW228956   1.743   4.473   0.058 -0.4365  0.2930  0.6348
 5833SOL     OW28957   0.344   2.819   8.444  0.5878  0.6689  0.0390
 5833SOL    HW128958   0.377   2.767   8.371 -1.6446  0.1552 -0.6035
 5833SOL    HW228959   0.295   2.755   8.496  0.9121 -1.0507 -1.7498
 5834SOL     OW28960   4.339   0.368  11.230  0.1915  0.3706 -0.1041
 5834SOL    HW128961   4.351   0.462  11.215 -0.6566  0.1775 -2.0274
 5834SOL    HW228962   4.277   0.362  11.302  0.0275 -0.8586 -0.3490
 5835SOL     OW28963   0.745   0.783   6.732  0.0290 -0.3955 -0.3192
 5835SOL    HW128964   0.825   0.736   6.754 -0.2403  0.2331  1.9480
 5835SOL    HW228965   0.718   0.728   6.658  0.6596  0.1239 -0.9365
 5836SOL     OW28966   4.288   0.123  14.101 -0.3806  0.0124  0.3968
 5836SOL    HW128967   4.214   0.063  14.104 -0.1888 -0.3185 -1.0357
 5836SOL    HW228968   4.310   0.102  14.010 -1.8234  0.7263 -0.1052
 5837SOL     OW28969   0.136   3.669   8.913  0.4042  0.5565  0.1798
 5837SOL    HW128970   0.165   3.584   8.879  0.4275 -0.5299  2.9020
 5837SOL    HW228971   0.218   3.718   8.913  2.2477 -2.4425 -2.9768
 5838SOL     OW28972   4.258   2.233  12.647  0.5414  0.5709 -0.3766
 5838SOL    HW128973   4.322   2.184  12.700 -0.1770 -0.5585 -0.5534
 5838SOL    HW228974   4.306   2.305  12.607 -1.9701  1.2349 -2.1926
 5839SOL     OW28975   1.402   1.829   4.681  0.2887 -0.1399  0.1127
 5839SOL    HW128976   1.449   1.754   4.644 -1.4928 -0.7618 -0.9002
 5839SOL    HW228977   1.383   1.887   4.608 -0.5351 -2.3624 -1.4561
 5840SOL     OW28978   1.367   0.816   2.945 -0.1431 -0.4475 -0.4675
 5840SOL    HW128979   1.383   0.751   2.877  1.9712  0.3793 -0.7570
 5840SOL    HW228980   1.356   0.894   2.891 -1.2910 -0.4430 -0.2352
 5841SOL     OW28981   0.499   4.714  14.495  0.0659  0.0295  0.3717
 5841SOL    HW128982   0.574   4.703  14.553 -0.0115 -0.5240  0.3639
 5841SOL    HW228983   0.432   0.003  14.563 -0.9356 -0.0737 -0.5954
 5842SOL     OW28984   3.351   4.274  11.052  0.5976  0.0911 -0.0561
 5842SOL    HW128985   3.432   4.224  11.065  1.5733  1.2479 -1.6590
 5842SOL    HW228986   3.361   4.332  11.127  0.3663  1.2327 -0.9054
 5843SOL     OW28987   0.259   4.360   8.680 -0.1986  0.7661  0.2114
 5843SOL    HW128988   0.305   4.302   8.619 -0.1232  2.6178 -1.5129
 5843SOL    HW228989   0.332   4.411   8.716  0.3047  1.7079 -2.1338
 5844SOL     OW28990   3.192   4.153   5.259  0.2395  0.2014 -0.0131
 5844SOL    HW128991   3.162   4.143   5.169  0.9695  0.5541 -0.2987
 5844SOL    HW228992   3.283   4.122   5.254  0.3781  0.4439  1.0622
 5845SOL     OW28993   1.293   0.167   6.051 -0.5147  0.1373 -0.4786
 5845SOL    HW128994   1.265   0.086   6.010 -0.0659 -0.3971  0.2873
 5845SOL    HW228995   1.360   0.130   6.108 -0.8303 -1.4060 -1.1349
 5846SOL     OW28996   0.395   2.045  14.525  0.3331  0.2633  0.6852
 5846SOL    HW128997   0.352   2.032  14.440 -1.7422 -1.2946  1.9512
 5846SOL    HW228998   0.379   1.964  14.573 -0.1624 -1.4052 -2.2818
 5847SOL     OW28999   4.510   0.853   5.081  0.6681  0.0224  0.8361
 5847SOL    HW129000   4.570   0.801   5.027  0.7601  0.5043  0.4785
 5847SOL    HW229001   4.558   0.933   5.101 -0.8529  0.9722  0.6679
 5848SOL     OW29002   3.388   4.345   4.103 -0.2862 -0.2075  0.2346
 5848SOL    HW129003   3.437   4.343   4.185  0.4541  1.2014 -0.1616
 5848SOL    HW229004   3.320   4.288   4.139  0.6561 -0.6743  1.2650
 5849SOL     OW29005   4.212   0.383  11.468  0.0440 -0.2537 -0.2798
 5849SOL    HW129006   4.120   0.409  11.457  0.2086  0.2457 -0.4816
 5849SOL    HW229007   4.235   0.441  11.541 -0.7236  0.1393 -0.3415
 5850SOL     OW29008   1.671   3.664   2.544 -0.0192  0.2613  0.0926
 5850SOL    HW129009   1.680   3.579   2.501 -0.4639 -0.3457  1.2175
 5850SOL    HW229010   1.678   3.728   2.473  2.3738  1.3189  1.2915
 5851SOL     OW29011   1.365   0.770  14.702  0.1494 -0.6872  0.4121
 5851SOL    HW129012   1.339   0.729  14.785 -1.1064  0.1692  0.4387
 5851SOL    HW229013   1.343   0.862  14.720  3.6582  0.2315 -0.0595
 5852SOL     OW29014   0.193   0.474   2.094  0.0566 -0.5363 -0.3640
 5852SOL    HW129015   0.188   0.570   2.101 -0.1750 -0.5292 -0.6053
 5852SOL    HW229016   0.164   0.447   2.181 -0.8677  0.6264 -0.3082
 5853SOL     OW29017   4.584   4.111  12.603 -0.0835  0.0618  0.0759
 5853SOL    HW129018   4.632   4.029  12.615  1.4019  1.0792  0.9901
 5853SOL    HW229019   4.493   4.088  12.624  0.2078  0.9631  2.3184
 5854SOL     OW29020   1.127   3.585   3.547 -0.4392 -0.0879 -0.0017
 5854SOL    HW129021   1.164   3.514   3.494 -3.6408 -2.3743  0.8251
 5854SOL    HW229022   1.035   3.564   3.537 -0.4599  0.9652 -1.8737
 5855SOL     OW29023   0.169   1.971   1.638 -0.3191  0.7393 -0.0179
 5855SOL    HW129024   0.220   1.923   1.703 -0.4745  3.1693  1.8663
 5855SOL    HW229025   0.107   2.017   1.694 -0.6981  1.2344 -0.8330
 5856SOL     OW29026   1.082   1.972  13.367 -0.0337 -0.2203  0.2934
 5856SOL    HW129027   1.119   1.891  13.331  0.5219  0.0742  0.2075
 5856SOL    HW229028   1.158   1.993  13.422  0.4847  0.0095 -0.5158
 5857SOL     OW29029   4.608   4.159   6.160 -0.5791  0.0440  0.1724
 5857SOL    HW129030   4.689   4.119   6.191  0.5252  0.3697 -2.2962
 5857SOL    HW229031   4.614   4.241   6.210  1.0476  0.0418 -0.0155
 5858SOL     OW29032   4.146   4.704   8.472  0.1777  0.1520 -0.5356
 5858SOL    HW129033   4.201   0.008   8.545  0.3348  0.0371 -0.6082
 5858SOL    HW229034   4.206   4.679   8.402 -1.0320 -2.4011 -0.6469
 5859SOL     OW29035   1.602   2.084  17.582  0.4004 -0.0856  0.5104
 5859SOL    HW129036   1.621   2.150  17.516  0.0134  0.3279  0.8154
 5859SOL    HW229037   1.568   2.017  17.523  0.7904  0.3773 -0.2367
 5860SOL     OW29038   1.590   1.148   2.849  0.1671  0.0448 -0.8876
 5860SOL    HW129039   1.669   1.137   2.902  0.1237  2.5800 -0.2582
 5860SOL    HW229040   1.556   1.237   2.857 -1.4404 -0.6107 -0.5414
 5861SOL     OW29041   3.062   3.369   4.649 -0.0018 -1.0414 -0.2953
 5861SOL    HW129042   3.062   3.430   4.723 -4.5102  1.7604 -2.6396
 5861SOL    HW229043   2.986   3.410   4.608  0.9074  2.0460  1.1841
 5862SOL     OW29044   2.455   0.285   8.227 -0.0598 -0.0715 -0.0474
 5862SOL    HW129045   2.425   0.342   8.156 -3.1862 -2.7856 -0.8657
 5862SOL    HW229046   2.499   0.222   8.170 -0.7420 -1.7780  1.3501
 5863SOL     OW29047   4.230   0.604   6.618  0.1720 -0.2522  0.1808
 5863SOL    HW129048   4.138   0.631   6.612  0.0223 -0.4781  1.4217
 5863SOL    HW229049   4.275   0.651   6.548  1.1354  0.3046  1.1688
 5864SOL     OW29050   3.859   1.245   5.897  0.3547  0.3254 -0.0599
 5864SOL    HW129051   3.941   1.251   5.848 -1.3243  0.5110 -2.8349
 5864SOL    HW229052   3.831   1.335   5.885 -0.9686 -0.4706 -2.8821
 5865SOL     OW29053   0.617   2.281   5.360 -0.7305 -0.4006  0.5123
 5865SOL    HW129054   0.655   2.356   5.314 -0.3291 -0.2927  1.0058
 5865SOL    HW229055   0.523   2.300   5.363 -0.6399  0.1840 -0.4835
 5866SOL     OW29056   1.435   3.100   4.434  0.2630  0.1382 -0.0806
 5866SOL    HW129057   1.344   3.131   4.436  0.0105 -0.7201  1.0598
 5866SOL    HW229058   1.427   3.015   4.476  0.5278  0.7992  1.3210
 5867SOL     OW29059   3.672   0.664  12.875 -0.7849 -0.1036  0.1889
 5867SOL    HW129060   3.689   0.681  12.782 -0.7687  0.2152  0.2502
 5867SOL    HW229061   3.583   0.700  12.873 -0.1713  1.5384  3.0171
 5868SOL     OW29062   2.473   1.159   5.802  0.2792  0.2885  0.0487
 5868SOL    HW129063   2.434   1.209   5.874 -1.7280 -1.2139 -0.0084
 5868SOL    HW229064   2.554   1.209   5.792 -0.9794  2.4396  0.7239
 5869SOL     OW29065   1.675   2.900   3.516  0.6976  1.0405  0.2851
 5869SOL    HW129066   1.683   2.987   3.477  1.4517  0.8381 -0.0113
 5869SOL    HW229067   1.727   2.841   3.461 -1.0117 -0.0067 -0.2011
 5870SOL     OW29068   2.681   4.338   7.623 -0.5757  0.1209  0.8782
 5870SOL    HW129069   2.621   4.333   7.697 -1.7739  2.8196  0.0953
 5870SOL    HW229070   2.656   4.254   7.584  1.1190 -0.3450  0.7880
 5871SOL     OW29071   1.998   1.444  15.083  0.2026  0.1211  0.0069
 5871SOL    HW129072   1.969   1.353  15.095  0.5408 -0.0526 -0.4733
 5871SOL    HW229073   2.041   1.459  15.168 -0.9970 -2.1655  1.0276
 5872SOL     OW29074   0.673   2.480   9.939 -0.2293 -0.9190  0.1624
 5872SOL    HW129075   0.652   2.572   9.955  1.2025 -0.2070 -2.0839
 5872SOL    HW229076   0.766   2.479   9.962  0.2580 -1.8837 -1.8489
 5873SOL     OW29077   0.366   1.246   8.320 -0.4978  0.6097  0.3102
 5873SOL    HW129078   0.275   1.262   8.294 -0.3090  1.1423 -0.0144
 5873SOL    HW229079   0.389   1.180   8.254  0.2663  0.6998  0.4866
 5874SOL     OW29080   2.888   2.402   5.310  0.0006 -0.7342  0.1113
 5874SOL    HW129081   2.805   2.356   5.326 -0.7456  0.9245  0.9439
 5874SOL    HW229082   2.899   2.388   5.216 -0.0065  0.6206 -0.0895
 5875SOL     OW29083   2.414   0.118   2.971 -0.2319  0.3032 -0.3597
 5875SOL    HW129084   2.376   0.205   2.970  3.1851  1.7956 -1.6524
 5875SOL    HW229085   2.466   0.117   2.891  0.9597 -0.9466  0.4221
 5876SOL     OW29086   1.030   3.686   8.729  0.0948  0.6107 -0.0072
 5876SOL    HW129087   1.079   3.730   8.659 -0.5778 -0.1508 -0.9459
 5876SOL    HW229088   0.979   3.758   8.766  2.8428  3.0270 -0.8386
 5877SOL     OW29089   3.558   4.185   1.323 -0.1766 -0.0345 -0.4441
 5877SOL    HW129090   3.527   4.096   1.303 -2.0942  0.2202  1.3826
 5877SOL    HW229091   3.646   4.189   1.286  0.1501  0.8989  0.4561
 5878SOL     OW29092   1.866   4.453   4.047 -0.1489 -0.3491  0.5557
 5878SOL    HW129093   1.937   4.402   4.087  0.3436  1.1969  1.6535
 5878SOL    HW229094   1.851   4.406   3.965 -3.9462  1.2711  0.3127
 5879SOL     OW29095   1.764   1.010   5.021 -0.3117  1.3149 -0.6203
 5879SOL    HW129096   1.782   1.020   4.928  0.3380 -1.4704 -0.7974
 5879SOL    HW229097   1.732   0.920   5.024  1.5895  0.6535 -0.1392
 5880SOL     OW29098   2.852   2.536  16.271 -0.3891 -0.0334 -0.7816
 5880SOL    HW129099   2.818   2.555  16.183 -1.2024 -0.8830 -0.6584
 5880SOL    HW229100   2.767   2.527  16.315  1.5534 -0.9662  2.7698
 5881SOL     OW29101   4.630   4.161   4.371  0.0259 -0.1644  0.3734
 5881SOL    HW129102   4.639   4.066   4.371  2.2394  0.0296  0.2394
 5881SOL    HW229103   4.721   4.190   4.365  0.3594 -1.0507  1.1136
 5882SOL     OW29104   1.449   4.157   2.170  0.0610 -0.0305 -0.2001
 5882SOL    HW129105   1.503   4.235   2.159  0.3113 -0.2308 -0.4000
 5882SOL    HW229106   1.390   4.173   2.096 -0.5991  0.3970  0.4258
 5883SOL     OW29107   0.825   1.328   8.781 -0.8716  0.1430 -0.1089
 5883SOL    HW129108   0.756   1.263   8.795 -1.1915  0.6096  0.4807
 5883SOL    HW229109   0.837   1.361   8.870 -0.8388  1.2398 -0.5319
 5884SOL     OW29110   1.838   0.860  12.604 -0.4395 -0.3410 -0.1934
 5884SOL    HW129111   1.900   0.846  12.675 -1.6600  3.0065  1.5563
 5884SOL    HW229112   1.761   0.810  12.633  0.9569 -1.9024  0.7872
 5885SOL     OW29113   1.186   1.860  17.247 -0.5561  0.6102 -0.5316
 5885SOL    HW129114   1.154   1.908  17.170  0.1893  1.4962 -0.3000
 5885SOL    HW229115   1.173   1.930  17.311  0.9414  0.2018  0.2146
 5886SOL     OW29116   2.405   4.496   2.718  0.5714 -0.0398  0.2294
 5886SOL    HW129117   2.391   4.431   2.787 -1.4999  1.3553  1.1018
 5886SOL    HW229118   2.373   4.447   2.643  0.8537 -1.5415  1.0816
 5887SOL     OW29119   2.157   3.214   8.274  0.1752  0.0380  0.6395
 5887SOL    HW129120   2.146   3.270   8.351 -0.1679  0.5403  0.2184
 5887SOL    HW229121   2.073   3.232   8.234  1.6863  3.8247 -0.8550
 5888SOL     OW29122   0.812   2.913   4.085 -0.3007  0.3507 -0.5293
 5888SOL    HW129123   0.882   2.974   4.111  2.1825 -2.8645  0.3691
 5888SOL    HW229124   0.868   2.835   4.092 -3.6193 -2.0551 -1.0693
 5889SOL     OW29125   1.841   0.936   6.267 -0.1126  0.0533  0.0719
 5889SOL    HW129126   1.899   0.965   6.196  1.7478 -1.0842  1.1177
 5889SOL    HW229127   1.761   0.909   6.222  0.3066 -1.1249  0.0249
 5890SOL     OW29128   0.102   4.151  10.702 -0.2588 -0.3808 -1.1070
 5890SOL    HW129129   0.035   4.083  10.713  0.1052 -0.5098  0.2208
 5890SOL    HW229130   0.169   4.109  10.754 -0.9152  0.1496  0.1625
 5891SOL     OW29131   3.829   3.846  13.517  0.2008 -1.0394 -0.2038
 5891SOL    HW129132   3.914   3.802  13.528  0.7632 -0.4164 -2.1089
 5891SOL    HW229133   3.818   3.861  13.423 -2.5556 -0.2313  0.2454
 5892SOL     OW29134   2.726   1.486   3.491 -0.3640 -0.3790  0.0539
 5892SOL    HW129135   2.690   1.565   3.451 -0.2023 -1.2367 -1.7472
 5892SOL    HW229136   2.811   1.515   3.525  0.3565 -1.6342 -0.6706
 5893SOL     OW29137   4.414   2.166  13.910 -0.3410 -0.2147 -0.1959
 5893SOL    HW129138   4.485   2.194  13.967 -0.9721 -0.0521  0.5106
 5893SOL    HW229139   4.464   2.105  13.855  1.8214  2.3167 -1.0316
 5894SOL     OW29140   0.474   3.754  15.237  0.4059 -0.0738  0.2035
 5894SOL    HW129141   0.456   3.763  15.143 -3.3139  0.9795  1.0158
 5894SOL    HW229142   0.399   3.698  15.258 -0.1039  0.0929 -1.1571
 5895SOL     OW29143   4.583   1.703   2.952 -0.4446  0.7943  0.3717
 5895SOL    HW129144   4.578   1.786   3.000  2.9388  0.6261  1.0066
 5895SOL    HW229145   4.496   1.665   2.960 -0.1071 -0.3781 -1.5160
 5896SOL     OW29146   0.257   1.842  17.018 -0.3782 -0.3632 -0.2497
 5896SOL    HW129147   0.334   1.813  17.068 -0.7096  0.7593  0.9069
 5896SOL    HW229148   0.210   1.877  17.094 -1.1338  0.3537 -1.0605
 5897SOL     OW29149   3.640   4.677  10.041 -0.5774  0.2922 -0.3868
 5897SOL    HW129150   3.630   4.624  10.121  0.4104 -1.1801 -1.2511
 5897SOL    HW229151   3.722   0.000  10.051 -0.8315  0.2289  2.1463
 5898SOL     OW29152   3.319   1.104   4.479 -0.3976 -0.5355 -0.8279
 5898SOL    HW129153   3.298   1.011   4.470 -1.2141 -0.6029  1.6021
 5898SOL    HW229154   3.295   1.138   4.393 -1.5410 -2.9634 -1.4565
 5899SOL     OW29155   1.142   0.164   2.884 -0.3891  0.2835 -0.6586
 5899SOL    HW129156   1.097   0.081   2.867 -1.0291  0.0637  2.0925
 5899SOL    HW229157   1.073   0.204   2.937  1.7253  2.2521  0.6094
 5900SOL     OW29158   4.473   1.045   9.131  0.7339 -0.2401  0.2980
 5900SOL    HW129159   4.382   1.031   9.155  0.0396  0.7903 -1.6855
 5900SOL    HW229160   4.513   1.037   9.218  1.6143 -3.0544 -0.3568
 5901SOL     OW29161   4.343   4.108   1.906 -0.5808 -0.4441 -0.0500
 5901SOL    HW129162   4.397   4.180   1.938 -1.1215 -1.0469  2.2461
 5901SOL    HW229163   4.305   4.136   1.822  0.6888  0.9165 -0.1747
 5902SOL     OW29164   4.227   4.568   7.697 -0.3716 -0.2047 -0.1471
 5902SOL    HW129165   4.235   4.482   7.657 -3.0642 -1.5604  2.1909
 5902SOL    HW229166   4.306   4.577   7.751 -0.4659  0.2917 -0.0882
 5903SOL     OW29167   0.287   0.247   4.012  0.6780 -0.3352  0.0333
 5903SOL    HW129168   0.293   0.258   4.107 -0.8840  0.8730 -0.0121
 5903SOL    HW229169   0.265   0.156   3.990  1.3325 -0.2608 -0.9001
 5904SOL     OW29170   1.118   1.357   5.728 -0.7102 -0.3616 -0.2066
 5904SOL    HW129171   1.079   1.323   5.647 -2.3806 -1.6490  1.1465
 5904SOL    HW229172   1.195   1.407   5.700  0.2769 -2.4300 -1.1828
 5905SOL     OW29173   3.335   0.131   7.026 -0.1723  0.1331  0.8675
 5905SOL    HW129174   3.246   0.128   6.991  0.0410  1.3860  0.2028
 5905SOL    HW229175   3.328   0.205   7.086  3.2719  0.2907  1.0620
 5906SOL     OW29176   2.303   4.007  13.376  0.2412 -0.0421 -0.5764
 5906SOL    HW129177   2.341   4.089  13.344 -1.5198  0.1497 -2.1805
 5906SOL    HW229178   2.227   4.009  13.318 -0.6867 -0.5976  0.6159
 5907SOL     OW29179   3.356   0.308   8.931 -0.2279  0.0653  0.0712
 5907SOL    HW129180   3.293   0.277   8.866 -1.6611  1.1361  0.9353
 5907SOL    HW229181   3.370   0.238   8.996  3.1083 -0.2882 -1.0723
 5908SOL     OW29182   2.533   0.022   9.161  0.0367  0.3761  0.6750
 5908SOL    HW129183   2.488   0.082   9.221 -0.0435  0.9799  0.0068
 5908SOL    HW229184   2.461   4.685   9.141 -1.5125  2.4174  0.0154
 5909SOL     OW29185   2.726   3.428   7.956  0.0533  0.8404 -0.0331
 5909SOL    HW129186   2.707   3.516   7.924  0.4226  0.9798  0.1406
 5909SOL    HW229187   2.734   3.384   7.871 -2.9621 -1.4115  0.8411
 5910SOL     OW29188   3.389   0.560   1.384 -0.2029 -0.1764 -0.0434
 5910SOL    HW129189   3.326   0.509   1.334 -1.1762  0.0218  0.9676
 5910SOL    HW229190   3.414   0.620   1.314  1.2714 -1.8283 -0.9097
 5911SOL     OW29191   3.465   3.356   2.789 -0.4047 -0.4001 -0.8109
 5911SOL    HW129192   3.480   3.286   2.725 -3.4757 -0.4154 -1.4999
 5911SOL    HW229193   3.397   3.408   2.748 -0.8797 -1.0898 -0.8953
 5912SOL     OW29194   2.154   4.198   7.254 -0.1535  0.7175 -0.5193
 5912SOL    HW129195   2.064   4.228   7.242 -1.6909 -2.5815  2.8767
 5912SOL    HW229196   2.186   4.219   7.166  0.4553  2.3437  0.0930
 5913SOL     OW29197   1.017   3.544  12.271 -0.3590  0.1001  0.2745
 5913SOL    HW129198   1.015   3.636  12.243  2.5260 -0.1854 -0.8048
 5913SOL    HW229199   1.074   3.514  12.201 -1.4172 -0.5748 -0.2942
 5914SOL     OW29200   3.276   1.024   1.994  0.2037 -0.2095  0.0097
 5914SOL    HW129201   3.203   1.011   2.054 -0.4658 -0.8853 -0.9390
 5914SOL    HW229202   3.310   1.106   2.031 -0.0922 -0.9237  1.8514
 5915SOL     OW29203   3.934   3.106  16.486  0.0607 -0.0339 -0.2563
 5915SOL    HW129204   3.966   3.042  16.423  2.0632  1.4365 -0.7601
 5915SOL    HW229205   3.868   3.055  16.533 -0.8913  1.6330  0.2020
 5916SOL     OW29206   2.544   1.525   4.002  0.7838 -0.2329  1.1890
 5916SOL    HW129207   2.486   1.451   3.985 -0.0908  1.0676 -1.4586
 5916SOL    HW229208   2.562   1.552   3.912 -2.2296  3.8240  1.8265
 5917SOL     OW29209   0.239   2.293  17.659 -0.0271  0.2220  0.1051
 5917SOL    HW129210   0.288   2.259   0.037 -0.3918  2.2945  1.3242
 5917SOL    HW229211   0.155   2.248  17.654  1.0371 -1.8323  0.9124
 5918SOL     OW29212   3.427   4.433   7.787  0.3474  0.2484  0.1624
 5918SOL    HW129213   3.509   4.482   7.798 -0.4034  1.4638  0.3234
 5918SOL    HW229214   3.410   4.440   7.693 -1.4693  0.9933  0.5555
 5919SOL     OW29215   3.407   0.796   2.031  0.0046  0.4310 -0.0365
 5919SOL    HW129216   3.415   0.729   1.963 -1.0381  1.2369 -0.9388
 5919SOL    HW229217   3.377   0.871   1.980 -1.2056  0.7634  1.1625
 5920SOL     OW29218   1.911   3.806   0.460 -0.2044 -0.0242  0.1224
 5920SOL    HW129219   1.890   3.799   0.367  0.1096 -0.1905  0.0603
 5920SOL    HW229220   1.929   3.900   0.465 -0.3469 -0.1165  2.5890
 5921SOL     OW29221   2.299   0.686   3.140  0.1724 -0.4662 -0.0799
 5921SOL    HW129222   2.391   0.684   3.165  1.1620 -0.5748 -3.7651
 5921SOL    HW229223   2.314   0.695   3.046  2.2974  0.3928  0.3416
 5922SOL     OW29224   1.957   2.712   6.094  0.2113 -0.3894  0.1704
 5922SOL    HW129225   2.049   2.739   6.099  0.2074 -0.3270 -0.0867
 5922SOL    HW229226   1.948   2.683   6.003 -0.0557 -0.5066  0.2349
 5923SOL     OW29227   2.285   4.617   6.334  0.7304  0.0659  0.4845
 5923SOL    HW129228   2.307   4.553   6.267 -2.3949  1.1008 -1.5465
 5923SOL    HW229229   2.365   4.631   6.385  0.9240  1.4425 -0.1922
 5924SOL     OW29230   0.370   3.453   5.717  0.0214  0.0044  0.1541
 5924SOL    HW129231   0.417   3.370   5.714 -1.6901 -1.0182  1.7415
 5924SOL    HW229232   0.282   3.433   5.686  0.5759  0.0642 -1.4448
 5925SOL     OW29233   3.560   0.538   7.532  0.0471  0.2261 -0.1269
 5925SOL    HW129234   3.506   0.617   7.531 -2.5303 -1.5546  0.6880
 5925SOL    HW229235   3.589   0.526   7.622 -0.6408  0.3739  0.1120
 5926SOL     OW29236   1.344   0.554   2.207  0.1875  0.0922  0.0029
 5926SOL    HW129237   1.422   0.552   2.151  1.3046  0.4869  1.5267
 5926SOL    HW229238   1.321   0.643   2.181  0.3979 -0.1301 -0.9412
 5927SOL     OW29239   0.210   1.963   6.225 -0.0352 -0.7165  0.0457
 5927SOL    HW129240   0.115   1.968   6.218 -0.0154 -1.3266 -0.6931
 5927SOL    HW229241   0.243   2.016   6.153 -0.7557 -1.8846 -1.1486
 5928SOL     OW29242   2.189   2.841  14.763 -0.0253  0.3510  0.0790
 5928SOL    HW129243   2.103   2.812  14.733  0.5017 -0.9580 -0.1271
 5928SOL    HW229244   2.243   2.832  14.685  0.3748 -0.5993  0.4717
 5929SOL     OW29245   4.456   0.181  11.788  0.2424 -0.3975 -0.0994
 5929SOL    HW129246   4.542   0.139  11.782 -0.9444 -3.0671  1.6671
 5929SOL    HW229247   4.428   0.167  11.697  2.3107 -0.7731 -0.6772
 5930SOL     OW29248   1.248   3.489   6.220  0.0329 -0.5681  0.3457
 5930SOL    HW129249   1.292   3.574   6.221  1.5525 -1.3516  0.9932
 5930SOL    HW229250   1.303   3.435   6.163  1.7424  3.0867 -1.4721
 5931SOL     OW29251   1.004   1.448   2.097  0.0078  0.6295  0.3140
 5931SOL    HW129252   1.048   1.532   2.081  0.2926 -0.0033 -2.1917
 5931SOL    HW229253   1.018   1.441   2.192 -0.8260 -0.6247  0.3461
 5932SOL     OW29254   1.394   1.035   7.368 -0.1845  0.5162  0.1184
 5932SOL    HW129255   1.299   1.024   7.371 -0.0904 -0.5380 -0.5889
 5932SOL    HW229256   1.396   1.115   7.317  0.4520 -0.2749 -1.0896
 5933SOL     OW29257   4.395   3.302   5.011  0.4819  0.0378 -0.6398
 5933SOL    HW129258   4.348   3.219   4.999 -0.5286  0.1807  2.1338
 5933SOL    HW229259   4.428   3.280   5.098  0.2316 -2.0625 -1.0754
 5934SOL     OW29260   1.405   2.411   6.854 -0.1861 -0.3282 -1.2123
 5934SOL    HW129261   1.423   2.317   6.843  3.6922  0.0809  1.7054
 5934SOL    HW229262   1.325   2.410   6.907  1.1135 -0.2412  0.7926
 5935SOL     OW29263   4.326   0.083  12.571  0.2422  0.5984 -1.0043
 5935SOL    HW129264   4.256   0.098  12.507 -0.3661 -0.4341 -0.5740
 5935SOL    HW229265   4.397   0.140  12.541  0.6009  0.6284 -0.0886
 5936SOL     OW29266   2.364   0.640  14.731 -0.3945  0.5328 -0.6284
 5936SOL    HW129267   2.426   0.706  14.702  1.6141 -1.3363 -0.5794
 5936SOL    HW229268   2.397   0.569  14.676  2.5387  1.0235  0.4891
 5937SOL     OW29269   0.526   0.970   4.626 -0.4149  0.0352 -0.3879
 5937SOL    HW129270   0.533   0.915   4.547  0.3661  1.9667 -1.6495
 5937SOL    HW229271   0.567   0.909   4.688  1.1040  2.5062  1.0130
 5938SOL     OW29272   3.147   0.867  17.476 -0.2455  0.4357 -0.0205
 5938SOL    HW129273   3.114   0.920  17.404  2.1630  2.6154  0.4557
 5938SOL    HW229274   3.097   0.789  17.454  0.9477  0.4460 -2.8166
 5939SOL     OW29275   1.528   0.428   1.829 -0.1608  0.1785 -0.1298
 5939SOL    HW129276   1.563   0.358   1.773 -0.7719 -0.0171 -0.2704
 5939SOL    HW229277   1.508   0.491   1.760 -0.5435  0.8081  0.5579
 5940SOL     OW29278   3.181   4.511   3.268  0.6168  0.3553  0.2482
 5940SOL    HW129279   3.247   4.572   3.301 -1.1680  1.4950  1.7085
 5940SOL    HW229280   3.241   4.439   3.247 -1.1765 -0.0659 -3.5163
 5941SOL     OW29281   0.578   1.455   6.096 -0.3003 -0.2236  0.6328
 5941SOL    HW129282   0.620   1.378   6.059  2.1883  1.5301 -0.1857
 5941SOL    HW229283   0.593   1.424   6.185 -2.0339 -0.3098  0.9010
 5942SOL     OW29284   4.515   4.719  10.228 -0.8739  0.1418 -0.4716
 5942SOL    HW129285   4.557   0.059  10.287 -1.3924  0.0865 -0.0420
 5942SOL    HW229286   4.590   4.688  10.177  0.8161  1.8104  0.9629
 5943SOL     OW29287   3.375   1.926   6.621 -0.6614  0.3644  1.0638
 5943SOL    HW129288   3.430   1.856   6.656  0.5071  0.9869  0.4701
 5943SOL    HW229289   3.324   1.930   6.702 -0.4580  2.8543  1.0646
 5944SOL     OW29290   0.600   3.979   2.738  0.3665 -1.1210  0.2517
 5944SOL    HW129291   0.661   3.951   2.806  0.8435 -1.5689 -0.3575
 5944SOL    HW229292   0.615   4.072   2.754 -0.3103 -0.8158 -0.9342
 5945SOL     OW29293   1.153   3.268   3.520 -0.0475 -0.1921  0.3863
 5945SOL    HW129294   1.094   3.229   3.584  0.8503 -0.4349  1.0544
 5945SOL    HW229295   1.227   3.282   3.579  0.6162 -0.7431 -0.3024
 5946SOL     OW29296   4.712   4.182  16.350 -0.1170  0.0059  0.1719
 5946SOL    HW129297   4.652   4.230  16.407  0.5134 -1.8033  2.3842
 5946SOL    HW229298   4.649   4.146  16.287 -1.1607 -0.3377  1.4098
 5947SOL     OW29299   2.147   2.068  14.858 -0.0517  0.1596 -0.6258
 5947SOL    HW129300   2.058   2.072  14.820 -0.4058  0.7494  0.2686
 5947SOL    HW229301   2.178   1.986  14.820  0.8676  0.2794 -0.1165
 5948SOL     OW29302   3.676   4.301   5.571  0.2040 -0.3182 -0.2327
 5948SOL    HW129303   3.755   4.247   5.583  0.0229 -0.3597  0.8228
 5948SOL    HW229304   3.704   4.374   5.517 -1.1693 -0.0050 -0.5232
 5949SOL     OW29305   4.395   0.600   3.916  0.0227 -0.0269  0.6312
 5949SOL    HW129306   4.386   0.518   3.963  2.4649 -0.0832  1.0515
 5949SOL    HW229307   4.420   0.565   3.831 -0.1620  3.1554 -0.7567
 5950SOL     OW29308   0.352   1.338   9.391  0.1194  1.0493 -0.0883
 5950SOL    HW129309   0.393   1.300   9.468 -2.3592  0.0233  0.7397
 5950SOL    HW229310   0.271   1.368   9.433 -0.1097 -1.4133  1.2071
 5951SOL     OW29311   1.806   2.782   6.538 -0.1815 -0.0627  0.6443
 5951SOL    HW129312   1.889   2.827   6.556  1.4047 -2.4390 -0.7869
 5951SOL    HW229313   1.751   2.823   6.605  1.5016 -1.0324  2.6223
 5952SOL     OW29314   2.930   0.832  14.623 -0.3851  0.5427 -0.0611
 5952SOL    HW129315   2.979   0.896  14.571  1.0112  0.5659  1.2709
 5952SOL    HW229316   3.005   0.794  14.668  0.4848  1.4646 -0.7267
 5953SOL     OW29317   4.217   1.405   2.165  0.0483  0.3209 -0.2573
 5953SOL    HW129318   4.218   1.336   2.232  2.3068 -0.7881 -1.4506
 5953SOL    HW229319   4.180   1.367   2.085  0.6949  0.9961 -0.8727
 5954SOL     OW29320   0.576   3.112   3.339  0.3915 -0.3773 -0.2564
 5954SOL    HW129321   0.510   3.175   3.368  1.9828  1.9497 -1.7473
 5954SOL    HW229322   0.530   3.050   3.282 -0.5625 -1.6368  1.8831
 5955SOL     OW29323   1.967   2.093  10.945  0.6186 -0.0282  0.0397
 5955SOL    HW129324   1.883   2.131  10.922 -0.0889 -2.9869 -2.1399
 5955SOL    HW229325   1.987   2.155  11.016  2.7445  0.7539 -1.2257
 5956SOL     OW29326   0.785   1.186   4.515  0.0525 -0.9024  0.0641
 5956SOL    HW129327   0.785   1.235   4.597  1.0035 -1.1047  0.1800
 5956SOL    HW229328   0.725   1.241   4.464  0.9828  0.8313  0.8342
 5957SOL     OW29329   2.005   2.428   4.695 -0.0786 -0.4860  0.1671
 5957SOL    HW129330   2.080   2.472   4.735  0.0663 -1.2564  0.7443
 5957SOL    HW229331   2.036   2.338   4.698  3.2897  0.6008 -1.7971
 5958SOL     OW29332   0.852   0.954   3.739 -0.7770  0.1954  0.3600
 5958SOL    HW129333   0.782   0.910   3.786  1.6013 -1.8075  2.0616
 5958SOL    HW229334   0.880   1.020   3.803 -0.2315 -1.2146  1.5856
 5959SOL     OW29335   3.961   0.268  10.267  0.6149  0.1774 -0.0991
 5959SOL    HW129336   3.896   0.297  10.203 -2.0201 -2.8764  1.1464
 5959SOL    HW229337   3.952   0.331  10.338  0.5494  0.1767 -0.1065
 5960SOL     OW29338   3.970   2.012   8.182  0.0119 -0.4288 -0.2553
 5960SOL    HW129339   4.004   1.927   8.210  0.8809 -0.1046 -0.3168
 5960SOL    HW229340   3.911   1.977   8.116 -2.1101 -2.7959  2.9339
 5961SOL     OW29341   0.908   3.683   2.748 -0.6644  0.3489  0.2732
 5961SOL    HW129342   0.954   3.601   2.763 -1.2718  0.0838  0.6775
 5961SOL    HW229343   0.914   3.729   2.832 -1.3620  1.2321 -0.1576
 5962SOL     OW29344   1.709   4.287   9.702  0.4068 -0.4904  0.3341
 5962SOL    HW129345   1.796   4.272   9.666 -0.0397  0.9844 -1.4163
 5962SOL    HW229346   1.660   4.207   9.684 -0.0977 -0.1184  0.0532
 5963SOL     OW29347   0.115   0.103  10.278 -0.2809 -0.2273 -0.4782
 5963SOL    HW129348   0.185   0.037  10.272  0.2662  0.0923  2.3708
 5963SOL    HW229349   0.079   0.068  10.360  1.0729  0.3355  0.3521
 5964SOL     OW29350   0.114   4.559  15.552 -0.0073 -0.1605  0.4149
 5964SOL    HW129351   0.120   4.648  15.517 -1.4888  0.2815  1.3022
 5964SOL    HW229352   0.175   4.515  15.492 -0.7354  0.0428 -0.4643
 5965SOL     OW29353   4.453   4.617   8.529  0.3555  0.4351 -0.2379
 5965SOL    HW129354   4.542   4.622   8.563  1.0217 -2.3126 -1.6603
 5965SOL    HW229355   4.463   4.541   8.473  1.7922  0.6616 -0.2922
 5966SOL     OW29356   1.882   0.932   1.534 -0.2132  0.7468 -0.1881
 5966SOL    HW129357   1.909   0.927   1.625  1.7522 -1.3630 -0.8679
 5966SOL    HW229358   1.962   0.908   1.486 -0.3763  1.0771 -0.6279
 5967SOL     OW29359   2.244   3.943   8.349  0.4363  0.0596 -0.0299
 5967SOL    HW129360   2.314   4.008   8.345  1.0294 -0.7063 -2.3369
 5967SOL    HW229361   2.191   3.961   8.271  1.4204  0.9368 -0.4931
 5968SOL     OW29362   1.155   3.009  16.506  0.4154 -0.1078 -0.4102
 5968SOL    HW129363   1.196   2.923  16.511  0.6754 -0.0027 -0.7381
 5968SOL    HW229364   1.204   3.053  16.576  1.2435 -1.1094 -0.3617
 5969SOL     OW29365   3.688   1.997   6.341 -0.0919  0.0725  0.8258
 5969SOL    HW129366   3.695   2.076   6.395 -0.0860 -1.0668  2.4557
 5969SOL    HW229367   3.614   2.020   6.285 -0.4266 -0.8361  0.9097
 5970SOL     OW29368   1.088   2.008  15.485 -0.1433  0.3838  0.1761
 5970SOL    HW129369   1.020   2.002  15.418 -0.0552  0.3458  0.0878
 5970SOL    HW229370   1.071   1.928  15.534 -0.1590  1.1384  1.4097
 5971SOL     OW29371   4.692   0.490   8.988  0.2781  0.0300 -0.0065
 5971SOL    HW129372   4.642   0.408   8.993  3.2596 -1.9719 -3.0309
 5971SOL    HW229373   4.713   0.492   8.895  0.6218 -0.2492  0.0656
 5972SOL     OW29374   1.440   4.129   8.773  0.1045 -0.1701  0.0322
 5972SOL    HW129375   1.384   4.190   8.725  0.5292 -2.3252 -3.1896
 5972SOL    HW229376   1.370   4.064   8.782 -0.1597  0.1031 -0.0258
 5973SOL     OW29377   3.449   3.656   1.158 -0.4985 -0.1613 -0.3418
 5973SOL    HW129378   3.459   3.572   1.204 -1.0763 -0.9433 -1.6596
 5973SOL    HW229379   3.390   3.624   1.090  0.7882  1.7272 -2.3481
 5974SOL     OW29380   4.435   4.129   6.963 -0.0680  0.0860 -0.6709
 5974SOL    HW129381   4.406   4.090   6.882 -1.4531 -2.9074  1.2828
 5974SOL    HW229382   4.385   4.078   7.026  2.1386 -0.9331  0.2599
 5975SOL     OW29383   1.752   3.840  15.985 -0.1487  0.4276 -0.2519
 5975SOL    HW129384   1.702   3.825  15.905  0.8884  1.5596 -1.1243
 5975SOL    HW229385   1.683   3.900  16.015  0.1410 -0.1126  1.4709
 5976SOL     OW29386   3.852   3.917  10.280 -0.1485 -0.7119  0.1502
 5976SOL    HW129387   3.851   3.894  10.373  2.7871 -1.6650 -0.0613
 5976SOL    HW229388   3.945   3.915  10.259  0.3396 -1.1312  2.3505
 5977SOL     OW29389   4.467   1.203   8.490 -0.5333  0.8118  0.0265
 5977SOL    HW129390   4.466   1.269   8.560  1.5188  1.7777 -0.8535
 5977SOL    HW229391   4.376   1.201   8.460  0.6293 -1.3711 -3.3359
 5978SOL     OW29392   4.576   2.530   8.792 -0.1211 -0.4122  0.1701
 5978SOL    HW129393   4.539   2.540   8.880 -0.7975  3.7028 -0.5893
 5978SOL    HW229394   4.640   2.459   8.805  1.9156  1.0189 -2.0293
 5979SOL     OW29395   0.981   1.896   8.540  0.2858  0.7978 -0.2239
 5979SOL    HW129396   0.897   1.892   8.586  0.2889  3.1750 -0.0322
 5979SOL    HW229397   1.027   1.965   8.586  1.6835 -0.6319  0.5183
 5980SOL     OW29398   3.647   1.719   9.461 -0.7414  0.4366 -0.0539
 5980SOL    HW129399   3.700   1.770   9.400 -0.8759  1.7111  0.8836
 5980SOL    HW229400   3.709   1.704   9.532 -1.3487 -0.7028  0.2284
 5981SOL     OW29401   2.949   2.033   6.114  0.7619 -0.1629 -0.8100
 5981SOL    HW129402   2.864   1.993   6.095 -0.3108  1.4111  0.6679
 5981SOL    HW229403   2.931   2.046   6.207  1.7572 -0.3133 -0.5961
 5982SOL     OW29404   3.877   1.868   5.829  0.4284 -0.3657  0.1986
 5982SOL    HW129405   3.925   1.946   5.802 -0.4295 -0.4377 -1.5797
 5982SOL    HW229406   3.887   1.820   5.746  1.0345 -0.1900  0.1667
 5983SOL     OW29407   2.922   4.226   7.971 -0.7068  0.5604 -0.2802
 5983SOL    HW129408   2.919   4.132   7.953 -1.8708  0.7876 -1.2539
 5983SOL    HW229409   2.923   4.258   7.880 -1.1154  2.4662  0.3829
 5984SOL     OW29410   0.578   1.676   9.113  0.5116 -0.0903 -0.4852
 5984SOL    HW129411   0.633   1.747   9.077 -1.0127  0.6900 -1.2914
 5984SOL    HW229412   0.641   1.639   9.175 -0.1789 -1.2217 -0.4722
 5985SOL     OW29413   2.298   0.214   9.585 -0.4762 -0.1910 -0.1925
 5985SOL    HW129414   2.251   0.265   9.519 -2.4188  0.8715  2.0427
 5985SOL    HW229415   2.303   0.273   9.659  3.0702  0.6509 -1.1175
 5986SOL     OW29416   2.570   3.783   5.426 -0.2158  0.2197 -0.4537
 5986SOL    HW129417   2.571   3.877   5.408 -0.5156  0.5095  1.0632
 5986SOL    HW229418   2.655   3.765   5.464 -0.7335  0.7000  0.9462
 5987SOL     OW29419   2.522   1.444   9.418 -0.5209 -0.3970 -0.3876
 5987SOL    HW129420   2.577   1.441   9.339  0.2485  1.6084  0.0711
 5987SOL    HW229421   2.576   1.497   9.476 -1.7577 -0.4882  0.8404
 5988SOL     OW29422   4.272   0.720   2.153  0.0597 -0.6286  0.4935
 5988SOL    HW129423   4.206   0.747   2.089  1.6333 -1.1255 -1.3257
 5988SOL    HW229424   4.217   0.690   2.225 -2.1150 -0.3590 -1.0417
 5989SOL     OW29425   1.888   4.266   6.317 -0.0854  0.0940  0.6001
 5989SOL    HW129426   1.924   4.316   6.390 -1.2320  1.7797  0.0171
 5989SOL    HW229427   1.803   4.234   6.347 -0.1153  1.1558  1.6202
 5990SOL     OW29428   4.607   2.001   5.534  0.0616  0.1113  0.0177
 5990SOL    HW129429   4.636   2.089   5.511 -0.5728  0.2753 -0.1353
 5990SOL    HW229430   4.647   1.996   5.621  0.7573 -0.2964 -0.3263
 5991SOL     OW29431   0.380   1.795  14.612  0.2513  0.0070  0.6948
 5991SOL    HW129432   0.374   1.823  14.704 -0.8892  2.3083 -0.0691
 5991SOL    HW229433   0.351   1.705  14.624  1.2536 -0.7072 -2.4653
 5992SOL     OW29434   0.439   1.661   8.320 -0.1079 -0.6545 -0.1160
 5992SOL    HW129435   0.366   1.650   8.258 -0.1191 -2.4525  0.2398
 5992SOL    HW229436   0.412   1.592   8.380 -0.3331 -1.7364 -1.4606
 5993SOL     OW29437   4.196   1.647   8.918 -0.6388 -0.0103 -0.0999
 5993SOL    HW129438   4.144   1.694   8.983 -2.4862 -0.0763 -1.5262
 5993SOL    HW229439   4.281   1.645   8.961 -0.3241 -1.2547 -0.7584
 5994SOL     OW29440   2.500   1.304   7.732 -0.5825 -0.9450 -0.2773
 5994SOL    HW129441   2.560   1.230   7.734  2.1891  1.3247 -0.2407
 5994SOL    HW229442   2.522   1.334   7.644  0.4648 -0.5803  0.1125
 5995SOL     OW29443   4.052   3.613   0.926  0.0604  0.6067  0.3348
 5995SOL    HW129444   4.140   3.576   0.923 -0.7874 -1.5892  2.4321
 5995SOL    HW229445   4.063   3.704   0.897 -0.0728  1.2147  2.1859
 5996SOL     OW29446   4.533   2.423   4.006 -0.0839  0.0047  0.0390
 5996SOL    HW129447   4.557   2.437   3.915  0.9072 -1.5240  0.0714
 5996SOL    HW229448   4.442   2.395   3.993  0.4167 -2.2076  1.2686
 5997SOL     OW29449   0.763   2.806   0.656  0.6589  0.0501  0.3540
 5997SOL    HW129450   0.786   2.751   0.731  3.2093 -0.0399 -0.5141
 5997SOL    HW229451   0.713   2.877   0.697  1.4192  0.8649 -0.1534
 5998SOL     OW29452   2.253   4.460   5.995 -0.2231  0.5787  0.3571
 5998SOL    HW129453   2.307   4.465   6.073  0.0864 -4.3524  0.4527
 5998SOL    HW229454   2.190   4.399   6.034 -0.9525  1.8624  1.1931
 5999SOL     OW29455   4.047   4.388   9.852  0.4052 -0.0447 -0.0450
 5999SOL    HW129456   3.980   4.330   9.890 -1.1820  1.7058 -0.1592
 5999SOL    HW229457   3.991   4.463   9.829  0.5105  0.7176  2.2239
 6000SOL     OW29458   2.852   4.667  10.879  0.2752  0.0239 -0.2711
 6000SOL    HW129459   2.932   4.626  10.845  0.1255  0.8420 -1.6079
 6000SOL    HW229460   2.849   0.025  10.829  1.1158  0.3406  0.2122
 6001SOL     OW29461   0.517   0.919  15.894  0.4697 -0.7899  0.0964
 6001SOL    HW129462   0.453   0.877  15.837  0.2598 -0.6169  0.2032
 6001SOL    HW229463   0.553   0.851  15.951  3.7989  0.1874 -0.7930
 6002SOL     OW29464   1.561   0.687  14.458  0.1055  0.6656 -0.2881
 6002SOL    HW129465   1.575   0.592  14.455  1.9213  0.9432 -1.0617
 6002SOL    HW229466   1.467   0.686  14.443  0.4909  0.9932 -2.7182
 6003SOL     OW29467   0.296   2.216   5.410 -0.4534 -0.0198  0.0828
 6003SOL    HW129468   0.311   2.122   5.404 -2.1873 -0.1989 -1.4351
 6003SOL    HW229469   0.270   2.226   5.319  0.2848 -0.7472 -0.2078
 6004SOL     OW29470   1.539   2.751   2.499 -0.1801  0.1283 -0.6984
 6004SOL    HW129471   1.472   2.690   2.469 -1.1692  0.5438  0.6647
 6004SOL    HW229472   1.621   2.701   2.499  0.2981  0.9069  3.9396
 6005SOL     OW29473   2.530   0.493   3.348  0.3009 -0.0219 -0.1601
 6005SOL    HW129474   2.624   0.483   3.336 -0.0089  0.7627 -3.1159
 6005SOL    HW229475   2.513   0.421   3.288 -0.5985 -0.9952  1.2654
 6006SOL     OW29476   2.893   2.520   2.009 -0.1089 -0.1181 -0.0167
 6006SOL    HW129477   2.857   2.440   2.046 -0.3437  0.8653  1.8569
 6006SOL    HW229478   2.869   2.512   1.916  0.6139  1.8804 -0.3796
 6007SOL     OW29479   3.266   1.722   6.320  0.2110  0.5832  0.0706
 6007SOL    HW129480   3.230   1.634   6.307  1.4410  0.2260 -0.9839
 6007SOL    HW229481   3.348   1.702   6.274  0.1394  1.3221 -0.3597
 6008SOL     OW29482   1.133   4.715   7.891 -0.2042 -0.6258  0.6077
 6008SOL    HW129483   1.164   4.626   7.909 -0.8313 -0.8669  0.4849
 6008SOL    HW229484   1.054   4.691   7.842 -0.9613  0.8910  1.0899
 6009SOL     OW29485   3.740   3.873   7.389  0.2980  0.1487  0.1387
 6009SOL    HW129486   3.664   3.836   7.435  0.6018 -0.5196  0.1068
 6009SOL    HW229487   3.807   3.807   7.408  0.4167  0.4172  0.6538
 6010SOL     OW29488   4.468   4.431  10.192  0.3156  0.1807  0.7718
 6010SOL    HW129489   4.411   4.360  10.163 -1.9316  2.3385 -0.1294
 6010SOL    HW229490   4.542   4.377  10.219 -0.3152 -0.4586  1.2295
 6011SOL     OW29491   1.161   2.523   3.533 -0.2831 -0.4842 -0.1206
 6011SOL    HW129492   1.200   2.436   3.529 -1.5833 -1.1394  1.2719
 6011SOL    HW229493   1.160   2.545   3.626 -1.3292 -0.1240 -0.2071
 6012SOL     OW29494   0.812   2.174   6.338  0.3188  0.0769 -0.2624
 6012SOL    HW129495   0.894   2.128   6.357 -0.4463 -2.1040 -2.2194
 6012SOL    HW229496   0.841   2.264   6.327  0.4074  0.2964  1.8102
 6013SOL     OW29497   1.868   3.220  15.680 -0.6221 -0.0849 -0.4783
 6013SOL    HW129498   1.811   3.278  15.630 -0.2292  0.6983 -0.0158
 6013SOL    HW229499   1.892   3.286  15.745 -2.4649 -0.5689  0.7189
 6014SOL     OW29500   1.262   0.508  12.423 -0.0322  0.3759 -0.5628
 6014SOL    HW129501   1.192   0.461  12.378  1.1601 -1.5243 -0.4068
 6014SOL    HW229502   1.330   0.446  12.397  1.0990  1.5542 -0.4095
 6015SOL     OW29503   1.209   1.542  12.646 -0.1382  0.4186  0.0835
 6015SOL    HW129504   1.284   1.570  12.700 -1.1697  0.2477  1.5925
 6015SOL    HW229505   1.226   1.448  12.635  0.2034  0.3809  0.8660
 6016SOL     OW29506   0.996   1.920   4.633  0.4844 -0.4840  0.0804
 6016SOL    HW129507   1.056   1.922   4.558  0.3199 -0.5993 -0.0538
 6016SOL    HW229508   0.909   1.945   4.602  0.0179  0.0857  1.8672
 6017SOL     OW29509   0.806   1.997   6.111  0.2198 -0.1336  0.2835
 6017SOL    HW129510   0.814   2.062   6.181  5.2661 -2.7588  2.1811
 6017SOL    HW229511   0.865   2.033   6.045 -0.2673 -0.4574 -0.3304
 6018SOL     OW29512   0.649   0.250   3.776  0.6300 -0.4670 -0.6991
 6018SOL    HW129513   0.678   0.322   3.719  0.7682  1.1715  1.4357
 6018SOL    HW229514   0.636   0.305   3.853  0.0427 -1.3647 -0.1556
 6019SOL     OW29515   0.461   2.523   1.908  0.1940 -0.2341 -0.5364
 6019SOL    HW129516   0.548   2.559   1.925 -1.6494  2.9682  2.1795
 6019SOL    HW229517   0.475   2.452   1.845  0.9642  0.8963 -1.6137
 6020SOL     OW29518   3.606   1.501   7.384  0.2437 -0.4966  0.4053
 6020SOL    HW129519   3.677   1.562   7.363 -0.4444  0.1934  0.0918
 6020SOL    HW229520   3.612   1.451   7.302 -0.6747 -2.8936  1.7885
 6021SOL     OW29521   1.700   1.523   0.383  0.2430 -0.1877  0.0475
 6021SOL    HW129522   1.677   1.572   0.304 -1.3088 -2.3737 -0.8596
 6021SOL    HW229523   1.612   1.515   0.421 -0.2682 -1.8534 -1.4965
 6022SOL     OW29524   0.852   1.713   1.004  0.0614 -0.5825 -0.0096
 6022SOL    HW129525   0.898   1.640   0.962  0.3032 -0.2413 -0.3413
 6022SOL    HW229526   0.760   1.705   0.976 -0.3839 -0.7358  1.4742
 6023SOL     OW29527   0.186   0.890   6.119  0.5642 -0.5193 -0.0178
 6023SOL    HW129528   0.260   0.938   6.157  0.5982  0.0617 -0.8200
 6023SOL    HW229529   0.234   0.848   6.048 -0.7276  0.4696 -1.4817
 6024SOL     OW29530   0.680   2.892   8.240  0.0602  0.1647 -0.2580
 6024SOL    HW129531   0.626   2.959   8.281 -0.1451  0.1367 -0.4815
 6024SOL    HW229532   0.629   2.811   8.235 -1.6436  1.2311  0.0751
 6025SOL     OW29533   1.529   3.755   8.845  0.1814 -0.0767 -0.1922
 6025SOL    HW129534   1.478   3.836   8.850 -0.7924 -0.8671  2.3427
 6025SOL    HW229535   1.464   3.688   8.865  0.0322  0.3995  0.9261
 6026SOL     OW29536   2.052   2.711   5.340 -0.7429 -0.2174  0.1201
 6026SOL    HW129537   2.074   2.695   5.432 -0.9503  0.9943  0.3735
 6026SOL    HW229538   1.964   2.675   5.332  0.0898 -2.5882  1.2472
 6027SOL     OW29539   2.000   4.669   4.583 -0.2990 -0.0956 -0.0199
 6027SOL    HW129540   2.038   4.582   4.584 -1.9363 -0.8140  1.1473
 6027SOL    HW229541   1.938   4.654   4.512 -2.2800  0.5286  1.5546
 6028SOL     OW29542   4.272   4.610   4.386  0.1003  0.0346 -0.5782
 6028SOL    HW129543   4.323   4.529   4.396 -2.4139 -1.4451  0.5281
 6028SOL    HW229544   4.188   4.574   4.355 -0.1287  1.9483 -2.1282
 6029SOL     OW29545   4.104   0.758  16.656  0.0066 -0.2590  0.0318
 6029SOL    HW129546   4.034   0.698  16.632  1.1662 -0.3504 -3.0429
 6029SOL    HW229547   4.051   0.819  16.708  2.5819  2.2273 -0.2424
 6030SOL     OW29548   2.040   3.439  10.279 -0.5595  0.0949  0.2094
 6030SOL    HW129549   2.059   3.456  10.187 -3.1202 -3.3417 -0.9422
 6030SOL    HW229550   2.061   3.527  10.310  0.0775  0.4195 -1.1406
 6031SOL     OW29551   1.675   4.316   3.594  0.1207  0.2232  0.4008
 6031SOL    HW129552   1.591   4.271   3.598 -1.2707  3.1378  3.7183
 6031SOL    HW229553   1.721   4.279   3.670 -1.7562 -0.1692  1.3531
 6032SOL     OW29554   2.383   2.968   4.418 -0.8592 -0.1807  0.1318
 6032SOL    HW129555   2.325   2.997   4.348 -0.1968  0.2083 -0.2643
 6032SOL    HW229556   2.325   2.954   4.493 -0.5098 -1.6925  0.1091
 6033SOL     OW29557   1.140   4.184   8.960 -0.3359  0.4127 -0.1860
 6033SOL    HW129558   1.210   4.185   9.026  0.3595  0.4284 -0.9233
 6033SOL    HW229559   1.087   4.260   8.986  2.2312  1.3045  2.5163
 6034SOL     OW29560   2.472   0.531   6.344 -0.5347  0.3283 -0.0298
 6034SOL    HW129561   2.449   0.597   6.409  2.1162 -1.1174  2.3973
 6034SOL    HW229562   2.529   0.576   6.281  0.6527 -1.2252 -0.0696
 6035SOL     OW29563   3.264   2.375   7.821  0.2875 -0.1654  0.1164
 6035SOL    HW129564   3.214   2.297   7.846 -0.5670  0.5285  0.5485
 6035SOL    HW229565   3.279   2.413   7.908  1.6310 -0.0723 -0.1586
 6036SOL     OW29566   4.229   2.469   1.179 -0.3822  0.0506  0.1176
 6036SOL    HW129567   4.292   2.539   1.163 -0.3842 -0.3608 -1.6468
 6036SOL    HW229568   4.171   2.517   1.237 -1.7357 -1.2887 -0.1145
 6037SOL     OW29569   3.725   1.998  16.267  0.2653 -0.0609 -0.2713
 6037SOL    HW129570   3.785   1.924  16.253 -0.6241 -0.9609  0.7419
 6037SOL    HW229571   3.778   2.060  16.217  1.0664  0.2176  0.9294
 6038SOL     OW29572   3.294   3.303   6.253 -0.4161  0.7560 -0.5431
 6038SOL    HW129573   3.230   3.232   6.258  1.5259 -0.9896 -0.2283
 6038SOL    HW229574   3.266   3.353   6.177 -0.5057 -2.8642 -2.8983
 6039SOL     OW29575   1.299   1.781   9.913  0.0020 -0.0980 -0.0726
 6039SOL    HW129576   1.281   1.739   9.829  0.5116 -1.4157  0.4831
 6039SOL    HW229577   1.213   1.800   9.949  2.1301  2.1182  3.8233
 6040SOL     OW29578   0.106   3.047  14.341  0.1917  0.2418 -0.0578
 6040SOL    HW129579   0.057   2.992  14.402 -0.8421 -1.5216 -2.4347
 6040SOL    HW229580   0.045   3.033  14.268 -0.7479 -1.2809  1.0317
 6041SOL     OW29581   2.837   3.741   9.006  0.1626 -0.3857 -0.2077
 6041SOL    HW129582   2.926   3.742   8.972  0.0125  2.0620 -0.5399
 6041SOL    HW229583   2.795   3.780   8.929 -2.4903 -1.6154  0.5980
 6042SOL     OW29584   4.222   2.464   4.088 -0.7055  0.1140 -0.0333
 6042SOL    HW129585   4.199   2.404   4.017  0.5225 -0.9336  0.4577
 6042SOL    HW229586   4.140   2.513   4.097 -0.8204 -0.2541  1.0358
 6043SOL     OW29587   1.475   0.375   4.628 -0.5854  0.1580  0.6555
 6043SOL    HW129588   1.443   0.434   4.560 -0.5269  1.5175  1.8234
 6043SOL    HW229589   1.501   0.303   4.570 -0.4844  0.1573  0.7010
 6044SOL     OW29590   0.887   1.768   5.349  0.3609  0.1003 -0.0145
 6044SOL    HW129591   0.902   1.822   5.271 -0.0100  0.5538  0.2248
 6044SOL    HW229592   0.847   1.834   5.407  0.1453 -0.9530  1.0437
 6045SOL     OW29593   2.855   0.456   2.232 -0.1398 -0.4118  0.2397
 6045SOL    HW129594   2.817   0.532   2.190  0.0464  0.3186  1.3866
 6045SOL    HW229595   2.813   0.373   2.207 -1.2040 -0.1808  1.2785
 6046SOL     OW29596   2.896   3.100   3.769 -0.3240 -0.0400  0.1389
 6046SOL    HW129597   2.929   3.189   3.785 -2.7423  0.7511  0.7245
 6046SOL    HW229598   2.818   3.124   3.719 -0.3812  0.1756  0.3271
 6047SOL     OW29599   1.356   3.437   5.257  0.0330 -0.0589 -0.2638
 6047SOL    HW129600   1.326   3.481   5.177  1.7050 -0.1003 -0.9049
 6047SOL    HW229601   1.281   3.382   5.279  0.0707  0.6718  1.6374
 6048SOL     OW29602   4.285   0.030   9.825  0.6472  0.0462  0.4165
 6048SOL    HW129603   4.273   0.125   9.827  1.8433  0.1684  1.4091
 6048SOL    HW229604   4.280   0.024   9.921 -0.4987 -2.3065  0.2123
 6049SOL     OW29605   1.420   0.066   8.048  0.5118  0.2847  0.8182
 6049SOL    HW129606   1.359   0.065   8.122  0.6062 -0.2627  0.8868
 6049SOL    HW229607   1.430   0.161   8.046 -2.0480  0.4666 -2.2025
 6050SOL     OW29608   3.056   3.016   4.460 -0.0955 -0.3842 -0.1595
 6050SOL    HW129609   3.107   3.047   4.385 -0.8271  2.5307  0.5639
 6050SOL    HW229610   3.088   2.926   4.468 -0.6882 -0.6621 -0.9742
 6051SOL     OW29611   0.003   1.743  12.171 -0.2114 -0.3385 -0.9731
 6051SOL    HW129612   4.682   1.695  12.102 -3.7248  1.8791 -0.2042
 6051SOL    HW229613   4.692   1.831  12.163  2.5029  0.8521  0.1800
 6052SOL     OW29614   0.875   4.433   3.085 -0.1931 -0.1196 -0.0639
 6052SOL    HW129615   0.817   4.436   3.161  1.2662 -0.6099  1.0848
 6052SOL    HW229616   0.813   4.484   3.034  1.5042  1.1285 -0.8899
 6053SOL     OW29617   3.518   4.049   7.547  0.4874  0.1551 -0.0008
 6053SOL    HW129618   3.601   4.082   7.581  1.0938 -2.0243  0.6977
 6053SOL    HW229619   3.538   3.957   7.527  0.7512  0.5001 -1.3430
 6054SOL     OW29620   1.915   4.614   7.437 -0.0397  0.4333  0.5444
 6054SOL    HW129621   1.994   4.665   7.417  0.0396  0.8612  1.9375
 6054SOL    HW229622   1.930   4.590   7.528  0.5182 -2.7071 -0.3813
 6055SOL     OW29623   2.231   4.225   4.172 -0.6532  0.0205  0.5492
 6055SOL    HW129624   2.176   4.150   4.192  0.4847 -1.3239 -1.3880
 6055SOL    HW229625   2.179   4.305   4.178 -0.6607 -0.0121  0.9061
 6056SOL     OW29626   2.188   3.631   7.695 -0.3550 -0.0499 -0.2758
 6056SOL    HW129627   2.267   3.661   7.739 -0.1643  1.1540 -1.4324
 6056SOL    HW229628   2.183   3.539   7.720 -1.4831 -0.2476 -1.2239
 6057SOL     OW29629   3.434   4.571  10.968 -0.2174 -0.3038  0.3172
 6057SOL    HW129630   3.449   4.644  11.029 -2.1343  0.7927 -0.5185
 6057SOL    HW229631   3.494   4.504  11.002 -2.6830 -1.8105  1.6525
 6058SOL     OW29632   2.716   3.078   8.063 -0.9396  0.0266  0.3284
 6058SOL    HW129633   2.688   2.992   8.095 -0.3658  0.6781  2.5268
 6058SOL    HW229634   2.639   3.107   8.015 -0.6585  1.1237  0.5581
 6059SOL     OW29635   3.734   3.016   2.758  0.1276  0.2338  0.0153
 6059SOL    HW129636   3.649   3.056   2.735 -0.0592 -0.7849 -1.0421
 6059SOL    HW229637   3.741   2.937   2.705  1.8967  0.7993 -0.5826
 6060SOL     OW29638   2.892   4.701   5.810 -0.3612 -0.4745 -0.3486
 6060SOL    HW129639   2.834   0.021   5.872  2.2874  2.4323  0.0294
 6060SOL    HW229640   2.833   4.692   5.736 -2.2219 -1.1122  1.2119
 6061SOL     OW29641   4.605   3.614   2.961 -0.0866  0.4775 -0.3180
 6061SOL    HW129642   4.530   3.673   2.955 -0.1656  0.6381  2.1956
 6061SOL    HW229643   4.681   3.665   2.935  1.3631 -0.5225  1.9446
 6062SOL     OW29644   3.912   1.381  13.464  0.3924 -0.2005  0.0367
 6062SOL    HW129645   3.852   1.404  13.394 -1.5411 -1.3859  1.3086
 6062SOL    HW229646   3.993   1.430  13.447 -0.1503  0.0054 -1.9567
 6063SOL     OW29647   2.650   3.683   9.682  0.0901 -0.8069  0.0220
 6063SOL    HW129648   2.596   3.689   9.604  0.6695  2.0550 -0.1424
 6063SOL    HW229649   2.666   3.588   9.677  3.8877 -0.1631 -0.1410
 6064SOL     OW29650   2.634   1.592   7.233  0.3369  0.2360  0.0273
 6064SOL    HW129651   2.545   1.605   7.267 -0.2621 -2.1767 -0.6397
 6064SOL    HW229652   2.629   1.497   7.223  1.2296 -0.1687  3.3071
 6065SOL     OW29653   1.012   3.433   2.251  0.2725 -0.3139 -0.4957
 6065SOL    HW129654   1.096   3.468   2.280 -1.2778  1.0270  2.3673
 6065SOL    HW229655   0.957   3.431   2.330  1.9578 -0.3863  0.6685
 6066SOL     OW29656   3.469   0.768   9.165 -0.5944 -0.6168  0.2222
 6066SOL    HW129657   3.476   0.724   9.080 -0.8185  0.7979 -0.5352
 6066SOL    HW229658   3.526   0.709   9.214  1.0802  0.2915 -0.6333
 6067SOL     OW29659   3.119   2.066   9.181  0.0727 -0.2061 -0.4431
 6067SOL    HW129660   3.167   2.124   9.239  1.2453  0.0761 -1.6869
 6067SOL    HW229661   3.162   1.983   9.200 -2.7186 -1.8893 -1.5001
 6068SOL     OW29662   3.328   0.701   5.831  0.4128  0.1101  0.4914
 6068SOL    HW129663   3.260   0.638   5.853  1.7678 -0.6507  2.4774
 6068SOL    HW229664   3.406   0.656   5.863  0.8591  0.1384 -0.5401
 6069SOL     OW29665   4.330   4.510   2.234  0.8643  0.1414 -0.3078
 6069SOL    HW129666   4.312   4.531   2.142 -0.9801  1.3514  0.3380
 6069SOL    HW229667   4.402   4.569   2.257 -0.7427  1.2744  1.7066
 6070SOL     OW29668   3.186   3.324   8.366 -0.1558 -0.2114 -0.3309
 6070SOL    HW129669   3.132   3.331   8.287  1.0240 -1.2419 -1.2158
 6070SOL    HW229670   3.165   3.413   8.395  2.0350  0.4348 -0.7668
 6071SOL     OW29671   0.290   4.275   7.969  0.3707  0.2182  0.1543
 6071SOL    HW129672   0.384   4.291   7.970  0.9028 -2.9456  1.3748
 6071SOL    HW229673   0.272   4.337   8.040  2.2489  0.3439  0.5222
 6072SOL     OW29674   0.827   4.355  17.063  0.1794  0.1376  0.0648
 6072SOL    HW129675   0.759   4.312  17.012 -0.7502  1.7345 -0.0343
 6072SOL    HW229676   0.864   4.408  16.992  0.6977  0.1163  0.3193
 6073SOL     OW29677   2.988   0.575   8.705  0.3810  0.5447  0.1675
 6073SOL    HW129678   2.986   0.535   8.792  1.8599  2.1299  0.9366
 6073SOL    HW229679   3.008   0.669   8.711  0.9298  0.4322  0.1154
 6074SOL     OW29680   0.769   3.678   9.334 -0.6964 -0.4435  0.7568
 6074SOL    HW129681   0.806   3.594   9.365 -0.5016 -0.8048 -0.4657
 6074SOL    HW229682   0.675   3.658   9.338 -0.6107 -0.8350  0.8098
 6075SOL     OW29683   1.196   0.359  14.539  0.5830 -0.5817 -0.4849
 6075SOL    HW129684   1.185   0.304  14.461  0.2506 -1.4664  0.1770
 6075SOL    HW229685   1.239   0.435  14.501 -3.9757  1.0215 -2.4644
 6076SOL     OW29686   2.154   1.871   8.343 -0.3351  0.9730 -0.2559
 6076SOL    HW129687   2.085   1.804   8.348  1.2623 -0.5549  1.3974
 6076SOL    HW229688   2.102   1.944   8.309 -0.0194  2.3489  2.1823
 6077SOL     OW29689   1.152   2.834   2.392 -0.1725  0.3905 -0.4221
 6077SOL    HW129690   1.098   2.912   2.406 -1.4757 -0.7936  1.1641
 6077SOL    HW229691   1.155   2.790   2.477  0.7620 -0.6190 -0.9659
 6078SOL     OW29692   3.469   1.159   7.910  0.2995 -0.3871  0.8675
 6078SOL    HW129693   3.471   1.112   7.994 -1.7035 -1.6482  0.2131
 6078SOL    HW229694   3.394   1.124   7.863 -0.1294  0.0145  1.2478
 6079SOL     OW29695   0.958   2.446   3.797 -0.0784  0.0214  0.1383
 6079SOL    HW129696   0.898   2.458   3.724  1.7146  1.1584 -1.1250
 6079SOL    HW229697   0.902   2.460   3.873  0.0443 -0.4733  0.3238
 6080SOL     OW29698   3.792   3.237  13.291 -0.6448 -0.1330 -0.2783
 6080SOL    HW129699   3.717   3.269  13.240 -0.1532  0.7219 -0.4576
 6080SOL    HW229700   3.744   3.208  13.369  0.2903 -1.1802 -0.0975
 6081SOL     OW29701   1.905   4.563   2.534  0.2881  0.1671 -0.4784
 6081SOL    HW129702   1.918   4.505   2.609 -0.1402  0.8343  0.1069
 6081SOL    HW229703   1.976   4.558   2.469 -0.3676  1.5760 -1.3062
 6082SOL     OW29704   3.547   1.894   8.787  0.4917 -0.2752 -0.4506
 6082SOL    HW129705   3.615   1.878   8.852  0.9862 -2.1552 -1.4067
 6082SOL    HW229706   3.592   1.941   8.717  0.3299  1.6485  0.7547
 6083SOL     OW29707   3.805   2.003  14.399 -0.0419  0.2075  0.4791
 6083SOL    HW129708   3.714   2.022  14.422 -0.2890  0.7677 -0.9391
 6083SOL    HW229709   3.780   1.943  14.329 -0.4376 -2.2116  2.7415
 6084SOL     OW29710   1.122   0.843   1.921 -0.0695 -0.2969  0.9617
 6084SOL    HW129711   1.094   0.755   1.945 -2.5018  0.2418  0.0819
 6084SOL    HW229712   1.049   0.884   1.875  1.0420 -0.0899 -0.6001
 6085SOL     OW29713   4.336   2.932   5.720  0.2422 -0.0140 -0.3522
 6085SOL    HW129714   4.280   2.894   5.787  0.0899 -1.7244 -1.4325
 6085SOL    HW229715   4.415   2.956   5.769 -0.4664 -1.4600  1.4937
 6086SOL     OW29716   1.477   2.486  14.075 -0.2440  1.3406 -0.1249
 6086SOL    HW129717   1.434   2.401  14.078  1.1827  0.6909  1.5652
 6086SOL    HW229718   1.398   2.534  14.048 -0.5186  0.6755 -0.5103
 6087SOL     OW29719   3.588   3.392  16.107 -0.2417  0.0714  0.5312
 6087SOL    HW129720   3.588   3.471  16.052 -2.3421  0.8945  1.6766
 6087SOL    HW229721   3.673   3.392  16.151  0.2545  0.6012 -0.4175
 6088SOL     OW29722   2.932   0.267   7.802 -0.9153 -0.5491 -0.4954
 6088SOL    HW129723   2.911   0.176   7.780  0.3216 -0.5854 -1.5442
 6088SOL    HW229724   3.026   0.265   7.785 -1.0729 -2.3353 -1.1958
 6089SOL     OW29725   1.109   3.138   0.607 -0.2476  0.6084 -0.0395
 6089SOL    HW129726   1.074   3.141   0.518  2.2423 -0.6792 -1.0543
 6089SOL    HW229727   1.202   3.155   0.597  0.1427 -1.8999 -0.5847
 6090SOL     OW29728   4.066   0.155  13.092  0.6474 -0.5406  0.5036
 6090SOL    HW129729   3.975   0.183  13.106  1.0359  0.1573  1.6749
 6090SOL    HW229730   4.065   0.082  13.153 -0.7537  0.1694  1.3322
 6091SOL     OW29731   3.597   1.798   2.460  0.1394 -0.0858  0.0552
 6091SOL    HW129732   3.671   1.738   2.451  1.6342  1.7295  0.4232
 6091SOL    HW229733   3.559   1.770   2.376  0.3451  3.0374 -1.0887
 6092SOL     OW29734   0.569   1.063   3.170 -0.1673  0.5247 -0.0318
 6092SOL    HW129735   0.639   1.028   3.225 -1.7094 -0.6300  1.1978
 6092SOL    HW229736   0.511   1.104   3.234  0.2541  1.5049 -0.2778
 6093SOL     OW29737   0.081   1.765   9.554  0.5235 -0.4953 -0.1223
 6093SOL    HW129738   0.056   1.704   9.485 -4.0042  0.8702  0.2931
 6093SOL    HW229739   0.124   1.711   9.620 -1.5366 -0.6463  1.1078
 6094SOL     OW29740   1.863   1.648   6.661  0.6156  0.2399 -0.6386
 6094SOL    HW129741   1.810   1.569   6.654 -0.7774  1.4246 -3.9267
 6094SOL    HW229742   1.862   1.660   6.756 -0.7843  1.2890 -0.7790
 6095SOL     OW29743   4.307   1.744   3.349 -0.0371 -0.6465 -0.2389
 6095SOL    HW129744   4.338   1.654   3.360 -1.8949 -1.2896 -0.2342
 6095SOL    HW229745   4.346   1.780   3.428 -0.5696 -1.1328  0.2472
 6096SOL     OW29746   2.133   3.158  16.266 -0.1799 -0.1483  0.3360
 6096SOL    HW129747   2.060   3.182  16.322  0.0749 -1.0004  1.0179
 6096SOL    HW229748   2.129   3.233  16.206 -0.6771  1.8744  2.9032
 6097SOL     OW29749   2.844   1.943  12.997 -0.5694 -0.1921  0.1934
 6097SOL    HW129750   2.927   1.974  12.961 -0.6650 -3.4861 -2.7963
 6097SOL    HW229751   2.777   1.974  12.936 -1.0404 -0.4602  0.5738
 6098SOL     OW29752   0.154   3.508   1.173  0.6193 -0.0048 -0.2376
 6098SOL    HW129753   0.148   3.416   1.148  1.8977 -0.2620  0.4220
 6098SOL    HW229754   0.150   3.504   1.269  0.5690  1.2287 -0.1786
 6099SOL     OW29755   3.421   3.943   3.585 -0.3859 -0.1834 -0.8642
 6099SOL    HW129756   3.490   3.897   3.632 -0.8642 -1.4253 -1.3517
 6099SOL    HW229757   3.339   3.896   3.602  0.9480 -1.8500  0.9101
 6100SOL     OW29758   0.936   1.774   8.198  0.2777  0.4665 -0.3366
 6100SOL    HW129759   1.005   1.718   8.234  0.3636  1.4885  1.0928
 6100SOL    HW229760   0.908   1.828   8.271 -1.2180  0.2569 -0.7507
 6101SOL     OW29761   4.439   1.203  13.071  0.0531  0.4405  0.3930
 6101SOL    HW129762   4.497   1.218  12.996 -0.9343  2.5866  0.0517
 6101SOL    HW229763   4.417   1.293  13.095 -1.8481 -0.4385  1.9637
 6102SOL     OW29764   0.839   0.657   6.497  0.5136 -0.4123  0.1746
 6102SOL    HW129765   0.897   0.616   6.433  0.0364  1.7004 -1.5995
 6102SOL    HW229766   0.757   0.610   6.479  0.9698 -1.1952  0.1257
 6103SOL     OW29767   0.501   3.618  12.164 -0.3066  0.1193  0.1066
 6103SOL    HW129768   0.433   3.660  12.112 -0.1951 -1.4622 -1.3206
 6103SOL    HW229769   0.576   3.620  12.105  0.1693  1.2956  0.7322
 6104SOL     OW29770   3.815   0.970   2.004 -0.1800  0.1362  0.5304
 6104SOL    HW129771   3.783   1.004   2.088 -0.3136  2.1311 -0.3349
 6104SOL    HW229772   3.795   1.036   1.938 -1.4897  0.3409  1.1396
 6105SOL     OW29773   3.045   2.536  12.820  0.0451  0.2137  0.5314
 6105SOL    HW129774   2.952   2.532  12.799  0.5865 -2.7308 -1.3014
 6105SOL    HW229775   3.045   2.512  12.912 -0.7505  0.8314  0.6896
 6106SOL     OW29776   1.278   2.211   4.674 -0.3223  0.0387  0.2269
 6106SOL    HW129777   1.196   2.261   4.668  0.1220  0.9118  1.7175
 6106SOL    HW229778   1.272   2.155   4.597  0.3977  1.7832 -1.1033
 6107SOL     OW29779   2.655   2.309   4.428 -0.6095  0.5710 -0.6804
 6107SOL    HW129780   2.661   2.290   4.522 -0.1139  0.7829 -0.6710
 6107SOL    HW229781   2.579   2.367   4.425 -0.9646  0.1695  0.4498
 6108SOL     OW29782   2.341   2.455  14.704 -0.1361 -0.1597 -0.1602
 6108SOL    HW129783   2.429   2.492  14.694  0.4899 -2.2167 -2.3248
 6108SOL    HW229784   2.329   2.438  14.610  3.0737 -0.4151 -0.5411
 6109SOL     OW29785   2.660   2.392  15.524 -0.4556 -0.4335 -0.1994
 6109SOL    HW129786   2.625   2.450  15.456 -1.6226 -0.1652  0.6053
 6109SOL    HW229787   2.597   2.320  15.530  0.4059 -1.2367 -0.9028
 6110SOL     OW29788   1.794   1.879   4.968  0.0488 -0.5039  0.1162
 6110SOL    HW129789   1.760   1.895   5.056 -0.0031  1.8095 -0.3271
 6110SOL    HW229790   1.876   1.838   4.995  0.8647  0.0950 -1.4578
 6111SOL     OW29791   2.238   4.144  12.474 -0.2428 -0.3070 -0.3898
 6111SOL    HW129792   2.299   4.078  12.441 -0.6906 -0.2554 -1.3180
 6111SOL    HW229793   2.287   4.225  12.463  1.1068 -1.0353  0.1761
 6112SOL     OW29794   3.762   0.369   1.043  0.3012  0.1760 -0.6459
 6112SOL    HW129795   3.818   0.325   0.978  1.5552  0.3953  0.2957
 6112SOL    HW229796   3.771   0.460   1.017 -1.6962 -0.2457 -2.8706
 6113SOL     OW29797   2.489   2.029   5.465 -0.1013  0.8785 -0.1843
 6113SOL    HW129798   2.485   2.079   5.547  0.1103 -1.7945  1.4646
 6113SOL    HW229799   2.416   2.054   5.408 -1.5138 -0.5215  0.9937
 6114SOL     OW29800   2.939   0.856   7.069  0.4325  0.3424 -0.2730
 6114SOL    HW129801   2.903   0.768   7.077  1.6353 -0.0813  0.4094
 6114SOL    HW229802   2.977   0.855   6.981 -1.2573  3.4624 -1.0429
 6115SOL     OW29803   2.904   3.123   8.499  0.6261 -0.0604 -0.2247
 6115SOL    HW129804   2.877   3.045   8.548 -2.6543 -0.1725 -2.2321
 6115SOL    HW229805   2.951   3.170   8.569  0.7893 -0.5633  0.0085
 6116SOL     OW29806   4.222   2.188  13.024  0.6586  0.0688 -0.3953
 6116SOL    HW129807   4.126   2.182  13.020  0.6377 -0.6560  1.2996
 6116SOL    HW229808   4.235   2.107  13.074  0.2302 -0.3180 -0.8958
 6117SOL     OW29809   3.153   3.887   3.352 -0.3278  0.1870  0.2793
 6117SOL    HW129810   3.082   3.823   3.351 -0.5686  0.3935  3.1436
 6117SOL    HW229811   3.169   3.883   3.446  1.6699  1.3093 -0.0120
 6118SOL     OW29812   4.530   4.334   7.232  0.1330  0.4998  0.5492
 6118SOL    HW129813   4.449   4.382   7.249 -0.5371  0.3762 -2.3348
 6118SOL    HW229814   4.513   4.299   7.144  1.0068 -1.5831  1.2087
 6119SOL     OW29815   0.182   1.525   4.198  0.1204  0.1882  0.5077
 6119SOL    HW129816   0.104   1.528   4.253 -0.6861  0.2513 -0.6241
 6119SOL    HW229817   0.165   1.459   4.131 -1.0367  1.2451 -0.2525
 6120SOL     OW29818   1.811   4.106  14.610  0.7754  0.1274 -0.4054
 6120SOL    HW129819   1.853   4.028  14.573 -2.9502 -0.5671 -3.1116
 6120SOL    HW229820   1.722   4.078  14.629  1.1125 -2.1831 -2.1962
 6121SOL     OW29821   2.370   4.432   8.577  0.0453 -0.5954  0.1082
 6121SOL    HW129822   2.338   4.438   8.487  2.0333 -0.5643 -0.5997
 6121SOL    HW229823   2.298   4.468   8.628 -0.6737  0.2820 -1.5198
 6122SOL     OW29824   0.938   3.386   9.094 -0.3581  0.5034 -0.3078
 6122SOL    HW129825   0.914   3.338   9.173 -0.8843  0.9658 -0.1894
 6122SOL    HW229826   1.027   3.412   9.119  0.2101 -1.4140 -0.3369
 6123SOL     OW29827   3.248   2.650   6.092  0.6850  0.5026 -0.0406
 6123SOL    HW129828   3.238   2.638   6.187  1.9999  1.0437  0.1771
 6123SOL    HW229829   3.164   2.688   6.067  1.7271  2.8598  0.0039
 6124SOL     OW29830   1.641   4.385   2.187  0.3415  0.6525  0.2108
 6124SOL    HW129831   1.660   4.449   2.119  1.3727 -0.5261 -0.6171
 6124SOL    HW229832   1.624   4.439   2.264 -1.7475  1.7214 -0.9948
 6125SOL     OW29833   1.884   2.563   6.985  0.4311 -0.4911  0.0842
 6125SOL    HW129834   1.798   2.535   7.015  0.3324 -0.2173  0.0630
 6125SOL    HW229835   1.875   2.567   6.890  0.7234  1.1297  0.1220
 6126SOL     OW29836   2.534   2.766  13.693 -0.3416 -0.3007  0.0038
 6126SOL    HW129837   2.522   2.809  13.608  4.1564  1.0953  0.0855
 6126SOL    HW229838   2.559   2.841  13.747 -0.3357  0.2774 -0.7901
 6127SOL     OW29839   1.884   1.273   0.455  0.4756  0.2551  0.5062
 6127SOL    HW129840   1.933   1.346   0.491 -2.7548  1.4801  2.3553
 6127SOL    HW229841   1.809   1.320   0.418 -1.0764 -1.7012  1.1647
 6128SOL     OW29842   3.934   0.793   7.190  0.3962 -0.2135 -0.3527
 6128SOL    HW129843   3.954   0.874   7.143  2.2827  0.2268  1.1812
 6128SOL    HW229844   3.839   0.803   7.184  0.5025 -0.3657 -2.2811
 6129SOL     OW29845   1.564   3.246  17.084 -0.2687 -0.7589  0.2212
 6129SOL    HW129846   1.611   3.293  17.015 -0.7781  4.8337  3.7570
 6129SOL    HW229847   1.630   3.178  17.103  1.0778  0.1576 -1.2162
 6130SOL     OW29848   2.337   2.822  13.971 -0.2360  0.1491  0.4110
 6130SOL    HW129849   2.314   2.731  13.954  0.6007 -0.0438  0.3255
 6130SOL    HW229850   2.427   2.826  14.002 -0.1880  0.4353  0.2424
 6131SOL     OW29851   4.308   3.458   7.464 -0.3867 -0.0948  0.1209
 6131SOL    HW129852   4.267   3.402   7.530 -1.0021  0.5776  0.2978
 6131SOL    HW229853   4.254   3.534   7.485  0.9319  0.7207  0.5179
 6132SOL     OW29854   2.806   1.502   4.871 -0.1650 -0.1861 -0.2841
 6132SOL    HW129855   2.850   1.446   4.935 -1.0735  0.1899  0.6667
 6132SOL    HW229856   2.858   1.583   4.868  0.0018 -0.3041 -0.6079
 6133SOL     OW29857   2.139   1.753   1.744  0.0489  0.0884  0.1596
 6133SOL    HW129858   2.232   1.743   1.722 -0.4320 -0.3326 -1.6254
 6133SOL    HW229859   2.118   1.660   1.739 -1.2256  0.3012  1.4667
 6134SOL     OW29860   3.475   4.376   2.322 -0.0601 -0.1202 -0.4823
 6134SOL    HW129861   3.414   4.389   2.249 -2.7191  1.8992  2.0763
 6134SOL    HW229862   3.552   4.346   2.274 -0.2446  0.9495 -1.4326
 6135SOL     OW29863   3.358   2.053   5.625 -0.2198 -0.0391  0.9483
 6135SOL    HW129864   3.437   2.002   5.645  2.4274  3.3491 -1.0097
 6135SOL    HW229865   3.387   2.113   5.557 -0.7323 -1.4106 -0.4967
 6136SOL     OW29866   0.366   4.324  11.548 -0.1291 -0.1064 -0.2036
 6136SOL    HW129867   0.329   4.398  11.597 -1.2206  0.7269 -2.2589
 6136SOL    HW229868   0.370   4.260  11.618  0.7815  0.7096  0.4884
 6137SOL     OW29869   1.887   1.160  14.870 -0.0570  0.1093 -0.5844
 6137SOL    HW129870   1.859   1.168  14.961  0.3220  0.6963 -0.5162
 6137SOL    HW229871   1.801   1.185  14.836  0.1465  0.6535 -0.7080
 6138SOL     OW29872   3.416   3.837   6.972  0.0511 -0.1467  0.1053
 6138SOL    HW129873   3.466   3.813   7.049  0.1574  0.5894  0.2661
 6138SOL    HW229874   3.467   3.917   6.957 -1.9011  1.0371 -0.1689
 6139SOL     OW29875   0.041   4.577   7.431  0.0789  0.4581  0.4122
 6139SOL    HW129876   0.006   4.657   7.392  2.3696  0.8983 -0.7931
 6139SOL    HW229877   0.112   4.557   7.369 -0.8905 -0.0676 -0.5202
 6140SOL     OW29878   3.159   1.762   0.595  0.8181  0.2936 -0.2354
 6140SOL    HW129879   3.080   1.804   0.631  0.0838 -0.3598 -1.0978
 6140SOL    HW229880   3.226   1.788   0.659  0.5068  0.9603 -0.1773
 6141SOL     OW29881   0.839   2.578  13.199  0.3168 -0.5242  0.4833
 6141SOL    HW129882   0.761   2.593  13.147 -0.1600 -2.2872  0.6960
 6141SOL    HW229883   0.854   2.487  13.175  1.1265 -0.1524 -0.3955
 6142SOL     OW29884   0.220   0.602   5.789  0.6475  0.0686  0.1328
 6142SOL    HW129885   0.278   0.586   5.714  1.6597  1.3603  0.6272
 6142SOL    HW229886   0.225   0.697   5.791 -0.5651  0.1497 -0.5465
 6143SOL     OW29887   3.168   0.093   8.215 -0.4029 -0.0323 -0.4300
 6143SOL    HW129888   3.229   0.019   8.212  0.5437  0.6626  1.7768
 6143SOL    HW229889   3.160   0.098   8.310  0.5426  2.7192 -0.4914
 6144SOL     OW29890   2.291   2.334   2.676  0.1441 -0.2031  0.0179
 6144SOL    HW129891   2.326   2.293   2.755  0.6423 -1.4990 -0.8631
 6144SOL    HW229892   2.235   2.264   2.643  0.9702 -1.5068  1.3766
 6145SOL     OW29893   4.441   3.443  11.151  0.6930  0.2448 -0.1415
 6145SOL    HW129894   4.386   3.366  11.159  0.7387  0.3754  1.4352
 6145SOL    HW229895   4.419   3.477  11.064  2.2235  0.1975 -0.5405
 6146SOL     OW29896   1.179   3.588  10.988 -0.4354 -1.1310  0.4651
 6146SOL    HW129897   1.117   3.589  11.062 -0.3370  0.3298  0.5150
 6146SOL    HW229898   1.265   3.600  11.028 -0.0983 -1.3382 -0.2077
 6147SOL     OW29899   1.802   1.796   5.780 -0.0060 -0.1404  0.7009
 6147SOL    HW129900   1.826   1.706   5.759  0.0424  0.4111 -1.6697
 6147SOL    HW229901   1.706   1.791   5.787  0.3531 -4.2471  2.3783
 6148SOL     OW29902   3.951   4.300  10.396 -0.3685  0.6950 -0.1029
 6148SOL    HW129903   3.949   4.228  10.459 -0.6988 -1.3820 -2.4872
 6148SOL    HW229904   3.998   4.372  10.438  1.6945  0.5363 -2.1871
 6149SOL     OW29905   2.927   3.569  13.792  0.3692 -0.1688 -0.8502
 6149SOL    HW129906   2.869   3.644  13.802  0.5080 -0.4526  1.9297
 6149SOL    HW229907   3.012   3.612  13.778  0.0421  0.2876 -1.4705
 6150SOL     OW29908   2.329   1.276   9.519  0.0711 -0.0040  0.5731
 6150SOL    HW129909   2.273   1.332   9.572  0.2698  1.9375 -1.2537
 6150SOL    HW229910   2.391   1.340   9.483  0.8481 -1.1650 -0.1636
 6151SOL     OW29911   0.944   1.847  17.061  0.2468  0.1246 -0.5783
 6151SOL    HW129912   0.938   1.938  17.089  0.2040 -0.3588  0.9511
 6151SOL    HW229913   0.899   1.854  16.977 -0.6865 -2.4440 -0.2978
 6152SOL     OW29914   2.717   4.423   5.521  0.2228  0.0866 -0.4478
 6152SOL    HW129915   2.788   4.368   5.489 -0.0206 -0.9994  0.8541
 6152SOL    HW229916   2.668   4.360   5.575  0.8060 -0.6608 -0.7959
 6153SOL     OW29917   3.199   1.464   6.232  0.4775 -0.1325  0.5623
 6153SOL    HW129918   3.172   1.401   6.166  1.2824 -0.3807  0.4770
 6153SOL    HW229919   3.115   1.506   6.255 -0.5754  0.1663 -3.8793
 6154SOL     OW29920   2.269   3.785  12.436  0.3568  0.1331 -0.5805
 6154SOL    HW129921   2.295   3.724  12.367  2.0062 -0.3004  0.4418
 6154SOL    HW229922   2.349   3.836  12.444 -0.3787  0.8981  2.0341
 6155SOL     OW29923   2.049   1.672   9.169 -0.0302 -0.1914 -0.2378
 6155SOL    HW129924   2.088   1.664   9.256 -0.5214 -0.1972 -0.0206
 6155SOL    HW229925   1.996   1.751   9.179  0.7153  0.3207 -0.3154
 6156SOL     OW29926   4.356   3.562   0.030 -0.3859 -0.1929  0.1215
 6156SOL    HW129927   4.307   3.587   0.108 -1.7280  0.3022 -0.8791
 6156SOL    HW229928   4.359   3.468   0.046  1.2094 -0.2300 -0.3672
 6157SOL     OW29929   2.707   0.691   4.116  0.6089 -0.2147  0.3182
 6157SOL    HW129930   2.788   0.721   4.076  0.4759 -0.4668 -0.1406
 6157SOL    HW229931   2.738   0.656   4.199 -2.0626  0.6243  1.6992
 6158SOL     OW29932   3.881   2.243  12.390  0.8076  0.4346 -0.4662
 6158SOL    HW129933   3.948   2.280  12.333  1.2646 -1.6687 -1.2582
 6158SOL    HW229934   3.876   2.309  12.459 -2.0177 -1.5975  1.2860
 6159SOL     OW29935   2.953   3.052   0.443  0.1355 -0.1307 -0.0888
 6159SOL    HW129936   2.955   3.100   0.526 -0.1474 -0.3260  0.0288
 6159SOL    HW229937   2.869   3.009   0.434 -0.0470  0.1629  0.1988
 6160SOL     OW29938   1.936   2.123   5.161  0.6818 -0.1836 -0.5589
 6160SOL    HW129939   1.979   2.084   5.237 -1.3232  1.4238  1.3971
 6160SOL    HW229940   1.874   2.177   5.211 -0.3298 -1.9882  0.1350
 6161SOL     OW29941   3.532   2.369   3.018 -0.0238 -0.1203 -0.0874
 6161SOL    HW129942   3.476   2.291   3.024  0.1016 -0.3524 -1.7503
 6161SOL    HW229943   3.513   2.411   3.101  0.3804 -1.0996  0.5012
 6162SOL     OW29944   1.819   4.583   8.224  0.2965  0.8455 -0.4670
 6162SOL    HW129945   1.858   4.545   8.303  0.8178 -0.3986 -1.3320
 6162SOL    HW229946   1.735   4.604   8.264  0.6616 -2.3069  1.8891
 6163SOL     OW29947   4.339   3.428   2.540 -0.2135 -0.1888  0.3436
 6163SOL    HW129948   4.345   3.344   2.493  0.5436  0.7889 -1.3057
 6163SOL    HW229949   4.254   3.459   2.508  0.3938  2.0590  0.9441
 6164SOL     OW29950   0.403   2.297  17.456 -0.1568  0.4251  0.4120
 6164SOL    HW129951   0.367   2.305  17.367  1.1279  0.7001 -0.0823
 6164SOL    HW229952   0.322   2.286  17.506 -0.5523 -2.8129 -0.8732
 6165SOL     OW29953   4.025   3.271  10.243 -0.5196 -0.0714  0.5945
 6165SOL    HW129954   4.080   3.305  10.313 -2.2764  0.3609  1.7686
 6165SOL    HW229955   4.045   3.178  10.255  0.6258 -0.2697 -2.7450
 6166SOL     OW29956   4.643   0.427   7.944 -0.1785 -0.0218 -0.1801
 6166SOL    HW129957   4.683   0.377   7.872 -0.3989 -0.3309 -0.0871
 6166SOL    HW229958   4.693   0.507   7.927  0.6671 -0.7945 -1.3225
 6167SOL     OW29959   3.225   2.295   8.479 -0.4933 -0.4807  0.0700
 6167SOL    HW129960   3.134   2.302   8.508 -0.3130  1.2820  0.2237
 6167SOL    HW229961   3.270   2.336   8.554 -0.2476  1.0553 -0.9274
 6168SOL     OW29962   0.437   2.828   6.046 -0.1555 -0.1353 -0.3862
 6168SOL    HW129963   0.437   2.807   5.952 -1.1333  0.8889 -0.6158
 6168SOL    HW229964   0.420   2.922   6.045 -2.8417 -0.6092  0.1781
 6169SOL     OW29965   3.758   2.110   5.161 -0.5031  0.0174 -0.2113
 6169SOL    HW129966   3.826   2.103   5.227 -1.2235 -0.4637  0.4777
 6169SOL    HW229967   3.690   2.111   5.228  0.7415  2.0865  1.0355
 6170SOL     OW29968   4.375   3.465   7.199  0.2141 -0.7434 -0.2369
 6170SOL    HW129969   4.327   3.393   7.159 -0.0161 -0.0651 -1.1703
 6170SOL    HW229970   4.358   3.450   7.292 -1.6163 -1.0005 -0.6123
 6171SOL     OW29971   1.333   3.177  11.476 -0.4223 -0.0393  0.8169
 6171SOL    HW129972   1.388   3.101  11.491  0.9210  0.8450  0.3243
 6171SOL    HW229973   1.321   3.218  11.561 -0.8876  1.4026  0.0637
 6172SOL     OW29974   4.116   4.272   7.863 -0.1596 -0.3039 -0.4332
 6172SOL    HW129975   4.132   4.243   7.773  1.8473 -0.3864 -0.0428
 6172SOL    HW229976   4.075   4.355   7.842 -1.0724 -0.2926  1.4049
 6173SOL     OW29977   3.272   4.482   5.035  0.6587  0.0146  0.6144
 6173SOL    HW129978   3.298   4.482   5.127  2.1454 -3.9366  0.2057
 6173SOL    HW229979   3.328   4.411   5.003  0.6329  0.0315  0.5308
 6174SOL     OW29980   0.190   2.591   8.731 -0.1494 -0.7221  0.4560
 6174SOL    HW129981   0.281   2.612   8.752 -0.2766 -1.5550  1.8656
 6174SOL    HW229982   0.148   2.590   8.817 -1.4991  2.2786 -0.1974
 6175SOL     OW29983   1.267   3.647  10.193 -0.0573  0.1537 -0.0874
 6175SOL    HW129984   1.363   3.650  10.192 -0.0852  0.4594 -1.0046
 6175SOL    HW229985   1.242   3.735  10.166  1.6679  0.5536 -0.3650
 6176SOL     OW29986   0.197   1.902   3.964 -0.2294  0.0041  0.1105
 6176SOL    HW129987   0.139   1.895   4.040 -1.0950 -0.3646 -0.5805
 6176SOL    HW229988   0.140   1.880   3.889  2.1537 -1.4232 -1.2670
 6177SOL     OW29989   4.429   3.454   7.924  0.0991 -0.1089 -0.1962
 6177SOL    HW129990   4.442   3.549   7.916  1.0231 -0.0139  2.4315
 6177SOL    HW229991   4.519   3.425   7.911  0.9689  2.1019  0.9717
 6178SOL     OW29992   1.915   1.114   8.840 -0.9694 -0.6856  0.0174
 6178SOL    HW129993   1.966   1.141   8.916  0.2760  1.6218 -1.6256
 6178SOL    HW229994   1.972   1.052   8.796 -1.4554 -1.1026 -0.0283
 6179SOL     OW29995   1.808   2.626   0.999 -0.1986  0.4730 -0.1698
 6179SOL    HW129996   1.813   2.530   0.989 -0.9828  0.3542  0.5887
 6179SOL    HW229997   1.899   2.652   1.014 -0.1264 -0.2528  0.6592
 6180SOL     OW29998   0.922   3.629   7.762  0.2276 -0.5203  0.5783
 6180SOL    HW129999   0.878   3.606   7.680 -0.2621 -1.8071  1.1975
 6180SOL    HW230000   0.949   3.719   7.745 -0.3495 -0.2704  0.9986
 6181SOL     OW30001   4.349   3.634  10.630 -0.0671  0.5898 -0.4668
 6181SOL    HW130002   4.433   3.625  10.586 -0.7950  2.5509 -2.2569
 6181SOL    HW230003   4.304   3.567  10.579  0.9882 -0.5252  0.0572
 6182SOL     OW30004   0.259   1.291   4.603  0.1099  0.5486  0.3171
 6182SOL    HW130005   0.312   1.318   4.528  0.5447 -0.7684  0.1355
 6182SOL    HW230006   0.325   1.233   4.642  1.8387  1.6779 -0.9031
 6183SOL     OW30007   3.055   4.015   5.889 -0.4690 -0.4305  0.4426
 6183SOL    HW130008   3.085   3.927   5.913 -0.5936 -0.2931  1.0988
 6183SOL    HW230009   3.078   4.063   5.968 -1.0109 -0.8964  0.8888
 6184SOL     OW30010   2.352   2.923   0.533 -0.1687  0.1113  0.1701
 6184SOL    HW130011   2.276   2.954   0.582 -0.2180 -1.3907  1.0724
 6184SOL    HW230012   2.422   2.955   0.589  1.8969 -0.2359 -2.2103
 6185SOL     OW30013   2.730   1.230   3.554 -0.0568 -0.1128 -0.0743
 6185SOL    HW130014   2.721   1.325   3.542  4.5489  0.4755  1.0612
 6185SOL    HW230015   2.771   1.223   3.641  2.4950  0.4219 -1.2270
 6186SOL     OW30016   0.597   1.387   6.653 -0.0025 -0.4879  0.2305
 6186SOL    HW130017   0.595   1.314   6.715 -3.7775 -0.0618  0.6105
 6186SOL    HW230018   0.502   1.400   6.648 -0.0667 -0.6057  1.0667
 6187SOL     OW30019   2.320   3.301   3.958  0.1688 -0.3846  0.0194
 6187SOL    HW130020   2.407   3.286   3.995 -0.5102 -1.9054  1.0145
 6187SOL    HW230021   2.331   3.375   3.899  2.9700 -0.2855  0.6666
 6188SOL     OW30022   2.983   2.222   3.391 -0.2702  0.3978  0.2889
 6188SOL    HW130023   2.896   2.239   3.428 -0.4098 -0.1193  0.1950
 6188SOL    HW230024   2.999   2.312   3.362  1.3792 -0.1198 -0.4074
 6189SOL     OW30025   4.413   4.235   5.454  0.1699 -0.4939 -0.0864
 6189SOL    HW130026   4.322   4.216   5.431 -0.8146  3.3481  0.6630
 6189SOL    HW230027   4.435   4.146   5.484  0.3716 -0.5740 -0.4692
 6190SOL     OW30028   1.318   2.191   7.178  0.5656  0.2293 -0.5967
 6190SOL    HW130029   1.355   2.269   7.218  2.1036  1.0902 -3.6651
 6190SOL    HW230030   1.286   2.231   7.097 -1.2132  0.9674  0.4809
 6191SOL     OW30031   1.957   2.871  15.838  0.2642 -0.3379 -0.7895
 6191SOL    HW130032   2.050   2.854  15.823  0.2346 -1.4116  0.2774
 6191SOL    HW230033   1.922   2.824  15.763 -1.3158 -0.4263 -0.0005
 6192SOL     OW30034   0.801   2.118   4.749  1.3383  0.2846 -0.5305
 6192SOL    HW130035   0.755   2.037   4.772  1.0255 -0.3722 -3.4757
 6192SOL    HW230036   0.781   2.124   4.656 -0.6324 -1.2538 -0.2113
 6193SOL     OW30037   4.265   1.630  10.383 -0.0862  0.0456  0.0592
 6193SOL    HW130038   4.358   1.648  10.367 -0.3550  2.3979  1.1440
 6193SOL    HW230039   4.248   1.573  10.308  1.0055  1.1153 -0.9943
 6194SOL     OW30040   1.817   0.860  14.516 -0.2023  0.3227 -0.1347
 6194SOL    HW130041   1.886   0.921  14.542  0.8982 -1.2587  0.6700
 6194SOL    HW230042   1.788   0.898  14.433  0.9322  1.9635  0.2287
 6195SOL     OW30043   3.647   3.269   9.277  0.4856  0.3822 -0.7357
 6195SOL    HW130044   3.603   3.190   9.246  2.0548 -0.8053  0.0551
 6195SOL    HW230045   3.585   3.307   9.340  0.4559 -0.5141 -0.2221
 6196SOL     OW30046   2.091   3.203   4.655 -0.1380 -0.1566  0.2731
 6196SOL    HW130047   2.110   3.236   4.743  1.1884 -0.7528  0.2086
 6196SOL    HW230048   2.007   3.242   4.631 -0.4859  0.2721  2.1364
 6197SOL     OW30049   2.179   3.718  12.681 -0.0017 -0.5806  0.2364
 6197SOL    HW130050   2.254   3.675  12.722 -1.2125  0.1044  3.1254
 6197SOL    HW230051   2.218   3.749  12.599  0.0968  0.5582  0.7249
 6198SOL     OW30052   4.511   4.329   1.967  0.1837 -0.2349  0.2603
 6198SOL    HW130053   4.474   4.358   1.883  0.3149 -1.5395 -0.2610
 6198SOL    HW230054   4.523   4.412   2.013 -1.5297  1.0729 -1.6239
 6199SOL     OW30055   3.699   4.704   1.371 -0.1768  0.4910  0.2761
 6199SOL    HW130056   3.771   4.722   1.311 -1.0731  0.6278 -0.7715
 6199SOL    HW230057   3.626   4.716   1.310  1.4979  0.8879 -1.6466
 6200SOL     OW30058   4.177   2.784  10.157  0.1983 -0.1715  0.2876
 6200SOL    HW130059   4.114   2.765  10.087  1.3703  3.4035 -1.7721
 6200SOL    HW230060   4.175   2.706  10.212  1.4675  0.7556  1.6531
 6201SOL     OW30061   2.863   0.692   8.291  0.7151 -0.9242 -0.4285
 6201SOL    HW130062   2.792   0.735   8.243  2.2632  2.5381  0.4155
 6201SOL    HW230063   2.936   0.743   8.256  0.1353 -1.2719 -2.1529
 6202SOL     OW30064   3.365   1.328  11.639 -0.2976 -0.3833  0.2157
 6202SOL    HW130065   3.395   1.419  11.648 -0.2958 -0.3105 -0.5171
 6202SOL    HW230066   3.394   1.292  11.723  0.5032  0.4590  0.3031
 6203SOL     OW30067   2.767   4.643   7.502  0.1042  0.5160  0.6536
 6203SOL    HW130068   2.790   4.629   7.594  0.1434 -0.7425  0.4460
 6203SOL    HW230069   2.849   4.610   7.465 -1.3406 -0.1661 -1.9545
 6204SOL     OW30070   1.072   4.285   8.142 -0.2053 -0.0734  0.1016
 6204SOL    HW130071   1.000   4.238   8.100 -0.0574  0.5452 -0.8466
 6204SOL    HW230072   1.122   4.220   8.191  0.1358 -0.0133 -0.1725
 6205SOL     OW30073   1.796   4.243   5.357  0.1823  0.1000 -0.1806
 6205SOL    HW130074   1.716   4.196   5.378  0.7121 -0.7249 -0.0104
 6205SOL    HW230075   1.759   4.331   5.348 -1.5338 -0.7126 -0.9382
 6206SOL     OW30076   3.905   2.835   6.392 -0.2045 -0.6795 -0.1379
 6206SOL    HW130077   3.916   2.862   6.483  0.1843  1.6448 -0.8795
 6206SOL    HW230078   3.890   2.917   6.344  0.3660 -0.6403 -0.2504
 6207SOL     OW30079   2.349   4.264   9.280 -0.2029  0.1035 -0.5599
 6207SOL    HW130080   2.283   4.297   9.341  0.6700  0.5995  0.1201
 6207SOL    HW230081   2.289   4.225   9.217 -1.8609 -1.2575  1.8893
 6208SOL     OW30082   4.249   3.193  14.010  0.1678 -0.0781 -0.3521
 6208SOL    HW130083   4.155   3.175  14.003 -0.2840  2.2069 -0.3614
 6208SOL    HW230084   4.251   3.260  13.941 -2.6051  1.3184  0.9055
 6209SOL     OW30085   4.113   0.216   0.973  0.0635  0.0069 -0.7520
 6209SOL    HW130086   4.140   0.300   1.011  0.3228  0.4266 -1.8540
 6209SOL    HW230087   4.040   0.238   0.915 -1.0866  0.6544  0.9379
 6210SOL     OW30088   4.722   3.928   1.661  0.2525 -0.1142  0.3783
 6210SOL    HW130089   4.711   3.967   1.748 -1.0517  0.6745 -0.1426
 6210SOL    HW230090   4.633   3.897   1.642  0.6471 -1.0126 -0.0136
 6211SOL     OW30091   2.954   0.686   2.585 -0.2749  0.1136  0.0861
 6211SOL    HW130092   2.924   0.683   2.676  0.0963  0.9958  0.2425
 6211SOL    HW230093   2.946   0.594   2.563  0.9492 -0.6911  2.9082
 6212SOL     OW30094   1.872   3.735   7.669  0.3926  0.2367 -0.0487
 6212SOL    HW130095   1.906   3.798   7.606 -0.3054  0.5585 -0.0983
 6212SOL    HW230096   1.955   3.713   7.712  0.4457  0.6968  0.0879
 6213SOL     OW30097   3.804   0.922   3.010 -0.0217 -0.1729  0.9061
 6213SOL    HW130098   3.863   0.848   2.997 -1.6784 -1.8346  2.8457
 6213SOL    HW230099   3.812   0.980   2.933  0.5355  0.9750  1.8241
 6214SOL     OW30100   4.053   3.021   9.201 -0.2589 -0.0633  0.1384
 6214SOL    HW130101   4.004   2.942   9.179 -0.2009  0.6533 -2.5543
 6214SOL    HW230102   4.144   2.999   9.181 -0.6952 -0.3398 -1.5374
 6215SOL     OW30103   2.359   3.082   4.084 -0.0103  0.1676  0.4393
 6215SOL    HW130104   2.311   3.086   4.167 -0.4969  0.2918  0.1491
 6215SOL    HW230105   2.317   3.147   4.028  0.4554  1.6853  1.8579
 6216SOL     OW30106   2.777   2.562   7.728  0.3512 -0.4440 -0.4872
 6216SOL    HW130107   2.756   2.541   7.637  0.3191 -0.8545 -0.3849
 6216SOL    HW230108   2.866   2.528   7.724  0.0107 -0.9966 -3.1948
 6217SOL     OW30109   3.955   1.049   7.506  0.4046  0.4223 -0.2049
 6217SOL    HW130110   4.051   1.057   7.511  0.2098  0.4896  3.3788
 6217SOL    HW230111   3.952   0.967   7.557  1.5502  0.6667  0.2637
 6218SOL     OW30112   2.559   3.330   2.518  0.0001  0.0003  0.1514
 6218SOL    HW130113   2.635   3.348   2.463 -0.2875 -0.5509 -0.4270
 6218SOL    HW230114   2.570   3.235   2.517  0.9095  0.0896  1.2284
 6219SOL     OW30115   1.670   0.775  14.750 -0.8616 -0.3023  0.8485
 6219SOL    HW130116   1.591   0.754  14.701 -0.5221 -0.3672  0.3350
 6219SOL    HW230117   1.728   0.799  14.678 -1.5695  1.8684  0.9683
 6220SOL     OW30118   0.899   2.243   1.644  0.0473  0.3362 -0.4160
 6220SOL    HW130119   0.945   2.314   1.599  1.0596 -0.9240 -1.3689
 6220SOL    HW230120   0.870   2.187   1.572 -0.1741 -2.7676  2.1140
 6221SOL     OW30121   3.126   4.415  16.222 -0.1556  0.2287 -0.7635
 6221SOL    HW130122   3.200   4.448  16.274  0.0625 -1.2236 -0.1458
 6221SOL    HW230123   3.080   4.364  16.289 -1.0569  0.7295 -1.0031
 6222SOL     OW30124   1.141   3.770   4.248  0.5234  0.4448  0.0553
 6222SOL    HW130125   1.223   3.817   4.265 -1.6232  3.1900  2.5671
 6222SOL    HW230126   1.168   3.679   4.232 -2.4036 -0.1339 -1.6326
 6223SOL     OW30127   0.772   2.644   5.969 -0.3253 -0.5260 -0.4054
 6223SOL    HW130128   0.829   2.680   6.037 -0.3614 -0.2891 -0.4996
 6223SOL    HW230129   0.735   2.726   5.936  1.3669  1.0055  1.5048
 6224SOL     OW30130   1.428   2.972   4.849  0.5495  0.4312  0.5682
 6224SOL    HW130131   1.346   2.923   4.845 -0.2803  1.9751 -1.4989
 6224SOL    HW230132   1.463   2.993   4.763 -1.6421 -0.5661 -0.5663
 6225SOL     OW30133   1.940   2.511   2.715 -0.1764 -1.1839 -0.0189
 6225SOL    HW130134   1.934   2.421   2.749  1.1388 -1.7145 -1.1677
 6225SOL    HW230135   2.020   2.543   2.758 -1.7070  2.5464  0.0270
 6226SOL     OW30136   2.523   3.843   8.798  0.4294  0.6893 -0.3847
 6226SOL    HW130137   2.440   3.864   8.756 -0.0945 -0.0408  0.2770
 6226SOL    HW230138   2.582   3.899   8.748  0.2629  1.4556  0.2823
 6227SOL     OW30139   3.653   0.727   2.769 -0.2719  0.2378  0.1773
 6227SOL    HW130140   3.622   0.643   2.735  0.1471  0.2841 -0.3167
 6227SOL    HW230141   3.644   0.713   2.863 -2.6390 -0.3198 -0.1324
 6228SOL     OW30142   1.320   0.194   3.167 -0.5059  0.0480  0.0495
 6228SOL    HW130143   1.368   0.232   3.093  1.0644 -2.3886 -0.1847
 6228SOL    HW230144   1.242   0.248   3.156 -0.3013  0.1610 -0.8386
 6229SOL     OW30145   4.636   2.346   6.962  0.1462 -0.1336 -0.2349
 6229SOL    HW130146   4.566   2.283   6.976  0.7087 -1.0651 -1.6521
 6229SOL    HW230147   4.590   2.430   6.967 -0.0975 -0.4850  3.0617
 6230SOL     OW30148   2.328   1.613   7.329  0.3034  0.0304 -0.2365
 6230SOL    HW130149   2.330   1.542   7.264 -1.3127  0.6051 -0.8945
 6230SOL    HW230150   2.247   1.590   7.373 -0.0285  0.2819 -0.7198
 6231SOL     OW30151   0.508   3.249   5.362 -0.0876 -0.5171  0.3151
 6231SOL    HW130152   0.426   3.297   5.345 -0.1595 -0.8572 -0.2925
 6231SOL    HW230153   0.515   3.248   5.458 -0.7792 -2.4427  0.3451
 6232SOL     OW30154   0.664   2.503   7.609 -0.3152 -0.9530  0.1873
 6232SOL    HW130155   0.652   2.524   7.702 -0.9158  0.8995 -0.3129
 6232SOL    HW230156   0.572   2.492   7.584 -1.1368  0.6501  2.5263
 6233SOL     OW30157   2.578   2.369  15.041 -0.0571  0.1360  0.5167
 6233SOL    HW130158   2.515   2.311  15.085 -0.4606  1.2073  1.3492
 6233SOL    HW230159   2.529   2.371  14.959  1.9651 -1.5670 -0.7224
 6234SOL     OW30160   0.269   2.331   8.190  0.1382 -0.5080 -0.5793
 6234SOL    HW130161   0.336   2.316   8.256  0.6545  0.3718 -0.8934
 6234SOL    HW230162   0.233   2.242   8.188 -0.0651 -0.3983 -2.0583
 6235SOL     OW30163   4.464   1.817   5.926  0.2060  0.8573 -0.0671
 6235SOL    HW130164   4.400   1.771   5.872 -1.6625  0.5357  2.4004
 6235SOL    HW230165   4.519   1.745   5.957 -2.6193 -1.8640 -1.3947
 6236SOL     OW30166   0.942   1.635  16.278 -0.3970  0.4030 -0.3498
 6236SOL    HW130167   1.032   1.647  16.247 -0.4414  0.8551 -0.3065
 6236SOL    HW230168   0.921   1.552  16.236 -0.6132 -0.9858  2.5082
 6237SOL     OW30169   1.125   1.481   3.315  0.0632 -0.1285  0.1719
 6237SOL    HW130170   1.109   1.493   3.408  1.2316  1.9992  0.1016
 6237SOL    HW230171   1.097   1.389   3.317  2.2366 -0.8485 -2.3384
 6238SOL     OW30172   0.725   3.878   2.964 -0.4536 -0.0280  0.2327
 6238SOL    HW130173   0.700   3.814   3.031  0.4019 -0.2844  0.3071
 6238SOL    HW230174   0.784   3.937   3.011  1.0921 -0.2372 -1.4854
 6239SOL     OW30175   1.220   2.513  10.977 -0.6274  0.2464 -0.6609
 6239SOL    HW130176   1.191   2.424  10.960  0.1611  0.0939 -1.1925
 6239SOL    HW230177   1.279   2.537  10.905 -0.3277  0.3244 -0.3861
 6240SOL     OW30178   4.630   2.097   2.407 -0.5391  0.3920 -0.0499
 6240SOL    HW130179   4.581   2.063   2.333  2.1501 -0.8688 -1.2205
 6240SOL    HW230180   4.719   2.102   2.372 -0.8190  0.0714 -0.7924
 6241SOL     OW30181   0.446   3.116   9.150  0.2606 -0.0669  0.3945
 6241SOL    HW130182   0.531   3.151   9.177 -0.3879 -0.3221  2.6992
 6241SOL    HW230183   0.411   3.093   9.236 -1.8206  0.2587 -0.3790
 6242SOL     OW30184   4.386   4.151   8.252  0.3071 -0.5662 -0.3975
 6242SOL    HW130185   4.383   4.153   8.348  0.5656 -3.2014 -0.3121
 6242SOL    HW230186   4.317   4.214   8.232  0.8587  0.7129  1.7342
 6243SOL     OW30187   4.685   4.373  10.357  0.2191 -0.2250 -0.6089
 6243SOL    HW130188   0.046   4.416  10.367  0.1559 -0.6361  1.7884
 6243SOL    HW230189   4.708   4.280  10.348  1.2668 -0.2046  1.9866
 6244SOL     OW30190   3.051   0.226   6.488 -0.3827  0.0223  0.5317
 6244SOL    HW130191   3.076   0.298   6.546 -3.0925  1.2375  0.1499
 6244SOL    HW230192   3.121   0.163   6.505 -0.4441 -0.0815  0.3953
 6245SOL     OW30193   2.725   0.055   3.938 -0.2765  0.0473 -0.1423
 6245SOL    HW130194   2.804   0.107   3.955  0.7801 -1.2984 -0.9645
 6245SOL    HW230195   2.754   0.011   3.858  0.3617 -0.6940  0.4989
 6246SOL     OW30196   1.093   1.219  16.209  0.1279  0.1171 -0.1994
 6246SOL    HW130197   1.014   1.184  16.168  0.3421  1.5452 -1.8189
 6246SOL    HW230198   1.056   1.215  16.297  0.2115 -0.3657 -0.1850
 6247SOL     OW30199   1.662   2.417   7.984 -0.1853 -0.1492  0.3246
 6247SOL    HW130200   1.668   2.381   7.896  0.2221 -0.2606  0.3967
 6247SOL    HW230201   1.735   2.370   8.024 -0.1133 -1.4516 -1.3618
 6248SOL     OW30202   2.888   0.721   6.680  0.5783  0.0145 -0.3190
 6248SOL    HW130203   2.939   0.801   6.667  1.3606 -0.5827 -0.9286
 6248SOL    HW230204   2.803   0.765   6.672 -0.6043 -2.3662 -0.7459
 6249SOL     OW30205   0.233   3.433   0.169  0.6628 -0.6176  0.3916
 6249SOL    HW130206   0.190   3.518   0.159 -0.8325 -1.4137  0.0492
 6249SOL    HW230207   0.202   3.380   0.096 -0.4896 -0.4258  0.7403
 6250SOL     OW30208   1.859   0.593  14.520  0.4836  0.0896 -0.0894
 6250SOL    HW130209   1.926   0.590  14.589  0.4623 -1.2673 -0.1400
 6250SOL    HW230210   1.844   0.688  14.516 -2.0583 -0.3350 -0.3512
 6251SOL     OW30211   1.890   3.891   8.760  0.3300  0.2292 -0.0158
 6251SOL    HW130212   1.951   3.888   8.834  0.2302 -0.8628  0.0270
 6251SOL    HW230213   1.861   3.800   8.753 -1.8965  1.0994 -1.8865
 6252SOL     OW30214   3.339   2.172   3.086  0.5426  0.1386  0.0258
 6252SOL    HW130215   3.321   2.170   3.180 -2.4866 -1.2859 -0.6278
 6252SOL    HW230216   3.277   2.108   3.053 -0.1108  0.6368  0.2998
 6253SOL     OW30217   4.018   4.339   1.787 -0.5826 -0.1192 -0.1798
 6253SOL    HW130218   4.082   4.308   1.852 -0.8472 -0.0396  0.1164
 6253SOL    HW230219   3.933   4.336   1.831 -0.6033  0.6951 -0.1675
 6254SOL     OW30220   2.477   3.690   3.697  0.1043 -0.9305 -0.1082
 6254SOL    HW130221   2.508   3.649   3.778  0.0800  1.8312  1.2894
 6254SOL    HW230222   2.388   3.657   3.704  0.0214 -0.6832  0.0106
 6255SOL     OW30223   4.640   1.382   4.110  0.3004 -0.2147 -0.1938
 6255SOL    HW130224   4.627   1.295   4.147 -0.2233 -0.8233 -1.7949
 6255SOL    HW230225   4.637   1.442   4.184  1.0334 -1.9222  1.2105
 6256SOL     OW30226   1.309   3.875   1.879 -0.3407 -0.3273  0.6754
 6256SOL    HW130227   1.245   3.804   1.888  1.3133 -1.8477  0.3381
 6256SOL    HW230228   1.256   3.950   1.906  0.2000  0.7386 -1.2653
 6257SOL     OW30229   2.984   2.185   4.699  0.1366  0.0200 -0.1630
 6257SOL    HW130230   3.043   2.211   4.770 -0.6937 -0.8421  0.8276
 6257SOL    HW230231   2.990   2.253   4.632 -2.1701 -0.3024 -0.6887
 6258SOL     OW30232   3.934   1.868   7.757  0.4449  0.1069  0.6036
 6258SOL    HW130233   3.877   1.818   7.697  0.2230 -0.0118  0.9156
 6258SOL    HW230234   3.995   1.798   7.778 -0.2222 -0.5515  0.3495
 6259SOL     OW30235   3.544   2.775   3.351 -0.1488 -0.2631  0.0804
 6259SOL    HW130236   3.572   2.831   3.278  1.4984 -0.3313  0.6525
 6259SOL    HW230237   3.523   2.835   3.422 -0.0127 -1.3875  1.0703
 6260SOL     OW30238   4.109   0.279   4.677 -0.7468  0.1151 -0.0990
 6260SOL    HW130239   4.021   0.316   4.692  0.4373  2.9475 -0.1583
 6260SOL    HW230240   4.160   0.357   4.700  1.4838 -1.3425 -0.1388
 6261SOL     OW30241   3.357   3.041   7.917  0.2598 -0.3107  0.0053
 6261SOL    HW130242   3.312   2.958   7.933 -0.1583 -0.1442 -0.2824
 6261SOL    HW230243   3.307   3.109   7.960 -1.4010 -1.8308  0.4845
 6262SOL     OW30244   0.588   2.850   0.980 -0.2440 -0.9515 -0.5913
 6262SOL    HW130245   0.613   2.870   0.889 -0.1821  0.1392 -0.3339
 6262SOL    HW230246   0.645   2.912   1.025 -0.5721 -0.2313 -1.1759
 6263SOL     OW30247   1.574   3.209   5.351 -0.4341  0.8718  0.0055
 6263SOL    HW130248   1.536   3.192   5.437 -1.3978  1.2367 -0.3501
 6263SOL    HW230249   1.492   3.232   5.307 -0.9408 -0.6026  0.1904
 6264SOL     OW30250   2.814   2.913   8.658  0.1385 -0.0726 -0.1204
 6264SOL    HW130251   2.789   2.958   8.739 -0.7333 -0.6232 -0.0801
 6264SOL    HW230252   2.907   2.894   8.670  0.2398  1.6833  1.8010
 6265SOL     OW30253   0.460   2.115   6.065 -0.0537 -0.7032  0.1356
 6265SOL    HW130254   0.377   2.153   6.036  0.4835  2.4104  2.7567
 6265SOL    HW230255   0.489   2.198   6.103 -0.4172 -0.3110 -0.4419
 6266SOL     OW30256   1.629   0.193   6.805  0.1411  0.0340  0.1238
 6266SOL    HW130257   1.716   0.209   6.770 -0.5797  1.6027 -0.9420
 6266SOL    HW230258   1.587   0.263   6.755 -1.0043  0.4235  1.6323
 6267SOL     OW30259   0.130   3.210   0.002 -0.1902  0.2164 -0.2191
 6267SOL    HW130260   0.165   3.256  17.622  0.0239 -0.0327 -0.2730
 6267SOL    HW230261   0.154   3.119  17.683 -0.0437  0.2512 -0.1932
 6268SOL     OW30262   2.361   2.822   7.318  0.7169 -0.0168  0.0213
 6268SOL    HW130263   2.279   2.774   7.327  1.5181 -1.8810 -2.4086
 6268SOL    HW230264   2.346   2.905   7.363 -0.4486 -0.5484  0.6104
 6269SOL     OW30265   0.268   2.505   8.435  0.2862 -0.1938  0.3755
 6269SOL    HW130266   0.279   2.518   8.530 -4.7836  0.2631  0.8799
 6269SOL    HW230267   0.174   2.504   8.415 -0.1210  1.7067  2.1439
 6270SOL     OW30268   2.941   4.552  10.439 -0.1949 -0.0643 -0.0236
 6270SOL    HW130269   3.023   4.511  10.413  1.5280  2.8252  0.8676
 6270SOL    HW230270   2.924   4.614  10.368  1.7718 -0.0469 -0.4636
 6271SOL     OW30271   4.675   2.828   1.418 -0.6077  0.0447  0.1225
 6271SOL    HW130272   4.655   2.828   1.512 -2.7697  0.0830 -0.3291
 6271SOL    HW230273   4.644   2.748   1.375  0.7830  0.5560 -1.8096
 6272SOL     OW30274   3.346   1.003   3.914  0.0921  0.3587 -0.0167
 6272SOL    HW130275   3.424   1.037   3.870 -1.0661  1.8897 -0.9007
 6272SOL    HW230276   3.304   0.960   3.839 -0.9558 -0.3072  0.9621
 6273SOL     OW30277   1.544   2.862   8.197  0.2809 -0.3015  0.0255
 6273SOL    HW130278   1.535   2.779   8.151  0.7210  0.6704 -1.8214
 6273SOL    HW230279   1.474   2.861   8.262 -0.4562  0.6256 -0.7418
 6274SOL     OW30280   1.821   4.211   9.946 -0.3571  0.6688 -0.2333
 6274SOL    HW130281   1.775   4.280   9.897  3.2344  0.1017 -4.4192
 6274SOL    HW230282   1.759   4.172  10.008 -0.2100 -0.2188 -0.6424
 6275SOL     OW30283   2.122   2.805   7.589  0.4180  0.0027 -0.3741
 6275SOL    HW130284   2.043   2.859   7.585 -0.1587 -0.8919 -1.1555
 6275SOL    HW230285   2.135   2.774   7.499 -1.4902 -0.1066 -0.6135
 6276SOL     OW30286   1.256   3.609   7.182  0.2221 -0.3475 -0.3264
 6276SOL    HW130287   1.304   3.526   7.179  0.1964 -0.3426 -0.7943
 6276SOL    HW230288   1.204   3.600   7.262 -0.2137  0.1957 -0.5585
 6277SOL     OW30289   2.007   4.053   3.003 -0.0958 -0.2981  0.2056
 6277SOL    HW130290   2.065   4.129   2.993 -0.5429 -0.1661 -1.2705
 6277SOL    HW230291   2.078   4.004   3.044 -1.3350 -2.3684 -0.1392
 6278SOL     OW30292   2.361   3.652   4.630 -0.2045 -0.6322 -0.4238
 6278SOL    HW130293   2.268   3.673   4.633  0.1458  1.0898 -1.6061
 6278SOL    HW230294   2.360   3.564   4.593 -1.3807 -0.1287 -1.6063
 6279SOL     OW30295   2.957   2.894   5.035  0.7177 -0.0603  0.2255
 6279SOL    HW130296   3.002   2.973   5.006  0.2019  0.0649 -0.2203
 6279SOL    HW230297   2.878   2.899   4.982  1.2450  0.6688 -0.4801
 6280SOL     OW30298   2.145   0.391   8.308 -0.2024 -0.1226  0.5098
 6280SOL    HW130299   2.211   0.407   8.240  0.8203 -4.2913  0.5656
 6280SOL    HW230300   2.189   0.432   8.383 -2.1669  1.0729  1.0083
 6281SOL     OW30301   3.513   1.455   3.856  0.0683 -0.0482 -0.2921
 6281SOL    HW130302   3.488   1.363   3.849  0.4277 -0.1017 -0.8790
 6281SOL    HW230303   3.430   1.499   3.874 -0.5032  0.4676 -4.2286
 6282SOL     OW30304   1.305   1.962   8.773  0.5139 -0.4964  0.1297
 6282SOL    HW130305   1.316   2.054   8.797 -1.0103 -0.5276  1.0108
 6282SOL    HW230306   1.209   1.965   8.781  0.3741 -0.3757 -1.4501
 6283SOL     OW30307   2.772   0.478   3.229  0.2779  0.0586 -0.0818
 6283SOL    HW130308   2.831   0.430   3.171 -1.6988 -1.7814 -0.5640
 6283SOL    HW230309   2.827   0.555   3.244 -0.7232  0.7420  0.0947
 6284SOL     OW30310   2.693   1.157   4.241 -1.0440  0.3834  0.5653
 6284SOL    HW130311   2.658   1.081   4.194 -1.1433 -0.3847  1.8759
 6284SOL    HW230312   2.763   1.122   4.296  0.3090  2.6254  0.2478
 6285SOL     OW30313   0.703   1.845   9.342  0.0968  0.5202  0.0468
 6285SOL    HW130314   0.693   1.820   9.434  1.1148  0.7993  0.2330
 6285SOL    HW230315   0.734   1.760   9.310  2.6693  1.8314 -0.9188
 6286SOL     OW30316   2.756   4.175   4.859 -0.1994  0.4949  0.2421
 6286SOL    HW130317   2.786   4.191   4.770  0.0263 -2.2439 -0.1858
 6286SOL    HW230318   2.809   4.103   4.892 -0.4512  0.2731  0.1671
 6287SOL     OW30319   3.147   4.484   4.164 -0.1554 -0.4102  0.0607
 6287SOL    HW130320   3.158   4.389   4.161 -0.0944 -0.3781 -0.8736
 6287SOL    HW230321   3.162   4.503   4.256  1.8755 -0.9911 -0.1480
 6288SOL     OW30322   0.182   3.320   5.934 -0.0090 -0.2894 -0.4701
 6288SOL    HW130323   0.169   3.414   5.947 -0.3969 -0.3281 -0.5506
 6288SOL    HW230324   0.099   3.285   5.967  0.2258 -0.1502  0.2505
 6289SOL     OW30325   3.950   2.341  11.218 -0.2223 -0.3006  0.2992
 6289SOL    HW130326   3.980   2.420  11.173 -0.4384 -0.1562  0.4098
 6289SOL    HW230327   3.887   2.388  11.272  0.6164 -0.2803  1.2768
 6290SOL     OW30328   0.114   1.157  13.242  0.3972  0.8988 -0.4713
 6290SOL    HW130329   0.056   1.179  13.169 -0.0346 -0.4513 -0.5405
 6290SOL    HW230330   0.105   1.062  13.234  1.6761  0.8909 -1.6812
 6291SOL     OW30331   1.576   0.134   5.620  0.0381 -0.1666  0.2662
 6291SOL    HW130332   1.553   0.041   5.616 -0.5464  0.0269 -0.7904
 6291SOL    HW230333   1.633   0.139   5.543 -0.3899 -0.0728 -0.0462
 6292SOL     OW30334   3.509   4.062  14.129 -0.1630 -0.4716 -0.2865
 6292SOL    HW130335   3.472   4.105  14.207 -0.7739  0.2988 -1.0086
 6292SOL    HW230336   3.439   3.999  14.116 -1.0908  0.3703  0.5445
 6293SOL     OW30337   2.852   4.404   3.868 -0.1329 -0.3488  0.2163
 6293SOL    HW130338   2.800   4.324   3.869  2.4396 -2.0533 -1.5688
 6293SOL    HW230339   2.797   4.472   3.831 -0.1184  1.0011  2.6423
 6294SOL     OW30340   1.348   0.322   8.128  0.8271  1.3420  0.2953
 6294SOL    HW130341   1.430   0.355   8.166  0.0696  3.3078  0.2024
 6294SOL    HW230342   1.288   0.359   8.193  1.4896 -1.5052  2.5390
 6295SOL     OW30343   4.014   2.954   5.415 -0.0585  0.2188 -0.1737
 6295SOL    HW130344   3.946   2.989   5.358 -1.8449 -0.1725  1.7615
 6295SOL    HW230345   3.960   2.911   5.481  2.1545 -0.8943  0.9289
 6296SOL     OW30346   0.495   1.274   3.591  0.2654 -0.1090  0.7085
 6296SOL    HW130347   0.558   1.345   3.577  0.7316 -0.3705  1.4417
 6296SOL    HW230348   0.463   1.285   3.681  1.6380 -1.6423  1.3738
 6297SOL     OW30349   0.504   2.045   6.823  0.0430 -0.4935 -0.3691
 6297SOL    HW130350   0.556   2.125   6.828 -0.1007 -0.4100 -0.2085
 6297SOL    HW230351   0.554   2.003   6.753  2.5152  1.0548  0.4885
 6298SOL     OW30352   3.138   1.875  17.407  0.0611 -0.3083  0.0718
 6298SOL    HW130353   3.206   1.844  17.347  0.5005 -0.3547  0.5888
 6298SOL    HW230354   3.057   1.829  17.384  0.0656 -0.2689 -0.0226
 6299SOL     OW30355   2.638   2.224   9.840 -0.1188  0.6008 -0.2836
 6299SOL    HW130356   2.566   2.190   9.787  1.9318 -2.3905 -1.1087
 6299SOL    HW230357   2.712   2.205   9.782 -0.6419  0.2306 -0.8222
 6300SOL     OW30358   3.452   0.039  16.534  0.3487  0.2247 -0.1009
 6300SOL    HW130359   3.523   4.706  16.503 -0.3128 -0.8198  0.2890
 6300SOL    HW230360   3.397   4.688  16.558 -1.2738  1.5307  0.2864
 6301SOL     OW30361   3.174   0.945   4.983 -0.1932  0.6085  0.0749
 6301SOL    HW130362   3.151   1.000   5.058 -1.8995 -2.1147  1.5843
 6301SOL    HW230363   3.103   0.959   4.920 -0.7718  1.7257  0.9630
 6302SOL     OW30364   4.524   0.732   4.111 -0.2192  0.2744  0.3459
 6302SOL    HW130365   4.445   0.774   4.142 -1.0406  0.1101 -1.5209
 6302SOL    HW230366   4.484   0.680   4.041  0.8098 -2.3832  1.6980
 6303SOL     OW30367   4.270   3.268   1.494 -0.0547  0.4105 -0.2322
 6303SOL    HW130368   4.281   3.252   1.401  0.2121  2.2350 -0.5082
 6303SOL    HW230369   4.250   3.361   1.495  0.3022  0.4928 -0.7410
 6304SOL     OW30370   0.795   4.597  14.221  0.8270  0.2982  0.4536
 6304SOL    HW130371   0.852   4.673  14.209 -0.2792  1.1661  0.6621
 6304SOL    HW230372   0.715   4.645  14.199 -1.3035 -3.0007  0.9783
 6305SOL     OW30373   3.018   4.366  13.198 -0.1726 -0.0910 -0.2786
 6305SOL    HW130374   3.083   4.312  13.243  1.6786  0.7337 -2.0018
 6305SOL    HW230375   3.013   4.319  13.114 -1.4823  1.5599 -1.1360
 6306SOL     OW30376   2.324   2.112  10.837 -0.6529 -0.2883  0.1261
 6306SOL    HW130377   2.376   2.101  10.917  1.2404  0.0101 -1.0663
 6306SOL    HW230378   2.382   2.105  10.762 -0.4528 -0.9441  0.3437
 6307SOL     OW30379   0.948   4.582   5.912  0.0948 -0.2160 -0.4084
 6307SOL    HW130380   0.917   4.672   5.922  0.1166 -0.0993 -1.3845
 6307SOL    HW230381   0.932   4.554   6.002  1.5799  0.6256  0.1000
 6308SOL     OW30382   4.590   4.339   6.881 -0.0780  0.3294  0.3112
 6308SOL    HW130383   4.557   4.255   6.914  1.5953 -0.9735 -1.3075
 6308SOL    HW230384   4.676   4.306   6.855 -0.3033  0.5509 -0.6899
 6309SOL     OW30385   2.758   3.692   6.437 -0.1509  0.2309 -0.5389
 6309SOL    HW130386   2.812   3.645   6.500 -0.8001 -2.4835 -1.9961
 6309SOL    HW230387   2.806   3.769   6.406  1.6847 -0.9130 -0.4983
 6310SOL     OW30388   4.509   2.772   1.883  0.3024  0.2645 -0.2061
 6310SOL    HW130389   4.415   2.753   1.891  0.4567  0.2724  1.5860
 6310SOL    HW230390   4.546   2.727   1.958  3.5563  0.5300 -1.6561
 6311SOL     OW30391   0.638   3.814  14.453 -0.1048 -0.1107 -0.3489
 6311SOL    HW130392   0.591   3.880  14.403 -1.1431  1.1509  2.2921
 6311SOL    HW230393   0.721   3.860  14.466  0.0065  0.2669 -2.5403
 6312SOL     OW30394   1.373   3.798   3.056  0.1788  0.2161  0.1660
 6312SOL    HW130395   1.297   3.791   3.114  0.9677  0.6670  1.2745
 6312SOL    HW230396   1.396   3.708   3.032 -0.1208 -0.6933  3.2244
 6313SOL     OW30397   1.889   4.273   3.789  0.2389  0.1725 -0.6817
 6313SOL    HW130398   1.965   4.217   3.803  1.4777  1.9155 -0.4389
 6313SOL    HW230399   1.919   4.350   3.740  0.1801  0.1314 -0.7817
 6314SOL     OW30400   4.045   0.430   6.813 -0.3044  0.3773 -0.3342
 6314SOL    HW130401   4.083   0.380   6.741 -1.6707 -0.7543 -0.2738
 6314SOL    HW230402   3.980   0.373   6.853  0.5264  0.6816  1.4293
 6315SOL     OW30403   1.010   1.784  15.594 -0.4962 -0.2937  0.0359
 6315SOL    HW130404   1.041   1.736  15.518 -1.1513 -0.9891  0.2037
 6315SOL    HW230405   0.945   1.720  15.625  0.1018  0.4071  2.7260
 6316SOL     OW30406   2.656   0.962  11.297 -0.5548 -0.1228  0.1542
 6316SOL    HW130407   2.640   1.040  11.243  0.7140  0.0183 -0.0090
 6316SOL    HW230408   2.567   0.949  11.331 -1.1611  0.9886 -1.0071
 6317SOL     OW30409   1.796   3.083   3.058 -0.1576 -0.0310 -0.1605
 6317SOL    HW130410   1.730   3.024   3.020 -0.3593 -0.0377  0.1992
 6317SOL    HW230411   1.765   3.162   3.014  0.4818  1.0175  1.2961
 6318SOL     OW30412   4.262   1.765   2.721 -0.2542  0.2104  0.4572
 6318SOL    HW130413   4.252   1.827   2.649  0.0852  1.9212  1.8900
 6318SOL    HW230414   4.356   1.746   2.715 -0.2585  0.5294 -0.6555
 6319SOL     OW30415   0.697   2.652  10.838 -0.1449  0.1449 -0.4312
 6319SOL    HW130416   0.611   2.676  10.803 -1.2160 -1.3679  1.1940
 6319SOL    HW230417   0.697   2.675  10.931 -3.0419 -0.1996 -0.3649
 6320SOL     OW30418   0.644   3.211   6.787  0.2128  0.2149 -0.6060
 6320SOL    HW130419   0.599   3.160   6.720 -1.9036 -1.2697  1.9106
 6320SOL    HW230420   0.597   3.181   6.865 -0.1522  2.1091 -0.1007
 6321SOL     OW30421   2.470   2.544   7.047  0.1436  0.2117 -0.0655
 6321SOL    HW130422   2.525   2.550   6.969 -0.3817  1.1578 -0.3731
 6321SOL    HW230423   2.407   2.476   7.022  0.0189  0.4032 -0.2772
 6322SOL     OW30424   3.214   2.297  17.445 -0.1418  0.4233  0.0090
 6322SOL    HW130425   3.148   2.228  17.444  0.2827  0.0042  0.7012
 6322SOL    HW230426   3.297   2.254  17.463 -0.9693 -0.5655  1.4294
 6323SOL     OW30427   0.478   0.115   1.865 -0.2186  0.0209 -0.6797
 6323SOL    HW130428   0.452   0.204   1.889 -0.4455 -0.5464  1.1191
 6323SOL    HW230429   0.404   0.069   1.904  0.1544 -0.2234 -0.2624
 6324SOL     OW30430   1.061   1.803   1.157  0.0649 -0.0418  0.0953
 6324SOL    HW130431   0.992   1.759   1.106 -0.9470 -1.0564  2.3668
 6324SOL    HW230432   1.018   1.889   1.166  0.6960 -0.0153  2.8319
 6325SOL     OW30433   1.992   0.527  15.033  0.0978  0.4326  0.2161
 6325SOL    HW130434   1.959   0.576  14.958  2.2806 -0.2150 -1.1645
 6325SOL    HW230435   1.998   0.438  14.998  1.8968 -0.1878  2.1324
 6326SOL     OW30436   0.459   2.337   2.975 -0.1437 -0.3660 -0.7035
 6326SOL    HW130437   0.455   2.372   3.064 -0.3891  1.7273 -1.5214
 6326SOL    HW230438   0.472   2.244   2.994 -0.4177 -0.5033 -1.1714
 6327SOL     OW30439   3.510   3.031   7.434 -0.2235  0.1959 -0.2480
 6327SOL    HW130440   3.514   3.048   7.528  2.0468  1.6202 -0.5990
 6327SOL    HW230441   3.415   3.019   7.429 -0.2942 -0.0633  1.6123
 6328SOL     OW30442   2.108   2.358   5.780  0.1645  0.1426 -0.5210
 6328SOL    HW130443   2.130   2.327   5.868 -0.9100  0.4155 -0.1598
 6328SOL    HW230444   2.145   2.445   5.791 -0.6144  0.3624  0.3251
 6329SOL     OW30445   2.711   0.269  13.501 -0.1896  0.3304  0.1000
 6329SOL    HW130446   2.660   0.247  13.579 -0.4297 -1.7083 -0.6412
 6329SOL    HW230447   2.712   0.190  13.447 -1.5831  0.5399 -0.2296
 6330SOL     OW30448   2.450   0.156  11.309  0.1868 -0.5753 -0.9446
 6330SOL    HW130449   2.396   0.225  11.347 -0.7375 -1.7125 -0.1794
 6330SOL    HW230450   2.500   0.126  11.385 -1.3922 -1.4889 -0.2691
 6331SOL     OW30451   2.858   1.887   9.469 -0.5449 -0.4725  0.3813
 6331SOL    HW130452   2.928   1.845   9.419  0.2121  0.7135  0.4513
 6331SOL    HW230453   2.795   1.912   9.402 -0.0098 -0.2181 -0.0294
 6332SOL     OW30454   1.985   1.972   9.050  0.1867  1.0241  0.2125
 6332SOL    HW130455   1.965   1.926   8.969 -0.4102  1.6800 -0.0182
 6332SOL    HW230456   2.055   2.031   9.023  0.5155  0.2560 -0.5949
 6333SOL     OW30457   2.584   2.653  12.959 -0.3636  0.3944 -0.1038
 6333SOL    HW130458   2.641   2.583  12.930 -1.2960 -0.8399  1.0278
 6333SOL    HW230459   2.541   2.610  13.033  0.9310  0.4828  0.6967
 6334SOL     OW30460   2.684   3.274   8.493 -0.1794 -0.1823  0.1311
 6334SOL    HW130461   2.709   3.350   8.440  2.4995 -1.2126 -0.0768
 6334SOL    HW230462   2.768   3.229   8.505 -0.1679  0.1482  1.3628
 6335SOL     OW30463   4.117   2.915   6.971 -0.2296  0.3988  0.6870
 6335SOL    HW130464   4.175   2.923   6.895 -1.3082 -0.7537 -0.2596
 6335SOL    HW230465   4.163   2.968   7.037 -0.4258  1.9105 -0.3945
 6336SOL     OW30466   1.907   1.883   2.150 -0.3654 -0.0387  0.2296
 6336SOL    HW130467   1.902   1.873   2.245 -2.5270  2.0048  0.3415
 6336SOL    HW230468   1.954   1.965   2.136 -0.2046 -0.1743 -0.0290
 6337SOL     OW30469   4.293   0.681  14.548  0.2790  0.0551 -0.0606
 6337SOL    HW130470   4.198   0.679  14.537  0.0688  1.1870  1.5455
 6337SOL    HW230471   4.302   0.765  14.594  0.4624  0.0142 -0.0218
 6338SOL     OW30472   3.654   4.458  14.127  0.2454  0.2834 -0.4877
 6338SOL    HW130473   3.661   4.500  14.041 -0.2887 -0.6528 -0.9893
 6338SOL    HW230474   3.560   4.441  14.137  0.0122  1.3939 -0.7701
 6339SOL     OW30475   4.557   4.348   2.716  0.2624 -0.2520 -0.5686
 6339SOL    HW130476   4.600   4.263   2.714  0.5986 -0.0992  0.2611
 6339SOL    HW230477   4.477   4.320   2.759  1.3966 -0.1129  1.6550
 6340SOL     OW30478   2.050   4.634  16.090  0.0153  0.0453 -0.4102
 6340SOL    HW130479   2.048   4.612  15.997  1.8019  0.9965 -0.6861
 6340SOL    HW230480   2.036   0.005  16.082 -1.0427 -0.0223  0.6527
 6341SOL     OW30481   0.110   0.562  16.899  0.1802 -0.0574 -0.2973
 6341SOL    HW130482   0.056   0.571  16.978 -0.5037  0.7570 -0.8655
 6341SOL    HW230483   0.090   0.473  16.870  1.1039  0.1738 -1.5967
 6342SOL     OW30484   2.385   0.333   5.842  0.4200 -0.5127  0.6049
 6342SOL    HW130485   2.475   0.339   5.812 -0.1977  1.2742 -0.8800
 6342SOL    HW230486   2.402   0.289   5.926  0.9931  2.2240  1.9088
 6343SOL     OW30487   4.096   1.679  17.415  0.1186  0.1010  0.1878
 6343SOL    HW130488   4.024   1.625  17.446  1.5035 -1.3282  0.9203
 6343SOL    HW230489   4.165   1.613  17.416 -0.6835 -0.7438 -1.0625
 6344SOL     OW30490   2.034   2.002   6.299 -0.2125  0.2538 -0.1069
 6344SOL    HW130491   2.038   2.097   6.315 -1.3995  0.2971 -0.0689
 6344SOL    HW230492   2.118   1.995   6.253 -0.0278 -2.4708  0.6685
 6345SOL     OW30493   0.164   3.058   4.647  0.6350  0.3237 -0.5209
 6345SOL    HW130494   0.072   3.044   4.669  0.5290  0.9088 -0.6026
 6345SOL    HW230495   0.159   3.089   4.556 -0.1356  2.1283  0.1538
 6346SOL     OW30496   4.307   0.464   5.307  0.0822 -0.6046 -0.1430
 6346SOL    HW130497   4.359   0.458   5.387 -0.0317  2.0121  0.1330
 6346SOL    HW230498   4.328   0.555   5.290  3.1235 -1.4988 -1.1201
 6347SOL     OW30499   0.712   2.832  10.487  0.5537  0.4127 -0.9286
 6347SOL    HW130500   0.792   2.871  10.523 -0.4662  0.5715  1.1548
 6347SOL    HW230501   0.724   2.738  10.505 -1.2688  0.4089  0.2507
 6348SOL     OW30502   0.054   4.688  10.521  0.2107 -0.4516  0.2363
 6348SOL    HW130503   0.034   4.598  10.550 -2.1452 -0.6133 -1.8566
 6348SOL    HW230504   0.110   0.002  10.589  0.4729  2.5278 -1.6450
 6349SOL     OW30505   4.195   0.571   3.362  0.2931  0.4506  0.0057
 6349SOL    HW130506   4.285   0.548   3.382  0.4877  0.1578 -1.1942
 6349SOL    HW230507   4.160   0.482   3.351 -0.2960  0.5386  1.1585
 6350SOL     OW30508   4.517   0.169   6.929 -0.0105  0.5844 -0.2765
 6350SOL    HW130509   4.523   0.103   6.998  0.3968 -2.7995 -3.5533
 6350SOL    HW230510   4.424   0.191   6.935  0.3644  1.2669  3.3552
 6351SOL     OW30511   0.086   4.688   0.819 -0.0822  0.4913 -0.1805
 6351SOL    HW130512   0.115   0.012   0.741 -1.9643 -0.7499 -1.6718
 6351SOL    HW230513   0.090   0.027   0.891 -0.2084  0.1364  0.1357
 6352SOL     OW30514   3.460   1.010   5.845  0.7835 -0.0429  0.2292
 6352SOL    HW130515   3.505   1.042   5.924  1.7470  0.3680 -0.4887
 6352SOL    HW230516   3.415   1.085   5.806  0.1401  0.7307  2.4589
 6353SOL     OW30517   3.930   3.064  16.115 -0.4868  0.6978  0.7756
 6353SOL    HW130518   3.955   3.004  16.185 -2.1349 -1.3474 -0.4017
 6353SOL    HW230519   3.942   2.998  16.047 -0.6565  0.3001  1.1300
 6354SOL     OW30520   0.197   1.379   1.240  0.5879 -0.0751  0.1095
 6354SOL    HW130521   0.179   1.470   1.216  2.6408  0.7109  1.5631
 6354SOL    HW230522   0.188   1.395   1.334 -0.8703  0.4598 -0.1234
 6355SOL     OW30523   0.866   2.124   2.302 -1.0343 -0.3131  0.5810
 6355SOL    HW130524   0.813   2.204   2.294  1.0842  0.8590 -1.9787
 6355SOL    HW230525   0.950   2.169   2.292 -1.2916  0.9674  3.9627
 6356SOL     OW30526   0.413   1.655   2.844  0.2855 -0.7901 -0.8103
 6356SOL    HW130527   0.397   1.743   2.877 -0.6121 -0.8740 -1.0225
 6356SOL    HW230528   0.463   1.679   2.766  1.2497  0.2928  0.1452
 6357SOL     OW30529   4.254   3.942   7.085  0.1726  0.2852 -0.2026
 6357SOL    HW130530   4.172   3.949   7.134 -0.2482  0.4461 -0.9202
 6357SOL    HW230531   4.314   3.886   7.133 -0.5615 -0.2372  0.0968
 6358SOL     OW30532   3.136   0.001   0.411  0.2272 -0.1351 -0.4331
 6358SOL    HW130533   3.165   0.056   0.338  0.1992 -1.5713 -1.5186
 6358SOL    HW230534   3.049   0.038   0.427 -0.3781 -1.2531 -1.1472
 6359SOL     OW30535   2.427   0.562  16.183  0.3504 -0.0109 -0.0783
 6359SOL    HW130536   2.464   0.648  16.163 -1.2470  0.7840  0.4082
 6359SOL    HW230537   2.507   0.515  16.205 -0.1701 -0.9206 -0.1156
 6360SOL     OW30538   1.375   0.765  17.316  0.3731  0.6568  0.1904
 6360SOL    HW130539   1.436   0.825  17.273 -0.8870  1.5269 -0.4033
 6360SOL    HW230540   1.439   0.698  17.339 -0.0206  0.6243  1.1486
 6361SOL     OW30541   0.390   1.929   5.666  0.0072 -0.3866  0.2186
 6361SOL    HW130542   0.383   1.924   5.571 -2.1363  1.0620  0.2952
 6361SOL    HW230543   0.457   1.997   5.670  0.0403 -0.4958  1.4094
 6362SOL     OW30544   4.680   1.948   4.822 -0.0535  0.5154 -0.1335
 6362SOL    HW130545   4.585   1.941   4.807 -0.1984  2.0271  0.1586
 6362SOL    HW230546   4.704   1.858   4.800  2.8846  1.0845  0.8302
 6363SOL     OW30547   3.802   3.527   1.066  0.1400 -0.0227  0.0342
 6363SOL    HW130548   3.778   3.602   1.119  0.1881 -0.8245  1.1865
 6363SOL    HW230549   3.859   3.567   1.000  3.6425 -1.2417  2.3320
 6364SOL     OW30550   1.775   0.460  10.797  0.1308 -1.1419  0.4531
 6364SOL    HW130551   1.702   0.457  10.858 -1.0790  1.9765 -0.8558
 6364SOL    HW230552   1.844   0.512  10.839  0.2431 -1.6160  0.8559
 6365SOL     OW30553   0.153   2.301   4.560 -0.5492  0.8859  0.5961
 6365SOL    HW130554   0.130   2.229   4.618  1.3133 -0.6672 -0.5640
 6365SOL    HW230555   0.115   2.275   4.476  0.2990 -2.7613  1.3365
 6366SOL     OW30556   3.920   0.196  16.797 -0.7836  0.1014 -0.0208
 6366SOL    HW130557   3.985   0.192  16.727 -1.1423 -3.5443 -0.1665
 6366SOL    HW230558   3.907   0.291  16.791 -0.2113  0.1482 -0.5421
 6367SOL     OW30559   1.623   2.822  10.742  0.2005  0.4156 -0.2053
 6367SOL    HW130560   1.718   2.806  10.740 -0.0501 -0.8463 -1.9516
 6367SOL    HW230561   1.627   2.903  10.792 -0.5469  1.0677 -1.2180
 6368SOL     OW30562   3.660   1.200  11.614  0.1493  0.2734  0.0939
 6368SOL    HW130563   3.625   1.162  11.695 -1.7902 -0.2914 -1.0128
 6368SOL    HW230564   3.724   1.263  11.646  1.7875 -0.5804 -1.4434
 6369SOL     OW30565   3.451   2.268  12.026  0.1489 -0.2908  0.0743
 6369SOL    HW130566   3.426   2.240  11.937 -2.7547 -0.9835  1.1014
 6369SOL    HW230567   3.373   2.241  12.074  0.5743 -2.8407 -0.6519
 6370SOL     OW30568   2.343   1.522   9.244  0.5331 -0.0170  0.1277
 6370SOL    HW130569   2.410   1.495   9.307 -0.0255 -1.0168  0.2862
 6370SOL    HW230570   2.270   1.530   9.306 -0.4561  0.3170 -1.0961
 6371SOL     OW30571   2.885   3.999   4.125 -0.1227  0.0513 -0.2873
 6371SOL    HW130572   2.817   4.050   4.168  0.6254 -0.5902  1.6782
 6371SOL    HW230573   2.937   3.967   4.199  0.8643 -1.2150 -1.5146
 6372SOL     OW30574   3.778   4.541   4.397  0.1373  0.1332 -0.6745
 6372SOL    HW130575   3.767   4.521   4.490 -0.8536 -0.4130 -0.9121
 6372SOL    HW230576   3.764   4.635   4.383 -2.2974 -0.4409 -2.1122
 6373SOL     OW30577   3.271   3.549   6.977 -0.0189 -0.4859 -0.2948
 6373SOL    HW130578   3.260   3.564   6.883  1.2457  2.5838  0.0273
 6373SOL    HW230579   3.365   3.533   6.985 -0.0304 -0.5318 -0.2482
 6374SOL     OW30580   1.960   1.352   4.860 -0.1885 -0.2781 -0.3620
 6374SOL    HW130581   1.902   1.346   4.784 -2.3421 -0.9604  1.3463
 6374SOL    HW230582   1.925   1.428   4.907 -0.5106 -1.5430  1.4479
 6375SOL     OW30583   2.178   1.158  16.461  0.4045  0.6911 -0.1682
 6375SOL    HW130584   2.147   1.245  16.439  0.5168  0.3550 -1.6584
 6375SOL    HW230585   2.262   1.157  16.414 -1.1445  0.1898 -2.9358
 6376SOL     OW30586   0.917   0.348   2.657 -0.0405  0.2823 -0.3541
 6376SOL    HW130587   0.956   0.382   2.737  0.9714 -1.8672  0.0831
 6376SOL    HW230588   0.829   0.383   2.665 -0.3775 -0.8663  1.0255
 6377SOL     OW30589   1.946   3.581  16.312  0.0540 -0.1910 -0.3519
 6377SOL    HW130590   1.941   3.636  16.233 -1.2975 -1.6171 -1.2620
 6377SOL    HW230591   1.883   3.516  16.279  1.6210 -1.5276 -0.6660
 6378SOL     OW30592   3.883   3.813   6.298 -0.1107  0.2629  0.5902
 6378SOL    HW130593   3.860   3.722   6.278 -0.6635  0.4013  0.6072
 6378SOL    HW230594   3.801   3.861   6.284  1.3754  2.6538  0.1094
 6379SOL     OW30595   2.693   0.578   0.076  0.6499 -0.4095  0.1696
 6379SOL    HW130596   2.715   0.550   0.165 -1.2446  0.9803  1.1045
 6379SOL    HW230597   2.770   0.551   0.027  1.5635  1.2806  0.6893
 6380SOL     OW30598   4.317   0.899   1.539  0.1242  0.4846 -0.2825
 6380SOL    HW130599   4.335   0.811   1.573 -0.1956  0.4102 -0.3009
 6380SOL    HW230600   4.252   0.932   1.601  0.3138 -0.2726  0.3263
 6381SOL     OW30601   4.337   3.748   5.012 -0.3390  0.8822 -0.4350
 6381SOL    HW130602   4.364   3.689   4.942 -0.7355 -0.4803  0.5590
 6381SOL    HW230603   4.362   3.705   5.094 -0.5834  0.6681 -0.4738
 6382SOL     OW30604   2.310   3.009  12.348 -0.5489  0.2019  0.1501
 6382SOL    HW130605   2.371   2.989  12.419  1.9663 -0.2852 -2.1958
 6382SOL    HW230606   2.274   3.091  12.382  1.5723 -0.0421  2.9627
 6383SOL     OW30607   1.174   3.303   1.442  0.5164 -0.0455 -0.5746
 6383SOL    HW130608   1.139   3.392   1.432 -0.8165 -0.6609 -1.3658
 6383SOL    HW230609   1.094   3.254   1.458  1.7330 -1.1220  2.1615
 6384SOL     OW30610   3.606   3.927   1.009  0.1247  0.2434  0.0169
 6384SOL    HW130611   3.588   4.020   0.995  1.0439  0.2910 -0.8504
 6384SOL    HW230612   3.560   3.895   0.932  0.6551 -0.4223 -0.0223
 6385SOL     OW30613   2.287   4.059   6.802 -0.7981  0.2844 -0.0431
 6385SOL    HW130614   2.278   3.969   6.834  2.3684 -0.2231 -0.5874
 6385SOL    HW230615   2.292   4.094   6.891  0.4418 -0.1980  0.0804
 6386SOL     OW30616   4.196   0.917   4.774 -0.4729 -0.5248  1.2914
 6386SOL    HW130617   4.145   0.869   4.839 -2.0561  2.4795  2.2752
 6386SOL    HW230618   4.269   0.859   4.751 -1.2433 -0.8346 -0.4277
 6387SOL     OW30619   0.471   0.567   1.815  0.4919 -0.5105  0.3639
 6387SOL    HW130620   0.554   0.588   1.858 -0.2492  0.4249  1.3658
 6387SOL    HW230621   0.458   0.655   1.780  0.3561  0.5267  2.9797
 6388SOL     OW30622   0.669   2.093   9.739  0.1077 -0.2911  0.2435
 6388SOL    HW130623   0.644   2.091   9.647 -3.5712  2.2047  1.1971
 6388SOL    HW230624   0.741   2.156   9.736 -0.3081  0.2227  1.2206
 6389SOL     OW30625   2.202   2.770  15.769 -0.5698 -0.0366 -0.4478
 6389SOL    HW130626   2.275   2.755  15.830 -0.3099 -0.0376 -0.7627
 6389SOL    HW230627   2.195   2.685  15.728  3.0271 -0.9196  0.7608
 6390SOL     OW30628   2.950   1.117  11.649 -0.5671  0.1089  0.5212
 6390SOL    HW130629   2.988   1.154  11.569 -0.1043  0.5248  0.9336
 6390SOL    HW230630   2.895   1.051  11.607  0.6293  0.0176 -0.9353
 6391SOL     OW30631   1.845   3.159  12.002 -0.4943  0.2764  0.5572
 6391SOL    HW130632   1.898   3.104  12.060 -2.2701 -2.6452 -0.5576
 6391SOL    HW230633   1.816   3.098  11.934 -2.3457  2.3716 -0.5116
 6392SOL     OW30634   2.918   4.640   6.569  0.3034  0.6301 -0.2176
 6392SOL    HW130635   2.900   4.594   6.650 -0.3274 -0.0187 -0.7276
 6392SOL    HW230636   2.958   4.717   6.610 -0.2345 -0.1152  1.7120
 6393SOL     OW30637   1.653   1.071   6.403  0.2048 -0.0012  0.0418
 6393SOL    HW130638   1.733   1.028   6.373 -0.1076 -1.4866  1.3283
 6393SOL    HW230639   1.598   0.995   6.420 -0.3900  0.4214 -0.0044
 6394SOL     OW30640   3.282   2.109   3.806  0.8247  0.4158 -0.8832
 6394SOL    HW130641   3.250   2.187   3.760  1.1616 -0.8028 -3.2048
 6394SOL    HW230642   3.319   2.068   3.728  3.2433 -2.0136  1.5775
 6395SOL     OW30643   0.248   2.275  15.282 -0.3579  0.1102  0.0049
 6395SOL    HW130644   0.280   2.296  15.195  1.4309 -1.2498  0.3421
 6395SOL    HW230645   0.187   2.347  15.296 -1.7180 -0.5275 -2.6619
 6396SOL     OW30646   1.376   2.941   2.967  0.2786 -0.3696 -0.5222
 6396SOL    HW130647   1.316   3.009   2.936  0.7905  0.9254  1.3437
 6396SOL    HW230648   1.413   2.912   2.884 -0.9297  1.4328 -1.6796
 6397SOL     OW30649   1.183   0.832   5.021  0.9601 -0.2432  0.5038
 6397SOL    HW130650   1.195   0.803   5.112 -1.9748  0.4381  1.1222
 6397SOL    HW230651   1.181   0.744   4.982  1.5053 -0.5479  1.1655
 6398SOL     OW30652   1.062   1.403   7.135  0.2051 -0.0767 -0.7361
 6398SOL    HW130653   0.992   1.382   7.073  0.5043 -2.1874 -0.3467
 6398SOL    HW230654   1.019   1.459   7.200  0.2089  0.5004 -1.2254
 6399SOL     OW30655   2.476   4.327  10.963 -0.7835  0.3097  0.1814
 6399SOL    HW130656   2.523   4.257  11.008 -2.8317 -0.6939  0.7137
 6399SOL    HW230657   2.552   4.383  10.942 -0.4793  0.8631  2.7899
 6400SOL     OW30658   3.537   1.001   2.839 -0.3592  0.0853 -0.2009
 6400SOL    HW130659   3.535   1.047   2.923  0.4257  0.9682 -0.6733
 6400SOL    HW230660   3.480   0.928   2.863 -1.8340  0.3366 -2.9447
 6401SOL     OW30661   1.945   0.646  10.913  0.0069 -0.3020  0.2112
 6401SOL    HW130662   1.897   0.657  10.995 -1.4318 -0.1096 -0.6601
 6401SOL    HW230663   1.988   0.731  10.903 -0.8560 -0.0384 -1.3134
 6402SOL     OW30664   0.587   2.402   8.171  0.2392  0.2070  0.8553
 6402SOL    HW130665   0.618   2.314   8.153 -2.1195 -0.5615  0.5324
 6402SOL    HW230666   0.641   2.432   8.244 -1.7239  0.5801  2.1733
 6403SOL     OW30667   1.095   4.532  15.805  0.2857 -0.1073  0.0061
 6403SOL    HW130668   1.141   4.512  15.724 -0.5720  1.0535 -0.7587
 6403SOL    HW230669   1.097   4.440  15.831  2.0570  0.1645  0.8854
 6404SOL     OW30670   4.571   2.022  13.750 -0.1525 -0.3115 -0.4134
 6404SOL    HW130671   4.570   2.078  13.672  1.7812 -1.7294 -1.4499
 6404SOL    HW230672   4.637   1.956  13.729 -0.0065 -0.8399  1.7392
 6405SOL     OW30673   4.707   3.429   6.536 -0.2779 -0.1434  0.3274
 6405SOL    HW130674   4.659   3.431   6.618 -1.1552 -0.2103 -0.1890
 6405SOL    HW230675   4.685   3.340   6.509  1.0591  0.4358 -2.7055
 6406SOL     OW30676   3.837   2.777   8.456 -0.0349 -0.4922 -0.4369
 6406SOL    HW130677   3.837   2.692   8.411 -1.2930 -1.2109  0.9668
 6406SOL    HW230678   3.746   2.803   8.447  0.7666  2.3593 -0.3399
 6407SOL     OW30679   0.454   3.604   4.717  0.0830 -0.3436 -0.1304
 6407SOL    HW130680   0.498   3.582   4.635  0.3893  2.6237 -0.7569
 6407SOL    HW230681   0.519   3.650   4.770 -0.0835  1.2925 -1.3711
 6408SOL     OW30682   4.465   2.664   5.704  0.8457 -0.1166 -0.1860
 6408SOL    HW130683   4.436   2.752   5.679  0.4451  0.2098  1.4391
 6408SOL    HW230684   4.483   2.681   5.796  3.0725 -1.3495 -0.4137
 6409SOL     OW30685   4.105   0.644   3.957  0.6747  0.0639 -0.5316
 6409SOL    HW130686   4.175   0.679   4.012 -0.5848 -0.1258  1.1814
 6409SOL    HW230687   4.143   0.668   3.873  0.6512 -2.5918 -1.2990
 6410SOL     OW30688   4.490   1.358   2.102  0.1189 -0.3825 -0.8411
 6410SOL    HW130689   4.411   1.392   2.144  0.2950 -1.2857  0.2291
 6410SOL    HW230690   4.555   1.370   2.172  1.6426 -0.5296 -2.2379
 6411SOL     OW30691   4.394   1.340   7.432  0.0310  0.1944  0.2495
 6411SOL    HW130692   4.310   1.381   7.412  0.0562  0.0060 -0.2380
 6411SOL    HW230693   4.443   1.340   7.349 -1.1791  1.0585 -0.4601
 6412SOL     OW30694   0.427   1.534   2.221  0.3669  0.3494 -0.7289
 6412SOL    HW130695   0.339   1.498   2.233  0.3078  1.3136  1.8098
 6412SOL    HW230696   0.428   1.601   2.290 -0.4022  2.0532 -2.4003
 6413SOL     OW30697   0.286   2.984   4.225 -0.0573  0.0497  0.1457
 6413SOL    HW130698   0.267   2.912   4.166  0.2248  0.0193  0.0890
 6413SOL    HW230699   0.306   3.052   4.160  1.5147 -0.3700  0.1811
 6414SOL     OW30700   4.384   1.954   4.762 -0.4029 -0.5708 -0.4515
 6414SOL    HW130701   4.402   2.040   4.800 -2.3374 -0.5051  0.3547
 6414SOL    HW230702   4.355   1.982   4.675  1.9634 -0.3807 -1.1563
 6415SOL     OW30703   2.836   3.057   5.539  0.2744  0.2267  0.1376
 6415SOL    HW130704   2.757   3.103   5.568  0.3843  0.5133 -0.0190
 6415SOL    HW230705   2.872   3.128   5.486  0.1548 -1.2153 -1.8674
 6416SOL     OW30706   1.368   2.531   4.821  0.5910 -0.0150  0.0722
 6416SOL    HW130707   1.400   2.563   4.905 -0.2822 -0.6857  0.6646
 6416SOL    HW230708   1.299   2.471   4.851 -1.4725  2.3459 -0.0194
 6417SOL     OW30709   2.949   2.329   2.580 -0.3931 -0.3433 -0.2443
 6417SOL    HW130710   2.963   2.313   2.673  0.9605 -2.1818 -0.7722
 6417SOL    HW230711   2.906   2.244   2.566 -0.3285 -0.4647  0.2899
 6418SOL     OW30712   3.399   3.917   9.176 -0.1216 -0.0460 -0.2885
 6418SOL    HW130713   3.452   3.988   9.139  3.4062 -1.6702  1.6864
 6418SOL    HW230714   3.392   3.860   9.099  1.3056 -3.5774  2.2057
 6419SOL     OW30715   4.394   0.470   2.364  1.0510 -0.2672 -0.0953
 6419SOL    HW130716   4.313   0.500   2.322  0.9227  0.1992  0.4774
 6419SOL    HW230717   4.453   0.455   2.290 -0.9468  0.5239 -1.8327
 6420SOL     OW30718   2.056   0.245   5.010 -0.6892 -0.2086 -0.2023
 6420SOL    HW130719   2.032   0.221   4.920  0.6360  0.4129 -0.7297
 6420SOL    HW230720   2.146   0.210   5.011  0.3681  2.5052 -1.0817
 6421SOL     OW30721   4.342   3.847   4.552 -0.5597 -0.3916  0.4557
 6421SOL    HW130722   4.314   3.899   4.627 -0.1442 -0.3478  0.5839
 6421SOL    HW230723   4.397   3.780   4.593  0.7497  1.5996  1.9378
 6422SOL     OW30724   3.629   2.796   5.982  0.4319 -0.2390 -1.0235
 6422SOL    HW130725   3.590   2.819   6.067 -1.2184 -2.2927 -1.2302
 6422SOL    HW230726   3.587   2.713   5.962  2.0724 -1.2733 -0.1698
 6423SOL     OW30727   2.732   3.437  15.313  0.5779  0.1072 -0.0422
 6423SOL    HW130728   2.692   3.514  15.353  2.4319  1.2665 -0.3926
 6423SOL    HW230729   2.752   3.387  15.392 -0.4234 -0.5576 -0.2119
 6424SOL     OW30730   2.150   0.432   6.601  0.0376  0.4987 -0.0439
 6424SOL    HW130731   2.139   0.370   6.674  0.3239  0.5158  0.0168
 6424SOL    HW230732   2.244   0.425   6.585  0.2934 -0.4318  1.8284
 6425SOL     OW30733   1.757   4.074   4.243  0.2030  0.8701 -0.1882
 6425SOL    HW130734   1.739   4.065   4.150  0.0730 -2.0775  0.1255
 6425SOL    HW230735   1.737   4.168   4.248  0.9120  0.9902  0.4071
 6426SOL     OW30736   0.681   3.533  10.284 -0.4837  0.2717 -0.6104
 6426SOL    HW130737   0.623   3.601  10.319 -1.4535 -0.5758 -0.5834
 6426SOL    HW230738   0.697   3.487  10.366  0.9447 -1.1247 -1.6747
 6427SOL     OW30739   4.326   2.958   2.502 -0.0250  0.6662  0.2669
 6427SOL    HW130740   4.341   3.050   2.479  1.8602  0.6535  1.3558
 6427SOL    HW230741   4.414   2.927   2.525  0.1979  0.7868 -0.4262
 6428SOL     OW30742   3.598   3.988   8.232  0.1369 -0.1977 -0.0156
 6428SOL    HW130743   3.668   4.041   8.193  1.5116 -0.1039  2.5851
 6428SOL    HW230744   3.607   4.008   8.325  0.8187  2.7339 -0.7117
 6429SOL     OW30745   0.452   2.186   4.990 -0.0323  0.0945 -0.5628
 6429SOL    HW130746   0.462   2.141   4.906 -0.7581 -2.1627  0.5633
 6429SOL    HW230747   0.531   2.239   4.990 -0.5943  0.9246  1.1367
 6430SOL     OW30748   0.183   2.721  11.774 -0.6154  0.7618 -0.4337
 6430SOL    HW130749   0.235   2.721  11.694  2.2720  0.1466  1.4175
 6430SOL    HW230750   0.207   2.811  11.796 -1.0191  1.2486 -1.9854
 6431SOL     OW30751   3.699   0.683   3.321  0.3653 -0.3374 -0.0067
 6431SOL    HW130752   3.684   0.770   3.358 -1.1189 -0.2962 -0.6922
 6431SOL    HW230753   3.756   0.698   3.245  0.7795  0.1687  0.4064
 6432SOL     OW30754   0.041   3.682   3.612  0.3486  0.4896  0.2988
 6432SOL    HW130755   4.709   3.719   3.543 -0.5280 -3.3445 -1.1026
 6432SOL    HW230756   0.121   3.734   3.610 -0.9600  2.5594  2.0771
 6433SOL     OW30757   0.727   4.530   7.449 -0.2469 -0.2694  0.1440
 6433SOL    HW130758   0.820   4.551   7.453 -0.2004 -0.4844  0.1518
 6433SOL    HW230759   0.712   4.495   7.536  3.6647 -0.7302  0.5913
 6434SOL     OW30760   1.643   2.765  11.053 -0.1036  0.1586  0.2906
 6434SOL    HW130761   1.690   2.838  11.012 -1.2088 -0.3080 -1.8308
 6434SOL    HW230762   1.685   2.765  11.139  2.6360  1.6966 -1.0594
 6435SOL     OW30763   0.825   1.015  14.097  0.5700 -0.3749 -0.1935
 6435SOL    HW130764   0.805   0.954  14.027 -0.2629  0.1777 -0.4463
 6435SOL    HW230765   0.781   1.092  14.062  0.5589 -0.9731 -1.4939
 6436SOL     OW30766   4.206   0.099   1.256  0.0534 -0.5824  0.6823
 6436SOL    HW130767   4.160   0.082   1.174 -0.0496  1.7911  0.2608
 6436SOL    HW230768   4.216   0.193   1.266  0.3043 -0.4823 -0.5737
 6437SOL     OW30769   3.910   4.624   3.432  0.4368  0.0019  0.3783
 6437SOL    HW130770   3.928   4.656   3.343 -0.5727  0.4249  0.3225
 6437SOL    HW230771   3.819   4.653   3.426  0.8410  0.7252 -2.5516
 6438SOL     OW30772   2.317   4.449   7.364  0.1523  0.3743 -0.2828
 6438SOL    HW130773   2.277   4.500   7.435  1.1430  1.1546 -0.2737
 6438SOL    HW230774   2.259   4.375   7.376  0.5758 -0.3270 -2.4949
 6439SOL     OW30775   2.845   1.178   8.781  0.0400  0.1136 -0.0495
 6439SOL    HW130776   2.812   1.197   8.868 -1.8120  1.2372 -0.9835
 6439SOL    HW230777   2.845   1.265   8.742 -0.5029  0.5013  0.8182
 6440SOL     OW30778   3.693   0.462   4.156 -0.1925  0.0143  0.4950
 6440SOL    HW130779   3.774   0.434   4.199  1.1332 -0.9810 -2.7040
 6440SOL    HW230780   3.628   0.423   4.215 -1.4410 -1.4745 -1.8759
 6441SOL     OW30781   1.635   2.301   5.191  0.0613 -0.3672 -0.3854
 6441SOL    HW130782   1.720   2.321   5.230 -0.1470  0.2507 -0.2536
 6441SOL    HW230783   1.580   2.347   5.254  1.5246  1.5759 -0.5007
 6442SOL     OW30784   2.579   2.922  12.512 -0.3956 -0.4543 -0.3436
 6442SOL    HW130785   2.598   3.008  12.549  0.2459 -0.2329 -1.1800
 6442SOL    HW230786   2.667   2.884  12.510  0.5591  1.7421 -0.3188
 6443SOL     OW30787   1.227   1.078   3.877 -0.1374 -0.2964 -0.0983
 6443SOL    HW130788   1.146   1.067   3.926  0.9776 -0.3864  1.7298
 6443SOL    HW230789   1.199   1.080   3.785  1.6114 -1.4147 -0.6568
 6444SOL     OW30790   1.579   2.594   9.003  0.0353 -0.0077  0.1086
 6444SOL    HW130791   1.613   2.664   9.059 -1.3826  0.7965 -0.0339
 6444SOL    HW230792   1.661   2.551   8.978  1.4424  2.0673  1.0954
 6445SOL     OW30793   4.223   2.076   4.554  0.5789  0.1617 -0.3310
 6445SOL    HW130794   4.254   2.087   4.464 -2.7886  1.1863 -1.3833
 6445SOL    HW230795   4.129   2.070   4.535  0.6175 -0.5800 -0.2929
 6446SOL     OW30796   1.068   0.472   2.847 -0.0821 -0.0128 -0.0241
 6446SOL    HW130797   1.130   0.414   2.892  0.7576 -1.2827 -2.8377
 6446SOL    HW230798   1.075   0.553   2.897 -0.8321 -1.0353  1.7488
 6447SOL     OW30799   3.694   4.604   8.114  0.8031  0.3407  0.3856
 6447SOL    HW130800   3.693   4.693   8.079 -1.1198  0.1576 -0.0428
 6447SOL    HW230801   3.789   4.591   8.120  1.0192  1.7161 -0.0558
 6448SOL     OW30802   0.248   4.688   1.780 -0.3290 -0.4553 -0.0823
 6448SOL    HW130803   0.317   4.703   1.717 -0.2240 -2.2418 -0.3923
 6448SOL    HW230804   0.172   0.001   1.735 -0.6642 -1.0702 -0.0259
 6449SOL     OW30805   3.587   0.216  12.379 -0.3105 -0.1497  0.0639
 6449SOL    HW130806   3.638   0.292  12.407  3.4170 -2.1758 -1.3857
 6449SOL    HW230807   3.599   0.218  12.285 -2.9145  2.0757 -0.2448
 6450SOL     OW30808   3.409   1.705   2.977  0.0562 -0.2683 -0.1307
 6450SOL    HW130809   3.370   1.712   2.890  0.2429  0.5700 -0.1426
 6450SOL    HW230810   3.449   1.791   2.993 -0.3875 -0.2804  1.0389
 6451SOL     OW30811   1.424   1.019  13.905  0.1906  0.3790  0.1260
 6451SOL    HW130812   1.444   1.103  13.862  2.8716 -0.3260  0.0302
 6451SOL    HW230813   1.350   1.037  13.964 -0.7195  1.9425 -1.4871
 6452SOL     OW30814   1.891   4.611  12.199  0.2185  0.3867  0.0891
 6452SOL    HW130815   1.945   4.615  12.120 -0.0841 -0.3564 -0.1537
 6452SOL    HW230816   1.963   4.592  12.259  0.3087 -0.0212 -0.1481
 6453SOL     OW30817   2.834   2.769  12.523 -0.1318  0.2551  0.2597
 6453SOL    HW130818   2.831   2.796  12.431 -0.0206 -0.2336  0.1124
 6453SOL    HW230819   2.819   2.675  12.517  1.8796 -0.1578  1.6227
 6454SOL     OW30820   2.412   0.902  10.735 -0.2883 -0.0611  0.3851
 6454SOL    HW130821   2.323   0.936  10.741 -0.8203 -1.3273 -0.2390
 6454SOL    HW230822   2.440   0.902  10.643  0.0896  1.2606  0.5105
 6455SOL     OW30823   2.205   1.971   9.626 -0.3395 -0.0373 -0.1090
 6455SOL    HW130824   2.122   1.964   9.580 -0.4667  1.3606 -0.0936
 6455SOL    HW230825   2.176   1.945   9.714  1.9654 -2.0136  0.0933
 6456SOL     OW30826   1.490   0.999  14.750  0.4357 -0.8257  0.2030
 6456SOL    HW130827   1.541   0.918  14.743 -0.8696 -1.7190  1.0630
 6456SOL    HW230828   1.543   1.065  14.794 -1.5558  0.8747  0.0468
 6457SOL     OW30829   1.004   0.060  16.711 -0.0260  0.2664 -0.1217
 6457SOL    HW130830   0.960   0.130  16.663  1.2665  0.4177 -1.0898
 6457SOL    HW230831   0.981   0.090  16.799  0.1073 -0.8223  0.2956
 6458SOL     OW30832   3.393   3.812   3.884 -0.4024  0.4416 -0.5102
 6458SOL    HW130833   3.328   3.881   3.869 -0.3214  0.2928 -1.5425
 6458SOL    HW230834   3.332   3.739   3.888 -1.5434  1.3129 -1.9094
 6459SOL     OW30835   0.610   4.591   7.207  0.1201 -0.6842 -0.2545
 6459SOL    HW130836   0.668   4.528   7.166  0.3079 -0.6051 -0.1082
 6459SOL    HW230837   0.647   4.587   7.295  1.0799 -1.3391 -0.7006
 6460SOL     OW30838   1.751   2.943   5.408  0.0224 -0.9539 -0.0926
 6460SOL    HW130839   1.835   2.976   5.376 -0.2467  0.5447  0.7499
 6460SOL    HW230840   1.722   2.989   5.486  2.1638 -1.8919  1.2411
 6461SOL     OW30841   3.086   1.069  17.253 -0.0562  0.5074 -0.4490
 6461SOL    HW130842   3.169   1.112  17.276 -0.7954  1.0020  1.2722
 6461SOL    HW230843   3.030   1.105  17.322  1.1380  0.5475  0.4999
 6462SOL     OW30844   0.608   1.872   3.441  0.1790  0.5571  0.0473
 6462SOL    HW130845   0.596   1.846   3.532 -1.4468  2.1896  0.3172
 6462SOL    HW230846   0.658   1.952   3.455 -0.1464  0.7509  0.1232
 6463SOL     OW30847   2.746   2.841   6.630 -0.3292  0.8226  0.0251
 6463SOL    HW130848   2.704   2.890   6.560 -1.5718 -0.2834 -0.0184
 6463SOL    HW230849   2.728   2.751   6.603  1.3315  0.0757  1.4103
 6464SOL     OW30850   4.270   4.453   3.172 -0.1815  0.2770 -0.0518
 6464SOL    HW130851   4.300   4.542   3.151  0.7789 -0.0393 -0.0049
 6464SOL    HW230852   4.288   4.461   3.266  0.0075 -0.1062 -0.0549
 6465SOL     OW30853   4.451   3.795   8.657  0.2488 -0.3029 -0.1044
 6465SOL    HW130854   4.541   3.792   8.624 -0.2750 -1.5923 -1.3653
 6465SOL    HW230855   4.453   3.864   8.724  0.4187 -0.0197 -0.4006
 6466SOL     OW30856   1.439   2.990   4.150  0.3799  0.3884  0.3844
 6466SOL    HW130857   1.528   2.959   4.132  0.6696  1.6039 -0.2904
 6466SOL    HW230858   1.445   3.035   4.234 -2.0461 -0.8178  1.2217
 6467SOL     OW30859   4.037   2.335   9.054  0.4397 -0.6936  0.6269
 6467SOL    HW130860   4.032   2.240   9.069  2.2269 -1.0518 -1.1304
 6467SOL    HW230861   3.959   2.368   9.100  0.5009 -0.0504  0.2615
 6468SOL     OW30862   2.965   3.427  12.859 -0.5342  0.3764  0.1960
 6468SOL    HW130863   2.923   3.422  12.773  0.1686  0.3951 -0.1491
 6468SOL    HW230864   2.915   3.375  12.921  0.4629 -0.0564  0.6333
 6469SOL     OW30865   1.487   0.216   7.804 -0.5485  0.7265  0.3211
 6469SOL    HW130866   1.489   0.312   7.799  0.9664  0.6198 -1.0607
 6469SOL    HW230867   1.570   0.202   7.851  0.2866  1.6355 -0.8920
 6470SOL     OW30868   2.643   0.445   2.416  0.0479 -0.5005  0.1097
 6470SOL    HW130869   2.723   0.474   2.374  0.4819 -1.7189  0.1169
 6470SOL    HW230870   2.615   0.364   2.373  0.9764 -1.0316  0.5131
 6471SOL     OW30871   3.008   0.241  10.339 -0.7374  0.2298  0.5953
 6471SOL    HW130872   2.972   0.168  10.389 -0.9407 -0.5644 -0.6897
 6471SOL    HW230873   2.968   0.217  10.255 -1.5165 -0.6866  1.2319
 6472SOL     OW30874   3.841   4.086   5.861  0.2772  0.3233 -0.9157
 6472SOL    HW130875   3.931   4.102   5.832  0.3214  1.2599 -0.2633
 6472SOL    HW230876   3.813   4.177   5.864 -1.0740 -0.0694 -2.0178
 6473SOL     OW30877   2.828   2.497  12.486  0.3374  0.1486  0.1972
 6473SOL    HW130878   2.800   2.445  12.561 -0.0716 -1.6523 -1.1894
 6473SOL    HW230879   2.883   2.438  12.433  0.9209  1.9536 -1.2126
 6474SOL     OW30880   1.431   1.682  12.745  0.3793 -0.0066 -0.2780
 6474SOL    HW130881   1.362   1.722  12.799  0.5557  0.4094 -0.3590
 6474SOL    HW230882   1.435   1.740  12.669 -2.0828 -0.0586 -0.4472
 6475SOL     OW30883   2.848   4.155  17.380 -0.3999 -0.1776  0.0087
 6475SOL    HW130884   2.785   4.214  17.339  0.1142 -1.0362 -2.0051
 6475SOL    HW230885   2.884   4.216  17.444 -0.0863 -1.1029  0.7195
 6476SOL     OW30886   2.958   4.280   8.845  0.2973 -0.2588  0.3060
 6476SOL    HW130887   3.052   4.292   8.862  0.2906  1.3602 -0.7510
 6476SOL    HW230888   2.925   4.329   8.920  0.1315  1.5508 -0.9477
 6477SOL     OW30889   4.626   3.650  10.463  0.0003  0.1118 -0.5577
 6477SOL    HW130890   4.697   3.595  10.495 -0.4319 -0.7845 -1.1422
 6477SOL    HW230891   4.618   3.615  10.375 -1.4304  1.0836 -0.8163
 6478SOL     OW30892   4.142   3.398   6.635 -0.2233  0.1751  0.3517
 6478SOL    HW130893   4.057   3.421   6.673  0.1437  0.0862  1.2340
 6478SOL    HW230894   4.130   3.425   6.544 -2.8572 -1.1252  0.2938
 6479SOL     OW30895   3.177   1.200   3.988  0.0559  0.2890 -0.1440
 6479SOL    HW130896   3.086   1.171   3.992 -0.4125  1.4962 -1.4756
 6479SOL    HW230897   3.220   1.119   3.961 -0.4498 -0.5831  1.6748
 6480SOL     OW30898   4.284   1.125  13.597  1.1339 -0.2348 -0.0219
 6480SOL    HW130899   4.209   1.104  13.651  0.5958 -0.5525 -0.8899
 6480SOL    HW230900   4.290   1.045  13.545 -1.0591 -2.2512  2.8626
 6481SOL     OW30901   3.622   2.595   8.667  0.7548 -0.4636 -0.2538
 6481SOL    HW130902   3.638   2.666   8.729  1.0497 -1.9389  1.3399
 6481SOL    HW230903   3.713   2.566   8.660  0.5878 -1.6807  2.8686
 6482SOL     OW30904   4.443   2.150   4.928 -0.2638 -0.4938  0.9027
 6482SOL    HW130905   4.453   2.240   4.896  1.4902 -0.2793  2.0598
 6482SOL    HW230906   4.529   2.119   4.954  1.2218  1.4100 -1.7282
 6483SOL     OW30907   4.526   2.162   2.778  0.2498  0.5735 -0.3842
 6483SOL    HW130908   4.477   2.222   2.834  0.3516 -0.0699  0.3779
 6483SOL    HW230909   4.612   2.204   2.778 -0.3452  1.7420  1.5684
 6484SOL     OW30910   2.023   1.468   3.050  0.1994  0.5196 -0.2321
 6484SOL    HW130911   2.088   1.513   3.104 -0.2983  3.5312 -2.1194
 6484SOL    HW230912   2.065   1.382   3.039  0.5945  0.5078  1.3572
 6485SOL     OW30913   2.813   2.668   9.095 -0.3390 -0.1549 -0.3689
 6485SOL    HW130914   2.866   2.616   9.035  0.3554  0.5291 -0.3477
 6485SOL    HW230915   2.866   2.647   9.172  1.1919  2.6689 -0.6631
 6486SOL     OW30916   2.798   4.529   2.660 -0.0210 -0.0231 -0.8623
 6486SOL    HW130917   2.835   4.442   2.674  1.1170  0.4676 -0.8414
 6486SOL    HW230918   2.763   4.549   2.747  3.1071  0.3643  0.2767
 6487SOL     OW30919   4.241   3.415  10.468  0.5743 -0.0395 -0.5645
 6487SOL    HW130920   4.166   3.473  10.472  1.6986  1.4334 -0.7802
 6487SOL    HW230921   4.289   3.462  10.401  1.6276  2.8692  2.2341
 6488SOL     OW30922   2.217   3.518   3.714 -0.1179  0.0318  0.4198
 6488SOL    HW130923   2.159   3.546   3.784  1.6387  0.3704  1.7497
 6488SOL    HW230924   2.148   3.486   3.657  0.7862  0.6661 -1.0469
 6489SOL     OW30925   2.647   0.186   8.688  0.5753  0.4239  0.1186
 6489SOL    HW130926   2.724   0.242   8.678 -0.5493  1.8092 -0.6271
 6489SOL    HW230927   2.595   0.217   8.615  0.0067  1.2930  0.8941
 6490SOL     OW30928   0.650   3.310  14.645  0.7836  0.1417 -0.2163
 6490SOL    HW130929   0.608   3.383  14.601  3.4297  0.7845 -1.6816
 6490SOL    HW230930   0.695   3.269  14.571 -0.4498 -1.0834 -0.2998
 6491SOL     OW30931   2.119   4.582   1.233  0.2182  0.4958 -0.4673
 6491SOL    HW130932   2.078   4.511   1.283  2.3877 -1.2417 -1.2045
 6491SOL    HW230933   2.208   4.549   1.233  0.3402  0.8397 -1.3147
 6492SOL     OW30934   0.207   0.309   5.977 -0.4687 -0.2055  0.4961
 6492SOL    HW130935   0.237   0.336   6.064 -0.1163  1.1404 -0.0392
 6492SOL    HW230936   0.291   0.278   5.941 -1.6691 -1.1616 -1.4895
 6493SOL     OW30937   3.176   0.057   7.321 -0.3580  0.2042  0.5333
 6493SOL    HW130938   3.142   4.691   7.315  0.6528  0.0283 -2.2683
 6493SOL    HW230939   3.270   0.045   7.334 -0.2606  0.5670  0.1560
 6494SOL     OW30940   3.636   3.634   5.653  0.3044  0.4641  0.1080
 6494SOL    HW130941   3.621   3.571   5.582 -2.7673  0.9345  0.3636
 6494SOL    HW230942   3.548   3.667   5.669 -1.1764 -4.3208  1.6144
 6495SOL     OW30943   3.562   3.756   2.878  0.7468 -0.1894  0.1809
 6495SOL    HW130944   3.486   3.810   2.897  0.6281 -0.1112 -0.5040
 6495SOL    HW230945   3.578   3.752   2.784  0.3309  1.8745  0.0346
 6496SOL     OW30946   3.381   2.373   6.652  0.1543  0.1825  0.6679
 6496SOL    HW130947   3.338   2.382   6.737  1.1846  0.1698  1.1880
 6496SOL    HW230948   3.446   2.442   6.664  0.7024 -0.1753 -0.2961
 6497SOL     OW30949   4.515   4.269   3.640  0.1648 -0.6198  0.1275
 6497SOL    HW130950   4.608   4.252   3.652  0.1411  0.0390  1.2214
 6497SOL    HW230951   4.478   4.262   3.728  0.2107 -0.4738  0.1584
 6498SOL     OW30952   3.373   1.884   2.075 -0.3037  0.1295 -0.4293
 6498SOL    HW130953   3.287   1.853   2.102 -0.0164 -1.4578 -1.3339
 6498SOL    HW230954   3.425   1.842   2.144 -0.5895  0.5531  0.0417
 6499SOL     OW30955   2.438   1.098  15.440 -0.1178 -0.0310  0.2986
 6499SOL    HW130956   2.368   1.047  15.399  1.4571 -1.4757 -0.5918
 6499SOL    HW230957   2.473   1.140  15.362 -1.9851  1.4811  0.2608
 6500SOL     OW30958   3.411   3.706  12.188  0.0904 -0.3820  0.1251
 6500SOL    HW130959   3.482   3.669  12.137  0.2703 -0.4838  0.4514
 6500SOL    HW230960   3.358   3.750  12.121  1.7467  2.2041  0.4983
 6501SOL     OW30961   3.359   2.686   6.372 -0.4997  0.0896  0.0958
 6501SOL    HW130962   3.415   2.736   6.432 -0.5151 -0.6453  0.7254
 6501SOL    HW230963   3.334   2.605   6.417  0.6335  0.0799  0.7036
 6502SOL     OW30964   1.274   4.292   7.200  0.1957 -0.1427  0.0285
 6502SOL    HW130965   1.305   4.381   7.187  0.0063 -0.0733  0.0535
 6502SOL    HW230966   1.301   4.272   7.289 -1.6578 -0.4335  0.5364
 6503SOL     OW30967   1.260   0.289   5.788  0.7010  0.1506 -0.3338
 6503SOL    HW130968   1.253   0.246   5.874 -1.6247  4.0601  1.4140
 6503SOL    HW230969   1.346   0.331   5.797  0.8689 -0.3287  0.2851
 6504SOL     OW30970   1.063   3.836   7.630 -0.1390 -0.0687  0.1234
 6504SOL    HW130971   1.146   3.829   7.676 -0.5129 -1.9081  0.5166
 6504SOL    HW230972   1.046   3.929   7.643  1.4784  0.1675  0.5340
 6505SOL     OW30973   4.353   3.978   8.049 -0.3837  0.4454 -0.1692
 6505SOL    HW130974   4.380   4.027   8.127 -0.6228  3.1368 -1.8204
 6505SOL    HW230975   4.281   3.920   8.077 -1.1198  1.4112 -0.0737
 6506SOL     OW30976   0.988   3.090   4.183  0.8862 -0.1617  0.3154
 6506SOL    HW130977   1.016   3.137   4.261  0.7347 -1.0646  0.9213
 6506SOL    HW230978   1.067   3.081   4.130  0.6408 -2.9989  0.4414
 6507SOL     OW30979   3.590   0.003   7.041  0.2039  0.3401 -0.2215
 6507SOL    HW130980   3.621   0.093   7.057 -0.6528  0.8689 -1.5081
 6507SOL    HW230981   3.495   0.018   7.046  0.2311  0.9487 -1.6715
 6508SOL     OW30982   4.537   4.128  11.739  0.5848 -0.1648 -0.2853
 6508SOL    HW130983   4.497   4.072  11.806 -0.7163  0.5878 -0.4309
 6508SOL    HW230984   4.623   4.151  11.773  0.6095 -2.3132  1.1419
 6509SOL     OW30985   4.534   2.832   3.925  0.1441  0.4641 -0.9238
 6509SOL    HW130986   4.587   2.902   3.887  0.5427  1.4445  1.4315
 6509SOL    HW230987   4.457   2.830   3.868 -0.5241 -1.4770  0.0502
 6510SOL     OW30988   0.695   1.952  10.133  0.1203  0.2959 -0.6248
 6510SOL    HW130989   0.731   2.040  10.126 -0.9877  0.7716 -0.3735
 6510SOL    HW230990   0.742   1.909  10.062  1.8713  0.5854  0.3509
 6511SOL     OW30991   4.594   3.670   4.587  0.3739 -0.6682 -0.3311
 6511SOL    HW130992   4.647   3.746   4.610 -0.3364  0.1775 -1.4930
 6511SOL    HW230993   4.647   3.598   4.619  2.1936  1.0242  0.4280
 6512SOL     OW30994   3.692   2.844   5.424  0.0033  1.0934  0.1540
 6512SOL    HW130995   3.634   2.860   5.499 -0.1970  0.7879  0.0620
 6512SOL    HW230996   3.646   2.882   5.350 -0.6961  0.6587  0.3616
 6513SOL     OW30997   3.613   4.065  13.228 -0.0910  0.5545 -0.4708
 6513SOL    HW130998   3.594   3.979  13.192 -0.4475  0.7360 -0.7209
 6513SOL    HW230999   3.703   4.085  13.202  1.3576 -3.0196  1.8541
 6514SOL     OW31000   4.145   1.027   4.487  0.3943  0.5990  0.3673
 6514SOL    HW131001   4.058   1.064   4.467  1.4109  2.0455 -1.3676
 6514SOL    HW231002   4.129   0.933   4.488 -0.2058  0.7006  0.3640
 6515SOL     OW31003   2.709   4.364  17.271 -0.1635 -0.4750 -0.5161
 6515SOL    HW131004   2.682   4.374  17.180 -2.1972 -1.5565 -0.0433
 6515SOL    HW231005   2.627   4.367  17.319  0.0099 -0.6664 -0.2046
 6516SOL     OW31006   3.008   2.402   7.686  0.1388 -0.2905 -0.0213
 6516SOL    HW131007   3.016   2.331   7.622 -0.3644 -2.3304  2.1937
 6516SOL    HW231008   3.100   2.413   7.713 -0.0865  0.4771  0.4371
 6517SOL     OW31009   2.040   1.977  14.126 -0.3662  0.5711 -0.9230
 6517SOL    HW131010   2.071   2.006  14.040 -0.9774  0.8745 -1.0435
 6517SOL    HW231011   1.952   1.941  14.113 -0.3814  0.1574  0.3514
 6518SOL     OW31012   1.032   0.981  11.481 -0.5085 -0.3067 -0.1246
 6518SOL    HW131013   0.969   1.009  11.548 -0.2516 -1.5213  0.6250
 6518SOL    HW231014   1.099   1.048  11.474  0.3110 -1.1310 -0.1491
 6519SOL     OW31015   0.848   0.538   8.083  0.4603 -0.1369 -0.3914
 6519SOL    HW131016   0.782   0.604   8.104 -0.1601 -2.0950  3.5804
 6519SOL    HW231017   0.854   0.558   7.989 -1.3721 -1.9321 -0.8804
 6520SOL     OW31018   0.141   4.498   5.011 -0.2373  0.0941 -0.3055
 6520SOL    HW131019   0.097   4.567   4.961  0.4311  1.5868  1.1907
 6520SOL    HW231020   0.145   4.441   4.934 -0.0129  2.8986 -2.3526
 6521SOL     OW31021   0.725   0.112   6.978  0.5241  0.0209  0.2041
 6521SOL    HW131022   0.636   0.133   6.952  0.3283 -2.2647 -0.8937
 6521SOL    HW231023   0.775   0.145   6.903  0.7992 -1.6162 -0.3300
 6522SOL     OW31024   3.244   1.799   8.502  0.5992 -0.1387  0.9977
 6522SOL    HW131025   3.338   1.799   8.482 -0.2630 -1.3210 -2.9604
 6522SOL    HW231026   3.242   1.709   8.535  0.4698  0.0153  1.4138
 6523SOL     OW31027   3.026   0.600  15.486 -0.1711 -0.7479  0.0271
 6523SOL    HW131028   3.036   0.636  15.574 -1.8514  0.2365 -0.1754
 6523SOL    HW231029   2.969   0.524  15.496 -0.6039 -0.3039  0.9226
 6524SOL     OW31030   3.320   2.678   4.990 -0.5230  0.1085  0.3161
 6524SOL    HW131031   3.291   2.769   4.994  4.1411  1.5655  0.3411
 6524SOL    HW231032   3.409   2.699   5.019  0.6086 -3.3281 -0.7074
 6525SOL     OW31033   4.306   0.410  16.703  0.0200  0.5072  0.1612
 6525SOL    HW131034   4.297   0.484  16.644 -3.1308  1.0753  1.3783
 6525SOL    HW231035   4.358   0.449  16.774 -0.3608  1.0841  0.1182
 6526SOL     OW31036   0.498   0.424   3.594  0.1657 -0.0587 -0.4508
 6526SOL    HW131037   0.436   0.418   3.666 -0.9901  1.4001 -1.3152
 6526SOL    HW231038   0.536   0.510   3.615 -1.6359  0.6420 -0.0339
 6527SOL     OW31039   2.466   2.582   3.600  0.0759  0.7144 -0.1215
 6527SOL    HW131040   2.533   2.633   3.645 -0.7254 -0.6932  2.6557
 6527SOL    HW231041   2.443   2.515   3.664 -1.3943 -1.6112 -3.0594
 6528SOL     OW31042   4.164   1.926   7.929 -0.6474 -0.1302  0.0088
 6528SOL    HW131043   4.193   1.867   7.999  3.4700  0.6700 -1.0492
 6528SOL    HW231044   4.166   2.012   7.970  0.5578 -0.1687  0.0099
 6529SOL     OW31045   4.435   1.497  15.347  0.3875  0.0954  0.2326
 6529SOL    HW131046   4.395   1.559  15.408 -1.6639 -0.2527 -0.7856
 6529SOL    HW231047   4.373   1.493  15.275  1.4689 -0.0485 -0.6822
 6530SOL     OW31048   0.288   2.970   7.510  0.1672 -0.2505  0.4695
 6530SOL    HW131049   0.207   2.932   7.544  1.3855 -3.6060 -0.3249
 6530SOL    HW231050   0.319   3.008   7.592  2.1797  2.1398 -1.4314
 6531SOL     OW31051   4.437   3.465   3.821  0.0386  0.7217 -0.4855
 6531SOL    HW131052   4.345   3.491   3.816 -0.1962 -0.0592 -0.3019
 6531SOL    HW231053   4.484   3.547   3.835 -1.6883  1.5099  0.6974
 6532SOL     OW31054   2.845   4.652   5.345 -0.7270 -0.1758 -0.0284
 6532SOL    HW131055   2.940   4.655   5.355 -0.7320  0.0577 -0.0455
 6532SOL    HW231056   2.838   4.559   5.324 -1.0581 -0.2360  0.3540
 6533SOL     OW31057   1.497   4.586   5.574 -0.1141 -0.5082  0.2254
 6533SOL    HW131058   1.578   4.551   5.535 -0.9294 -0.9302 -1.0803
 6533SOL    HW231059   1.427   4.535   5.534 -0.2271  0.6939 -1.1038
 6534SOL     OW31060   0.257   2.267   5.152  0.1345  0.0062  0.6674
 6534SOL    HW131061   0.275   2.360   5.139  3.0706 -0.6053  0.5450
 6534SOL    HW231062   0.325   2.238   5.091  0.7108  0.2249  1.2104
 6535SOL     OW31063   3.750   3.369   3.588 -0.2965  0.2452  0.2212
 6535SOL    HW131064   3.828   3.347   3.537 -0.1118 -1.5282  1.2997
 6535SOL    HW231065   3.762   3.297   3.649  0.0235  0.2047  0.1090
 6536SOL     OW31066   3.740   3.690  14.380  0.2466 -0.5718  0.1732
 6536SOL    HW131067   3.787   3.770  14.357  0.4090 -0.5435  0.5954
 6536SOL    HW231068   3.802   3.621  14.404  0.6701  0.5340  2.3209
 6537SOL     OW31069   2.334   2.643   6.638  0.4652 -0.3540  0.0378
 6537SOL    HW131070   2.365   2.700   6.708 -0.1366  1.5667 -1.2453
 6537SOL    HW231071   2.247   2.631   6.674  0.2953  0.3342 -0.1491
 6538SOL     OW31072   0.110   3.046   7.792  0.3011  0.5613 -0.0668
 6538SOL    HW131073   0.204   3.043   7.809  0.7474 -0.2238 -2.6982
 6538SOL    HW231074   0.092   3.139   7.802 -0.5096  0.4684 -0.6403
 6539SOL     OW31075   3.235   1.710   7.382 -0.0444 -0.5313  0.3046
 6539SOL    HW131076   3.142   1.689   7.384 -0.2589  0.5404  1.6159
 6539SOL    HW231077   3.257   1.647   7.314  0.9227 -0.8814  0.9348
 6540SOL     OW31078   4.101   3.761   4.005 -0.2374  0.5190 -0.0239
 6540SOL    HW131079   4.120   3.833   3.945  1.2111 -0.9549 -1.3318
 6540SOL    HW231080   4.059   3.705   3.940  1.3695 -1.0189  0.2430
 6541SOL     OW31081   4.088   3.453   3.106 -0.2942 -0.0986  0.0186
 6541SOL    HW131082   3.999   3.443   3.070 -0.5847 -0.6574  0.8958
 6541SOL    HW231083   4.121   3.391   3.041  0.6376  0.5504 -0.1262
 6542SOL     OW31084   4.450   4.168   9.064 -0.0221 -0.3393 -0.0142
 6542SOL    HW131085   4.372   4.179   9.118 -0.6480  2.4417 -1.4553
 6542SOL    HW231086   4.511   4.159   9.137  0.9646  0.3517 -0.7564
 6543SOL     OW31087   1.274   2.092   7.658  0.5747 -0.2022 -0.2577
 6543SOL    HW131088   1.208   2.115   7.592 -0.7770 -2.5370  0.2846
 6543SOL    HW231089   1.343   2.138   7.610 -1.0092 -0.2302 -2.5725
 6544SOL     OW31090   0.184   1.424   2.211  0.5836  0.1645  0.2428
 6544SOL    HW131091   0.197   1.374   2.292 -0.8498 -1.3025 -0.4114
 6544SOL    HW231092   0.178   1.359   2.141  2.9776  1.7599 -1.4380
 6545SOL     OW31093   0.492   4.117   3.019  0.0459  0.0018 -0.1190
 6545SOL    HW131094   0.542   4.149   2.945 -0.0415 -3.2105 -1.5921
 6545SOL    HW231095   0.485   4.197   3.070  1.4244 -1.3780  2.2435
 6546SOL     OW31096   3.288   3.832  12.008  0.7334 -0.4991  0.2513
 6546SOL    HW131097   3.198   3.856  11.985  1.0947  0.9166  0.2618
 6546SOL    HW231098   3.328   3.834  11.921  1.7366 -0.3911  0.7179
 6547SOL     OW31099   0.793   3.854   1.414 -0.2264  0.2209  0.4553
 6547SOL    HW131100   0.752   3.773   1.445  0.7931  0.1952  1.7463
 6547SOL    HW231101   0.886   3.838   1.431 -0.4819 -0.9997  0.6706
 6548SOL     OW31102   1.674   3.000   1.030 -0.1296  0.0177  0.0361
 6548SOL    HW131103   1.732   3.068   0.994  2.0295 -1.3447  0.9665
 6548SOL    HW231104   1.656   2.940   0.958  0.5459  1.6452 -1.4999
 6549SOL     OW31105   4.278   4.455  10.482  1.0691 -0.0048 -0.1693
 6549SOL    HW131106   4.337   4.427  10.553 -0.7502  1.8729  2.0907
 6549SOL    HW231107   4.202   4.489  10.529  2.1333  1.6745  0.3635
 6550SOL     OW31108   0.220   1.139   7.771  0.4229 -0.2145  0.0334
 6550SOL    HW131109   0.187   1.117   7.858 -0.8064  0.9308 -0.1398
 6550SOL    HW231110   0.137   1.148   7.724  0.0887  0.7256  0.7899
 6551SOL     OW31111   1.506   1.107   9.409  0.2318 -0.1099  0.2471
 6551SOL    HW131112   1.529   1.065   9.492 -0.0021 -0.6617  0.0354
 6551SOL    HW231113   1.431   1.159   9.437 -1.0081 -0.8767 -1.6289
 6552SOL     OW31114   1.184   1.830   2.800 -0.4959  0.2535 -0.2791
 6552SOL    HW131115   1.134   1.901   2.762  0.2616  0.9190 -0.0357
 6552SOL    HW231116   1.138   1.752   2.770  1.9399 -0.3968 -2.3327
 6553SOL     OW31117   4.147   4.160  16.971 -0.0243 -0.1074 -0.3082
 6553SOL    HW131118   4.126   4.236  16.916 -4.2408 -1.9033 -1.1695
 6553SOL    HW231119   4.081   4.164  17.039 -1.1950 -3.0076 -1.2641
 6554SOL     OW31120   3.258   0.960   2.377  0.3214 -0.0537 -0.3484
 6554SOL    HW131121   3.165   0.940   2.382  0.6654 -1.1785  1.6335
 6554SOL    HW231122   3.289   0.883   2.425 -0.9658 -0.7148 -0.5627
 6555SOL     OW31123   2.296   1.221   0.463 -0.0415  0.2899  0.1999
 6555SOL    HW131124   2.219   1.171   0.434 -1.0983  0.8710  2.0287
 6555SOL    HW231125   2.263   1.256   0.545 -1.5315  0.3153 -0.3967
 6556SOL     OW31126   3.929   1.450   1.837  0.3273  0.2493  0.7427
 6556SOL    HW131127   3.835   1.466   1.830  0.2786 -1.1128 -1.7748
 6556SOL    HW231128   3.957   1.487   1.753 -1.4775 -0.4289 -0.1534
 6557SOL     OW31129   3.376   4.137   6.326 -0.0977  0.7380 -0.0154
 6557SOL    HW131130   3.424   4.218   6.340  1.4197  0.0488 -1.1556
 6557SOL    HW231131   3.328   4.122   6.407 -0.5140  0.0505 -0.3884
 6558SOL     OW31132   2.319   1.934   4.039 -0.3707 -0.4085 -0.1107
 6558SOL    HW131133   2.247   1.891   3.991  0.2088 -1.0351 -0.4199
 6558SOL    HW231134   2.365   1.859   4.075  0.4304  0.2828  0.2794
 6559SOL     OW31135   1.277   0.104   8.289 -0.3348 -0.0616  0.7805
 6559SOL    HW131136   1.184   0.097   8.268 -0.2203  0.6295  0.0144
 6559SOL    HW231137   1.277   0.190   8.331 -1.8916  0.2091  0.2105
 6560SOL     OW31138   4.172   3.033   4.746 -0.7585 -0.4021  0.3089
 6560SOL    HW131139   4.108   3.102   4.727  1.1611  1.6383  1.2247
 6560SOL    HW231140   4.247   3.081   4.709 -1.7575  1.3665  0.5510
 6561SOL     OW31141   2.198   2.686   0.413  0.5752 -0.4762 -0.1435
 6561SOL    HW131142   2.282   2.643   0.427  0.9478  0.8957  1.8374
 6561SOL    HW231143   2.210   2.780   0.427  0.2309 -0.5602  0.7432
 6562SOL     OW31144   0.547   2.444  11.132 -0.4157  0.2448  0.0928
 6562SOL    HW131145   0.609   2.415  11.199  2.0479 -1.0158 -2.7527
 6562SOL    HW231146   0.579   2.381  11.068 -0.6796 -0.1580  0.3560
 6563SOL     OW31147   4.120   1.770   6.911 -0.0723  0.7891 -0.0639
 6563SOL    HW131148   4.123   1.678   6.886 -2.8097  0.3817  1.0358
 6563SOL    HW231149   4.193   1.776   6.973  1.8188  0.1542 -2.2209
 6564SOL     OW31150   4.434   4.583  14.177  0.2163  0.1311 -0.1220
 6564SOL    HW131151   4.453   4.607  14.087 -0.0950 -0.6459 -0.3952
 6564SOL    HW231152   4.341   4.607  14.179 -0.1616 -1.1866 -1.7923
 6565SOL     OW31153   2.866   0.367   8.585  0.6754  1.0291 -0.0373
 6565SOL    HW131154   2.897   0.367   8.494  0.7603  1.0916 -0.0086
 6565SOL    HW231155   2.901   0.446   8.627  2.2215 -0.8492  2.2252
 6566SOL     OW31156   3.445   2.123  14.947  0.3261 -0.3050 -0.0056
 6566SOL    HW131157   3.459   2.208  14.990  2.8322 -1.2052  0.9636
 6566SOL    HW231158   3.351   2.108  14.953  0.0894  0.6020 -1.3327
 6567SOL     OW31159   2.679   2.011   5.224  0.2509 -0.0975 -0.2490
 6567SOL    HW131160   2.708   2.082   5.167  0.8557  1.2021  1.6899
 6567SOL    HW231161   2.758   2.006   5.278  0.5130 -0.7779 -0.6793
 6568SOL     OW31162   1.901   2.001   2.890  0.0341  0.1350  0.2519
 6568SOL    HW131163   1.912   1.944   2.814  0.8425 -0.1838  0.6004
 6568SOL    HW231164   1.980   1.976   2.938 -0.1359 -0.4249  0.2423
 6569SOL     OW31165   2.225   3.101   3.005 -0.4489 -0.0333 -0.2054
 6569SOL    HW131166   2.162   3.040   3.043  0.7214  0.0472  1.8459
 6569SOL    HW231167   2.158   3.145   2.951  1.1173 -0.1598 -2.2610
 6570SOL     OW31168   0.646   3.792   4.790 -0.4163 -0.6386  0.5010
 6570SOL    HW131169   0.595   3.871   4.810  0.5003  0.3503 -1.0089
 6570SOL    HW231170   0.710   3.784   4.861 -1.7760 -0.9814  1.6865
 6571SOL     OW31171   3.942   0.278   3.348  0.1504  0.0293 -0.2852
 6571SOL    HW131172   3.927   0.187   3.321 -0.8862  0.6022 -1.6298
 6571SOL    HW231173   4.037   0.269   3.343  0.1293 -1.2248  1.4881
 6572SOL     OW31174   0.107   1.488  16.494  0.2121 -0.0370  0.3950
 6572SOL    HW131175   0.079   1.578  16.506  2.2464  0.5229  1.0245
 6572SOL    HW231176   0.177   1.504  16.430 -1.9520 -0.6846 -2.1172
 6573SOL     OW31177   4.242   2.589   7.640  0.2335  0.0394  0.6116
 6573SOL    HW131178   4.217   2.606   7.731 -0.3792  0.0508  0.4443
 6573SOL    HW231179   4.329   2.628   7.634 -0.0356  0.3401 -1.2181
 6574SOL     OW31180   0.371   3.588   6.446  0.1775  0.1987  0.0485
 6574SOL    HW131181   0.341   3.611   6.534  1.9249  2.3951  0.0800
 6574SOL    HW231182   0.406   3.500   6.461 -0.5627 -0.5344 -2.5614
 6575SOL     OW31183   1.823   1.163  13.521  0.2489 -0.3256 -0.0357
 6575SOL    HW131184   1.824   1.251  13.483  2.4093 -0.1408  0.4885
 6575SOL    HW231185   1.856   1.185  13.608 -2.8876  1.1321  0.7897
 6576SOL     OW31186   1.920   1.116  14.105  0.0689  0.1556  0.1799
 6576SOL    HW131187   1.831   1.103  14.071  0.0954  0.4741 -0.0039
 6576SOL    HW231188   1.962   1.176  14.044  0.4401 -0.7551 -0.4626
 6577SOL     OW31189   2.147   2.999   8.968 -0.5771  0.2289  0.3322
 6577SOL    HW131190   2.216   2.933   8.970 -0.4903  0.2234 -2.3279
 6577SOL    HW231191   2.097   2.970   9.044  0.7885 -1.4780  0.5633
 6578SOL     OW31192   0.472   0.508   4.397 -0.0102  0.2024 -0.2534
 6578SOL    HW131193   0.535   0.469   4.336  2.2340  1.3087  1.3713
 6578SOL    HW231194   0.409   0.436   4.399  0.7662 -0.5232 -1.7554
 6579SOL     OW31195   1.594   0.257   2.147 -0.3078  0.4277  0.5245
 6579SOL    HW131196   1.547   0.197   2.205  0.4610  1.5976  2.3744
 6579SOL    HW231197   1.665   0.273   2.209  0.3346  0.1528 -0.1396
 6580SOL     OW31198   1.595   1.954  10.688  0.0833 -0.2858  0.6148
 6580SOL    HW131199   1.683   1.976  10.658  0.2516 -1.0272  0.5683
 6580SOL    HW231200   1.605   1.968  10.783  1.7218 -0.0044  0.4030
 6581SOL     OW31201   4.648   4.430  14.248  1.0133 -0.4596  0.1328
 6581SOL    HW131202   4.595   4.503  14.216 -0.1755 -0.6298  1.6889
 6581SOL    HW231203   4.580   4.363  14.248  0.1256  0.4613 -0.8253
 6582SOL     OW31204   1.683   3.129   4.292  0.4522  0.3892 -0.0444
 6582SOL    HW131205   1.709   3.043   4.327 -0.8112 -0.0910 -0.3045
 6582SOL    HW231206   1.608   3.150   4.347  0.5625 -0.2162  0.3432
 6583SOL     OW31207   0.539   2.665  11.470  0.1796 -0.7563 -0.2571
 6583SOL    HW131208   0.607   2.633  11.529 -0.4348  0.8029  1.3144
 6583SOL    HW231209   0.548   2.605  11.396 -1.1529  0.3468 -1.3207
 6584SOL     OW31210   3.259   2.761  13.639  0.1319 -0.0746 -0.1617
 6584SOL    HW131211   3.323   2.691  13.635  0.1284 -0.1129  0.6064
 6584SOL    HW231212   3.227   2.763  13.729 -0.4127 -1.8023 -0.3091
 6585SOL     OW31213   4.463   3.401  15.066 -1.3403  0.2778 -0.0833
 6585SOL    HW131214   4.446   3.352  15.147 -0.4177 -0.0522 -0.0912
 6585SOL    HW231215   4.540   3.355  15.031 -0.1950  2.4388 -0.3515
 6586SOL     OW31216   0.461   2.117   7.628  0.2579 -0.0750 -0.4017
 6586SOL    HW131217   0.552   2.093   7.645  1.3620  2.9552 -2.1030
 6586SOL    HW231218   0.434   2.080   7.544 -0.3308 -1.0145  0.1979
 6587SOL     OW31219   3.478   0.385  12.600 -0.2856 -0.4025  0.0339
 6587SOL    HW131220   3.506   0.329  12.528  0.5848 -1.1270  0.9454
 6587SOL    HW231221   3.508   0.327  12.670 -0.6241  1.3168  1.5896
 6588SOL     OW31222   2.691   2.607   4.959 -0.0194  0.1290  0.2966
 6588SOL    HW131223   2.765   2.668   4.969  0.4102 -0.3180 -0.1397
 6588SOL    HW231224   2.736   2.530   4.924  0.2384  0.6560 -0.5265
 6589SOL     OW31225   0.724   3.186   3.100 -0.4775  0.2947  0.7206
 6589SOL    HW131226   0.779   3.111   3.078 -0.2198  0.2183  1.6583
 6589SOL    HW231227   0.705   3.148   3.186  0.1905  1.0344  1.1926
 6590SOL     OW31228   3.992   1.118  10.992 -0.3702 -0.2036  0.1012
 6590SOL    HW131229   3.992   1.158  11.079  0.9121  0.9182 -0.4115
 6590SOL    HW231230   4.047   1.181  10.946 -0.2310  0.4228  1.1102
 6591SOL     OW31231   2.922   0.247   3.988 -0.1962  0.6504  0.0313
 6591SOL    HW131232   2.986   0.308   4.024  1.8491 -0.4740 -1.7459
 6591SOL    HW231233   2.943   0.256   3.895  0.2161 -2.2131 -0.1546
 6592SOL     OW31234   2.808   4.354   0.816  0.4966 -0.5663 -0.2445
 6592SOL    HW131235   2.886   4.402   0.790 -0.1105  0.3064 -0.4452
 6592SOL    HW231236   2.797   4.384   0.906 -1.1264  0.3917 -0.7778
 6593SOL     OW31237   0.479   4.080   9.831 -0.2047  0.4309  0.0450
 6593SOL    HW131238   0.438   4.155   9.788  1.0681  1.0356 -0.1234
 6593SOL    HW231239   0.509   4.021   9.762  1.8896  2.7637 -1.0286
 6594SOL     OW31240   2.154   3.512  17.554  0.4320 -0.0015  0.5972
 6594SOL    HW131241   2.209   3.590  17.555 -0.4377  0.6197 -1.3060
 6594SOL    HW231242   2.152   3.497  17.649  2.1847  1.7785  0.8976
 6595SOL     OW31243   2.413   2.214   8.774  0.9093 -0.3116 -0.7358
 6595SOL    HW131244   2.332   2.220   8.825  1.4547  2.3567 -0.1870
 6595SOL    HW231245   2.449   2.302   8.772  1.8161 -0.6833 -0.7130
 6596SOL     OW31246   0.313   1.884   2.962 -0.5855  0.2075  0.7954
 6596SOL    HW131247   0.251   1.957   2.966  0.3910  0.8928  3.3327
 6596SOL    HW231248   0.316   1.853   3.053 -0.6470  1.6065  1.2678
 6597SOL     OW31249   2.924   0.545  14.476 -0.0235 -0.3330 -0.1949
 6597SOL    HW131250   2.965   0.625  14.508 -1.7151  0.4481  0.0220
 6597SOL    HW231251   2.863   0.569  14.406  2.0572  2.3620 -1.0819
 6598SOL     OW31252   2.268   2.347   9.456  0.4236 -0.0497 -0.1793
 6598SOL    HW131253   2.351   2.327   9.498  0.1164  1.0998  0.9561
 6598SOL    HW231254   2.259   2.439   9.482  3.5455  0.1583  0.1387
 6599SOL     OW31255   0.215   2.136   6.761  0.1093  0.4402 -0.0995
 6599SOL    HW131256   0.249   2.208   6.709  0.5919 -0.1029 -0.5467
 6599SOL    HW231257   0.281   2.130   6.830  0.0541 -2.0112 -0.2343
 6600SOL     OW31258   1.727   0.600   5.663 -0.2093  0.2560  0.6192
 6600SOL    HW131259   1.783   0.561   5.729 -0.2324 -1.1343 -0.1845
 6600SOL    HW231260   1.737   0.536   5.593 -1.0197 -0.3822  1.0956
 6601SOL     OW31261   1.285   2.246   8.798  0.4346 -0.1801 -0.3598
 6601SOL    HW131262   1.328   2.274   8.879 -0.0271 -0.7610  0.0872
 6601SOL    HW231263   1.312   2.316   8.739 -0.5557  1.0453  0.6347
 6602SOL     OW31264   2.439   0.216   7.800 -0.1617  0.1106  0.5303
 6602SOL    HW131265   2.521   0.262   7.820 -0.1690 -0.7470  2.5969
 6602SOL    HW231266   2.383   0.294   7.792  1.2267  1.0064 -0.3707
 6603SOL     OW31267   3.985   0.959   7.943 -0.3580 -0.2018  0.1841
 6603SOL    HW131268   3.965   0.934   7.853 -0.4898 -0.9390  0.4127
 6603SOL    HW231269   4.035   0.887   7.982 -2.2942 -1.4855  0.2951
 6604SOL     OW31270   3.994   2.247   6.032  0.5145  0.1775  0.1800
 6604SOL    HW131271   3.992   2.315   5.964 -0.4030 -1.7688 -1.7388
 6604SOL    HW231272   3.907   2.208   6.027 -0.0483  1.3372  0.9569
 6605SOL     OW31273   1.213   2.036  17.454  0.7229 -0.4232  0.0830
 6605SOL    HW131274   1.250   2.013  17.540 -1.6008 -1.4630  0.8139
 6605SOL    HW231275   1.248   2.124  17.445 -1.0182  0.3842  1.2364
 6606SOL     OW31276   0.217   4.544  11.659  0.4412  0.0511 -0.8145
 6606SOL    HW131277   0.130   4.512  11.679  0.4206  0.6541  0.0434
 6606SOL    HW231278   0.240   4.580  11.744 -2.9735  0.3006  0.0003
 6607SOL     OW31279   0.919   2.393  11.104  0.4362 -0.2406 -0.0888
 6607SOL    HW131280   0.853   2.458  11.131  1.2761  0.6350 -0.1677
 6607SOL    HW231281   0.913   2.406  11.009  1.7011 -0.3903 -0.1864
 6608SOL     OW31282   4.274   4.285   2.369  0.1567 -0.7740  0.0239
 6608SOL    HW131283   4.240   4.327   2.448 -2.1441 -1.6630 -0.4988
 6608SOL    HW231284   4.288   4.360   2.311 -0.4285  0.9553  2.1008
 6609SOL     OW31285   3.238   1.521  15.103 -0.3749 -0.0626 -0.4198
 6609SOL    HW131286   3.163   1.561  15.147 -0.3093  2.4262 -2.5429
 6609SOL    HW231287   3.311   1.577  15.130 -0.4000 -0.0395 -0.3989
 6610SOL     OW31288   0.110   1.879   3.500  0.4056  0.3339  0.1317
 6610SOL    HW131289   0.049   1.888   3.574 -0.0747  0.3261 -0.2638
 6610SOL    HW231290   0.071   1.806   3.452  0.1717  0.4034  0.2163
 6611SOL     OW31291   2.235   2.427   3.969  0.7585  0.9807 -0.5828
 6611SOL    HW131292   2.151   2.401   4.006  0.2984  0.7430 -1.8247
 6611SOL    HW231293   2.205   2.494   3.908 -0.0961  1.3432  0.2281
 6612SOL     OW31294   2.486   4.506  13.249  0.3650  0.6297  0.6401
 6612SOL    HW131295   2.555   4.470  13.193 -0.5424 -0.0589 -0.0186
 6612SOL    HW231296   2.475   4.595  13.214 -1.7899 -0.4141 -1.3277
 6613SOL     OW31297   0.567   2.078   7.261 -0.4621 -0.5827  0.1597
 6613SOL    HW131298   0.508   2.031   7.320  1.5462 -1.2040  1.6774
 6613SOL    HW231299   0.505   2.134   7.214  1.3471  0.1875 -1.2817
 6614SOL     OW31300   3.553   2.449  12.288 -0.3714 -0.1542 -0.2255
 6614SOL    HW131301   3.494   2.488  12.223 -1.0524 -0.0474  0.4573
 6614SOL    HW231302   3.634   2.442  12.237  0.9525 -0.7048  1.9829
 6615SOL     OW31303   1.942   1.350   7.402 -0.0564  0.1201  0.4389
 6615SOL    HW131304   1.888   1.282   7.442  0.3640 -0.3860  0.1635
 6615SOL    HW231305   2.013   1.295   7.369  0.6322  1.4989 -0.3982
 6616SOL     OW31306   2.848   4.569   4.312  0.4610 -0.4912 -0.3839
 6616SOL    HW131307   2.806   4.503   4.368  0.2102 -2.0006 -2.3402
 6616SOL    HW231308   2.939   4.561   4.340  0.3002  0.5888  0.4188
 6617SOL     OW31309   4.434   0.563   4.628  0.1863 -0.3115  0.1718
 6617SOL    HW131310   4.339   0.562   4.622  0.1052  2.3716  0.8581
 6617SOL    HW231311   4.449   0.585   4.536 -0.6355 -1.4127 -0.2161
 6618SOL     OW31312   3.278   4.590  15.904 -0.4614  0.6446  0.1671
 6618SOL    HW131313   3.195   4.551  15.931 -0.9337  1.3483 -0.2643
 6618SOL    HW231314   3.340   4.562  15.972 -0.0146 -1.7532 -1.2651
 6619SOL     OW31315   0.830   3.422   7.298 -0.1710 -0.2283 -0.3676
 6619SOL    HW131316   0.794   3.437   7.211 -0.8983 -1.0177 -0.2103
 6619SOL    HW231317   0.898   3.355   7.290 -1.8524 -2.0652  0.6490
 6620SOL     OW31318   1.627   2.572   8.207 -0.9284  0.4506 -0.3030
 6620SOL    HW131319   1.619   2.523   8.125 -0.1740  0.2722 -0.2758
 6620SOL    HW231320   1.721   2.583   8.190 -0.4577 -1.6515  1.0276
 6621SOL     OW31321   3.562   3.489   5.458  0.2209  0.5599  0.3642
 6621SOL    HW131322   3.487   3.443   5.419 -0.0995 -0.0753  1.7178
 6621SOL    HW231323   3.634   3.432   5.430 -0.2343  0.4006 -0.4892
 6622SOL     OW31324   2.009   0.653  11.429  0.8062  0.1337 -0.7919
 6622SOL    HW131325   1.944   0.635  11.361 -1.5555  2.7676  0.7463
 6622SOL    HW231326   2.022   0.562  11.457  2.3141  1.1475  1.8348
 6623SOL     OW31327   2.117   1.235  14.284 -0.1052  0.0603  0.1783
 6623SOL    HW131328   2.138   1.173  14.354 -0.7254  0.8443  1.0389
 6623SOL    HW231329   2.076   1.173  14.223  0.4671 -1.6583  1.5246
 6624SOL     OW31330   1.562   0.514   2.066 -0.5276 -1.0768 -0.3080
 6624SOL    HW131331   1.572   0.425   2.099  0.7158 -0.2921  1.4197
 6624SOL    HW231332   1.564   0.505   1.971 -1.5298 -0.1935 -0.4242
 6625SOL     OW31333   1.759   1.449   1.794 -0.1251  0.0973  0.4012
 6625SOL    HW131334   1.716   1.531   1.769  0.4748 -0.0479 -1.0922
 6625SOL    HW231335   1.818   1.483   1.862 -1.5525  3.2511  0.0758
 6626SOL     OW31336   2.670   3.265  17.233 -0.6177  0.7584  0.4691
 6626SOL    HW131337   2.616   3.246  17.156  3.2175  0.5128 -2.1157
 6626SOL    HW231338   2.706   3.350  17.209 -0.9285  0.0683 -2.4722
 6627SOL     OW31339   3.073   3.416   2.720  0.1347 -0.1487  0.5426
 6627SOL    HW131340   3.080   3.389   2.629  0.2158 -1.1069  0.8337
 6627SOL    HW231341   2.987   3.378   2.740  0.2283 -0.5366  0.1985
 6628SOL     OW31342   0.847   1.290   2.469  0.3948 -0.1760 -0.5360
 6628SOL    HW131343   0.926   1.336   2.440  0.3680 -0.5555 -1.2156
 6628SOL    HW231344   0.827   1.235   2.393 -0.0973 -0.1950 -0.3930
 6629SOL     OW31345   4.720   2.266   3.159  0.0217 -0.5331 -0.7070
 6629SOL    HW131346   4.716   2.199   3.228 -0.8083  1.4164  1.1069
 6629SOL    HW231347   4.634   2.307   3.167  1.1912  1.6882  0.5894
 6630SOL     OW31348   1.999   3.920  17.329 -0.1986  0.6320 -1.1525
 6630SOL    HW131349   1.906   3.902  17.321 -0.1641  0.0977 -0.4507
 6630SOL    HW231350   2.030   3.836  17.294 -1.3104  0.1191 -0.8895
 6631SOL     OW31351   3.450   3.955   5.149  0.0524 -0.3865 -0.3197
 6631SOL    HW131352   3.394   3.968   5.073  0.4420  2.2558 -0.1308
 6631SOL    HW231353   3.431   3.865   5.177 -1.3490  0.7268  2.3449
 6632SOL     OW31354   3.816   2.430   1.017  0.0356 -0.1869  0.1696
 6632SOL    HW131355   3.770   2.410   1.098  0.2094  1.2751  0.6227
 6632SOL    HW231356   3.891   2.370   1.020  0.6739  0.5978  0.0033
 6633SOL     OW31357   3.563   3.386   1.223 -0.6140 -0.1228  0.3807
 6633SOL    HW131358   3.641   3.424   1.182  1.7778 -5.0400  0.3397
 6633SOL    HW231359   3.601   3.304   1.254  1.6516  0.8852  0.2716
 6634SOL     OW31360   4.149   0.536   4.945  0.2343  0.2674 -0.3225
 6634SOL    HW131361   4.078   0.566   5.002 -1.9980 -0.5838 -2.6848
 6634SOL    HW231362   4.211   0.599   4.982  1.2493 -1.3916  0.8071
 6635SOL     OW31363   1.781   4.242   3.108 -0.2933  0.0473 -0.0689
 6635SOL    HW131364   1.832   4.321   3.126  0.0634  0.2075 -1.8666
 6635SOL    HW231365   1.786   4.255   3.014  3.2164 -1.4441 -0.0535
 6636SOL     OW31366   3.519   2.197   3.418 -0.2626  0.3435 -0.6134
 6636SOL    HW131367   3.476   2.270   3.462  0.8376  1.1159 -0.8108
 6636SOL    HW231368   3.442   2.149   3.388  2.2670 -2.7242 -2.3289
 6637SOL     OW31369   1.900   1.137   5.687  0.4423 -0.0623 -0.2333
 6637SOL    HW131370   1.903   1.048   5.722 -2.1288  0.7370  1.9982
 6637SOL    HW231371   1.910   1.124   5.593  1.6345 -0.4164 -0.0540
 6638SOL     OW31372   0.391   0.302  16.060  0.0404 -0.2425  0.2762
 6638SOL    HW131373   0.332   0.377  16.069 -0.1603 -0.5439  1.3990
 6638SOL    HW231374   0.331   0.231  16.084  0.4982 -0.5827  0.4170
 6639SOL     OW31375   4.661   2.160   6.355 -0.2015 -0.2835  0.3404
 6639SOL    HW131376   4.642   2.120   6.270  0.3838 -0.8692  0.4806
 6639SOL    HW231377   0.033   2.166   6.354 -0.3110  1.4061  0.0167
 6640SOL     OW31378   3.288   3.644  12.429 -0.0304  0.3808 -0.5204
 6640SOL    HW131379   3.351   3.671  12.362  0.8801 -0.2063  0.0943
 6640SOL    HW231380   3.204   3.669  12.391  0.1304  0.7316 -0.6484
 6641SOL     OW31381   3.094   4.424   0.970  0.4010  0.1469 -0.1134
 6641SOL    HW131382   3.068   4.432   0.878 -1.4569 -1.2794  0.2908
 6641SOL    HW231383   3.143   4.506   0.970 -1.7313  1.4012 -0.1232
 6642SOL     OW31384   3.769   3.279  17.083 -0.7964  0.1501 -0.4816
 6642SOL    HW131385   3.681   3.240  17.078 -0.1015 -1.0534 -3.4499
 6642SOL    HW231386   3.763   3.366  17.043 -0.5167  0.0902 -0.6493
 6643SOL     OW31387   3.604   4.164   8.467  0.1033 -0.2829 -0.6211
 6643SOL    HW131388   3.577   4.154   8.558  1.0852 -0.2530 -0.3352
 6643SOL    HW231389   3.602   4.259   8.458  3.1965 -0.1510  0.2368
 6644SOL     OW31390   0.791   0.276   6.345 -0.5076  0.0705 -0.1058
 6644SOL    HW131391   0.869   0.222   6.336 -0.0719  0.9736 -1.6182
 6644SOL    HW231392   0.834   0.360   6.354  0.9796 -0.7749  0.6282
 6645SOL     OW31393   0.270   3.895   7.772  0.0333 -0.3486 -0.4258
 6645SOL    HW131394   0.287   3.812   7.818  0.7190 -0.6588 -1.2346
 6645SOL    HW231395   0.233   3.858   7.692  0.7927 -0.3052 -0.7938
 6646SOL     OW31396   3.910   1.930   2.138  0.3537 -0.2124  0.1335
 6646SOL    HW131397   3.986   1.909   2.084  0.6751 -0.0994  0.5407
 6646SOL    HW231398   3.896   1.851   2.190 -0.6923 -1.1796 -1.6376
 6647SOL     OW31399   0.077   3.015   8.169  0.3428  0.3998 -0.1248
 6647SOL    HW131400   0.163   2.988   8.135  0.5828 -1.6471  2.0960
 6647SOL    HW231401   0.054   2.957   8.241  0.5015  3.0133  2.0701
 6648SOL     OW31402   2.358   2.948   2.121 -0.1569  0.6120 -0.0657
 6648SOL    HW131403   2.312   3.026   2.151 -1.0989  0.2267 -0.5098
 6648SOL    HW231404   2.375   2.967   2.029  0.9403 -0.7314 -0.1416
 6649SOL     OW31405   1.566   4.020  14.659 -0.4000 -0.6898  0.3556
 6649SOL    HW131406   1.558   3.929  14.631  3.0355 -1.4424  1.8256
 6649SOL    HW231407   1.529   4.012  14.747  1.0376 -1.3228  0.9041
 6650SOL     OW31408   0.501   3.118   1.811 -0.2840  0.4957 -0.2360
 6650SOL    HW131409   0.441   3.170   1.864 -1.2522 -0.9214  0.0221
 6650SOL    HW231410   0.579   3.165   1.841  0.1473 -0.2813 -0.1545
 6651SOL     OW31411   0.080   4.045   6.291 -0.5019  0.1946 -0.2889
 6651SOL    HW131412   0.083   3.966   6.238 -0.2230  0.4083 -0.5894
 6651SOL    HW231413   0.088   4.019   6.383  2.1452  0.9357 -0.3008
 6652SOL     OW31414   2.283   0.818   1.635 -0.0678 -0.3345 -0.5341
 6652SOL    HW131415   2.251   0.792   1.722  0.7670  0.0077 -0.1199
 6652SOL    HW231416   2.357   0.876   1.656 -0.5367 -0.7608  2.3520
 6653SOL     OW31417   1.625   1.678   5.178  0.1723  0.1759  0.6043
 6653SOL    HW131418   1.572   1.639   5.248  0.6536 -1.6371 -0.0211
 6653SOL    HW231419   1.568   1.666   5.102 -0.8759  2.3313  1.0691
 6654SOL     OW31420   4.313   2.606   2.037  0.2240  0.2792  0.5026
 6654SOL    HW131421   4.272   2.522   2.050 -0.6736  0.6522  0.0657
 6654SOL    HW231422   4.319   2.639   2.126  1.3556  0.1393  0.4840
 6655SOL     OW31423   2.576   3.151   3.485  0.9727 -0.2637 -0.0665
 6655SOL    HW131424   2.498   3.168   3.538  1.5135  0.0295  0.6259
 6655SOL    HW231425   2.549   3.180   3.398 -2.4732 -0.0462  1.0647
 6656SOL     OW31426   4.554   2.041   5.199 -0.4573 -0.0875  0.5577
 6656SOL    HW131427   4.605   2.109   5.156 -1.1968 -0.6260 -1.1824
 6656SOL    HW231428   4.530   2.090   5.277  1.2125 -1.2463  1.7885
 6657SOL     OW31429   1.099   1.242   4.465  0.3618 -0.4452 -0.2746
 6657SOL    HW131430   1.056   1.257   4.381 -1.1597 -0.7317  0.4445
 6657SOL    HW231431   1.030   1.221   4.528  0.4094  0.1074 -0.0437
 6658SOL     OW31432   0.436   4.160  15.488  0.2724 -0.3564 -0.1152
 6658SOL    HW131433   0.383   4.172  15.409 -0.7308 -1.6060  0.3698
 6658SOL    HW231434   0.521   4.133  15.454  0.0093 -1.8953  0.4665
 6659SOL     OW31435   4.588   1.399   8.298  0.5852 -0.3163 -0.3522
 6659SOL    HW131436   4.581   1.392   8.393 -0.3815 -0.8307 -0.4589
 6659SOL    HW231437   4.572   1.493   8.293  1.0835 -0.1203  2.0526
 6660SOL     OW31438   4.001   1.165   4.009 -0.3285  0.2209 -0.4238
 6660SOL    HW131439   3.977   1.251   4.043 -2.6023 -0.0521 -1.3778
 6660SOL    HW231440   3.946   1.152   3.932  1.1819  0.4710 -1.5637
 6661SOL     OW31441   3.437   0.652   5.404  0.5410  0.3787 -0.2388
 6661SOL    HW131442   3.500   0.599   5.454 -2.0543 -2.2471  0.2764
 6661SOL    HW231443   3.429   0.730   5.459 -0.7664  0.4613 -0.5698
 6662SOL     OW31444   2.267   4.375  17.132 -0.3148  0.6288 -0.2757
 6662SOL    HW131445   2.347   4.387  17.183 -1.3119  1.7671  1.0171
 6662SOL    HW231446   2.216   4.333  17.202  0.0287  1.8160  0.6670
 6663SOL     OW31447   1.571   2.365  13.685 -0.2850  0.3827 -0.0838
 6663SOL    HW131448   1.605   2.333  13.769  0.4806 -0.7354 -0.8274
 6663SOL    HW231449   1.479   2.342  13.699 -0.3438  1.8584  1.8683
 6664SOL     OW31450   0.201   2.184   6.393  0.2722  0.0428  0.0304
 6664SOL    HW131451   0.250   2.104   6.374 -1.2377 -0.9439  0.2749
 6664SOL    HW231452   0.256   2.213   6.466  1.3235 -0.8624 -0.3971
 6665SOL     OW31453   1.254   3.408   4.512 -0.5902  0.1371 -0.1980
 6665SOL    HW131454   1.177   3.450   4.552 -1.5817 -2.4782  0.6409
 6665SOL    HW231455   1.222   3.404   4.422  2.3037  0.0928 -1.2323
 6666SOL     OW31456   0.702   1.530   4.978 -0.2963  0.9866 -0.0576
 6666SOL    HW131457   0.782   1.556   5.023 -0.0928 -0.7608  0.5746
 6666SOL    HW231458   0.649   1.610   4.985 -1.2914  0.2874  0.4100
 6667SOL     OW31459   1.469   2.581  11.436  0.2313 -0.6935 -0.1882
 6667SOL    HW131460   1.480   2.623  11.522 -1.2430 -0.3051 -0.1841
 6667SOL    HW231461   1.374   2.574  11.436  0.0556  1.6722  0.2537
 6668SOL     OW31462   3.944   1.595   7.859  0.0693  0.1835  0.6381
 6668SOL    HW131463   3.937   1.653   7.935 -1.5383  0.9137 -0.0881
 6668SOL    HW231464   3.926   1.514   7.908 -0.2651  1.0141  1.8894
 6669SOL     OW31465   0.722   1.525   3.793  0.1157 -0.0081 -0.2044
 6669SOL    HW131466   0.806   1.491   3.823  1.0229  2.7063  0.3981
 6669SOL    HW231467   0.728   1.495   3.702 -0.7777  0.3447 -0.3873
 6670SOL     OW31468   0.502   4.712   4.132 -0.5585  0.1313  0.7625
 6670SOL    HW131469   0.519   4.624   4.099  0.2447  0.4777  0.2614
 6670SOL    HW231470   0.408   4.721   4.115 -0.1839  2.5129  0.0083
 6671SOL     OW31471   3.375   1.066  10.175  0.1288  0.0106  0.1353
 6671SOL    HW131472   3.444   1.058  10.241 -1.2107 -4.2211  1.0335
 6671SOL    HW231473   3.405   1.001  10.113  0.0021 -1.1611  1.3045
 6672SOL     OW31474   3.125   4.300  17.223 -0.5018 -0.0321  0.1604
 6672SOL    HW131475   3.158   4.277  17.136 -1.1773 -0.0652 -0.0794
 6672SOL    HW231476   3.075   4.378  17.197  0.5948 -0.3282 -2.9144
 6673SOL     OW31477   0.687   4.040   5.220 -0.0696 -0.1858  0.1251
 6673SOL    HW131478   0.695   4.012   5.311 -1.7728  0.9778  0.6486
 6673SOL    HW231479   0.598   4.077   5.217 -0.0074 -0.1030 -0.5821
 6674SOL     OW31480   1.375   0.824   4.613 -0.2160 -0.7085  0.3253
 6674SOL    HW131481   1.439   0.818   4.542  1.2606 -1.5561  1.7156
 6674SOL    HW231482   1.301   0.780   4.572  1.3544 -1.2099 -1.9323
 6675SOL     OW31483   0.478   4.524   8.804  0.1664  0.0289  0.3314
 6675SOL    HW131484   0.541   4.530   8.732  1.6112 -3.1043  1.3688
 6675SOL    HW231485   0.485   4.620   8.800  1.4545 -0.1193 -0.9467
 6676SOL     OW31486   1.426   2.889   1.213 -0.4575  0.2782  0.2670
 6676SOL    HW131487   1.473   2.909   1.294 -0.9721  1.7020  0.2085
 6676SOL    HW231488   1.362   2.960   1.218 -1.2631 -0.4701  0.4881
 6677SOL     OW31489   2.871   3.958   9.509 -0.1662  0.4840 -0.0735
 6677SOL    HW131490   2.919   3.906   9.573 -0.6017 -1.4477 -1.3255
 6677SOL    HW231491   2.920   3.936   9.430 -0.8253  0.0845 -0.3722
 6678SOL     OW31492   2.224   2.983   4.640 -0.1091  0.6335 -0.3932
 6678SOL    HW131493   2.143   2.931   4.645  1.5477 -1.9990 -1.1147
 6678SOL    HW231494   2.187   3.070   4.630 -1.4505  0.1467  0.2969
 6679SOL     OW31495   3.075   3.868  13.219 -0.4455 -0.2918 -0.1316
 6679SOL    HW131496   3.158   3.916  13.224 -1.8834  2.3160 -1.3821
 6679SOL    HW231497   3.088   3.819  13.138 -0.9571  2.3172 -1.7941
 6680SOL     OW31498   0.006   4.376  13.548 -0.0729  0.5860 -0.3825
 6680SOL    HW131499   0.071   4.388  13.480 -1.0979  2.7315 -1.0037
 6680SOL    HW231500   0.048   4.311  13.604 -2.7811  0.4708  1.5767
 6681SOL     OW31501   2.708   1.376   9.807  0.1164  0.2884 -0.0166
 6681SOL    HW131502   2.773   1.432   9.849 -0.0414 -1.7972  2.9945
 6681SOL    HW231503   2.711   1.413   9.719  0.7311  1.6292  0.5633
 6682SOL     OW31504   0.743   4.019  15.307 -0.0004  0.5624 -0.0763
 6682SOL    HW131505   0.807   3.990  15.372  0.3585  0.8728 -0.2927
 6682SOL    HW231506   0.745   4.113  15.327  2.9941  0.6930 -1.0898
 6683SOL     OW31507   0.012   4.566   6.825  0.0788 -0.6790  0.2493
 6683SOL    HW131508   4.669   4.616   6.779  1.3740  2.1660  1.4947
 6683SOL    HW231509   4.678   4.491   6.841  0.4921 -0.9158  0.6468
 6684SOL     OW31510   0.342   4.475   7.345 -0.0853 -0.0272 -0.6368
 6684SOL    HW131511   0.272   4.414   7.322 -1.5671  0.3990  2.5984
 6684SOL    HW231512   0.408   4.407   7.357  2.5060  2.5937 -0.0631
 6685SOL     OW31513   4.711   2.424   7.999 -0.1167  0.2841 -0.3579
 6685SOL    HW131514   4.668   2.370   8.066  0.9615  0.5175  0.5244
 6685SOL    HW231515   4.647   2.492   7.979  0.9654  1.2138 -0.6485
 6686SOL     OW31516   2.945   4.065   0.258 -0.2087  1.2012 -0.0696
 6686SOL    HW131517   3.035   4.044   0.282 -0.9129  0.2309  1.8065
 6686SOL    HW231518   2.915   4.116   0.333  0.0935  1.4735 -0.1369
 6687SOL     OW31519   3.441   2.414   3.521  0.1674  0.0057 -0.2506
 6687SOL    HW131520   3.367   2.467   3.551 -0.1938 -0.3403 -0.5298
 6687SOL    HW231521   3.506   2.457   3.577  0.4611  0.6121 -1.0491
 6688SOL     OW31522   3.758   3.742  11.395 -0.3700  0.2966  0.0365
 6688SOL    HW131523   3.823   3.783  11.338  0.5810  0.7481  1.4345
 6688SOL    HW231524   3.789   3.785  11.475  1.1724 -4.8484  2.1957
 6689SOL     OW31525   3.904   3.098  16.847  0.3567 -0.4483  0.3035
 6689SOL    HW131526   3.849   3.141  16.912 -0.6550 -0.7473 -0.3619
 6689SOL    HW231527   3.848   3.076  16.773  1.4988 -2.6417  0.0937
 6690SOL     OW31528   1.781   3.048  14.541 -0.1049  0.2706 -0.2176
 6690SOL    HW131529   1.822   2.962  14.554 -1.7216 -0.1994  1.8681
 6690SOL    HW231530   1.698   3.031  14.587  1.4105 -2.4013  1.5409
 6691SOL     OW31531   2.169   1.205   8.300 -0.2108 -0.3646 -0.1607
 6691SOL    HW131532   2.074   1.212   8.290  0.0262 -0.1691 -2.3497
 6691SOL    HW231533   2.184   1.293   8.334 -1.4302 -0.6859  1.1970
 6692SOL     OW31534   2.796   1.125   6.105  0.6602  0.0518  0.4889
 6692SOL    HW131535   2.814   1.217   6.084 -0.3959 -0.1270 -1.2203
 6692SOL    HW231536   2.879   1.090   6.072  0.2655 -1.0476  0.6885
 6693SOL     OW31537   1.193   3.605   4.785 -0.1099  0.1092  0.4313
 6693SOL    HW131538   1.168   3.518   4.816  0.5266 -0.3514 -0.3407
 6693SOL    HW231539   1.107   3.644   4.800  0.0237  1.3447 -1.9184
 6694SOL     OW31540   3.537   0.727   7.001  0.1049 -0.0704 -0.6103
 6694SOL    HW131541   3.591   0.676   6.941  0.9866  3.0180 -2.4390
 6694SOL    HW231542   3.455   0.678   7.013 -0.7527  0.8342 -2.7090
 6695SOL     OW31543   3.412   3.164   7.025  0.8931 -0.0165 -0.0937
 6695SOL    HW131544   3.352   3.179   7.097 -0.6788 -0.1174 -1.3952
 6695SOL    HW231545   3.499   3.164   7.065  0.6583  3.7013  0.3513
 6696SOL     OW31546   1.422   2.048  14.468 -0.7165 -0.1307 -0.1128
 6696SOL    HW131547   1.475   1.996  14.528  0.0748 -0.9117 -1.4843
 6696SOL    HW231548   1.358   2.090  14.525 -0.1055  0.3902  0.1854
 6697SOL     OW31549   0.112   3.710   1.448 -0.1293  0.3627  0.1381
 6697SOL    HW131550   0.057   3.640   1.411  1.5115 -1.9275  2.0974
 6697SOL    HW231551   0.056   3.735   1.521 -1.0965  0.3985 -0.6098
 6698SOL     OW31552   1.269   0.414   1.960  0.0173  0.4828 -0.2612
 6698SOL    HW131553   1.274   0.319   1.962 -0.0932  0.4924  0.2756
 6698SOL    HW231554   1.349   0.428   1.910  2.1584 -0.2963  2.9753
 6699SOL     OW31555   0.687   4.144   8.707 -0.0547  0.2396  0.7868
 6699SOL    HW131556   0.690   4.072   8.643  0.2824  2.3094 -1.5221
 6699SOL    HW231557   0.687   4.107   8.795  3.4901 -1.2018  0.1596
 6700SOL     OW31558   2.442   1.771   6.840  0.2182  0.0242  0.2092
 6700SOL    HW131559   2.476   1.831   6.906 -0.9866 -0.4389  1.2510
 6700SOL    HW231560   2.524   1.733   6.807 -0.8327 -1.4231 -0.7661
 6701SOL     OW31561   1.866   4.325  16.735  0.1273  0.5073 -0.3525
 6701SOL    HW131562   1.937   4.311  16.799 -1.1979 -2.6835  0.4555
 6701SOL    HW231563   1.849   4.231  16.722 -0.6095  0.7851 -1.3855
 6702SOL     OW31564   1.495   0.412   6.705 -0.6623 -0.5801  0.3457
 6702SOL    HW131565   1.511   0.482   6.769 -0.1730 -0.3234 -0.0548
 6702SOL    HW231566   1.482   0.466   6.627  0.1301 -0.5520  0.2327
 6703SOL     OW31567   2.346   0.715   2.364  0.4807  0.3059 -0.2778
 6703SOL    HW131568   2.279   0.775   2.331  1.5495  2.1770  0.9185
 6703SOL    HW231569   2.313   0.634   2.325  0.9663 -0.3789  0.7313
 6704SOL     OW31570   3.176   4.433   9.915  0.1550 -0.0410 -0.0011
 6704SOL    HW131571   3.137   4.390   9.991  0.3606 -0.1256  0.0555
 6704SOL    HW231572   3.244   4.367   9.899  1.1671  0.4814  2.2351
 6705SOL     OW31573   0.750   0.074   2.124 -0.6885  0.0552 -0.2667
 6705SOL    HW131574   0.786   0.088   2.211 -2.5632 -1.2312  0.7157
 6705SOL    HW231575   0.739   4.703   2.125  0.1670 -0.0490 -1.4469
 6706SOL     OW31576   0.928   0.919  17.666  0.1592  0.4141  0.2056
 6706SOL    HW131577   0.884   0.979   0.030  0.2470  1.4500 -0.7662
 6706SOL    HW231578   0.935   0.836   0.017  2.9630  1.6771  1.9937
 6707SOL     OW31579   2.108   0.159   3.335  0.6095 -0.5954  0.4269
 6707SOL    HW131580   2.165   0.235   3.337 -1.7153  1.2011 -1.3728
 6707SOL    HW231581   2.068   0.164   3.422 -0.9485 -0.5429 -0.2928
 6708SOL     OW31582   0.268   1.437   5.123  0.2624  0.6489 -0.3741
 6708SOL    HW131583   0.303   1.492   5.193  0.5986 -0.2015  0.1261
 6708SOL    HW231584   0.323   1.453   5.046  1.8456  1.0670  0.8406
 6709SOL     OW31585   4.356   3.942   9.345 -0.2232 -0.0526 -0.1204
 6709SOL    HW131586   4.366   3.849   9.324 -0.4790  0.0914 -0.8980
 6709SOL    HW231587   4.442   3.956   9.385 -0.4974  0.2134  0.3626
 6710SOL     OW31588   2.590   2.644   8.912  0.4514  0.1714 -0.3728
 6710SOL    HW131589   2.656   2.634   8.981 -0.4075 -1.2931  0.2331
 6710SOL    HW231590   2.526   2.701   8.953 -0.8513 -0.7152 -1.1744
 6711SOL     OW31591   3.532   4.173   3.939 -0.1620  0.2619  0.1628
 6711SOL    HW131592   3.495   4.226   4.010 -1.5543  1.6865 -1.6154
 6711SOL    HW231593   3.481   4.211   3.867  1.4659  0.5470 -0.8392
 6712SOL     OW31594   3.353   1.790   8.928 -0.8697 -0.1386  0.2808
 6712SOL    HW131595   3.288   1.853   8.899 -0.5014  0.2656  0.3303
 6712SOL    HW231596   3.427   1.828   8.881 -1.6300 -0.5498 -1.2148
 6713SOL     OW31597   2.657   4.206   2.913 -0.0454 -0.4103  0.3004
 6713SOL    HW131598   2.659   4.213   2.817 -1.4419 -0.1697  0.2764
 6713SOL    HW231599   2.586   4.267   2.936  1.0777  1.4776 -1.1826
 6714SOL     OW31600   1.933   0.327  11.061  0.2025  0.2076  0.2624
 6714SOL    HW131601   1.954   0.241  11.027 -2.8038  0.1037 -1.3500
 6714SOL    HW231602   1.839   0.315  11.078 -0.2974  0.6880 -2.1414
 6715SOL     OW31603   2.891   2.431   1.743 -0.4632  0.1541 -0.1473
 6715SOL    HW131604   2.909   2.337   1.732 -1.4605 -0.3432  2.4215
 6715SOL    HW231605   2.967   2.459   1.691 -1.2735  0.9049 -0.9326
 6716SOL     OW31606   0.035   0.780   5.286  0.0757  0.1554  0.1762
 6716SOL    HW131607   0.069   0.777   5.375  0.5152 -0.6549 -0.0195
 6716SOL    HW231608   0.061   0.870   5.264  2.6503 -0.5885  0.1721
 6717SOL     OW31609   0.801   3.442   4.675 -0.0132  0.1726  0.3105
 6717SOL    HW131610   0.838   3.361   4.642 -0.1865  0.1725  0.1151
 6717SOL    HW231611   0.743   3.408   4.743 -1.3210  1.5426 -0.1190
 6718SOL     OW31612   4.408   4.608   7.205 -0.0053 -0.1130 -0.2001
 6718SOL    HW131613   4.346   4.574   7.140 -1.2148  0.7145  0.5223
 6718SOL    HW231614   4.482   4.634   7.149 -0.8990  1.7064 -0.5195
 6719SOL     OW31615   1.609   2.457   4.091 -0.3034 -0.4699  0.0547
 6719SOL    HW131616   1.541   2.414   4.143  0.8150 -0.1539  1.7692
 6719SOL    HW231617   1.561   2.527   4.046  1.0992  0.4493 -0.0145
 6720SOL     OW31618   4.625   1.693   9.199 -0.0438  0.0068  0.5701
 6720SOL    HW131619   4.661   1.776   9.168 -0.3253 -0.9929 -2.4560
 6720SOL    HW231620   4.690   1.660   9.261 -1.2178 -3.3416 -0.0093
 6721SOL     OW31621   0.323   1.851  15.947  0.2057 -0.3417  0.1074
 6721SOL    HW131622   0.353   1.854  16.038 -0.3879  1.4111  0.2458
 6721SOL    HW231623   0.349   1.942  15.934 -1.9049  0.3767  0.8180
 6722SOL     OW31624   1.947   1.690   8.427  0.1039 -0.4150  0.6140
 6722SOL    HW131625   1.905   1.624   8.483  0.9248 -1.0469  0.4795
 6722SOL    HW231626   1.871   1.748   8.421  0.9271  0.7504  1.5449
 6723SOL     OW31627   0.353   1.782  10.123 -0.1056 -0.6464  0.3325
 6723SOL    HW131628   0.310   1.764  10.206  0.1599 -0.5162  0.5002
 6723SOL    HW231629   0.436   1.744  10.153  0.5233  0.8784  0.5359
 6724SOL     OW31630   1.951   3.676  12.493  0.3646 -0.0303  0.1277
 6724SOL    HW131631   2.023   3.697  12.552  0.9017  0.5376 -0.7470
 6724SOL    HW231632   1.984   3.603  12.440  0.1632  0.3129 -0.4635
 6725SOL     OW31633   0.863   1.126  16.124 -0.6531 -0.0482  0.3603
 6725SOL    HW131634   0.767   1.131  16.119 -0.5754  1.9717  1.2096
 6725SOL    HW231635   0.875   1.109  16.030 -0.7097  0.6243  0.2306
 6726SOL     OW31636   0.013   3.094   5.344  0.1207 -0.3614 -0.2624
 6726SOL    HW131637   0.033   3.048   5.426  0.5836  0.8979  0.3447
 6726SOL    HW231638   0.100   3.103   5.305  0.5527 -0.0662  0.7500
 6727SOL     OW31639   3.138   1.163   7.861  0.1722  0.1160 -0.1617
 6727SOL    HW131640   3.103   1.252   7.868 -2.0659 -0.7980  0.1211
 6727SOL    HW231641   3.057   1.116   7.880 -0.0596 -0.3946 -2.4493
 6728SOL     OW31642   2.056   1.812  14.538 -0.2861 -0.0440 -0.8971
 6728SOL    HW131643   2.060   1.716  14.532 -1.7286 -0.1653  0.1977
 6728SOL    HW231644   1.968   1.825  14.573 -0.5308 -0.9901 -1.1551
 6729SOL     OW31645   1.277   0.103   5.422 -0.0543 -0.1606  0.1323
 6729SOL    HW131646   1.318   0.037   5.476  1.3145  1.0363  0.5485
 6729SOL    HW231647   1.232   0.052   5.355  1.1213 -2.1919  0.9014
 6730SOL     OW31648   3.036   2.256  13.101  0.3805  0.4966  0.1168
 6730SOL    HW131649   3.131   2.251  13.103  0.2424 -2.7075 -1.1399
 6730SOL    HW231650   3.021   2.350  13.112  1.4942  0.8544 -1.4883
 6731SOL     OW31651   4.376   2.989   9.405 -0.6394 -0.0703  0.0554
 6731SOL    HW131652   4.294   2.998   9.452  0.5297 -0.5046  2.1877
 6731SOL    HW231653   4.355   2.930   9.332 -1.2496  1.7589 -1.2476
 6732SOL     OW31654   4.280   1.025   3.109  0.2102 -0.1168  0.6668
 6732SOL    HW131655   4.355   1.032   3.169  2.2436 -1.3387 -1.7144
 6732SOL    HW231656   4.243   0.943   3.141  1.7244 -1.1590 -0.2472
 6733SOL     OW31657   0.681   0.322   5.563 -0.1444  0.2135  0.1271
 6733SOL    HW131658   0.772   0.307   5.589 -0.2116  0.7049  0.6380
 6733SOL    HW231659   0.636   0.250   5.606 -1.4670 -0.6307 -2.6516
 6734SOL     OW31660   3.102   2.378   9.368 -0.1954 -0.6712  0.5967
 6734SOL    HW131661   3.078   2.466   9.338 -3.6821 -2.0160 -0.4680
 6734SOL    HW231662   3.186   2.391   9.412 -0.3421 -0.9948  0.9706
 6735SOL     OW31663   3.611   0.779   5.801  0.1969  0.2421  0.0764
 6735SOL    HW131664   3.672   0.852   5.788  1.6576 -0.8459  0.8362
 6735SOL    HW231665   3.538   0.840   5.809 -1.4095 -1.6132 -0.6439
 6736SOL     OW31666   3.053   2.488   5.075  0.2980 -0.0031 -0.3017
 6736SOL    HW131667   3.127   2.546   5.058 -1.6369  2.1735 -1.2770
 6736SOL    HW231668   3.076   2.458   5.163 -0.7059  1.2660  0.3942
 6737SOL     OW31669   4.152   1.446   8.321 -0.1057  0.0533 -0.2063
 6737SOL    HW131670   4.187   1.399   8.397  0.1507 -0.0469 -0.3845
 6737SOL    HW231671   4.226   1.429   8.261  0.8097 -2.2455  1.5651
 6738SOL     OW31672   1.532   1.815   8.694 -0.0315  0.7419 -0.1636
 6738SOL    HW131673   1.594   1.879   8.658 -1.2842  1.2396 -1.4606
 6738SOL    HW231674   1.449   1.848   8.659 -0.1390 -0.5252 -1.0884
 6739SOL     OW31675   0.777   2.458  10.292 -0.2261  0.2501  0.2530
 6739SOL    HW131676   0.792   2.477  10.199 -1.2847 -0.2222 -0.0225
 6739SOL    HW231677   0.700   2.401  10.283  0.2302 -0.4103  0.5576
 6740SOL     OW31678   4.286   0.919  17.136  0.0541  0.3090 -0.5950
 6740SOL    HW131679   4.292   0.872  17.052 -0.0226 -0.5947 -0.0950
 6740SOL    HW231680   4.194   0.913  17.164  0.6202  0.8890  1.3379
 6741SOL     OW31681   1.718   3.973   3.503  0.1550 -0.3258 -0.2551
 6741SOL    HW131682   1.720   3.906   3.435  1.4831  0.1214 -0.6678
 6741SOL    HW231683   1.675   3.927   3.575  1.7867  1.0044  1.5803
 6742SOL     OW31684   1.672   2.390   4.913  0.0481 -0.1401  0.5732
 6742SOL    HW131685   1.697   2.311   4.865 -1.6719 -0.4737  0.2390
 6742SOL    HW231686   1.665   2.351   5.000  0.3159  0.3855  0.8281
 6743SOL     OW31687   2.025   2.025   7.718 -0.0790  0.1726  0.2290
 6743SOL    HW131688   2.083   2.101   7.713  0.4804 -0.3269 -0.6934
 6743SOL    HW231689   1.979   2.046   7.800 -0.4004  1.2610 -0.2217
 6744SOL     OW31690   1.910   2.032  14.721 -0.0522 -0.2010  0.0052
 6744SOL    HW131691   1.868   1.968  14.663 -0.4050  1.6414 -1.7744
 6744SOL    HW231692   1.833   2.079  14.753 -0.7482 -0.2177 -1.6247
 6745SOL     OW31693   4.645   0.291   9.544 -0.3848 -0.7793 -0.1622
 6745SOL    HW131694   4.711   0.315   9.609 -0.6045 -3.6963  1.1459
 6745SOL    HW231695   4.662   0.196   9.544  1.5515 -0.4348 -0.2350
 6746SOL     OW31696   2.901   4.298  15.711  0.3033 -0.0305  0.2974
 6746SOL    HW131697   2.943   4.384  15.715  1.5000 -0.6909  1.9618
 6746SOL    HW231698   2.827   4.318  15.654  0.5118  1.5847  0.5811
 6747SOL     OW31699   4.516   1.995   9.769  0.1692 -0.1564  0.0863
 6747SOL    HW131700   4.564   2.014   9.689 -0.0280 -1.1818 -0.2830
 6747SOL    HW231701   4.591   1.987   9.828 -0.6609  1.8780  1.4260
 6748SOL     OW31702   4.387   1.768  10.070  0.4929 -0.2708 -0.2630
 6748SOL    HW131703   4.435   1.721  10.139  2.9964  0.7739 -1.2936
 6748SOL    HW231704   4.442   1.846  10.066 -0.8048  0.5866 -1.2456
 6749SOL     OW31705   4.517   3.918  11.991 -0.2537 -0.5353  0.5509
 6749SOL    HW131706   4.508   3.957  12.079 -0.8892  2.2429 -0.7281
 6749SOL    HW231707   4.603   3.946  11.962 -0.4350  0.9213  1.3892
 6750SOL     OW31708   1.959   3.005   4.154 -0.2729 -0.0825 -0.0545
 6750SOL    HW131709   1.987   2.915   4.136 -2.5856 -0.4277 -1.9150
 6750SOL    HW231710   1.866   2.997   4.175 -0.7535  1.1024 -1.7588
 6751SOL     OW31711   3.300   0.332   7.403 -0.2236 -0.7428  0.0296
 6751SOL    HW131712   3.265   0.246   7.426 -1.2835 -0.7211 -1.5502
 6751SOL    HW231713   3.379   0.344   7.456  0.2734  0.1052 -0.9173
 6752SOL     OW31714   3.033   2.896  13.154 -0.4674  0.3990  0.2529
 6752SOL    HW131715   3.071   2.973  13.112 -1.6482  0.3683 -0.8562
 6752SOL    HW231716   3.112   2.841  13.157 -1.8309 -1.5243  0.5358
 6753SOL     OW31717   0.838   0.367   9.646  0.1769  0.0039  0.1136
 6753SOL    HW131718   0.778   0.307   9.690  1.8378 -2.0016 -0.3648
 6753SOL    HW231719   0.916   0.322   9.679  1.2812  1.6808 -0.1495
 6754SOL     OW31720   2.283   4.580   3.060 -0.0600  0.0194  0.9354
 6754SOL    HW131721   2.322   4.664   3.035  0.0098  0.1467  1.4721
 6754SOL    HW231722   2.205   4.580   3.004  2.2147 -0.5404 -2.2393
 6755SOL     OW31723   3.903   3.907  13.240 -0.2297 -0.0903 -0.0485
 6755SOL    HW131724   3.869   3.996  13.229  1.4755  0.5203 -0.4807
 6755SOL    HW231725   3.991   3.923  13.205  0.7396  0.1442  2.4742
 6756SOL     OW31726   3.193   3.522  10.640 -0.4784  0.5415 -0.3212
 6756SOL    HW131727   3.245   3.602  10.631  0.5282 -0.0061  0.6790
 6756SOL    HW231728   3.163   3.532  10.731  1.1706  0.7655  0.2050
 6757SOL     OW31729   1.546   1.406   8.529  0.2403  0.5311 -0.0983
 6757SOL    HW131730   1.511   1.368   8.610  1.3039  0.3852  0.2942
 6757SOL    HW231731   1.462   1.449   8.516  0.2887 -0.0891 -2.3813
 6758SOL     OW31732   2.244   1.403  14.903 -0.1094 -0.6231  0.0377
 6758SOL    HW131733   2.217   1.315  14.930  0.1718 -1.0538 -1.0536
 6758SOL    HW231734   2.172   1.428  14.845 -0.4091  0.8989  1.0718
 6759SOL     OW31735   0.344   4.664   9.822 -0.4317 -0.4935  0.3530
 6759SOL    HW131736   0.335   4.713   9.904 -2.7541  0.4669 -0.4601
 6759SOL    HW231737   0.439   4.668   9.825 -0.5303  0.8961  1.9257
 6760SOL     OW31738   0.839   0.269   4.921  0.1805 -0.0813  0.8021
 6760SOL    HW131739   0.868   0.241   5.007  0.6123 -2.6579 -0.1813
 6760SOL    HW231740   0.751   0.232   4.927 -0.7912  2.1081  0.1429
 6761SOL     OW31741   2.114   1.440   6.727  0.5504 -0.1975  0.3888
 6761SOL    HW131742   2.149   1.499   6.794 -0.2999 -0.5544  1.1424
 6761SOL    HW231743   2.198   1.421   6.685  0.2516 -2.2462  0.7198
 6762SOL     OW31744   1.331   3.115  16.725 -0.6485 -0.3533 -0.6456
 6762SOL    HW131745   1.383   3.195  16.727  0.5524 -1.2167  2.1181
 6762SOL    HW231746   1.363   3.073  16.805 -3.4524 -1.5015 -0.1350
 6763SOL     OW31747   1.964   1.299  12.968 -0.8728  0.5849 -0.4334
 6763SOL    HW131748   1.974   1.387  12.932 -0.7011  0.3107 -1.0588
 6763SOL    HW231749   2.008   1.247  12.901  0.5262  1.9184 -0.5483
 6764SOL     OW31750   1.707   4.209   8.785  0.3418  0.4646  0.1123
 6764SOL    HW131751   1.622   4.168   8.771  0.0497  1.3152 -0.6054
 6764SOL    HW231752   1.760   4.189   8.707  0.5900 -3.0787  1.1862
 6765SOL     OW31753   2.160   4.366   7.834 -0.0836 -0.7741  0.2646
 6765SOL    HW131754   2.106   4.287   7.835  1.3921 -1.7763  0.3828
 6765SOL    HW231755   2.209   4.357   7.916  0.7357  2.1835  0.0905
 6766SOL     OW31756   2.855   4.402   5.012  0.1466  0.2606  0.4674
 6766SOL    HW131757   2.916   4.395   5.086 -1.4839 -1.2112  1.6726
 6766SOL    HW231758   2.815   4.316   5.021 -1.7871  1.0232 -0.9243
 6767SOL     OW31759   1.979   1.992   3.538 -0.3336  0.3525 -0.1512
 6767SOL    HW131760   2.066   2.023   3.562 -0.7075  2.5024 -1.5331
 6767SOL    HW231761   1.990   1.997   3.443 -1.3600 -0.4358 -0.3175
 6768SOL     OW31762   0.904   3.896   8.828  0.6500 -0.1741  0.0920
 6768SOL    HW131763   0.860   3.979   8.846  0.4585 -0.9634  3.0958
 6768SOL    HW231764   0.847   3.837   8.876  0.8019 -0.6087 -0.2543
 6769SOL     OW31765   1.009   0.244  15.362  0.3428  0.3258 -0.0480
 6769SOL    HW131766   0.941   0.213  15.303  0.4210  1.5968 -0.7977
 6769SOL    HW231767   0.969   0.330  15.374  1.0401  0.9106 -1.8985
 6770SOL     OW31768   1.037   0.496   5.187 -0.1968  0.4317 -0.4724
 6770SOL    HW131769   1.053   0.504   5.093 -0.0891  0.4689 -0.4503
 6770SOL    HW231770   1.073   0.410   5.208 -0.1236  1.3950  3.2271
 6771SOL     OW31771   1.203   2.847   1.971  0.2019  0.4224  0.3008
 6771SOL    HW131772   1.250   2.833   1.889  0.0112 -1.2908  0.4901
 6771SOL    HW231773   1.139   2.915   1.948  1.7260  2.0660  0.9648
 6772SOL     OW31774   0.278   1.363  13.331  0.7136  0.5179 -1.1943
 6772SOL    HW131775   0.214   1.433  13.315 -1.6379 -1.2682  0.4825
 6772SOL    HW231776   0.227   1.289  13.300 -1.2877  1.2693  0.2955
 6773SOL     OW31777   2.556   2.259   9.483 -0.2063 -0.0133  0.6903
 6773SOL    HW131778   2.650   2.275   9.491  0.0554 -0.1653 -1.9272
 6773SOL    HW231779   2.546   2.198   9.556 -0.8953  0.0462  0.6397
 6774SOL     OW31780   1.919   4.504   7.691 -0.3684  0.5689 -0.4399
 6774SOL    HW131781   1.894   4.586   7.733  0.0695 -0.2949  1.5277
 6774SOL    HW231782   1.993   4.470   7.741 -1.2454  0.0088  0.4744
 6775SOL     OW31783   3.710   0.397   6.061 -0.4271 -0.5721  0.3892
 6775SOL    HW131784   3.687   0.332   6.127 -0.5241 -0.2116  0.7115
 6775SOL    HW231785   3.760   0.467   6.105 -0.6718 -0.5667  0.6580
 6776SOL     OW31786   3.766   3.823  10.560  0.3189  0.1139 -0.2416
 6776SOL    HW131787   3.791   3.738  10.596 -0.5442  0.5084  1.2826
 6776SOL    HW231788   3.845   3.874  10.581  1.9442 -3.0671  1.3588
 6777SOL     OW31789   2.952   2.833   7.724  0.2804 -0.3550  0.1806
 6777SOL    HW131790   2.882   2.769   7.737 -0.2537  0.5028  1.5402
 6777SOL    HW231791   2.953   2.839   7.629  3.2843 -1.5509  0.1476
 6778SOL     OW31792   1.186   4.046   6.788 -0.0867 -0.4327  0.2848
 6778SOL    HW131793   1.097   4.016   6.768  0.5406 -2.1474  0.0744
 6778SOL    HW231794   1.237   4.012   6.715  2.4378 -0.3924  2.0259
 6779SOL     OW31795   2.004   3.544   7.910 -0.2680  0.0906 -0.3161
 6779SOL    HW131796   1.984   3.629   7.948  0.0419 -0.2587  0.6338
 6779SOL    HW231797   1.917   3.511   7.889 -0.5918  0.1634  0.8867
 6780SOL     OW31798   3.680   1.129   2.545 -0.0783  0.5781  0.9185
 6780SOL    HW131799   3.711   1.217   2.525 -0.7434  0.5039 -0.3919
 6780SOL    HW231800   3.590   1.142   2.572 -0.7924  0.2414 -1.3094
 6781SOL     OW31801   4.115   0.071   4.043 -0.1417 -0.0668  0.2566
 6781SOL    HW131802   4.185   0.050   4.105 -1.6018 -2.3041  1.1142
 6781SOL    HW231803   4.062   0.122   4.105 -0.1107  0.9902 -0.5884
 6782SOL     OW31804   0.157   1.208   2.016  0.0566 -0.7199 -0.2162
 6782SOL    HW131805   0.212   1.262   1.958 -1.2019 -0.2792 -1.0111
 6782SOL    HW231806   0.081   1.178   1.966 -0.0010  0.2776 -0.7467
 6783SOL     OW31807   0.819   1.403   9.054 -0.1571  0.1440 -0.4510
 6783SOL    HW131808   0.744   1.349   9.081  1.6135 -0.6414  2.9448
 6783SOL    HW231809   0.828   1.475   9.117 -1.9452  1.0329 -1.2227
 6784SOL     OW31810   3.066   1.011  14.477 -0.2991  0.2633 -0.0818
 6784SOL    HW131811   3.131   0.967  14.421  0.7921  0.8094  0.7609
 6784SOL    HW231812   3.065   1.086  14.416 -2.6674  1.1878  1.1070
 6785SOL     OW31813   0.931   0.894   5.283 -0.0338 -0.2771  0.0511
 6785SOL    HW131814   0.896   0.809   5.310  0.7789 -1.1465 -1.6042
 6785SOL    HW231815   1.016   0.853   5.264  0.4961  0.8390  0.0315
 6786SOL     OW31816   2.577   4.449   6.623 -0.0344  0.0970  1.0341
 6786SOL    HW131817   2.528   4.368   6.637 -0.2027 -0.1692 -1.0826
 6786SOL    HW231818   2.572   4.473   6.715 -0.4196 -0.3886  1.1414
 6787SOL     OW31819   4.598   0.489   2.585 -0.2144 -0.2120  0.6542
 6787SOL    HW131820   4.549   0.559   2.628  1.6295  2.4653 -1.6213
 6787SOL    HW231821   4.529   0.430   2.554 -1.0716  1.2094 -0.1516
 6788SOL     OW31822   0.951   4.355   3.953 -0.1435 -0.3029 -0.1457
 6788SOL    HW131823   0.886   4.357   4.023  0.9334 -0.4567  0.8466
 6788SOL    HW231824   0.901   4.312   3.884 -0.3193  1.3636 -1.0471
 6789SOL     OW31825   2.955   0.522   5.172  0.0487 -0.0683  0.2685
 6789SOL    HW131826   2.940   0.437   5.131 -1.8875  0.6699 -0.5495
 6789SOL    HW231827   3.024   0.563   5.120 -0.5167  0.8896  0.2789
 6790SOL     OW31828   0.911   0.370  12.964  0.2363  0.7509  0.1806
 6790SOL    HW131829   0.872   0.285  12.946  0.3210  0.7734 -0.1015
 6790SOL    HW231830   0.974   0.342  13.031  0.5642  0.1111 -0.4019
 6791SOL     OW31831   4.564   2.689   8.010  0.4917 -0.0406 -0.0195
 6791SOL    HW131832   4.505   2.746   8.059 -1.0798 -0.9475 -0.8792
 6791SOL    HW231833   4.604   2.749   7.947 -1.0398  2.0493  1.0168
 6792SOL     OW31834   0.617   4.603   8.542  0.3029 -0.8072 -0.1393
 6792SOL    HW131835   0.634   4.695   8.561  0.6688 -1.0885  0.9272
 6792SOL    HW231836   0.663   4.578   8.462  0.4160 -0.4257 -0.1921
 6793SOL     OW31837   4.465   0.431   5.535 -0.2800 -0.7003 -0.0020
 6793SOL    HW131838   4.514   0.393   5.462  0.9633 -0.2572  0.6172
 6793SOL    HW231839   4.456   0.353   5.590 -0.4579 -0.0749  0.8473
 6794SOL     OW31840   1.545   4.545   3.576 -0.2999 -0.2744 -0.0315
 6794SOL    HW131841   1.520   4.544   3.483  3.6053  1.9950 -1.0583
 6794SOL    HW231842   1.589   4.461   3.585 -1.5062 -0.9865 -0.6381
 6795SOL     OW31843   3.115   2.967   8.360 -0.5263  0.1296  0.6046
 6795SOL    HW131844   3.047   3.021   8.399 -1.3634  0.4313 -1.2456
 6795SOL    HW231845   3.083   2.963   8.269  0.5651 -0.2098  0.2318
 6796SOL     OW31846   2.826   0.734   2.833 -0.2540 -0.1021 -0.0429
 6796SOL    HW131847   2.800   0.654   2.880  2.5345 -1.0000 -0.0173
 6796SOL    HW231848   2.770   0.800   2.874 -0.0045 -1.0269  1.7814
 6797SOL     OW31849   0.511   2.208   8.944 -0.1576  0.5101 -0.2297
 6797SOL    HW131850   0.556   2.181   9.024  0.6964 -0.7453 -1.1401
 6797SOL    HW231851   0.544   2.298   8.937  1.4617  0.0636  1.6504
 6798SOL     OW31852   4.684   2.790   4.474  0.0756  0.1283 -0.1351
 6798SOL    HW131853   4.590   2.782   4.492  0.7818 -0.1637  3.4366
 6798SOL    HW231854   4.675   2.830   4.387 -1.6916  1.6705  0.7869
 6799SOL     OW31855   4.637   0.645  14.469  0.6476  0.0107 -0.5399
 6799SOL    HW131856   4.643   0.716  14.533  1.6607  0.5490 -1.2181
 6799SOL    HW231857   4.593   0.682  14.392 -1.2752  0.7309  0.9167
 6800SOL     OW31858   2.866   3.629   4.320 -0.0588 -0.1123 -0.2155
 6800SOL    HW131859   2.911   3.680   4.387  1.1411 -1.2856 -0.1153
 6800SOL    HW231860   2.774   3.630   4.346 -0.6277 -0.9372 -2.1509
 6801SOL     OW31861   4.382   0.809  12.417  0.0600 -0.6981 -0.4690
 6801SOL    HW131862   4.350   0.877  12.357 -0.8524 -2.0843 -1.5315
 6801SOL    HW231863   4.449   0.768  12.362  0.4242 -0.6064 -0.0958
 6802SOL     OW31864   2.943   1.995   8.962 -0.2270  0.5233  0.0439
 6802SOL    HW131865   2.989   2.001   9.046 -0.2500 -2.0590  0.2407
 6802SOL    HW231866   2.989   2.061   8.910 -0.0887  0.9212  0.6658
 6803SOL     OW31867   1.130   2.352   9.185  0.2657 -0.1305 -0.3021
 6803SOL    HW131868   1.177   2.363   9.268  0.0320 -2.2150  0.1029
 6803SOL    HW231869   1.188   2.375   9.113 -0.2820 -0.5625 -0.8742
 6804SOL     OW31870   3.205   4.590   2.220 -0.0725 -0.5250 -0.5130
 6804SOL    HW131871   3.215   4.524   2.289  0.3210 -1.8903 -1.8480
 6804SOL    HW231872   3.219   4.530   2.146  0.6560  1.2281 -1.7926
 6805SOL     OW31873   3.859   4.705   6.509 -0.0658  0.0184 -0.0017
 6805SOL    HW131874   3.944   4.709   6.553 -0.2427  2.6457  0.1334
 6805SOL    HW231875   3.890   4.722   6.420  3.8069 -2.0010  0.9520
 6806SOL     OW31876   4.004   0.472  16.891 -0.3002  0.1234  0.0597
 6806SOL    HW131877   4.082   0.502  16.938 -0.2992  0.0758  0.0873
 6806SOL    HW231878   4.009   0.523  16.809  1.1219 -1.8636 -1.0678
 6807SOL     OW31879   3.863   3.620   8.780  0.4185  0.2970  0.3745
 6807SOL    HW131880   3.833   3.622   8.871 -1.3396 -0.3221 -0.1823
 6807SOL    HW231881   3.954   3.591   8.786  0.3472  0.6566  3.2782
 6808SOL     OW31882   1.591   2.769  14.015 -0.0222  0.1167 -0.6220
 6808SOL    HW131883   1.522   2.747  14.077 -1.0656  1.2796 -1.3714
 6808SOL    HW231884   1.658   2.736  14.074 -1.2211 -1.3028 -0.0207
 6809SOL     OW31885   3.077   4.368   8.153  0.6035 -0.4101 -0.2364
 6809SOL    HW131886   3.006   4.307   8.136  1.1101 -1.3044  0.8852
 6809SOL    HW231887   3.099   4.394   8.064 -1.2254 -1.3221 -0.9455
 6810SOL     OW31888   3.831   1.841   6.503 -0.3638 -0.4110  0.6411
 6810SOL    HW131889   3.770   1.768   6.506 -1.5056  0.4822 -1.0322
 6810SOL    HW231890   3.788   1.892   6.435 -0.8965 -0.9236  0.5922
 6811SOL     OW31891   2.226   4.654   4.338  0.2391  0.2472 -0.5525
 6811SOL    HW131892   2.162   0.000   4.326  0.9886  0.9161 -0.6826
 6811SOL    HW231893   2.293   4.685   4.277  0.4379 -0.3976 -0.6576
 6812SOL     OW31894   4.266   4.354   7.541  0.2515  0.1403 -0.1432
 6812SOL    HW131895   4.329   4.425   7.529  0.7487 -0.1668  0.6785
 6812SOL    HW231896   4.308   4.286   7.488 -1.5329 -2.7650  2.1497
 6813SOL     OW31897   4.529   4.400   8.344  0.4861  0.0866 -0.3721
 6813SOL    HW131898   4.575   4.361   8.270 -0.3005 -0.6805 -0.4585
 6813SOL    HW231899   4.551   4.352   8.423 -0.0656  1.6141  0.7151
 6814SOL     OW31900   1.748   2.277  10.895  0.0507 -0.2249  0.7179
 6814SOL    HW131901   1.796   2.291  10.814 -0.1600 -0.6359  0.5184
 6814SOL    HW231902   1.698   2.357  10.910 -2.8807 -1.4217 -2.6119
 6815SOL     OW31903   0.329   1.435   9.051  0.7655  1.0413  0.2397
 6815SOL    HW131904   0.352   1.366   8.989  1.3703 -0.2653  1.9101
 6815SOL    HW231905   0.261   1.479   9.000  1.2711  0.0713 -1.2736
 6816SOL     OW31906   0.033   1.292  16.700 -0.8360  0.7705  0.1097
 6816SOL    HW131907   0.063   1.356  16.635  6.2705 -0.7404  1.9341
 6816SOL    HW231908   4.666   1.319  16.716 -0.2901  2.1057  0.8701
 6817SOL     OW31909   2.634   2.035   3.113  0.1303  0.4353  0.6145
 6817SOL    HW131910   2.725   2.062   3.127 -0.0996 -0.2140  3.4129
 6817SOL    HW231911   2.584   2.114   3.135 -2.2761 -1.7078  2.8233
 6818SOL     OW31912   3.523   2.378   5.261  0.3760 -0.1878  0.2426
 6818SOL    HW131913   3.531   2.463   5.306 -2.3817  0.2450 -0.0940
 6818SOL    HW231914   3.595   2.397   5.200 -1.0144  2.2805 -0.6200
 6819SOL     OW31915   4.179   3.503   3.718 -0.2674  0.6546 -0.1230
 6819SOL    HW131916   4.107   3.479   3.775  0.6191 -0.9138  0.3357
 6819SOL    HW231917   4.140   3.474   3.636  0.3358 -0.0036 -0.1756
 6820SOL     OW31918   2.476   1.485   5.396  0.5201  0.1575 -0.5258
 6820SOL    HW131919   2.548   1.508   5.455  0.2754 -0.4646  0.0107
 6820SOL    HW231920   2.459   1.567   5.350 -0.5924 -0.5708 -1.4204
 6821SOL     OW31921   0.344   0.004   5.163 -0.0625  0.0446 -0.6792
 6821SOL    HW131922   0.290   0.069   5.118  0.4598  2.5495  2.2587
 6821SOL    HW231923   0.321   4.647   5.118  0.4234 -0.1815 -0.5254
 6822SOL     OW31924   1.957   2.751  15.588  0.2800 -0.0968  0.1576
 6822SOL    HW131925   1.961   2.675  15.529  0.2246  1.7677 -2.2645
 6822SOL    HW231926   1.889   2.802  15.544 -0.1737 -0.6137  0.2542
 6823SOL     OW31927   4.077   2.947   3.040  0.4725  0.0070 -0.3580
 6823SOL    HW131928   4.085   2.951   2.944 -1.0522  0.5194 -0.4677
 6823SOL    HW231929   3.984   2.931   3.054 -0.3967  1.9568 -3.7967
 6824SOL     OW31930   0.825   0.412   7.009 -0.2678 -0.0443  0.4827
 6824SOL    HW131931   0.751   0.428   6.950  0.3846 -1.9809 -0.8694
 6824SOL    HW231932   0.790   0.451   7.090 -1.5065  0.8718 -0.4990
 6825SOL     OW31933   0.017   0.237   6.508 -0.6755 -0.2161  0.2482
 6825SOL    HW131934   0.071   0.290   6.566 -0.5083 -0.1334  0.0203
 6825SOL    HW231935   0.048   0.268   6.422 -0.9380  0.3572  0.3589
 6826SOL     OW31936   4.705   0.593   6.019 -0.5580  0.1728  0.5391
 6826SOL    HW131937   4.672   0.588   6.109 -0.1661  0.0445  0.6746
 6826SOL    HW231938   4.694   0.686   6.002 -0.3078  0.0201 -0.4691
 6827SOL     OW31939   2.746   0.207   9.678  0.1042  0.4443 -0.5168
 6827SOL    HW131940   2.827   0.236   9.718  0.3316 -0.9601  0.0550
 6827SOL    HW231941   2.762   0.188   9.586 -3.3514 -1.4905 -0.7340
 6828SOL     OW31942   1.876   0.829  13.248  0.0810  0.0088 -0.2649
 6828SOL    HW131943   1.831   0.841  13.332  0.0819  3.0413 -0.6862
 6828SOL    HW231944   1.896   0.919  13.221 -1.1088  0.7428  1.3026
 6829SOL     OW31945   4.336   0.222   2.599 -0.1430  0.1474  0.1874
 6829SOL    HW131946   4.416   0.216   2.545  0.2125 -1.7258  0.9053
 6829SOL    HW231947   4.284   0.221   2.519  1.0653  2.1044 -0.6288
 6830SOL     OW31948   0.760   2.836   0.226 -0.2688 -0.3181  0.0898
 6830SOL    HW131949   0.691   2.902   0.229 -0.6818 -0.7953  1.1014
 6830SOL    HW231950   0.715   2.768   0.176  0.2791 -0.1164 -0.6848
 6831SOL     OW31951   0.259   2.477   0.890  0.0677 -0.2307  0.2293
 6831SOL    HW131952   0.326   2.441   0.832  0.6304 -2.2894  2.1328
 6831SOL    HW231953   0.246   2.399   0.944  0.3986  1.5501  2.8755
 6832SOL     OW31954   0.261   4.404   5.799 -0.4589  0.6434 -0.0727
 6832SOL    HW131955   0.251   4.341   5.727 -0.0907  1.3041 -0.7010
 6832SOL    HW231956   0.230   4.344   5.867 -1.9747  0.8776 -0.5447
 6833SOL     OW31957   3.108   1.662   2.965  0.4241  0.2301 -0.1816
 6833SOL    HW131958   3.024   1.626   2.991  0.2730  0.5146 -0.2856
 6833SOL    HW231959   3.153   1.692   3.045 -0.1600 -0.2382  0.3189
 6834SOL     OW31960   3.564   0.778   5.015 -0.2549  0.1240 -0.0145
 6834SOL    HW131961   3.639   0.805   5.068  0.3825 -1.0243 -0.3247
 6834SOL    HW231962   3.593   0.728   4.939 -1.7182  0.2894 -0.6840
 6835SOL     OW31963   2.907   4.010   8.847  0.6681  0.3434  0.2175
 6835SOL    HW131964   2.941   4.099   8.842  3.2249 -0.6390  0.3219
 6835SOL    HW231965   2.901   3.995   8.942 -0.2644 -0.2800  0.0620
 6836SOL     OW31966   1.715   0.199  10.700 -0.6229 -0.1505  0.6782
 6836SOL    HW131967   1.633   0.181  10.747 -0.9088  0.7583  0.5337
 6836SOL    HW231968   1.722   0.287  10.737 -1.1560 -0.3923  1.3496
 6837SOL     OW31969   4.032   1.986   6.724 -0.1233 -0.0488 -0.3461
 6837SOL    HW131970   3.966   1.930   6.682  2.3273 -0.7716 -3.2060
 6837SOL    HW231971   4.088   1.922   6.768 -0.4503 -0.3613 -0.3799
 6838SOL     OW31972   0.792   3.535   7.549 -0.4095 -0.5578  0.1074
 6838SOL    HW131973   0.840   3.475   7.491  2.5468  1.1411  0.7616
 6838SOL    HW231974   0.724   3.574   7.494 -1.2868 -2.7988 -0.3757
 6839SOL     OW31975   3.944   2.523   8.306  0.5430 -0.4238 -0.0257
 6839SOL    HW131976   3.910   2.496   8.220  0.2636 -0.4435  0.0895
 6839SOL    HW231977   4.030   2.558   8.283  0.0099  1.2282  0.5399
 6840SOL     OW31978   0.360   1.773  14.898 -0.3026  0.1104  1.1283
 6840SOL    HW131979   0.389   1.685  14.919 -2.2070 -0.8329 -0.2033
 6840SOL    HW231980   0.419   1.833  14.944 -0.2755  0.0113  1.2196
 6841SOL     OW31981   3.478   2.316   6.405 -0.0903  0.4731 -0.7336
 6841SOL    HW131982   3.435   2.314   6.490  1.9614 -2.1825  0.2171
 6841SOL    HW231983   3.421   2.259   6.354 -0.6986  1.0648 -0.7226
 6842SOL     OW31984   1.645   1.079   3.699  0.0454  0.6446  0.2869
 6842SOL    HW131985   1.738   1.093   3.716  0.4918 -0.2284 -1.4240
 6842SOL    HW231986   1.595   1.149   3.743 -0.9071  0.9812 -1.3289
 6843SOL     OW31987   4.359   1.076   0.472 -0.4316  0.1583 -0.3202
 6843SOL    HW131988   4.419   1.149   0.456 -1.3047  0.4501 -2.1932
 6843SOL    HW231989   4.394   1.036   0.552  3.0902  0.6463 -1.6088
 6844SOL     OW31990   4.323   3.678   1.665 -0.0785  0.0916  0.8694
 6844SOL    HW131991   4.279   3.625   1.598 -1.7743  1.1953  1.1017
 6844SOL    HW231992   4.417   3.669   1.649 -0.4459 -1.5000 -0.3633
 6845SOL     OW31993   1.667   2.121   7.561 -0.3164 -0.2391  0.0531
 6845SOL    HW131994   1.744   2.106   7.506 -1.2743 -0.2944 -1.2818
 6845SOL    HW231995   1.664   2.034   7.599  0.2829 -0.6724 -0.8815
 6846SOL     OW31996   0.171   3.505  12.410  0.0377  0.2615 -0.4855
 6846SOL    HW131997   0.191   3.417  12.378 -1.4097 -0.1678 -0.2182
 6846SOL    HW231998   0.110   3.531  12.341 -1.1969 -0.7767  0.2135
 6847SOL     OW31999   2.751   2.083   7.280  0.1694  0.4937 -0.3563
 6847SOL    HW132000   2.720   1.993   7.286 -3.2530  1.7507  0.6497
 6847SOL    HW232001   2.786   2.096   7.369 -1.8573  0.4899  0.4418
 6848SOL     OW32002   4.219   2.273   8.800  0.2280 -0.0730  0.3558
 6848SOL    HW132003   4.285   2.296   8.865 -1.6775 -1.0171  2.6251
 6848SOL    HW232004   4.258   2.312   8.723  0.4096  0.8931  0.9378
 6849SOL     OW32005   4.034   4.682  10.773 -0.2151  0.4862  0.1259
 6849SOL    HW132006   4.060   0.050  10.776 -0.6439  0.5797  0.8518
 6849SOL    HW232007   3.977   4.683  10.850 -1.9153 -0.1741 -1.1149
 6850SOL     OW32008   0.618   2.451   9.011  0.1609  0.3723 -0.0588
 6850SOL    HW132009   0.697   2.503   9.022  0.8260 -0.3619 -1.3320
 6850SOL    HW232010   0.555   2.498   9.066 -0.6575 -0.2349 -0.4569
 6851SOL     OW32011   3.006   0.227  15.872  0.0919 -0.0950  0.2385
 6851SOL    HW132012   2.954   0.179  15.936  0.3709 -0.8776 -0.1203
 6851SOL    HW232013   3.094   0.209  15.907  0.7208 -0.6980 -1.6220
 6852SOL     OW32014   2.597   4.093   0.179 -0.5024 -0.1562 -0.2907
 6852SOL    HW132015   2.670   4.139   0.137  1.2752 -2.5216  0.2017
 6852SOL    HW232016   2.604   4.008   0.135 -1.6697 -0.0384 -0.6848
 6853SOL     OW32017   3.764   0.646  11.713 -0.2828 -0.8477  0.3277
 6853SOL    HW132018   3.736   0.711  11.649  0.1487 -1.5549 -0.5839
 6853SOL    HW232019   3.679   0.628  11.751 -1.1075 -3.0922 -2.5560
 6854SOL     OW32020   2.411   3.140   4.762 -0.5781  0.1904 -0.2128
 6854SOL    HW132021   2.365   3.085   4.699 -0.3014  0.0631 -0.3077
 6854SOL    HW232022   2.341   3.168   4.820 -0.9468 -0.7539 -0.2113
 6855SOL     OW32023   1.982   2.382   4.065 -0.3911 -0.3628  0.1585
 6855SOL    HW132024   1.897   2.418   4.041 -0.9258 -1.2972  0.6444
 6855SOL    HW232025   1.948   2.310   4.119 -1.5127  0.2620  0.2761
 6856SOL     OW32026   2.545   3.906  12.666 -0.1889 -0.3875  0.3650
 6856SOL    HW132027   2.530   3.814  12.646  1.5695 -0.9328  1.5478
 6856SOL    HW232028   2.588   3.885  12.749  1.2070  1.5168  0.1112
 6857SOL     OW32029   4.684   1.075   8.427 -0.1958  0.0739 -0.3602
 6857SOL    HW132030   4.703   1.042   8.515  3.0448  0.4064 -0.9378
 6857SOL    HW232031   4.613   1.135   8.450  0.3905  1.5911 -2.5226
 6858SOL     OW32032   3.950   2.859  11.892 -0.2920  0.6060 -0.4411
 6858SOL    HW132033   3.988   2.896  11.812 -0.3647 -0.0499 -0.7795
 6858SOL    HW232034   4.029   2.837  11.942  0.7998  1.9450 -1.5667
 6859SOL     OW32035   3.674   0.323  11.562  0.0758  0.0395  0.0676
 6859SOL    HW132036   3.663   0.410  11.524 -0.0546  0.2183  0.5138
 6859SOL    HW232037   3.584   0.294  11.577 -0.2848  0.6709 -0.9253
 6860SOL     OW32038   4.046   2.715   9.941 -0.2739  0.0903 -0.1179
 6860SOL    HW132039   3.953   2.711   9.919 -0.3495  0.2075  0.1789
 6860SOL    HW232040   4.083   2.777   9.877 -0.3037  2.2787  1.9803
 6861SOL     OW32041   1.292   1.887   6.501  0.7873 -0.7476 -0.1324
 6861SOL    HW132042   1.302   1.852   6.412  0.5966 -0.4629 -0.2692
 6861SOL    HW232043   1.374   1.936   6.498  1.0666 -1.2110  0.0723
 6862SOL     OW32044   0.123   3.288  13.716  0.3714  0.0171  0.1499
 6862SOL    HW132045   0.214   3.276  13.688  0.4369  0.4401  0.1890
 6862SOL    HW232046   0.103   3.381  13.705  0.6581  0.2398  1.5332
 6863SOL     OW32047   1.665   3.902   8.282  0.3180  0.0069  0.0768
 6863SOL    HW132048   1.668   3.944   8.367 -1.3565  2.6029 -1.1521
 6863SOL    HW232049   1.585   3.852   8.300 -0.1307  0.4414 -0.7151
 6864SOL     OW32050   3.347   4.570   2.505  0.1783 -0.1986  0.1895
 6864SOL    HW132051   3.323   4.525   2.586  0.8842 -1.6798 -0.4330
 6864SOL    HW232052   3.394   4.505   2.454 -0.7406 -0.6147 -0.1205
 6865SOL     OW32053   0.173   1.158   9.249  0.2713  0.4275 -0.1647
 6865SOL    HW132054   0.177   1.254   9.242  0.2272  0.4492  0.1057
 6865SOL    HW232055   0.246   1.141   9.309  0.2420 -0.3581 -0.3625
 6866SOL     OW32056   1.680   0.144   4.712  0.7408 -0.4791 -1.0354
 6866SOL    HW132057   1.763   0.121   4.755 -0.2276  1.4406  1.8440
 6866SOL    HW232058   1.663   0.233   4.742  1.6485 -0.1641 -1.4521
 6867SOL     OW32059   3.971   2.375   2.778 -0.5148  0.0133  0.5066
 6867SOL    HW132060   4.043   2.429   2.812  0.4887 -0.9040 -0.1515
 6867SOL    HW232061   3.991   2.299   2.832  3.1065  1.3324  1.0675
 6868SOL     OW32062   1.155   2.545   4.309  0.4440  0.0505  0.6003
 6868SOL    HW132063   1.123   2.456   4.322 -0.3694  0.1476 -0.7121
 6868SOL    HW232064   1.198   2.554   4.394 -1.5415  1.3308  1.4674
 6869SOL     OW32065   3.517   3.359   3.710  0.0368 -0.3112 -0.2959
 6869SOL    HW132066   3.539   3.449   3.736  0.4095 -0.8972  1.4629
 6869SOL    HW232067   3.585   3.353   3.644 -0.8076 -3.1289 -0.9308
 6870SOL     OW32068   2.746   2.484  12.809  0.5590  0.0029 -0.4141
 6870SOL    HW132069   2.669   2.456  12.760  0.7508  0.9976 -1.2754
 6870SOL    HW232070   2.774   2.393  12.825 -0.9166 -0.5244 -0.8805
 6871SOL     OW32071   1.231   3.087   8.404  0.1771 -0.0900  0.2316
 6871SOL    HW132072   1.259   3.177   8.389 -2.7908  0.4106 -2.3605
 6871SOL    HW232073   1.199   3.089   8.494  0.1800 -1.4380  0.2638
 6872SOL     OW32074   0.083   3.921  10.919 -0.5724 -0.4149  0.5961
 6872SOL    HW132075   0.024   3.871  10.863 -2.1332  0.5662  1.3844
 6872SOL    HW232076   0.127   3.851  10.968 -2.1876 -0.6707  1.6572
 6873SOL     OW32077   0.784   1.789  16.795  0.5869 -0.8216 -0.3517
 6873SOL    HW132078   0.837   1.724  16.748  0.9394 -0.5011 -0.4030
 6873SOL    HW232079   0.750   1.842  16.723 -2.4466 -0.6392  1.2258
 6874SOL     OW32080   4.503   0.703   5.331  0.2214  0.2368  0.0412
 6874SOL    HW132081   4.505   0.751   5.248 -1.8957 -1.3872 -0.9250
 6874SOL    HW232082   4.596   0.714   5.350  0.5433 -0.4089 -1.1299
 6875SOL     OW32083   1.446   2.104   3.148  0.5261 -0.1287 -1.1055
 6875SOL    HW132084   1.489   2.020   3.130 -1.1950 -1.4797  1.0325
 6875SOL    HW232085   1.499   2.161   3.093  1.2366 -0.3133 -0.6148
 6876SOL     OW32086   4.134   0.405   9.584  0.0869  0.3965 -0.4932
 6876SOL    HW132087   4.212   0.373   9.538  0.5666 -0.7015  1.0688
 6876SOL    HW232088   4.171   0.476   9.637  0.6106 -1.6227  1.8512
 6877SOL     OW32089   2.902   0.214  10.075 -0.2754  0.4744 -0.0157
 6877SOL    HW132090   2.937   0.222   9.986 -0.0661  0.9318  0.1069
 6877SOL    HW232091   2.807   0.213  10.067 -0.4696  0.5665  2.2672
 6878SOL     OW32092   1.114   1.619   3.572 -0.2927 -0.2464  0.3228
 6878SOL    HW132093   1.177   1.681   3.537  0.2958  0.0694  1.9452
 6878SOL    HW232094   1.029   1.663   3.569 -0.5936 -0.8739 -0.2282
 6879SOL     OW32095   0.763   1.858   8.751  0.3975  0.7514 -0.1912
 6879SOL    HW132096   0.674   1.888   8.734  0.0135 -0.0954  0.3274
 6879SOL    HW232097   0.760   1.845   8.846 -1.7359 -0.4118 -0.4233
 6880SOL     OW32098   4.640   0.533  17.096 -0.0676 -0.2538 -0.1077
 6880SOL    HW132099   4.557   0.560  17.135  0.8166  2.7860 -0.3421
 6880SOL    HW232100   4.667   0.472  17.165  0.8915 -1.6295 -1.6849
 6881SOL     OW32101   3.987   2.697   7.101 -0.2022 -0.0199 -0.2956
 6881SOL    HW132102   4.012   2.772   7.047  2.8462 -0.7997  0.0565
 6881SOL    HW232103   3.963   2.743   7.181 -2.9717 -1.2445 -0.4280
 6882SOL     OW32104   2.920   3.707   9.979 -0.1046  0.8025  0.1123
 6882SOL    HW132105   2.850   3.644   9.991 -1.2235  1.9611 -0.3980
 6882SOL    HW232106   2.991   3.642   9.978  0.4972  1.4414  2.3047
 6883SOL     OW32107   0.165   1.611   9.775 -0.0617 -0.7215  0.3713
 6883SOL    HW132108   0.198   1.685   9.826 -0.3339 -0.4393  0.1372
 6883SOL    HW232109   0.070   1.611   9.789  0.0462  0.3782  1.1742
 6884SOL     OW32110   0.941   3.958   2.660 -0.5089 -0.6282  0.7204
 6884SOL    HW132111   0.948   3.978   2.567 -3.9820 -0.9224  0.3625
 6884SOL    HW232112   0.932   3.863   2.653 -0.0307 -0.6633  0.6278
 6885SOL     OW32113   1.744   0.700   3.852  0.1980  0.3004 -0.1559
 6885SOL    HW132114   1.733   0.623   3.908 -1.2582  1.1060  0.6454
 6885SOL    HW232115   1.833   0.680   3.822 -0.1202 -0.4873 -0.5881
 6886SOL     OW32116   0.605   2.412   6.404 -0.1266 -0.1758  0.2305
 6886SOL    HW132117   0.693   2.431   6.435  0.7828 -0.7707 -1.9817
 6886SOL    HW232118   0.625   2.404   6.311 -1.2292  0.8561 -0.1014
 6887SOL     OW32119   1.416   0.267  13.924 -0.2501  0.3187  0.0644
 6887SOL    HW132120   1.387   0.262  14.015 -2.2470  1.5299 -0.4948
 6887SOL    HW232121   1.405   0.361  13.911  1.3072  0.7316  1.8376
 6888SOL     OW32122   3.156   0.005   9.656 -0.3106 -0.3203 -0.2460
 6888SOL    HW132123   3.153   4.699   9.566 -0.5457  1.8699 -0.9616
 6888SOL    HW232124   3.145   0.097   9.633 -4.8290 -0.7929 -0.1152
 6889SOL     OW32125   4.633   2.956  14.176  0.5017 -0.2388  0.5760
 6889SOL    HW132126   4.621   3.020  14.106 -1.8993  0.0518  1.2650
 6889SOL    HW232127   4.553   2.981  14.222 -0.0484 -0.8590 -0.0510
 6890SOL     OW32128   1.217   3.923   0.035  0.2946 -0.1301  0.3070
 6890SOL    HW132129   1.162   3.896   0.109  0.1818 -0.8606 -0.0451
 6890SOL    HW232130   1.258   3.840   0.009  1.7085  0.6169  0.1647
 6891SOL     OW32131   3.123   1.393   7.432  0.4906 -0.0381 -0.0883
 6891SOL    HW132132   3.075   1.448   7.494  1.0690 -0.5991  0.8664
 6891SOL    HW232133   3.188   1.353   7.490 -0.0422 -0.2806  0.3455
 6892SOL     OW32134   3.173   0.373   0.302 -0.4179  0.2117 -0.1793
 6892SOL    HW132135   3.170   0.388   0.396  0.2878  0.5564 -0.2122
 6892SOL    HW232136   3.152   0.459   0.265  0.1179 -0.2236 -1.4948
 6893SOL     OW32137   2.424   2.834   3.985  0.5799  0.0626 -0.4664
 6893SOL    HW132138   2.388   2.903   4.040 -0.6185 -1.0620  0.1519
 6893SOL    HW232139   2.393   2.871   3.902 -1.0427 -1.3078 -0.4489
 6894SOL     OW32140   3.193   2.279   5.431 -0.3110  0.2147  0.3379
 6894SOL    HW132141   3.216   2.361   5.388  1.8639 -0.2338  0.6453
 6894SOL    HW232142   3.222   2.303   5.518 -3.1589 -0.7522  1.5719
 6895SOL     OW32143   2.854   0.728   2.156  0.3321 -0.3340  0.4573
 6895SOL    HW132144   2.868   0.744   2.250  3.4476 -2.5004  0.3546
 6895SOL    HW232145   2.943   0.711   2.126  0.8744 -2.2837  3.1246
 6896SOL     OW32146   3.025   1.090  16.874 -0.0558 -0.1833  0.5654
 6896SOL    HW132147   2.966   1.153  16.833  1.5420 -0.2330 -1.8272
 6896SOL    HW232148   3.053   1.043  16.794  0.2818  0.8001  0.1074
 6897SOL     OW32149   0.759   2.239   4.267  0.1709  0.3927  0.0914
 6897SOL    HW132150   0.715   2.323   4.275 -2.0396 -0.8042  0.5258
 6897SOL    HW232151   0.692   2.193   4.216 -0.4657  0.0988  1.1932
 6898SOL     OW32152   2.138   2.537   0.934  0.4426  0.5217 -0.3589
 6898SOL    HW132153   2.104   2.565   1.019  1.9339 -0.2754  0.4976
 6898SOL    HW232154   2.071   2.567   0.873  0.6802 -0.8405 -1.2985
 6899SOL     OW32155   3.015   3.847   8.653 -0.2209 -0.0553  0.3549
 6899SOL    HW132156   3.033   3.787   8.726  0.1454 -1.1550 -0.6368
 6899SOL    HW232157   2.985   3.920   8.706 -2.2312  0.7431 -1.8945
 6900SOL     OW32158   3.229   2.530   5.325 -0.1969  0.2681  0.7892
 6900SOL    HW132159   3.304   2.575   5.287 -0.4024 -0.0292  0.0395
 6900SOL    HW232160   3.191   2.601   5.377 -0.7586 -0.1484  0.9451
 6901SOL     OW32161   2.667   3.477   5.201  0.2066  0.2026 -0.0472
 6901SOL    HW132162   2.595   3.445   5.256 -1.2905 -1.0148 -2.6769
 6901SOL    HW232163   2.642   3.432   5.119  0.6947  1.3312 -0.8083
 6902SOL     OW32164   4.552   2.707   6.910  0.0344  0.0686 -0.1736
 6902SOL    HW132165   4.535   2.763   6.986 -1.0593  0.4476 -0.7001
 6902SOL    HW232166   4.645   2.689   6.921 -0.1117 -0.3715  0.3531
 6903SOL     OW32167   4.367   1.353  13.487  0.1201 -0.6010  0.1176
 6903SOL    HW132168   4.324   1.287  13.541 -0.5800 -0.5274 -0.3523
 6903SOL    HW232169   4.345   1.432  13.537 -1.3421 -0.9365 -0.0048
 6904SOL     OW32170   0.429   0.673   9.193 -0.1471  0.5637 -0.6266
 6904SOL    HW132171   0.341   0.637   9.205  1.4073 -2.5042  1.4447
 6904SOL    HW232172   0.474   0.658   9.276  4.7996  5.0717 -2.4430
 6905SOL     OW32173   3.912   4.721   6.913 -0.2050  0.5727  0.6670
 6905SOL    HW132174   3.961   4.695   6.835  2.2025 -0.9924  2.7173
 6905SOL    HW232175   3.829   0.002   6.866 -1.1416 -0.7344  2.2288
 6906SOL     OW32176   4.674   1.342  15.362  0.1881 -0.6003  0.4562
 6906SOL    HW132177   4.599   1.394  15.336 -0.6623 -1.4912  1.0866
 6906SOL    HW232178   0.024   1.396  15.334  1.9502 -2.7372  0.8794
 6907SOL     OW32179   0.557   3.340  13.001 -0.1965 -0.5911 -0.3126
 6907SOL    HW132180   0.533   3.404  12.934  0.6089  1.1014  1.0010
 6907SOL    HW232181   0.474   3.299  13.026  0.5016 -0.6833  1.8796
 6908SOL     OW32182   2.315   1.735   5.565 -0.3170 -0.4735  0.4505
 6908SOL    HW132183   2.255   1.662   5.551  0.7098 -0.5855 -3.5360
 6908SOL    HW232184   2.392   1.688   5.597  0.3715  0.8136  0.6913
 6909SOL     OW32185   3.633   2.852   3.619 -0.5587  0.0415 -0.5452
 6909SOL    HW132186   3.561   2.907   3.589 -1.8760 -1.8068 -0.7864
 6909SOL    HW232187   3.580   2.782   3.656  0.1699  0.0767  0.5679
 6910SOL     OW32188   1.574   4.640  10.456 -0.6674  0.0662 -0.5194
 6910SOL    HW132189   1.582   4.545  10.444 -1.0531 -0.1502  0.8954
 6910SOL    HW232190   1.561   4.646  10.551 -0.0451  1.0676 -0.4976
 6911SOL     OW32191   3.562   2.134   5.335 -0.2949  0.2861  0.5586
 6911SOL    HW132192   3.521   2.218   5.314 -0.8044 -0.3154 -0.8607
 6911SOL    HW232193   3.500   2.082   5.284 -0.6784  0.8152  0.4996
 6912SOL     OW32194   0.423   1.255   9.647 -0.6519  0.2691 -0.2622
 6912SOL    HW132195   0.413   1.267   9.741 -0.3110 -1.1093 -0.0649
 6912SOL    HW232196   0.493   1.192   9.628 -0.5779 -0.1007  1.2722
 6913SOL     OW32197   3.595   1.114   7.256  0.7713 -0.6303  0.2628
 6913SOL    HW132198   3.675   1.148   7.296  1.6357 -3.2813  0.7631
 6913SOL    HW232199   3.545   1.089   7.333 -1.4804  1.5970 -0.4750
 6914SOL     OW32200   2.862   3.507   5.970  0.0411 -0.1606 -0.0759
 6914SOL    HW132201   2.819   3.423   5.955  0.3656 -0.2246 -0.6242
 6914SOL    HW232202   2.809   3.540   6.043  2.3178 -1.3864  2.1001
 6915SOL     OW32203   1.557   1.859   2.434 -0.1367 -0.4425 -0.7638
 6915SOL    HW132204   1.559   1.913   2.354 -2.5243  0.9217  0.0995
 6915SOL    HW232205   1.468   1.870   2.466  0.8670  0.3200  1.7813
 6916SOL     OW32206   1.517   0.006   1.218 -0.0524  0.2920  0.4976
 6916SOL    HW132207   1.501   0.019   1.312 -0.8608  2.1174  0.0979
 6916SOL    HW232208   1.447   4.667   1.200  0.4467 -0.1566  0.1320
 6917SOL     OW32209   4.138   3.949  13.121  0.4028 -0.2466  0.3007
 6917SOL    HW132210   4.214   3.893  13.137 -0.6307 -1.4552  0.9050
 6917SOL    HW232211   4.194   4.019  13.087  0.5752  1.3234  3.8722
 6918SOL     OW32212   1.320   1.962  13.550  0.2100 -0.2120 -0.2563
 6918SOL    HW132213   1.415   1.961  13.557  0.2032  0.6529 -0.0644
 6918SOL    HW232214   1.296   1.970  13.643  0.5642  1.3837 -0.3045
 6919SOL     OW32215   4.612   1.561   5.340 -0.4311 -0.3104  0.2157
 6919SOL    HW132216   4.589   1.649   5.310 -3.5987 -0.9122  0.8813
 6919SOL    HW232217   4.609   1.515   5.256  1.5555  1.2300 -0.7061
 6920SOL     OW32218   2.416   2.031   2.507 -0.6216 -0.3910 -0.4133
 6920SOL    HW132219   2.474   2.054   2.434 -0.9946 -1.0612 -0.9197
 6920SOL    HW232220   2.331   2.046   2.466 -1.5512  0.0162  1.6942
 6921SOL     OW32221   4.568   3.625  15.345 -0.2326  0.1221 -0.1112
 6921SOL    HW132222   4.625   3.686  15.391 -1.0105  0.1665  0.7711
 6921SOL    HW232223   4.633   3.582  15.288 -0.9550  1.1920 -1.7234
 6922SOL     OW32224   3.830   2.875   4.869  0.0737  1.0633  0.3404
 6922SOL    HW132225   3.832   2.967   4.893 -0.6317  1.2040 -0.1355
 6922SOL    HW232226   3.826   2.879   4.774  1.5965  0.0391  0.2307
 6923SOL     OW32227   3.821   4.626   5.716  0.1283  0.1345 -0.1563
 6923SOL    HW132228   3.758   4.659   5.780 -0.9187  0.0355 -1.1406
 6923SOL    HW232229   3.881   4.698   5.697 -0.2506  0.3423 -0.5675
 6924SOL     OW32230   3.434   3.003   3.520 -0.3574 -0.5466  0.8902
 6924SOL    HW132231   3.346   2.982   3.552 -0.1300 -0.9613  1.2333
 6924SOL    HW232232   3.435   3.099   3.518 -1.3865 -0.4968  3.0297
 6925SOL     OW32233   1.715   3.815  14.889 -0.4061 -0.0301 -0.0929
 6925SOL    HW132234   1.659   3.822  14.812 -0.1898  0.8937 -0.1638
 6925SOL    HW232235   1.669   3.879  14.944 -0.8251 -0.3805 -0.0411
 6926SOL     OW32236   2.436   0.586   6.857  0.8973  0.3673 -0.0669
 6926SOL    HW132237   2.419   0.510   6.802  1.3825  0.5241 -0.4383
 6926SOL    HW232238   2.347   0.605   6.884  0.8680 -1.5309  1.1779
 6927SOL     OW32239   1.989   1.828   8.801 -0.0087 -0.0139 -0.0944
 6927SOL    HW132240   1.924   1.887   8.763  0.2291 -0.0089 -0.4994
 6927SOL    HW232241   2.069   1.861   8.759  0.5657 -0.9849  0.2418
 6928SOL     OW32242   4.348   0.281   3.121 -0.3526 -0.1538 -0.3721
 6928SOL    HW132243   4.359   0.223   3.045  0.9716 -0.4748  0.0605
 6928SOL    HW232244   4.270   0.329   3.093  0.2593  1.3503  0.5515
 6929SOL     OW32245   2.536   2.758   6.058  0.1012 -0.6363  0.5300
 6929SOL    HW132246   2.622   2.718   6.049  0.2166 -0.4256  0.6741
 6929SOL    HW232247   2.502   2.726   5.974 -0.6238  2.3443 -0.3263
 6930SOL     OW32248   0.160   0.986   2.460 -0.1091 -0.2515  0.3076
 6930SOL    HW132249   0.075   1.017   2.430  0.6573  2.2136  0.6818
 6930SOL    HW232250   0.140   0.892   2.456 -2.2685  0.3156 -1.7819
 6931SOL     OW32251   2.067   1.445   6.455  0.0669 -0.3192 -0.4285
 6931SOL    HW132252   2.061   1.451   6.551 -0.5127  3.3633 -0.6896
 6931SOL    HW232253   1.995   1.388   6.430 -1.9916  1.2047  1.9926
 6932SOL     OW32254   1.796   2.891   1.267  0.2229  0.5880 -0.1363
 6932SOL    HW132255   1.860   2.821   1.254  1.1774  0.8910  2.9102
 6932SOL    HW232256   1.780   2.929   1.181 -2.1377  0.2218  0.1419
 6933SOL     OW32257   0.944   4.630   4.843  0.0824  0.6040  0.1636
 6933SOL    HW132258   0.857   4.643   4.806  0.1819  2.4890  0.5961
 6933SOL    HW232259   0.992   4.702   4.801  1.6758  0.4403  1.7036
 6934SOL     OW32260   3.436   3.519  16.803  0.2698  0.8296  0.0053
 6934SOL    HW132261   3.368   3.462  16.839  2.7430 -0.5525  2.5261
 6934SOL    HW232262   3.515   3.504  16.855  0.8206 -1.8409 -1.5857
 6935SOL     OW32263   3.650   3.131  13.502 -1.1476 -0.0081 -0.1470
 6935SOL    HW132264   3.612   3.046  13.524  0.7077 -0.7121  0.3375
 6935SOL    HW232265   3.582   3.185  13.542 -0.3498  1.6415 -0.9740
 6936SOL     OW32266   0.553   4.276   7.351  0.0639 -0.2185 -0.0792
 6936SOL    HW132267   0.489   4.234   7.293 -1.1719  1.9853 -0.3243
 6936SOL    HW232268   0.618   4.322   7.297 -0.5681 -0.9350 -1.4620
 6937SOL     OW32269   1.829   1.318   6.897  0.5580 -0.1075  0.1365
 6937SOL    HW132270   1.787   1.322   6.810  0.3455 -1.2064  0.1898
 6937SOL    HW232271   1.916   1.351   6.875  1.3559 -1.5963  1.0704
 6938SOL     OW32272   0.506   4.116   4.495  0.6779  0.0271  0.5582
 6938SOL    HW132273   0.472   4.202   4.471 -0.6840 -1.2002 -1.9508
 6938SOL    HW232274   0.568   4.104   4.423 -1.4066 -1.4878 -1.0290
 6939SOL     OW32275   1.930   2.665   5.818 -0.3607  0.2730  0.0861
 6939SOL    HW132276   1.882   2.583   5.807  1.3490 -1.0194  2.6048
 6939SOL    HW232277   1.978   2.671   5.735  1.2295  1.7257  1.1175
 6940SOL     OW32278   1.347   0.187  15.811  0.1330  0.1002 -0.2349
 6940SOL    HW132279   1.318   0.278  15.812  0.5907  0.2287  1.1234
 6940SOL    HW232280   1.424   0.197  15.755  0.7240 -1.9262  0.2105
 6941SOL     OW32281   2.766   2.967   2.941 -0.0109 -0.3418 -0.4639
 6941SOL    HW132282   2.729   2.894   2.892  0.7600 -0.4223 -0.9293
 6941SOL    HW232283   2.737   2.936   3.026  0.0404 -0.1356 -0.3694
 6942SOL     OW32284   0.346   2.649   0.265  0.3580  0.7752 -0.2124
 6942SOL    HW132285   0.289   2.723   0.245  1.1168  1.9889  2.0959
 6942SOL    HW232286   0.432   2.683   0.243  1.1386 -0.1783  1.3687
 6943SOL     OW32287   2.198   1.968   8.682 -0.3719  0.3531 -0.1741
 6943SOL    HW132288   2.211   2.045   8.627 -1.0130 -0.1958 -1.0815
 6943SOL    HW232289   2.181   2.012   8.765  1.0712  2.1217 -0.7979
 6944SOL     OW32290   4.381   0.175   6.289  0.5427 -0.1361  0.0541
 6944SOL    HW132291   4.318   0.196   6.220 -0.9214 -0.6008  1.2476
 6944SOL    HW232292   4.317   0.184   6.360  0.2102  2.2407 -0.5395
 6945SOL     OW32293   3.604   2.942  16.121  0.1105  0.2587  0.2328
 6945SOL    HW132294   3.636   2.907  16.038  1.2846 -0.7067  1.0995
 6945SOL    HW232295   3.640   3.030  16.110  0.6610  0.0596  0.4839
 6946SOL     OW32296   0.171   1.144  10.985 -0.6242  0.3373  0.1849
 6946SOL    HW132297   0.167   1.051  10.962  0.0404  0.1613  0.7909
 6946SOL    HW232298   0.178   1.183  10.898  0.4340 -0.8959 -0.2809
 6947SOL     OW32299   2.191   3.102   4.283 -0.0874 -0.0049 -0.1072
 6947SOL    HW132300   2.111   3.076   4.238 -1.7254 -1.1749  3.4519
 6947SOL    HW232301   2.163   3.183   4.327 -0.5404 -0.9780  1.3886
 6948SOL     OW32302   3.553   0.824   2.275 -0.5463  0.5199  0.6894
 6948SOL    HW132303   3.610   0.750   2.252 -0.3785  1.6043 -2.3349
 6948SOL    HW232304   3.507   0.841   2.193 -0.8516 -2.0693  0.3146
 6949SOL     OW32305   3.819   1.872   9.331 -0.3980  0.2806 -0.1596
 6949SOL    HW132306   3.900   1.836   9.296 -1.9221 -1.8377 -1.5215
 6949SOL    HW232307   3.797   1.946   9.274 -1.2020  1.5160  1.7258
 6950SOL     OW32308   2.706   2.120   9.126  0.3481 -0.7085  0.6064
 6950SOL    HW132309   2.777   2.134   9.063  1.2800 -1.4540  1.4941
 6950SOL    HW232310   2.648   2.063   9.075 -1.0705 -0.9868  2.5551
 6951SOL     OW32311   4.181   0.082   7.227  0.4350  0.1165 -0.0692
 6951SOL    HW132312   4.144   0.116   7.309 -0.5005 -1.3759  0.1261
 6951SOL    HW232313   4.238   0.013   7.258 -1.0809 -1.9865 -2.0035
 6952SOL     OW32314   1.816   1.417   6.072  0.2868  0.6300 -0.3743
 6952SOL    HW132315   1.907   1.443   6.062  1.2816 -2.4438  0.6541
 6952SOL    HW232316   1.796   1.384   5.984  1.3921 -0.8963 -0.0686
 6953SOL     OW32317   0.184   1.299   3.621 -0.1470  0.0423  0.2894
 6953SOL    HW132318   0.165   1.206   3.631  2.2212 -0.5773 -1.1362
 6953SOL    HW232319   0.227   1.313   3.705  0.5129  0.9472 -0.2049
 6954SOL     OW32320   1.944   0.081   7.192 -0.4776 -0.3209  0.0869
 6954SOL    HW132321   2.029   0.100   7.230  0.2627 -1.4201 -1.0088
 6954SOL    HW232322   1.935   0.155   7.132 -0.6400 -0.4434 -0.0412
 6955SOL     OW32323   2.257   0.065   4.926 -0.4156  0.0524 -0.3446
 6955SOL    HW132324   2.311   0.085   5.002  0.2011  1.6641 -1.1967
 6955SOL    HW232325   2.262   4.693   4.924 -0.6025  0.0083  1.1559
 6956SOL     OW32326   3.491   2.921   6.459  0.0286  0.2701 -0.3853
 6956SOL    HW132327   3.517   2.895   6.547 -1.3813 -1.4861 -0.4741
 6956SOL    HW232328   3.439   3.001   6.467  2.7094  1.8745  0.9339
 6957SOL     OW32329   4.456   1.033   2.076 -0.2265 -1.1767 -0.2150
 6957SOL    HW132330   4.478   1.125   2.086  0.8467 -1.5084  0.4214
 6957SOL    HW232331   4.370   1.034   2.032 -1.0045 -0.5419  1.3294
 6958SOL     OW32332   1.512   0.498  11.427 -0.3174  0.1262  0.3317
 6958SOL    HW132333   1.444   0.496  11.359  0.8673 -0.7248 -0.8191
 6958SOL    HW232334   1.478   0.443  11.497 -1.1343 -2.5316 -2.1387
 6959SOL     OW32335   1.186   0.327  16.584  0.3137 -0.4117 -0.1365
 6959SOL    HW132336   1.240   0.400  16.616 -3.5638  2.5671 -0.3481
 6959SOL    HW232337   1.191   0.340  16.490 -0.3147  0.4494 -0.0535
 6960SOL     OW32338   3.131   0.693   2.093 -0.5990 -0.3040  0.6961
 6960SOL    HW132339   3.131   0.609   2.046  0.6248  1.9221 -3.3040
 6960SOL    HW232340   3.222   0.696   2.124 -1.4821 -0.5628  3.2570
 6961SOL     OW32341   4.138   2.207   5.471  0.2515  0.4432 -0.3352
 6961SOL    HW132342   4.136   2.269   5.398 -0.6160 -1.4515 -1.9232
 6961SOL    HW232343   4.232   2.188   5.468  0.0641 -0.4835 -0.4562
 6962SOL     OW32344   4.342   3.414  13.835  0.6496 -0.2484 -0.1403
 6962SOL    HW132345   4.324   3.508  13.828  0.4223 -0.4558 -2.2926
 6962SOL    HW232346   4.434   3.426  13.860  0.3084 -0.5882  1.2593
 6963SOL     OW32347   4.257   1.769  10.669 -0.0126  0.8214  0.7226
 6963SOL    HW132348   4.224   1.751  10.757 -0.4609 -1.8014  0.0239
 6963SOL    HW232349   4.348   1.778  10.697  0.1612 -2.7270  1.2860
 6964SOL     OW32350   3.477   4.387   3.481  0.7919 -0.8416  0.5438
 6964SOL    HW132351   3.382   4.382   3.483  0.7060  0.1460 -0.7996
 6964SOL    HW232352   3.513   4.308   3.442 -1.7611 -0.9481 -1.6385
 6965SOL     OW32353   1.576   3.564   6.036 -0.4207  0.3133 -0.4048
 6965SOL    HW132354   1.621   3.638   5.994 -1.5740  1.7011  0.8077
 6965SOL    HW232355   1.651   3.513   6.065  1.6102  2.7716 -1.2749
 6966SOL     OW32356   1.285   1.421   3.680 -0.0089  0.0157  0.5367
 6966SOL    HW132357   1.340   1.366   3.625  0.3683  1.6979 -0.7517
 6966SOL    HW232358   1.252   1.477   3.610 -1.1502  0.0991  1.1395
 6967SOL     OW32359   0.802   4.394   5.691 -0.2183 -0.2816 -0.0564
 6967SOL    HW132360   0.770   4.418   5.604  1.4122  0.9992 -0.2946
 6967SOL    HW232361   0.809   4.483   5.725 -0.1009  0.4816 -2.0581
 6968SOL     OW32362   4.518   1.655   6.483 -0.1738 -0.5924 -0.4682
 6968SOL    HW132363   4.612   1.666   6.470  0.1422 -0.4732  1.9090
 6968SOL    HW232364   4.481   1.732   6.440  0.2342  0.2481  0.7201
 6969SOL     OW32365   2.827   2.847   3.909  0.1924 -0.0001 -0.4120
 6969SOL    HW132366   2.734   2.855   3.930  0.5382 -1.2893  1.6309
 6969SOL    HW232367   2.849   2.934   3.878 -0.3064  0.3935  0.3460
 6970SOL     OW32368   3.815   0.978  13.622 -0.4105 -0.2184  0.6410
 6970SOL    HW132369   3.766   0.961  13.703 -0.6680  1.8647  0.9224
 6970SOL    HW232370   3.835   0.890  13.588  0.7665  0.7864 -1.2781
 6971SOL     OW32371   2.490   3.403  10.080 -0.1504  0.8216 -0.6578
 6971SOL    HW132372   2.460   3.488  10.111  0.7559  1.6249 -1.9464
 6971SOL    HW232373   2.578   3.435  10.057  0.5782 -0.9204 -0.3375
 6972SOL     OW32374   2.924   1.522   9.910  0.3692  0.3705 -0.6083
 6972SOL    HW132375   2.988   1.483   9.850  1.3772  0.3372  0.4948
 6972SOL    HW232376   2.923   1.610   9.873  0.2810  1.0396  0.9892
 6973SOL     OW32377   0.996   1.490   3.816  0.3554  0.3454  0.5483
 6973SOL    HW132378   1.060   1.511   3.884  0.9663 -0.0300  0.0911
 6973SOL    HW232379   1.030   1.536   3.739  0.7859 -0.3823  0.3075
 6974SOL     OW32380   2.210   4.647   3.514 -0.2795  0.8185  0.2006
 6974SOL    HW132381   2.167   0.002   3.547 -2.1942  0.8066 -2.2798
 6974SOL    HW232382   2.290   4.642   3.566  0.5059  0.8839 -1.0013
 6975SOL     OW32383   0.319   2.066   8.519  0.6937 -0.2326 -0.4311
 6975SOL    HW132384   0.244   2.119   8.546  0.0206 -2.0289  1.2587
 6975SOL    HW232385   0.326   2.004   8.592 -0.1098 -1.0269 -1.0177
 6976SOL     OW32386   0.171   0.611   4.254  0.0056  0.3218  0.3442
 6976SOL    HW132387   0.247   0.664   4.229 -1.6417  0.7995 -3.6163
 6976SOL    HW232388   0.129   0.597   4.170 -0.1973  0.0612  0.4894
 6977SOL     OW32389   2.874   3.922   4.922 -0.4493 -0.4824  0.6759
 6977SOL    HW132390   2.905   3.919   5.012  0.0956  0.6285  0.5196
 6977SOL    HW232391   2.796   3.868   4.930 -3.4862  3.5435 -1.5485
 6978SOL     OW32392   0.069   0.513   5.252  0.3604 -0.0714 -0.3512
 6978SOL    HW132393   0.110   0.530   5.337  0.0395 -0.2616 -0.1565
 6978SOL    HW232394   0.071   0.604   5.223 -0.1990 -0.0157 -0.2249
 6979SOL     OW32395   3.542   0.899   5.524  0.0463 -0.6898  0.0308
 6979SOL    HW132396   3.610   0.914   5.589 -0.1925 -1.7771  0.5302
 6979SOL    HW232397   3.497   0.984   5.524 -2.1923 -1.8651  1.1030
 6980SOL     OW32398   3.356   1.623   4.925  0.1705  0.1064  0.4011
 6980SOL    HW132399   3.414   1.585   4.859 -0.2227 -0.3604  0.3164
 6980SOL    HW232400   3.272   1.603   4.882  0.5779  0.8481 -0.7207
 6981SOL     OW32401   4.139   3.573   5.657 -1.0925 -0.0892  0.2981
 6981SOL    HW132402   4.209   3.511   5.679  0.5632  1.3701 -0.8292
 6981SOL    HW232403   4.106   3.604   5.741 -2.3552  3.1375 -1.3877
 6982SOL     OW32404   2.137   3.179   7.625 -0.1032 -0.3735  0.0131
 6982SOL    HW132405   2.084   3.236   7.569 -0.7654 -1.3458 -0.3316
 6982SOL    HW232406   2.171   3.234   7.696  1.9475 -1.0723 -0.4294
 6983SOL     OW32407   4.561   2.999  15.183  0.0991  0.0218 -0.0795
 6983SOL    HW132408   4.609   3.014  15.102  0.7439 -1.8887 -0.0662
 6983SOL    HW232409   4.544   3.083  15.225  0.6947 -0.0362  0.2801
 6984SOL     OW32410   3.757   2.507  11.294  0.2625  0.3174 -0.0432
 6984SOL    HW132411   3.671   2.549  11.298 -0.6037 -1.4334 -0.4632
 6984SOL    HW232412   3.800   2.563  11.229  1.5575 -0.3406  0.2408
 6985SOL     OW32413   0.924   2.007   5.178 -0.3531  0.1609  0.6892
 6985SOL    HW132414   0.832   2.036   5.178 -1.0079 -1.9287  2.5260
 6985SOL    HW232415   0.962   2.082   5.224 -0.9538  0.5334  0.5837
 6986SOL     OW32416   4.296   1.048  12.315 -0.5857 -0.2521  0.4019
 6986SOL    HW132417   4.326   1.086  12.397  1.7440 -1.6413  0.1834
 6986SOL    HW232418   4.212   1.093  12.300 -0.9560 -0.8742  0.5770
 6987SOL     OW32419   0.905   4.681   8.889 -0.1856  0.0107  0.0680
 6987SOL    HW132420   0.865   4.614   8.834  0.0676 -0.8184  0.8883
 6987SOL    HW232421   0.871   0.035   8.844  0.7656  0.3778 -0.0392
 6988SOL     OW32422   2.865   4.131   2.170  0.1603  0.6623  0.3643
 6988SOL    HW132423   2.920   4.136   2.249  0.9803  0.2401 -0.1833
 6988SOL    HW232424   2.825   4.218   2.171 -1.0677  0.0869  1.1101
 6989SOL     OW32425   4.281   3.414   9.158  1.1118  0.5750  0.1793
 6989SOL    HW132426   4.320   3.501   9.154  1.2414  0.4478 -1.3431
 6989SOL    HW232427   4.259   3.410   9.251 -2.6990  1.4598 -0.6478
 6990SOL     OW32428   3.781   0.244  13.041 -0.1233  0.3085  0.0916
 6990SOL    HW132429   3.715   0.186  13.080  0.4304 -0.3519  0.0686
 6990SOL    HW232430   3.729   0.278  12.968 -0.6567 -0.7748 -0.0423
 6991SOL     OW32431   1.323   2.728  13.069 -0.5192 -0.2433 -0.6658
 6991SOL    HW132432   1.277   2.693  13.145  1.4259 -0.3034  0.4790
 6991SOL    HW232433   1.338   2.653  13.010 -1.8814 -0.1601 -1.1317
 6992SOL     OW32434   4.117   4.169   5.363  0.4043 -0.7031 -0.5082
 6992SOL    HW132435   4.158   4.154   5.278  3.7281 -1.9044  1.3263
 6992SOL    HW232436   4.133   4.263   5.366 -2.0515 -0.3095  0.4724
 6993SOL     OW32437   2.399   2.189   2.876  0.1188  0.3738  0.2158
 6993SOL    HW132438   2.370   2.099   2.861  0.2663  0.3555  0.0308
 6993SOL    HW232439   2.493   2.184   2.857  0.4236  0.2903  1.7560
 6994SOL     OW32440   3.838   1.708   8.738  0.4324 -0.2822  0.1714
 6994SOL    HW132441   3.856   1.769   8.667 -1.6661  0.2778  0.1039
 6994SOL    HW232442   3.778   1.656   8.685 -2.1235  2.2316  0.5906
 6995SOL     OW32443   4.089   3.291   5.847  0.3617 -0.3974  0.1280
 6995SOL    HW132444   4.001   3.256   5.857 -0.4795  1.5985 -0.2041
 6995SOL    HW232445   4.106   3.280   5.753 -1.1864 -1.9941  0.0422
 6996SOL     OW32446   3.178   3.721   0.972 -0.6389 -0.4052  0.5770
 6996SOL    HW132447   3.220   3.796   1.014  1.3775 -1.5811  0.6651
 6996SOL    HW232448   3.252   3.662   0.962  1.8075  3.2029 -2.5960
 6997SOL     OW32449   4.052   1.396  12.854  0.4382 -0.1060 -0.4663
 6997SOL    HW132450   4.137   1.440  12.850  0.6865 -0.4158  1.5454
 6997SOL    HW232451   3.993   1.469  12.868 -0.5368 -1.1814  1.0591
 6998SOL     OW32452   1.989   4.447   9.169  0.1862 -0.5610  0.4869
 6998SOL    HW132453   1.896   4.447   9.188  0.5132 -1.4486  2.1436
 6998SOL    HW232454   1.998   4.534   9.130  0.4520 -0.3793  0.9402
 6999SOL     OW32455   3.615   2.341   5.531  0.8783 -0.3106  0.6680
 6999SOL    HW132456   3.551   2.329   5.461  1.1077 -2.0320  0.7632
 6999SOL    HW232457   3.650   2.255   5.551  0.2759 -0.8475 -0.5860
 7000SOL     OW32458   3.280   4.693   8.758  0.5522  0.4730  0.0031
 7000SOL    HW132459   3.189   4.667   8.765  0.7670 -0.0518  0.8773
 7000SOL    HW232460   3.301   4.714   8.849 -1.2326 -0.4864  0.6169
 7001SOL     OW32461   1.918   3.081  17.321  0.0428 -0.0478  0.4157
 7001SOL    HW132462   1.874   3.041  17.396 -1.4828  3.4426  1.3711
 7001SOL    HW232463   1.968   3.154  17.358  3.0449 -1.5652 -0.6291
 7002SOL     OW32464   2.959   2.322   4.468 -0.3774  0.0277 -0.1387
 7002SOL    HW132465   2.864   2.313   4.457 -0.5293  0.2914  0.9115
 7002SOL    HW232466   2.956   2.414   4.442  0.3041  0.7611  2.2937
 7003SOL     OW32467   2.622   0.547  10.666 -0.8539 -0.1950 -0.5084
 7003SOL    HW132468   2.661   0.572  10.583  1.0833 -0.0790  0.4324
 7003SOL    HW232469   2.554   0.485  10.637 -0.0974 -0.6614 -1.2834
 7004SOL     OW32470   1.628   4.094  11.678  0.0464 -0.6764  0.7603
 7004SOL    HW132471   1.621   4.112  11.772  2.1121  2.4432  0.3330
 7004SOL    HW232472   1.721   4.115  11.669  0.3945 -1.7821  1.8208
 7005SOL     OW32473   2.023   2.250   9.392  0.4200 -0.1811 -0.5659
 7005SOL    HW132474   2.061   2.163   9.406 -0.5141 -0.4317  0.3767
 7005SOL    HW232475   2.109   2.291   9.390  0.7384 -0.8865 -1.6584
 7006SOL     OW32476   2.380   1.341  14.360 -0.0364 -0.5815 -0.4921
 7006SOL    HW132477   2.436   1.418  14.351  1.3380 -1.4621  0.4096
 7006SOL    HW232478   2.321   1.377  14.426 -1.2688 -1.1908 -1.2550
 7007SOL     OW32479   3.208   1.850   7.053 -0.2359 -0.4983  0.0601
 7007SOL    HW132480   3.148   1.923   7.070  2.4773  1.1275  2.6399
 7007SOL    HW232481   3.167   1.790   7.115 -1.2287 -1.3294 -1.3994
 7008SOL     OW32482   1.861   3.230  17.613  0.1216  0.0879 -0.5585
 7008SOL    HW132483   1.817   3.155  17.574  0.9705 -0.8471  0.2705
 7008SOL    HW232484   1.839   3.224   0.010 -0.4129 -0.0189 -0.6893
 7009SOL     OW32485   3.300   2.932   5.899  0.0607  0.2643  0.4102
 7009SOL    HW132486   3.227   2.881   5.933  1.3744 -0.9956  1.3432
 7009SOL    HW232487   3.340   2.958   5.982 -1.0178 -0.5285  1.1720
 7010SOL     OW32488   0.030   1.466  13.049 -0.1291  0.2299  0.3376
 7010SOL    HW132489   0.081   1.394  13.013  0.9122  1.4446 -0.6241
 7010SOL    HW232490   4.666   1.437  13.022  0.2823 -1.4334  0.7676
 7011SOL     OW32491   4.491   3.261   4.041  0.5481  1.0294 -0.3482
 7011SOL    HW132492   4.500   3.312   3.961 -2.2851  0.8944 -0.7669
 7011SOL    HW232493   4.435   3.321   4.091 -2.3602  1.4498 -4.1550
 7012SOL     OW32494   3.023   4.642   8.829 -0.0722  0.0774 -0.6463
 7012SOL    HW132495   3.045   4.633   8.922 -1.8949  0.2170 -0.1935
 7012SOL    HW232496   3.001   0.012   8.832 -1.9467 -0.3604 -0.8576
 7013SOL     OW32497   1.160   4.362   3.169 -0.3615  0.4516 -0.1344
 7013SOL    HW132498   1.065   4.356   3.175 -0.3489  1.6518  1.2649
 7013SOL    HW232499   1.198   4.335   3.252  0.5540 -0.4306 -0.8260
 7014SOL     OW32500   0.941   0.628  10.428  0.0106  0.0356  0.2605
 7014SOL    HW132501   0.918   0.554  10.484  0.4689 -0.7062 -0.5281
 7014SOL    HW232502   0.975   0.687  10.495 -2.2847 -0.0322  1.4725
 7015SOL     OW32503   0.766   1.916   1.488  0.6594 -0.0406 -0.2659
 7015SOL    HW132504   0.768   1.820   1.485 -0.9123 -0.0013 -2.6483
 7015SOL    HW232505   0.821   1.934   1.412 -0.2787 -0.5217 -1.0720
 7016SOL     OW32506   4.703   4.389   3.265  0.4850  0.2233 -0.5204
 7016SOL    HW132507   4.672   4.417   3.178 -0.1443  0.2316 -0.2934
 7016SOL    HW232508   0.022   4.307   3.240 -2.2315 -1.6256  0.8925
 7017SOL     OW32509   4.591   3.934   3.871  0.3470  0.1853  0.0530
 7017SOL    HW132510   4.667   3.973   3.828  0.2728 -0.5535 -0.7757
 7017SOL    HW232511   4.536   4.013   3.871  1.3475  0.8662  0.5439
 7018SOL     OW32512   2.687   2.648  10.623 -0.0057  0.0923 -0.2121
 7018SOL    HW132513   2.647   2.706  10.688  2.0539 -0.2407  1.3340
 7018SOL    HW232514   2.633   2.576  10.655  0.6617  1.5753  4.1585
 7019SOL     OW32515   1.308   3.500   3.735 -0.5356  0.7569  0.0700
 7019SOL    HW132516   1.262   3.542   3.663 -1.3063 -0.2550 -0.0408
 7019SOL    HW232517   1.397   3.495   3.700 -0.7102 -1.0939 -0.1326
 7020SOL     OW32518   4.318   2.877   9.925  0.1741  0.2630  0.5155
 7020SOL    HW132519   4.259   2.870  10.000 -0.4406 -0.8168 -0.0668
 7020SOL    HW232520   4.390   2.819   9.948  0.3920  0.7967  1.1720
 7021SOL     OW32521   0.251   1.970   2.405  0.2418 -0.1267  0.4033
 7021SOL    HW132522   0.241   1.962   2.500 -1.5590  0.6207  0.2831
 7021SOL    HW232523   0.327   2.028   2.416 -0.3235  0.3037  2.0437
 7022SOL     OW32524   1.325   3.608   6.461 -0.2632 -0.0540 -0.7335
 7022SOL    HW132525   1.298   3.569   6.544 -2.3261  2.3380 -0.2748
 7022SOL    HW232526   1.328   3.528   6.408 -3.6250 -0.5110 -0.2369
 7023SOL     OW32527   4.325   3.832   6.018 -0.0991  0.0553 -0.1275
 7023SOL    HW132528   4.245   3.814   6.067 -0.0022  1.0081  0.3755
 7023SOL    HW232529   4.381   3.864   6.088  0.8118 -1.3318 -0.2299
 7024SOL     OW32530   4.042   0.096   5.101 -0.3569  0.4551  0.1728
 7024SOL    HW132531   4.003   0.114   5.187 -0.6896  3.6353 -0.6452
 7024SOL    HW232532   4.100   0.171   5.091  0.4535  0.0381  1.6921
 7025SOL     OW32533   2.085   3.057  15.548 -0.3375  0.2816 -0.4918
 7025SOL    HW132534   2.003   3.103  15.534  0.3160  1.4998 -0.3570
 7025SOL    HW232535   2.053   2.968  15.534  2.2240 -0.9452  1.3588
 7026SOL     OW32536   2.485   2.334   3.907 -0.4859  0.3780  0.4721
 7026SOL    HW132537   2.484   2.334   3.811  1.1897 -0.5193  0.4616
 7026SOL    HW232538   2.394   2.360   3.923 -0.9110 -0.7600 -0.1661
 7027SOL     OW32539   2.112   2.051   2.072 -0.1098  0.1827 -0.1978
 7027SOL    HW132540   2.193   2.035   2.024 -0.7141  1.4392 -1.6566
 7027SOL    HW232541   2.134   2.136   2.110 -0.0284 -0.0952  0.3732
 7028SOL     OW32542   4.108   3.924  10.169  0.0855 -0.5059  0.0424
 7028SOL    HW132543   4.195   3.940  10.205 -0.5877  1.4453  0.7790
 7028SOL    HW232544   4.124   3.955  10.080 -0.6412  0.6605  0.3248
 7029SOL     OW32545   2.185   1.412   5.789  0.0574  0.4895 -0.0404
 7029SOL    HW132546   2.263   1.415   5.734  0.3971  1.3652  0.4953
 7029SOL    HW232547   2.137   1.485   5.749  1.4921  1.6072  0.2528
 7030SOL     OW32548   4.416   4.336   8.846 -0.2857 -0.1938  0.6690
 7030SOL    HW132549   4.429   4.286   8.926 -1.7661 -0.9466  0.4418
 7030SOL    HW232550   4.323   4.358   8.855  0.1963  1.9936  0.2734
 7031SOL     OW32551   3.087   4.626   9.419 -0.1223 -0.0029  0.3079
 7031SOL    HW132552   3.064   4.547   9.469 -1.3701  0.0965 -0.1034
 7031SOL    HW232553   3.057   4.608   9.330  1.0724 -1.2313  0.1632
 7032SOL     OW32554   2.053   0.470  15.417 -0.3130 -0.1668  0.0333
 7032SOL    HW132555   2.126   0.500  15.362 -0.7365 -1.9204 -1.4655
 7032SOL    HW232556   1.978   0.458  15.359  0.2293 -0.7067 -0.5545
 7033SOL     OW32557   1.023   2.114   5.974  0.0315 -0.0666 -0.2889
 7033SOL    HW132558   1.053   2.160   5.896  2.8774 -0.5127  0.5253
 7033SOL    HW232559   1.081   2.037   5.968  1.6116  1.1191 -0.2692
 7034SOL     OW32560   3.766   2.446  15.843 -0.1902 -0.0290 -0.4150
 7034SOL    HW132561   3.797   2.521  15.792 -3.0573 -0.0022 -2.1488
 7034SOL    HW232562   3.809   2.460  15.928 -1.6928 -0.7411  0.4706
 7035SOL     OW32563   0.352   3.999   4.672  0.2019  1.1364  0.0196
 7035SOL    HW132564   0.412   4.040   4.610  1.8878  0.9156  1.5083
 7035SOL    HW232565   0.408   3.996   4.750  1.1372 -1.2769 -0.7688
 7036SOL     OW32566   2.744   3.885  17.373 -0.2085 -0.1260  0.4723
 7036SOL    HW132567   2.779   3.972  17.355 -0.6467 -0.1251 -0.3684
 7036SOL    HW232568   2.748   3.845  17.286  2.4911 -0.0842  0.5712
 7037SOL     OW32569   3.332   4.075   2.346  0.2282 -0.0218 -0.2484
 7037SOL    HW132570   3.378   4.159   2.357 -0.7946  0.4018  0.8572
 7037SOL    HW232571   3.367   4.039   2.265  2.1492 -0.6993  0.8791
 7038SOL     OW32572   2.516   3.954  12.402 -0.0871  0.2154 -0.1021
 7038SOL    HW132573   2.547   3.943  12.492  1.6986  0.2729 -0.7066
 7038SOL    HW232574   2.586   4.009  12.367  0.1295 -0.1938 -0.3140
 7039SOL     OW32575   2.472   1.038   6.988  0.1217 -0.3475 -0.1275
 7039SOL    HW132576   2.457   0.968   6.924  4.6610  0.2153 -1.8505
 7039SOL    HW232577   2.396   1.095   6.977  0.6537  0.5592  0.9228
 7040SOL     OW32578   1.810   2.518   8.664 -0.2959 -0.0042  0.4535
 7040SOL    HW132579   1.841   2.607   8.681 -1.0648  0.2239  0.6696
 7040SOL    HW232580   1.739   2.526   8.600  0.7062 -3.3787 -1.0836
 7041SOL     OW32581   0.433   1.466   4.873  0.2445  0.1890  0.5852
 7041SOL    HW132582   0.485   1.523   4.816 -1.2515  0.3976 -0.5695
 7041SOL    HW232583   0.476   1.381   4.867 -1.7865 -0.9618  2.3691
 7042SOL     OW32584   4.579   0.930   3.618 -0.1729  0.3166  0.0157
 7042SOL    HW132585   4.638   0.860   3.645 -0.6949 -0.2555 -0.3410
 7042SOL    HW232586   4.640   0.989   3.573  0.1755 -0.6544 -0.7792
 7043SOL     OW32587   1.166   3.802   3.733 -0.4360 -0.1809 -0.1178
 7043SOL    HW132588   1.079   3.826   3.701 -0.2006 -0.8815 -1.2932
 7043SOL    HW232589   1.177   3.721   3.683 -0.0621 -0.3097  0.1712
 7044SOL     OW32590   0.660   3.034   0.750  0.8661  0.0843 -0.1263
 7044SOL    HW132591   0.690   3.096   0.815  0.0195  0.6478 -0.2724
 7044SOL    HW232592   0.659   3.085   0.669 -0.6396  1.2210  0.6112
 7045SOL     OW32593   0.092   2.723  17.478  0.3717 -0.1610  0.2389
 7045SOL    HW132594   0.100   2.761  17.391 -3.5746  0.5215  0.1733
 7045SOL    HW232595   0.004   2.685  17.476  0.5233 -0.2473 -4.9029
 7046SOL     OW32596   0.985   3.110   1.439  0.0264  0.4977  0.1928
 7046SOL    HW132597   0.988   3.077   1.349 -2.8638  0.8794 -0.0486
 7046SOL    HW232598   1.022   3.035   1.485  1.9370  1.4827  0.2402
 7047SOL     OW32599   3.047   0.162   7.037  0.2302 -0.0922  1.0208
 7047SOL    HW132600   3.087   0.123   7.114  2.2139  2.6558  1.3624
 7047SOL    HW232601   3.027   0.251   7.066  1.7722  1.5074 -2.7340
 7048SOL     OW32602   2.246   4.549   3.880  0.5126 -0.0287 -0.3149
 7048SOL    HW132603   2.263   4.458   3.904 -0.3159  0.5177  2.3080
 7048SOL    HW232604   2.316   4.567   3.817  2.1447 -2.1917  0.8945
 7049SOL     OW32605   4.574   2.681   8.504  0.2519 -0.4425  0.6879
 7049SOL    HW132606   4.626   2.715   8.431 -0.0625 -1.9734 -0.2591
 7049SOL    HW232607   4.578   2.752   8.568  0.6265 -0.6716  0.9160
 7050SOL     OW32608   2.950   3.233  14.074  0.0556 -0.1290  0.4141
 7050SOL    HW132609   2.868   3.245  14.027 -0.4161  2.6778  1.9673
 7050SOL    HW232610   2.969   3.145  14.041  0.3396  0.2472 -0.4032
 7051SOL     OW32611   3.121   0.013   1.432 -0.0356  0.2814 -0.0513
 7051SOL    HW132612   3.199   0.067   1.423  0.6015 -0.4769  0.8923
 7051SOL    HW232613   3.076   0.023   1.348  0.1284  2.0057  0.0474
 7052SOL     OW32614   0.644   0.100   7.450 -0.6717 -0.2738 -0.2713
 7052SOL    HW132615   0.580   0.164   7.481  0.1744 -0.3786  1.6632
 7052SOL    HW232616   0.589   0.021   7.449  0.0333 -0.7529 -0.9796
 7053SOL     OW32617   3.060   3.951   2.054 -0.3838  0.1417 -0.1096
 7053SOL    HW132618   3.029   3.864   2.077 -0.0831  0.0575 -0.0252
 7053SOL    HW232619   3.009   4.016   2.103  0.3694 -2.5049  4.1851
 7054SOL     OW32620   4.317   0.587   1.264  0.4336 -0.4073 -0.3808
 7054SOL    HW132621   4.265   0.643   1.206 -0.6469 -1.1966 -0.1732
 7054SOL    HW232622   4.391   0.641   1.293 -0.2070  0.4494 -0.3315
 7055SOL     OW32623   2.137   2.288  13.134  0.4819  0.5520 -0.4984
 7055SOL    HW132624   2.138   2.240  13.051 -0.3236 -0.0965 -0.1362
 7055SOL    HW232625   2.044   2.281  13.153  0.2063  0.3444 -1.9608
 7056SOL     OW32626   2.092   3.564   8.200  0.3726  0.4597 -0.1421
 7056SOL    HW132627   2.051   3.616   8.269  0.8834  0.8929 -0.1657
 7056SOL    HW232628   2.013   3.548   8.148 -1.5402  1.2330  2.4929
 7057SOL     OW32629   4.129   3.604   8.860 -0.5086  0.1778 -0.2973
 7057SOL    HW132630   4.179   3.644   8.932  1.0521 -1.5638 -0.4076
 7057SOL    HW232631   4.194   3.541   8.828 -0.8330  0.7579 -2.0875
 7058SOL     OW32632   1.504   4.177   6.201 -0.1025  0.1854  0.2745
 7058SOL    HW132633   1.424   4.126   6.192 -0.8702  1.4399  0.0104
 7058SOL    HW232634   1.478   4.251   6.146  0.1238  0.8429  1.0611
 7059SOL     OW32635   2.517   1.043   3.165  0.1284 -0.2913 -0.1886
 7059SOL    HW132636   2.440   1.000   3.126  0.2868 -3.1962  2.6552
 7059SOL    HW232637   2.547   0.975   3.225 -0.0685 -0.9658 -0.8550
 7060SOL     OW32638   3.696   0.188  17.614  0.0286  0.2560 -0.5900
 7060SOL    HW132639   3.714   0.094  17.613 -2.0480 -0.1338  0.4161
 7060SOL    HW232640   3.629   0.206  17.548  0.5607  0.6405 -1.0360
 7061SOL     OW32641   2.305   0.067   8.029  0.1555 -0.4464 -0.2160
 7061SOL    HW132642   2.379   0.085   8.087  1.5281 -1.6896 -1.5781
 7061SOL    HW232643   2.284   0.143   7.974 -1.0492 -1.5482 -1.2871
 7062SOL     OW32644   3.113   1.098  11.086 -0.6300 -0.3968 -0.0873
 7062SOL    HW132645   3.174   1.040  11.132 -0.2423 -2.1663 -2.8118
 7062SOL    HW232646   3.044   1.034  11.069 -0.7262 -0.6846  1.3247
 7063SOL     OW32647   2.392   1.426   2.942 -1.0721 -0.1561  0.1988
 7063SOL    HW132648   2.319   1.365   2.936 -0.1125 -1.3615  0.7536
 7063SOL    HW232649   2.413   1.424   3.035  0.1963 -3.4929 -0.1450
 7064SOL     OW32650   0.496   0.937   4.324  0.3050 -0.3737  0.0019
 7064SOL    HW132651   0.480   1.029   4.303  1.3601 -0.0808  0.4493
 7064SOL    HW232652   0.437   0.897   4.261 -2.5956  0.1135  2.3963
 7065SOL     OW32653   3.369   1.513   3.419  0.1595  0.8100 -0.3496
 7065SOL    HW132654   3.388   1.532   3.327  0.5302 -2.1808 -0.8625
 7065SOL    HW232655   3.452   1.533   3.463 -0.2195  3.3150 -0.7848
 7066SOL     OW32656   2.465   2.059   0.512 -0.0344 -0.0880 -0.5698
 7066SOL    HW132657   2.551   2.099   0.502 -0.0214 -0.0444 -0.2737
 7066SOL    HW232658   2.452   2.024   0.424 -1.8679 -0.8303  0.0003
 7067SOL     OW32659   0.571   3.906   5.747  0.3561 -0.5344 -0.0058
 7067SOL    HW132660   0.490   3.913   5.796  0.9577 -0.3202  0.9621
 7067SOL    HW232661   0.615   3.974   5.798  0.5405 -2.0916  1.9027
 7068SOL     OW32662   1.614   0.720   6.194 -0.3070 -0.2882  0.2979
 7068SOL    HW132663   1.665   0.639   6.190 -1.4717 -1.0572  0.9187
 7068SOL    HW232664   1.623   0.742   6.101  1.0496  4.2082  1.4805
 7069SOL     OW32665   4.590   2.432  12.093 -0.4616 -0.1026  0.1584
 7069SOL    HW132666   4.620   2.357  12.042  1.0390  0.5935  0.0429
 7069SOL    HW232667   4.648   2.498  12.056 -0.8415 -0.9948 -1.9899
 7070SOL     OW32668   4.447   2.246   9.584  0.0589  0.2264  0.0241
 7070SOL    HW132669   4.386   2.320   9.578 -1.0628 -0.6317  0.8323
 7070SOL    HW232670   4.408   2.168   9.544  0.2578  0.2622 -0.2415
 7071SOL     OW32671   3.361   4.255  16.756  0.4261  0.5921 -0.0976
 7071SOL    HW132672   3.396   4.178  16.713  0.7392  0.2636  0.7313
 7071SOL    HW232673   3.329   4.211  16.835 -1.8798 -0.9987 -1.9515
 7072SOL     OW32674   4.720   1.743   1.822 -0.1699  0.4286  0.2249
 7072SOL    HW132675   4.648   1.749   1.885 -1.0808  0.8171 -0.8456
 7072SOL    HW232676   0.067   1.718   1.881  0.1405  2.6647  0.8061
 7073SOL     OW32677   3.088   1.426   8.438  0.0760 -0.1732 -0.4987
 7073SOL    HW132678   3.102   1.483   8.514  1.8382 -1.1271 -0.1180
 7073SOL    HW232679   3.097   1.338   8.474  2.8787  0.7454  1.0413
 7074SOL     OW32680   4.280   0.236  12.025 -0.2693 -0.4075 -0.9216
 7074SOL    HW132681   4.342   0.216  11.954 -2.2604 -1.8820 -2.2360
 7074SOL    HW232682   4.217   0.296  11.985  1.5613  2.3790  0.3866
 7075SOL     OW32683   4.123   3.198   8.791 -0.2191 -0.1935  0.0688
 7075SOL    HW132684   4.104   3.270   8.731  1.5272 -0.1556 -0.4281
 7075SOL    HW232685   4.175   3.255   8.847  1.6249 -1.4117 -0.4115
 7076SOL     OW32686   2.544   3.579   3.918  0.1583 -0.6653 -0.9319
 7076SOL    HW132687   2.548   3.504   3.976  1.4529  0.3216  0.2444
 7076SOL    HW232688   2.606   3.637   3.962 -0.4530 -0.1400 -0.7541
 7077SOL     OW32689   3.589   3.504  14.015 -0.0927 -0.0691  0.7005
 7077SOL    HW132690   3.509   3.530  14.061  0.4937  0.2235  1.5698
 7077SOL    HW232691   3.601   3.410  14.020 -0.8009 -0.0090  3.9244
 7078SOL     OW32692   4.166   3.580   5.216 -0.0706  0.1840 -0.6917
 7078SOL    HW132693   4.130   3.649   5.272 -0.1425  0.3408 -0.9314
 7078SOL    HW232694   4.128   3.601   5.131  0.0006 -1.6655 -1.1774
 7079SOL     OW32695   1.518   3.598   9.827 -0.0050  0.2262 -0.4085
 7079SOL    HW132696   1.556   3.637   9.906 -0.7513  1.5997 -0.7266
 7079SOL    HW232697   1.433   3.562   9.852 -0.4041  1.1617 -0.4138
 7080SOL     OW32698   2.066   3.303   6.087 -0.2420  0.1392  0.4008
 7080SOL    HW132699   2.112   3.227   6.052 -0.1392 -0.5117  1.9446
 7080SOL    HW232700   2.119   3.310   6.167  0.6874 -0.6827 -0.1374
 7081SOL     OW32701   1.173   2.389   8.410 -0.1016 -0.4426  0.8792
 7081SOL    HW132702   1.093   2.336   8.417 -0.4325  0.0980  1.2209
 7081SOL    HW232703   1.151   2.476   8.444 -0.8176 -1.0507  1.9888
 7082SOL     OW32704   2.174   0.163  12.699  0.6243 -0.5607  0.4504
 7082SOL    HW132705   2.112   0.181  12.770  0.8457 -0.7377  0.6872
 7082SOL    HW232706   2.241   0.125  12.755  0.5056 -0.5097  0.6258
 7083SOL     OW32707   2.624   1.105   3.854 -0.1313 -0.4387 -0.8740
 7083SOL    HW132708   2.593   1.018   3.827 -0.6213 -0.6105  0.2347
 7083SOL    HW232709   2.669   1.078   3.933  0.6881 -1.4233 -1.6845
 7084SOL     OW32710   3.954   0.263   2.274 -0.5476  0.0621  0.3785
 7084SOL    HW132711   3.866   0.280   2.241 -0.2004 -0.5877 -0.8898
 7084SOL    HW232712   3.938   0.252   2.368  3.8897 -1.6914  0.9446
 7085SOL     OW32713   4.323   2.344   6.137 -0.0455  0.2940 -0.0695
 7085SOL    HW132714   4.298   2.262   6.095  0.5509 -0.1590  0.4533
 7085SOL    HW232715   4.312   2.310   6.227 -1.8608 -0.6021 -0.6202
 7086SOL     OW32716   3.143   4.333   7.451 -0.1374 -0.5986  0.0462
 7086SOL    HW132717   3.183   4.274   7.514  0.4509  0.1751  0.4005
 7086SOL    HW232718   3.185   4.315   7.367  2.9876 -0.7138  1.6090
 7087SOL     OW32719   0.140   4.241   6.812  1.2625 -0.2091 -0.0063
 7087SOL    HW132720   0.142   4.295   6.733 -0.3740 -1.4743 -0.9187
 7087SOL    HW232721   0.223   4.232   6.858 -0.2873 -1.4087  2.5983
 7088SOL     OW32722   0.132   0.276   5.096 -0.1136 -0.2861  0.1734
 7088SOL    HW132723   0.133   0.227   5.178 -3.6458 -0.0885  0.3135
 7088SOL    HW232724   0.114   0.361   5.136  1.3139 -0.2967  0.8459
 7089SOL     OW32725   3.571   4.501   7.236  0.5105 -1.0327  0.7028
 7089SOL    HW132726   3.498   4.500   7.174  0.0283  1.4908  1.2120
 7089SOL    HW232727   3.565   4.408   7.259 -0.2422 -1.5005 -1.4396
 7090SOL     OW32728   4.406   3.444   2.268 -0.8227  0.4662  0.2456
 7090SOL    HW132729   4.462   3.515   2.299 -1.7739  1.5609 -0.5471
 7090SOL    HW232730   4.404   3.453   2.173 -4.1732  1.1178  0.4056
 7091SOL     OW32731   2.553   0.806  16.160  0.8135  0.1862  0.0821
 7091SOL    HW132732   2.620   0.769  16.217  1.8530  1.1601 -0.5257
 7091SOL    HW232733   2.609   0.873  16.123  1.1204 -0.0440  0.1317
 7092SOL     OW32734   1.766   3.972   6.872  0.0729  0.0079 -0.1102
 7092SOL    HW132735   1.712   4.007   6.943  0.1405  0.1640 -0.1374
 7092SOL    HW232736   1.832   3.932   6.928  1.5251 -2.2562 -3.4671
 7093SOL     OW32737   0.267   3.572  15.315  0.1604  0.2030  0.0180
 7093SOL    HW132738   0.194   3.599  15.371  0.8685 -1.4028  1.7124
 7093SOL    HW232739   0.232   3.494  15.270 -0.1134  1.0414 -1.2111
 7094SOL     OW32740   4.141   1.058  11.984 -0.3507  0.2278  0.6347
 7094SOL    HW132741   4.139   1.104  12.067  0.4124  2.5138 -0.6267
 7094SOL    HW232742   4.054   1.025  11.959  0.5969 -1.1786 -0.8598
 7095SOL     OW32743   0.084   1.584   0.936  0.7158 -0.2953 -0.1982
 7095SOL    HW132744   0.063   1.671   0.970  0.4502 -0.3878 -0.1268
 7095SOL    HW232745   4.723   1.539   0.942  0.3808  0.3494 -0.1587
 7096SOL     OW32746   0.454   0.137   6.341  0.9066  0.4610  0.0487
 7096SOL    HW132747   0.522   0.090   6.293  1.2313 -0.6701  1.6321
 7096SOL    HW232748   0.386   0.071   6.332 -0.3705  1.6486  0.9689
 7097SOL     OW32749   3.693   3.672   3.089 -0.1223  0.0866  0.1355
 7097SOL    HW132750   3.642   3.745   3.125 -2.1110 -1.4212  0.3389
 7097SOL    HW232751   3.664   3.683   2.998 -0.3806  2.0742  0.4486
 7098SOL     OW32752   0.798   1.091   7.205 -0.5522 -0.2715 -0.0568
 7098SOL    HW132753   0.743   1.014   7.221 -1.4138  0.4540  0.4971
 7098SOL    HW232754   0.888   1.060   7.205 -0.0567  1.1856 -1.2822
 7099SOL     OW32755   3.054   3.829   2.733 -0.1250  0.2807 -0.0494
 7099SOL    HW132756   3.130   3.851   2.680 -1.6890 -3.4317 -3.8017
 7099SOL    HW232757   3.079   3.828   2.826  1.3180 -1.6365 -0.4637
 7100SOL     OW32758   1.874   4.381  12.428 -0.0441 -0.3452 -0.3509
 7100SOL    HW132759   1.857   4.401  12.519 -1.6893 -0.4484 -0.6353
 7100SOL    HW232760   1.957   4.426  12.417 -0.2507 -0.5295 -2.7736
 7101SOL     OW32761   2.016   3.790  13.630  0.0153 -0.3052  0.3103
 7101SOL    HW132762   2.060   3.717  13.674  0.5316 -1.1739 -1.6367
 7101SOL    HW232763   1.936   3.747  13.600 -0.0959 -1.4305  2.2123
 7102SOL     OW32764   3.598   3.212   8.875 -0.7099  0.0994  0.0568
 7102SOL    HW132765   3.660   3.141   8.892 -2.0001 -1.0800 -0.1668
 7102SOL    HW232766   3.632   3.285   8.928  1.1562 -1.2933  0.7591
 7103SOL     OW32767   4.322   1.949   6.134 -0.2326  0.2988 -0.1818
 7103SOL    HW132768   4.360   1.897   6.064 -2.9895 -1.8269 -0.1026
 7103SOL    HW232769   4.264   2.013   6.093  0.5792  1.6502  0.7916
 7104SOL     OW32770   3.369   4.425   5.331 -0.1636  0.0112 -0.3524
 7104SOL    HW132771   3.411   4.343   5.307  0.4819  0.6586 -1.4005
 7104SOL    HW232772   3.357   4.403   5.423  0.0723 -0.4875 -0.4439
 7105SOL     OW32773   2.755   1.375   2.616  0.1832  0.3001  0.6641
 7105SOL    HW132774   2.741   1.302   2.555  3.1502 -1.4114  1.9871
 7105SOL    HW232775   2.671   1.421   2.612 -0.7425 -1.3490  1.1602
 7106SOL     OW32776   4.141   1.633  10.045  0.3736  0.2581  0.2350
 7106SOL    HW132777   4.162   1.569  10.113  1.2123 -0.0139 -0.2723
 7106SOL    HW232778   4.195   1.705  10.078  0.6279 -0.2883  1.0131
 7107SOL     OW32779   0.798   0.171   2.386  0.0948 -0.2507 -0.3653
 7107SOL    HW132780   0.757   0.124   2.458 -1.1912 -0.3440 -1.1518
 7107SOL    HW232781   0.766   0.257   2.409  2.3105  0.8967 -1.5322
 7108SOL     OW32782   0.474   3.087   6.606 -1.0567 -0.3303 -0.3459
 7108SOL    HW132783   0.474   3.120   6.516  0.1857  1.7356  0.4250
 7108SOL    HW232784   0.393   3.037   6.619 -0.8231 -0.8540 -0.8875
 7109SOL     OW32785   2.846   2.188   4.146  0.1240  0.4153  0.2465
 7109SOL    HW132786   2.936   2.178   4.114 -0.1020 -0.4004 -0.1390
 7109SOL    HW232787   2.865   2.224   4.233  1.2654  0.1270  0.1237
 7110SOL     OW32788   0.399   1.109   5.034 -0.1833  0.3654  0.8465
 7110SOL    HW132789   0.352   1.173   5.088  0.4136  1.4296  0.1063
 7110SOL    HW232790   0.438   1.163   4.965  0.2248 -1.0295 -0.0046
 7111SOL     OW32791   3.989   3.870  10.887  0.2534 -0.5041 -0.2356
 7111SOL    HW132792   4.015   3.797  10.831  1.0113 -0.3336 -0.1053
 7111SOL    HW232793   4.069   3.921  10.891  0.4626 -0.9261  0.9236
 7112SOL     OW32794   0.784   2.893   3.075 -0.3173 -0.5042 -0.1141
 7112SOL    HW132795   0.861   2.840   3.052 -1.0962 -0.5690 -2.5753
 7112SOL    HW232796   0.729   2.834   3.126 -1.2690  1.2677  0.9006
 7113SOL     OW32797   2.022   0.824   4.691 -0.4812 -0.4023 -0.0061
 7113SOL    HW132798   2.028   0.834   4.596 -0.7098 -2.0866 -0.2077
 7113SOL    HW232799   1.948   0.763   4.697  0.1613 -1.0969  0.8474
 7114SOL     OW32800   1.389   1.764  16.483 -0.1151  0.1532  0.1575
 7114SOL    HW132801   1.435   1.778  16.400 -2.3659 -0.6388 -1.2097
 7114SOL    HW232802   1.345   1.846  16.506 -1.5828  0.0776 -2.4638
 7115SOL     OW32803   3.055   2.520   7.391 -0.2628 -0.0495 -0.1659
 7115SOL    HW132804   3.037   2.500   7.483  0.6201 -2.0141 -0.4240
 7115SOL    HW232805   2.969   2.544   7.357  0.1757  1.1008 -0.4817
 7116SOL     OW32806   1.677   1.950  15.400 -0.2979 -0.6762  0.4822
 7116SOL    HW132807   1.660   1.885  15.332 -0.3399  0.8272 -0.9456
 7116SOL    HW232808   1.682   2.030  15.349 -0.0627 -0.5676  0.6754
 7117SOL     OW32809   1.692   3.505   6.458  0.5345 -0.1053  0.7512
 7117SOL    HW132810   1.626   3.438   6.440  0.4846  0.3738 -0.8519
 7117SOL    HW232811   1.765   3.453   6.427 -0.2838  0.5064 -2.1732
 7118SOL     OW32812   1.016   2.352   4.591 -0.0518 -0.0362  0.3120
 7118SOL    HW132813   1.006   2.305   4.674 -0.1900  1.1459  0.9667
 7118SOL    HW232814   1.042   2.439   4.623 -3.4526  1.5673 -1.2898
 7119SOL     OW32815   3.253   1.915   1.706 -0.1209 -0.0162  0.3086
 7119SOL    HW132816   3.204   1.944   1.629 -2.3151 -0.2833  1.6319
 7119SOL    HW232817   3.325   1.874   1.658  0.0191  0.8391 -0.2234
 7120SOL     OW32818   3.109   1.514  14.831  0.5437  0.1774  0.0657
 7120SOL    HW132819   3.084   1.454  14.902 -0.1866 -0.5749 -0.8190
 7120SOL    HW232820   3.202   1.494  14.834  0.3547 -0.8174 -0.6495
 7121SOL     OW32821   1.233   1.709   8.766  0.3378 -0.1642  0.1742
 7121SOL    HW132822   1.297   1.638   8.767  2.2739  1.6315  1.5033
 7121SOL    HW232823   1.280   1.790   8.749  0.4832 -0.5427 -1.2216
 7122SOL     OW32824   3.122   3.586   8.504  0.7077  0.2292  0.6307
 7122SOL    HW132825   3.176   3.660   8.531  0.1796 -0.6026  3.9607
 7122SOL    HW232826   3.031   3.612   8.518  0.3587 -0.1230 -0.8824
 7123SOL     OW32827   2.688   0.470   9.046  0.5112  0.6141 -0.5356
 7123SOL    HW132828   2.633   0.420   8.986  0.1897  0.3173  0.0081
 7123SOL    HW232829   2.691   0.420   9.128 -0.4541  1.8299  0.2500
 7124SOL     OW32830   3.850   1.700  13.823 -0.2001  0.3722  0.5447
 7124SOL    HW132831   3.908   1.653  13.883  1.5449 -0.7671 -2.0804
 7124SOL    HW232832   3.910   1.746  13.766 -0.0436 -0.6627 -0.1078
 7125SOL     OW32833   0.570   0.029   5.001 -0.3566 -0.4367  0.2481
 7125SOL    HW132834   0.583   0.122   5.020  1.1468 -0.7285  0.6451
 7125SOL    HW232835   0.505   0.005   5.067  1.8142 -0.3494  2.4042
 7126SOL     OW32836   0.382   1.550   5.378  0.1153  0.4483 -0.0354
 7126SOL    HW132837   0.380   1.573   5.471  0.3121  2.2958 -0.4856
 7126SOL    HW232838   0.374   1.637   5.339 -0.2720  0.3365 -0.1994
 7127SOL     OW32839   0.478   2.504   0.548  0.3485  0.1316  0.2448
 7127SOL    HW132840   0.452   2.581   0.599 -0.9422  0.1996 -0.5103
 7127SOL    HW232841   0.523   2.561   0.485  1.6173  0.4713  1.4663
 7128SOL     OW32842   1.287   1.065  17.276  0.0672 -0.3300  0.6497
 7128SOL    HW132843   1.220   1.030  17.335  0.7930  2.1771  2.9368
 7128SOL    HW232844   1.251   1.035  17.192 -0.1780  1.0815  0.2513
 7129SOL     OW32845   2.227   0.768   6.757 -0.3256  0.0477 -0.7531
 7129SOL    HW132846   2.137   0.781   6.729 -0.0630 -0.4221 -1.8219
 7129SOL    HW232847   2.226   0.801   6.847 -0.0725  0.9539 -1.0852
 7130SOL     OW32848   4.622   2.301   5.750  0.0141 -0.4786 -0.1538
 7130SOL    HW132849   4.633   2.208   5.772  0.4001 -0.0389  1.5381
 7130SOL    HW232850   4.585   2.335   5.831 -0.3757  0.1502 -0.5999
 7131SOL     OW32851   1.432   4.706   8.901 -0.0043 -0.6784  0.2305
 7131SOL    HW132852   1.356   4.662   8.938  1.1186 -2.8754 -0.1083
 7131SOL    HW232853   1.378   0.032   8.840  1.2106  0.0621 -0.2636
 7132SOL     OW32854   3.751   3.219   2.056 -0.0041  0.4001  0.1222
 7132SOL    HW132855   3.668   3.266   2.045  0.3998  0.9082 -0.8010
 7132SOL    HW232856   3.707   3.139   2.086 -0.7269  0.6801 -0.1750
 7133SOL     OW32857   3.430   2.611   1.049  0.2769 -0.5070 -0.2757
 7133SOL    HW132858   3.363   2.565   0.998  0.6617 -1.0418 -0.2914
 7133SOL    HW232859   3.382   2.681   1.095  2.8857  0.7781  0.4931
 7134SOL     OW32860   1.055   1.279   1.513 -0.4242  0.4662  0.2226
 7134SOL    HW132861   1.064   1.273   1.608 -0.9421  0.2257  0.2581
 7134SOL    HW232862   1.134   1.330   1.498  0.5081 -0.6691  1.3506
 7135SOL     OW32863   1.072   1.254   1.794 -0.1201 -0.2597  0.9735
 7135SOL    HW132864   1.164   1.233   1.776 -0.5111  0.6432 -2.1454
 7135SOL    HW232865   1.061   1.207   1.876 -2.6813 -0.1184  0.7102
 7136SOL     OW32866   1.573   0.809   6.486  0.0022 -0.0678  0.1383
 7136SOL    HW132867   1.596   0.793   6.394  3.3957 -1.8309  1.3024
 7136SOL    HW232868   1.478   0.821   6.476 -0.0395 -0.4803  0.0535
 7137SOL     OW32869   3.391   4.526   1.129 -0.2527  0.2716 -0.0975
 7137SOL    HW132870   3.308   4.564   1.099  0.4193  0.7653 -1.3438
 7137SOL    HW232871   3.430   4.611   1.146 -1.0009  0.3111  1.3663
 7138SOL     OW32872   0.429   3.336   4.385 -0.0570  0.3857  0.2381
 7138SOL    HW132873   0.522   3.315   4.380 -0.1706  0.1874 -0.9217
 7138SOL    HW232874   0.425   3.410   4.324 -1.3748  0.1775  0.0742
 7139SOL     OW32875   0.038   1.335   5.018  0.7184  0.4696 -0.3914
 7139SOL    HW132876   4.713   1.417   5.027 -3.7422 -2.1271 -0.4640
 7139SOL    HW232877   0.116   1.368   5.061  1.5032 -0.8859 -0.7798
 7140SOL     OW32878   0.810   4.357   4.206  0.0839 -0.0232  0.2549
 7140SOL    HW132879   0.892   4.313   4.231  0.9471  1.6545  0.3626
 7140SOL    HW232880   0.804   4.429   4.269 -1.5217 -0.2773  0.3829
 7141SOL     OW32881   1.067   2.550   7.717 -0.2577  0.7947 -0.0237
 7141SOL    HW132882   1.058   2.485   7.787 -1.3544 -0.5463 -1.4188
 7141SOL    HW232883   1.095   2.486   7.652 -0.0322  0.0393  0.8211
 7142SOL     OW32884   2.763   2.932   4.805 -0.6324  0.2889  0.1871
 7142SOL    HW132885   2.716   2.868   4.751 -0.1562 -0.6764  0.9138
 7142SOL    HW232886   2.795   2.998   4.745  0.2988  1.0194  1.4904
 7143SOL     OW32887   0.359   3.341  17.582 -0.2104 -0.0938  0.2270
 7143SOL    HW132888   0.413   3.292  17.644  1.9098  0.6503 -1.0084
 7143SOL    HW232889   0.415   3.373  17.511  0.3544  0.9969  1.1694
 7144SOL     OW32890   1.402   1.023   6.923 -0.0246  0.2181 -0.2773
 7144SOL    HW132891   1.350   1.070   6.857 -0.8241 -0.7253 -0.3329
 7144SOL    HW232892   1.370   0.933   6.927 -0.3635  0.2903 -1.2197
 7145SOL     OW32893   2.582   2.655  14.416  0.0902 -0.1885 -0.0430
 7145SOL    HW132894   2.579   2.728  14.354 -1.8113  1.9840  2.6182
 7145SOL    HW232895   2.659   2.604  14.391 -1.3830 -2.6572  0.4185
 7146SOL     OW32896   1.920   1.330   4.053 -0.2631  0.1201  0.3830
 7146SOL    HW132897   1.994   1.357   3.998  0.3128 -1.2825  0.4579
 7146SOL    HW232898   1.911   1.236   4.035 -3.6859  0.4743  0.2628
 7147SOL     OW32899   2.203   2.971   2.472  0.3816  0.0988  0.2241
 7147SOL    HW132900   2.288   3.009   2.450  0.6303 -0.1606  0.7440
 7147SOL    HW232901   2.221   2.878   2.459  0.5400  0.1620 -0.0061
 7148SOL     OW32902   0.630   0.081   4.368 -0.3691 -0.3211 -0.2503
 7148SOL    HW132903   0.573   0.101   4.442 -1.0067  3.8488 -1.9010
 7148SOL    HW232904   0.571   0.039   4.305 -0.6544 -0.3673  0.0479
 7149SOL     OW32905   0.488   0.990  13.900  0.0712  0.4502  0.1302
 7149SOL    HW132906   0.478   0.906  13.944 -0.5285  0.2673 -0.3565
 7149SOL    HW232907   0.446   0.979  13.815 -1.5442  0.7761  0.8895
 7150SOL     OW32908   2.523   3.005   4.969  0.3196 -1.1238 -0.4329
 7150SOL    HW132909   2.609   2.980   4.934  0.9603 -0.9772  1.0597
 7150SOL    HW232910   2.488   3.048   4.891  1.4124  0.3159 -0.1285
 7151SOL     OW32911   2.249   2.040   3.541  0.3251  0.5023  0.0514
 7151SOL    HW132912   2.299   2.112   3.502 -0.5925  1.3520  0.4429
 7151SOL    HW232913   2.300   2.035   3.622  1.2896  0.8110 -0.5358
 7152SOL     OW32914   1.504   4.257   3.149  0.1595  0.4608  0.5857
 7152SOL    HW132915   1.495   4.320   3.077  1.7219  1.4536  1.2360
 7152SOL    HW232916   1.600   4.254   3.154  0.0541 -2.0111  1.3033
 7153SOL     OW32917   3.408   2.548  12.075 -0.4543 -0.4513 -0.3153
 7153SOL    HW132918   3.379   2.598  12.000 -0.2819 -0.9623 -0.7285
 7153SOL    HW232919   3.422   2.466  12.028 -1.7134 -0.4517 -0.6869
 7154SOL     OW32920   1.268   3.080   5.462 -0.5379 -0.3803 -0.0073
 7154SOL    HW132921   1.347   3.030   5.438 -1.0856 -1.3086  0.1237
 7154SOL    HW232922   1.256   3.046   5.550 -2.0893  0.6289  0.1598
 7155SOL     OW32923   0.100   1.343  13.631 -0.9599 -0.3240  0.3123
 7155SOL    HW132924   0.087   1.257  13.671  0.9268 -1.3514 -1.2908
 7155SOL    HW232925   0.059   1.329  13.546  1.1959  2.2049 -1.1463
 7156SOL     OW32926   1.926   2.315   8.793  0.1170  0.4460  0.1396
 7156SOL    HW132927   1.885   2.359   8.868  1.8233  1.8536  0.2539
 7156SOL    HW232928   1.888   2.371   8.725  1.5454 -0.4122 -1.3674
 7157SOL     OW32929   2.256   0.542  14.441  0.3701 -0.3854 -0.3318
 7157SOL    HW132930   2.274   0.451  14.418  1.1048 -0.6484  1.3004
 7157SOL    HW232931   2.168   0.550  14.403  0.3607  1.0788 -0.0222
 7158SOL     OW32932   0.001   0.214  10.030 -0.5254  0.0570  0.6318
 7158SOL    HW132933   0.046   0.190  10.112 -1.3632  0.5131  1.2268
 7158SOL    HW232934   0.003   0.124   9.997 -3.4045  1.1338 -2.3679
 7159SOL     OW32935   2.450   0.670   9.035  0.7210  0.9853 -0.0881
 7159SOL    HW132936   2.362   0.663   9.070  0.0121 -0.1139 -2.1026
 7159SOL    HW232937   2.477   0.712   9.117  1.9231 -0.5972  0.3192
 7160SOL     OW32938   1.118   1.069   6.386 -0.6542 -0.0217  0.3175
 7160SOL    HW132939   1.123   1.164   6.394 -0.9391  0.1046 -1.0368
 7160SOL    HW232940   1.047   1.055   6.449 -0.8836  1.0942  0.3025
 7161SOL     OW32941   1.074   1.753  10.195  0.2783  0.0738  0.1696
 7161SOL    HW132942   0.994   1.767  10.245 -0.2086  2.8924 -1.3226
 7161SOL    HW232943   1.137   1.772  10.264 -0.6847 -1.6577  1.5124
 7162SOL     OW32944   1.004   2.702   5.167  0.9691  0.3595 -0.2585
 7162SOL    HW132945   1.024   2.744   5.251  1.7237 -1.0998  0.3041
 7162SOL    HW232946   0.919   2.740   5.148  1.3547  1.7803  0.8233
 7163SOL     OW32947   3.413   3.203   4.328 -0.0294  0.3712 -0.0148
 7163SOL    HW132948   3.479   3.146   4.289 -1.5578 -0.1578 -1.8248
 7163SOL    HW232949   3.334   3.160   4.295  1.1268 -2.5590  1.0573
 7164SOL     OW32950   4.414   1.532   2.424  0.1792  0.1482  0.0087
 7164SOL    HW132951   4.453   1.580   2.352 -3.0170 -2.2049 -3.2572
 7164SOL    HW232952   4.449   1.574   2.503  0.8234  0.9338 -0.6892
 7165SOL     OW32953   4.627   0.999  15.519 -0.0507  0.2381 -0.1129
 7165SOL    HW132954   4.539   0.964  15.534 -0.7910  1.2832 -2.0421
 7165SOL    HW232955   4.691   0.934  15.548  0.6152  1.2106  0.5847
 7166SOL     OW32956   3.315   1.502   7.959  0.3375 -0.0709 -0.4138
 7166SOL    HW132957   3.405   1.469   7.968  0.1089 -0.5830  0.0179
 7166SOL    HW232958   3.286   1.461   8.041  0.9768  1.7188  0.7152
 7167SOL     OW32959   1.566   3.752   6.421  0.2878 -0.5183 -0.1036
 7167SOL    HW132960   1.638   3.689   6.416  1.2497  0.5187  0.6855
 7167SOL    HW232961   1.493   3.700   6.455 -1.5158  0.9820 -1.6490
 7168SOL     OW32962   1.428   4.635   1.588  0.5197  0.0708  0.0231
 7168SOL    HW132963   1.335   4.614   1.586  0.6316 -0.2639 -1.6611
 7168SOL    HW232964   1.468   4.559   1.630 -2.0199  0.3512  2.9165
 7169SOL     OW32965   0.196   4.307   7.716  0.0260 -0.3511  0.0329
 7169SOL    HW132966   0.252   4.295   7.793  1.5014 -2.8910 -1.4516
 7169SOL    HW232967   0.214   4.232   7.658 -0.3379  0.5691 -1.2681
 7170SOL     OW32968   1.533   2.989   2.367 -0.3579 -0.2904  0.0241
 7170SOL    HW132969   1.553   2.926   2.436 -0.0731 -1.1470 -0.8471
 7170SOL    HW232970   1.457   2.948   2.325 -0.0438 -0.6695 -0.1758
 7171SOL     OW32971   2.394   2.473   7.373  0.3681 -0.5188 -0.0947
 7171SOL    HW132972   2.315   2.457   7.425 -0.5270  1.4438 -0.8597
 7171SOL    HW232973   2.363   2.518   7.295  1.9086  0.6318 -0.0266
 7172SOL     OW32974   3.951   2.295   3.128 -0.0807 -0.1685  0.0147
 7172SOL    HW132975   3.885   2.294   3.059  0.3100  0.5853 -0.3659
 7172SOL    HW232976   3.960   2.200   3.139  0.0271 -0.0763  0.7000
 7173SOL     OW32977   0.546   2.772  16.747  0.0993  0.1821  0.0038
 7173SOL    HW132978   0.626   2.766  16.695  0.0602 -0.2227 -0.0031
 7173SOL    HW232979   0.481   2.808  16.686  0.2293  3.8200  2.0111
 7174SOL     OW32980   1.275   3.276   3.257 -0.4320 -0.4145  0.3622
 7174SOL    HW132981   1.242   3.230   3.335 -0.5913 -1.1888 -0.1645
 7174SOL    HW232982   1.348   3.217   3.238  0.1803  1.3567 -2.6203
 7175SOL     OW32983   0.759   0.900   8.697  0.4015  0.0882  0.4576
 7175SOL    HW132984   0.847   0.932   8.713  1.8806 -2.7819 -1.9252
 7175SOL    HW232985   0.766   0.827   8.759 -3.9716  0.1023  0.9710
 7176SOL     OW32986   1.054   1.449   2.377  0.0575 -0.8116 -0.4008
 7176SOL    HW132987   1.130   1.505   2.362 -1.0996  0.5424 -1.2123
 7176SOL    HW232988   1.000   1.514   2.422  0.3536 -1.5237  0.9553
 7177SOL     OW32989   3.670   4.522   4.640 -0.6296 -0.1908 -0.2538
 7177SOL    HW132990   3.675   4.432   4.671  1.4827 -0.0078 -0.0380
 7177SOL    HW232991   3.578   4.545   4.650 -0.8514 -0.5221 -1.4972
 7178SOL     OW32992   0.132   0.111   1.039  0.4423 -0.5469  0.2157
 7178SOL    HW132993   0.204   0.172   1.026 -0.1730 -0.1487 -1.2754
 7178SOL    HW232994   0.102   0.113   1.130 -1.4002 -2.0944 -0.3671
 7179SOL     OW32995   3.591   1.191  11.869  0.5208  0.1571  0.6542
 7179SOL    HW132996   3.654   1.261  11.888  2.3526 -1.2348 -0.3685
 7179SOL    HW232997   3.525   1.200  11.938  0.4743 -0.8475  0.7471
 7180SOL     OW32998   4.557   0.202  13.018 -0.1608  0.8976 -0.3064
 7180SOL    HW132999   4.481   0.167  12.972 -0.1072 -0.4754  0.6315
 7180SOL    HW233000   4.625   0.166  12.960  1.7365 -0.9019  3.0205
 7181SOL     OW33001   1.889   2.242   3.353 -0.1661  0.0099 -0.0188
 7181SOL    HW133002   1.932   2.157   3.354  1.6191  0.9397  1.0205
 7181SOL    HW233003   1.796   2.217   3.357 -0.2958  0.3799 -0.7706
 7182SOL     OW33004   4.031   1.272   7.676  0.5305 -0.3978  0.2009
 7182SOL    HW133005   3.988   1.310   7.753 -1.6647 -0.8690 -0.7927
 7182SOL    HW233006   3.975   1.197   7.658  1.3419 -0.9096 -0.1924
 7183SOL     OW33007   4.200   2.174   6.918  0.1837  0.2013  0.4090
 7183SOL    HW133008   4.141   2.173   6.843  1.8917 -1.6212 -0.9196
 7183SOL    HW233009   4.136   2.173   6.990  1.0929 -1.4169  1.1904
 7184SOL     OW33010   3.403   4.195   3.716 -0.5336  0.2353  0.1110
 7184SOL    HW133011   3.349   4.237   3.649  0.2970  0.0645 -0.6651
 7184SOL    HW233012   3.424   4.112   3.673 -2.3002 -0.3059  0.2884
 7185SOL     OW33013   0.796   2.063   4.477  0.0117 -0.4536  0.7776
 7185SOL    HW133014   0.816   2.126   4.408 -0.3018 -0.7875  0.3781
 7185SOL    HW233015   0.707   2.035   4.455 -0.5466  0.2802  2.1021
 7186SOL     OW33016   2.958   1.822   8.547  0.3278 -0.4605  0.2267
 7186SOL    HW133017   3.046   1.837   8.514 -0.3533 -0.6088 -1.7019
 7186SOL    HW233018   2.983   1.794   8.635  3.0067  3.7814  0.8239
 7187SOL     OW33019   2.772   1.754   7.416  0.3680  0.5389  0.5977
 7187SOL    HW133020   2.719   1.696   7.362  0.3685  1.3910 -0.3138
 7187SOL    HW233021   2.709   1.798   7.473 -0.6126  0.4649 -0.4306
 7188SOL     OW33022   1.385   2.158  14.812  0.2734 -0.4450 -0.2456
 7188SOL    HW133023   1.319   2.150  14.743 -0.1448 -0.6184  0.1806
 7188SOL    HW233024   1.377   2.245  14.850  1.4411 -1.3931  2.1734
 7189SOL     OW33025   3.316   0.051   6.453  0.3398 -0.2438  0.2921
 7189SOL    HW133026   3.338   0.137   6.492  0.1046 -0.1475  0.2074
 7189SOL    HW233027   3.330   4.711   6.524 -0.2471 -1.7012 -0.9142
 7190SOL     OW33028   0.351   0.307   0.972 -0.2171  0.5651  0.2271
 7190SOL    HW133029   0.351   0.343   1.061  0.3312  0.0616  0.4305
 7190SOL    HW233030   0.435   0.264   0.959 -0.3280  0.1908  0.7541
 7191SOL     OW33031   2.515   0.261  13.717  0.0065 -0.3804 -0.1317
 7191SOL    HW133032   2.498   0.169  13.695  0.1525 -0.2905 -0.6197
 7191SOL    HW233033   2.435   0.306  13.691  0.5336  0.7800  0.2296
 7192SOL     OW33034   3.473   0.208   9.234 -0.0331 -0.2513 -0.0448
 7192SOL    HW133035   3.483   0.275   9.302 -1.4193 -0.8714  0.7711
 7192SOL    HW233036   3.404   0.150   9.267 -0.7553  1.3867  1.4110
 7193SOL     OW33037   1.913   2.799   9.012  0.0895 -0.3382 -0.0802
 7193SOL    HW133038   1.842   2.803   9.075 -0.3589 -1.3198 -0.5290
 7193SOL    HW233039   1.871   2.830   8.932 -0.7242 -0.2128  0.3967
 7194SOL     OW33040   4.233   4.525   1.969 -0.3724  0.4620  0.0080
 7194SOL    HW133041   4.225   4.608   1.923 -3.1406  0.1579 -0.0452
 7194SOL    HW233042   4.276   4.484   1.894 -0.2312  1.9583 -0.7295
 7195SOL     OW33043   0.625   2.529   7.908  0.0595 -0.6179 -0.2715
 7195SOL    HW133044   0.531   2.535   7.891  0.1540  0.4432 -0.3949
 7195SOL    HW233045   0.627   2.493   7.996  1.3518 -0.4612 -0.2409
 7196SOL     OW33046   2.648   4.499  14.044  0.3154 -0.7587  0.5237
 7196SOL    HW133047   2.711   4.438  14.083  2.0722  0.4919 -0.3754
 7196SOL    HW233048   2.703   4.548  13.983 -2.0584  1.8507  0.4960
 7197SOL     OW33049   4.152   2.095   2.836 -0.1516 -0.3926  0.2004
 7197SOL    HW133050   4.229   2.110   2.891 -0.2756  0.0520  0.2571
 7197SOL    HW233051   4.125   2.007   2.860 -0.1436  0.0483  1.8310
 7198SOL     OW33052   3.147   4.552   6.938 -0.5455  0.0302 -0.1615
 7198SOL    HW133053   3.089   4.483   6.970  0.9177 -1.2709 -0.3476
 7198SOL    HW233054   3.095   4.593   6.868 -0.1842  0.7642 -0.0012
 7199SOL     OW33055   0.030   3.631  11.341  0.0883 -0.4455  0.2208
 7199SOL    HW133056   4.663   3.658  11.329  1.0716  2.4407 -0.6774
 7199SOL    HW233057   0.069   3.715  11.362 -0.9667  0.5574 -1.8722
 7200SOL     OW33058   0.731   1.954   1.900  0.3431 -0.0479 -0.3888
 7200SOL    HW133059   0.808   1.943   1.845 -0.3985  1.1378 -1.6935
 7200SOL    HW233060   0.766   2.010   1.969 -1.0015  2.0080 -1.3555
 7201SOL     OW33061   4.556   2.484   3.711 -0.3457 -0.1672 -0.7063
 7201SOL    HW133062   4.478   2.435   3.687 -1.2387  0.3987  1.0467
 7201SOL    HW233063   4.527   2.575   3.719 -0.2346 -0.0262 -1.9422
 7202SOL     OW33064   1.054   2.451   9.482  0.7407 -0.6582 -0.8423
 7202SOL    HW133065   1.067   2.542   9.454 -0.1376 -0.8217 -1.7644
 7202SOL    HW233066   1.138   2.416   9.513  0.2200 -1.2117 -0.0436
 7203SOL     OW33067   4.436   0.440   8.795 -0.0587  0.0158  0.3666
 7203SOL    HW133068   4.521   0.396   8.789 -0.2997 -0.2305 -1.4191
 7203SOL    HW233069   4.443   0.512   8.732  1.0090  1.4160  2.0974
 7204SOL     OW33070   1.909   1.449   4.488 -0.0675  0.1634  0.3617
 7204SOL    HW133071   1.997   1.413   4.498 -0.9471 -1.5885  1.7197
 7204SOL    HW233072   1.916   1.543   4.473  0.5482  0.5397  2.9075
 7205SOL     OW33073   4.614   4.508   8.823 -0.4799  0.6631 -0.0093
 7205SOL    HW133074   4.535   4.454   8.828 -0.5134  0.5891 -1.4493
 7205SOL    HW233075   4.637   4.489   8.732 -0.2615  2.5826 -0.3540
 7206SOL     OW33076   3.841   3.328   4.357  0.0219  0.5387  0.1691
 7206SOL    HW133077   3.927   3.305   4.392 -0.5790  1.6170  2.3777
 7206SOL    HW233078   3.780   3.310   4.429 -1.4987  0.0982 -1.2185
 7207SOL     OW33079   0.193   4.023   0.802  0.2196 -0.0985 -0.1427
 7207SOL    HW133080   0.283   4.028   0.836  0.1737  1.9781 -0.3167
 7207SOL    HW233081   0.192   4.089   0.733 -2.8772  0.8902  0.8647
 7208SOL     OW33082   0.413   0.518   2.665 -0.4803  0.1583  0.0785
 7208SOL    HW133083   0.334   0.470   2.643 -0.4658  0.7133 -1.1658
 7208SOL    HW233084   0.430   0.577   2.591  1.7729  0.2677  0.6596
 7209SOL     OW33085   4.469   4.282  12.056  0.0951 -0.2078 -0.3734
 7209SOL    HW133086   4.557   4.286  12.019  0.7813  0.2385  1.3203
 7209SOL    HW233087   4.436   4.365  12.023  0.1676  0.1853  0.5358
 7210SOL     OW33088   1.697   0.767   0.274  0.2148 -0.4525 -0.4027
 7210SOL    HW133089   1.761   0.782   0.344  1.7945  0.1798 -1.9750
 7210SOL    HW233090   1.703   0.672   0.265  1.1213 -0.6347  2.0946
 7211SOL     OW33091   3.653   4.574  16.401 -0.0732 -0.1429 -0.0412
 7211SOL    HW133092   3.734   4.552  16.449  1.3973 -0.6129 -2.7382
 7211SOL    HW233093   3.679   4.554  16.311  0.1467 -0.0393 -0.0025
 7212SOL     OW33094   0.045   2.057  11.589  0.7244  0.0066 -0.2773
 7212SOL    HW133095   4.692   2.095  11.546 -0.1514  0.0066  1.3066
 7212SOL    HW233096   0.107   2.071  11.518  0.5146 -0.2121 -0.5021
 7213SOL     OW33097   1.551   2.577   6.693  0.0957 -0.5034 -0.0983
 7213SOL    HW133098   1.475   2.537   6.736 -0.7089  0.9902 -0.1357
 7213SOL    HW233099   1.526   2.569   6.601 -0.0830 -0.0033 -0.0932
 7214SOL     OW33100   0.556   2.359   3.950  0.4028  0.3789  0.2009
 7214SOL    HW133101   0.490   2.424   3.976  1.3719  0.6341  2.0168
 7214SOL    HW233102   0.510   2.276   3.943 -0.4766  0.7365  1.7149
 7215SOL     OW33103   1.303   2.247   2.878 -0.2395 -0.3663  0.2678
 7215SOL    HW133104   1.321   2.171   2.822  0.1699 -0.6421  0.7727
 7215SOL    HW233105   1.385   2.280   2.914  1.0658 -2.2673 -0.9793
 7216SOL     OW33106   4.461   2.684   3.302  0.2495 -0.7889 -0.0718
 7216SOL    HW133107   4.381   2.691   3.354 -0.1433  0.5294 -0.8621
 7216SOL    HW233108   4.431   2.756   3.246  1.2880 -0.8870 -0.7492
 7217SOL     OW33109   0.932   2.428   1.009 -0.5652  0.1085  0.3460
 7217SOL    HW133110   0.872   2.455   0.940  0.3814 -1.2297 -0.9868
 7217SOL    HW233111   1.017   2.446   0.969 -0.4557 -1.4553 -0.1104
 7218SOL     OW33112   2.158   0.021   7.609 -0.3728 -0.2302  0.2379
 7218SOL    HW133113   2.130   0.021   7.701 -0.4006 -1.3598  0.2368
 7218SOL    HW233114   2.193   4.655   7.614  3.2454  1.1337 -0.8506
 7219SOL     OW33115   3.899   4.570   8.518 -0.2083 -0.2884  0.2000
 7219SOL    HW133116   3.928   4.513   8.589 -1.5524 -0.9320  0.2223
 7219SOL    HW233117   3.976   4.627   8.504  0.7919 -1.8459 -0.5880
 7220SOL     OW33118   0.943   2.390   8.193  0.4896 -0.2244  0.2079
 7220SOL    HW133119   0.882   2.324   8.225  0.4345 -1.2453 -1.9927
 7220SOL    HW233120   1.001   2.335   8.141  1.3563  1.7020 -0.8599
 7221SOL     OW33121   2.017   1.506  10.573  0.3273  0.4260 -0.1323
 7221SOL    HW133122   2.072   1.561  10.518  1.7933 -0.3019  0.6025
 7221SOL    HW233123   1.932   1.546  10.555  0.0210  0.1616  0.7461
 7222SOL     OW33124   3.777   2.597   1.874  0.2875 -0.2552 -0.4580
 7222SOL    HW133125   3.866   2.633   1.870  0.9169 -1.7832 -0.2055
 7222SOL    HW233126   3.744   2.644   1.951  0.6177 -1.4566  0.4153
 7223SOL     OW33127   1.745   1.884   5.330 -0.6446 -0.0003  0.5762
 7223SOL    HW133128   1.663   1.882   5.379 -0.7279 -0.9647  0.3905
 7223SOL    HW233129   1.726   1.828   5.255 -0.2228  0.0422  0.4360
 7224SOL     OW33130   1.314   0.684  14.162  0.1903  0.3212 -0.1317
 7224SOL    HW133131   1.264   0.613  14.203 -0.4228  0.9041  0.1216
 7224SOL    HW233132   1.336   0.652  14.074  2.6062 -1.5295  1.1341
 7225SOL     OW33133   2.245   3.936   5.539 -0.4471  0.2806  0.5477
 7225SOL    HW133134   2.245   3.963   5.630  0.1608 -1.0145  0.9292
 7225SOL    HW233135   2.336   3.944   5.508 -0.7824 -0.8643 -0.7453
 7226SOL     OW33136   3.818   1.602   9.135  0.2648 -0.4887 -0.0503
 7226SOL    HW133137   3.863   1.522   9.106 -0.9561 -0.8554 -0.9265
 7226SOL    HW233138   3.897   1.653   9.152  0.4665 -0.9531  0.4030
 7227SOL     OW33139   4.435   3.944   8.874  0.3408 -0.2032  0.2037
 7227SOL    HW133140   4.496   3.896   8.930 -1.1947  0.6382  2.6038
 7227SOL    HW233141   4.437   4.030   8.915  1.5145 -0.7256  1.2475
 7228SOL     OW33142   2.129   3.380   2.107 -0.2563 -0.6056 -0.0359
 7228SOL    HW133143   2.034   3.390   2.093  0.1041  0.8867 -1.3643
 7228SOL    HW233144   2.130   3.377   2.203  1.8179  0.1790 -0.0500
 7229SOL     OW33145   3.924   3.121   3.488 -0.8639  0.3452  0.5793
 7229SOL    HW133146   3.843   3.113   3.539 -1.9011 -0.3258 -1.1827
 7229SOL    HW233147   3.889   3.166   3.411  0.2621  0.9267  0.4064
 7230SOL     OW33148   3.009   1.492   3.279  0.4271  0.0267  0.2913
 7230SOL    HW133149   3.086   1.501   3.223  1.2560  1.4575  1.6741
 7230SOL    HW233150   2.948   1.545   3.227 -0.5625  0.1693  1.6070
 7231SOL     OW33151   4.147   4.209   3.649 -0.1702  0.3986 -0.0005
 7231SOL    HW133152   4.184   4.136   3.600 -4.5013 -2.2852  0.6576
 7231SOL    HW233153   4.101   4.250   3.576  0.7440 -1.5110 -1.6293
 7232SOL     OW33154   3.290   3.956   1.066 -0.4770  0.0755 -0.0889
 7232SOL    HW133155   3.261   4.036   1.109 -1.7196  0.7916 -2.2810
 7232SOL    HW233156   3.381   3.984   1.052 -0.3937  0.8219  1.9725
 7233SOL     OW33157   2.180   2.919   0.941 -0.7747 -0.2906 -0.2352
 7233SOL    HW133158   2.253   2.960   0.894 -0.4549  0.0818  0.5853
 7233SOL    HW233159   2.193   2.952   1.030  3.7478  1.1493 -1.4243
 7234SOL     OW33160   0.940   2.288   8.564 -0.1307 -0.5524 -0.0093
 7234SOL    HW133161   0.921   2.375   8.599 -0.1078  0.0384 -1.4596
 7234SOL    HW233162   0.855   2.263   8.528  0.5245 -0.7152 -1.4433
 7235SOL     OW33163   1.675   3.902   2.892 -0.5179 -0.0899  0.0946
 7235SOL    HW133164   1.747   3.904   2.829  0.4796 -1.0332  1.2056
 7235SOL    HW233165   1.647   3.811   2.880  1.6421 -0.7558  0.0523
 7236SOL     OW33166   4.479   2.512   4.356 -0.0497 -0.0261 -0.0034
 7236SOL    HW133167   4.448   2.550   4.275  1.5946  1.4029  0.0362
 7236SOL    HW233168   4.434   2.577   4.410  0.6502  0.4996 -0.0464
 7237SOL     OW33169   3.268   3.580   2.656 -0.3642 -0.6390  0.2074
 7237SOL    HW133170   3.187   3.530   2.665 -1.1130  0.2357 -1.8428
 7237SOL    HW233171   3.253   3.622   2.741 -0.3206  0.3457 -0.2847
 7238SOL     OW33172   2.065   2.368  14.798 -0.2151 -0.7854 -0.6973
 7238SOL    HW133173   2.036   2.452  14.764  0.3010  0.5242  2.1047
 7238SOL    HW233174   1.980   2.325  14.794 -1.3885  1.4996  0.2069
 7239SOL     OW33175   3.601   1.635   1.385  0.2040  0.3360  0.1688
 7239SOL    HW133176   3.600   1.566   1.318  1.1792  1.4263 -0.9795
 7239SOL    HW233177   3.615   1.594   1.470 -0.1420 -1.5123 -0.6634
 7240SOL     OW33178   4.520   0.442  11.974 -0.3412  0.1602  0.2400
 7240SOL    HW133179   4.595   0.442  11.914 -0.1808  1.1074  0.4308
 7240SOL    HW233180   4.459   0.388  11.923  0.9927 -1.4176  0.3482
 7241SOL     OW33181   2.128   1.111   3.394 -1.0948 -0.3175 -0.4244
 7241SOL    HW133182   2.176   1.028   3.397  1.1088  1.0129  1.6966
 7241SOL    HW233183   2.204   1.169   3.393  0.7254 -2.6843 -0.3058
 7242SOL     OW33184   0.637   1.331  11.284  0.4150  0.2589 -0.2075
 7242SOL    HW133185   0.644   1.426  11.283 -0.2913  0.3235  0.7447
 7242SOL    HW233186   0.543   1.319  11.278  0.1950  1.7118  0.3427
 7243SOL     OW33187   1.237   4.283  15.789  0.4935 -0.3423 -0.0520
 7243SOL    HW133188   1.202   4.278  15.878  1.4671 -1.6797  0.2585
 7243SOL    HW233189   1.328   4.308  15.808  0.3643 -0.0539  0.1932
 7244SOL     OW33190   2.424   4.144   8.377 -0.7456 -0.4233  1.1872
 7244SOL    HW133191   2.447   4.210   8.312  3.4224 -2.7156  0.3354
 7244SOL    HW233192   2.509   4.133   8.419  0.1404  1.6573 -0.0369
 7245SOL     OW33193   1.387   0.563   7.643  0.7207  0.0404  0.5647
 7245SOL    HW133194   1.458   0.519   7.688 -0.2739 -2.7038 -0.5576
 7245SOL    HW233195   1.393   0.649   7.685 -3.2714  1.1605 -1.0726
 7246SOL     OW33196   4.588   0.430   2.024 -0.2556 -0.0742  0.3391
 7246SOL    HW133197   4.675   0.458   2.053 -0.4611  1.5847 -0.5975
 7246SOL    HW233198   4.543   0.511   2.000  0.6550  0.0832 -0.8555
 7247SOL     OW33199   2.987   3.051   0.123 -0.5292  0.2372  0.3320
 7247SOL    HW133200   2.961   2.964   0.153 -0.0899  0.5188  1.5379
 7247SOL    HW233201   2.910   3.101   0.149  0.0349  1.2424  0.0694
 7248SOL     OW33202   0.050   0.779   9.063  0.2138  0.4800 -0.0279
 7248SOL    HW133203   0.022   0.753   9.151  0.4639 -0.3153 -0.1846
 7248SOL    HW233204   0.035   0.698   9.014 -2.8275  1.0015  0.0436
 7249SOL     OW33205   0.395   3.628   0.872  0.1539 -0.1830  0.0993
 7249SOL    HW133206   0.357   3.656   0.788  0.3751 -1.6834 -0.4834
 7249SOL    HW233207   0.342   3.549   0.879 -1.4914  0.9353  0.4266
 7250SOL     OW33208   0.494   2.254  15.429 -0.4476 -0.1081  0.0278
 7250SOL    HW133209   0.482   2.308  15.507 -1.2520  0.9051 -0.7869
 7250SOL    HW233210   0.419   2.276  15.374  0.0130 -0.7725 -0.8661
 7251SOL     OW33211   1.092   4.097   7.584 -0.6817 -0.8509 -0.1156
 7251SOL    HW133212   1.085   4.163   7.515  1.5698 -0.4116  0.0985
 7251SOL    HW233213   1.130   4.146   7.657  0.6749 -1.5502 -0.3638
 7252SOL     OW33214   0.749   3.840   1.762 -0.3406 -0.0318 -0.2475
 7252SOL    HW133215   0.689   3.891   1.709 -0.2835  1.3148  0.9893
 7252SOL    HW233216   0.817   3.901   1.792 -0.1663 -0.0262 -0.6582
 7253SOL     OW33217   4.644   4.042   5.907 -0.1236 -0.4950  0.3616
 7253SOL    HW133218   4.552   4.052   5.881  0.1136  0.8375  0.0380
 7253SOL    HW233219   4.651   4.110   5.974 -0.1479 -0.3843  0.2520
 7254SOL     OW33220   4.577   4.509  12.373 -0.6341  0.1699  0.1989
 7254SOL    HW133221   4.654   4.458  12.349 -0.8093 -1.0385  2.1577
 7254SOL    HW233222   4.577   4.480  12.465 -0.1013 -1.2561 -0.2564
 7255SOL     OW33223   1.424   1.009   3.553 -0.3739  0.1768 -0.3801
 7255SOL    HW133224   1.495   0.998   3.616 -1.1905 -2.1277  0.1257
 7255SOL    HW233225   1.457   1.018   3.463 -0.2504 -0.0309 -0.3557
 7256SOL     OW33226   2.194   3.756   2.793 -0.8675  0.2340  0.5107
 7256SOL    HW133227   2.266   3.718   2.743 -1.7250 -0.5029 -0.1671
 7256SOL    HW233228   2.182   3.836   2.742  2.0687  1.0862  1.1696
 7257SOL     OW33229   0.273   2.593  17.664  0.1296  0.2469 -0.3473
 7257SOL    HW133230   0.239   2.621  17.580  0.3814  1.5048 -0.0266
 7257SOL    HW233231   0.257   2.498  17.667 -1.0555  0.4636  0.1339
 7258SOL     OW33232   3.746   2.418   1.275  0.3158  0.6984 -0.2485
 7258SOL    HW133233   3.764   2.512   1.278  0.2715  0.7212 -0.6111
 7258SOL    HW233234   3.653   2.409   1.295  1.1049 -1.2979  2.3781
 7259SOL     OW33235   2.327   4.557   9.136 -0.3046  0.2651 -0.2220
 7259SOL    HW133236   2.341   4.477   9.187  0.3467 -0.2891 -1.2860
 7259SOL    HW233237   2.269   4.526   9.066 -0.8569  1.4626 -0.2992
 7260SOL     OW33238   3.500   0.357   4.340 -0.7262  0.2079 -0.3768
 7260SOL    HW133239   3.473   0.399   4.259  0.5606  2.9005  0.5751
 7260SOL    HW233240   3.419   0.310   4.358  1.0957 -2.7884 -0.1334
 7261SOL     OW33241   2.217   4.237   0.170 -0.1441  0.0061 -0.4964
 7261SOL    HW133242   2.231   4.248   0.264  2.6289 -1.9942 -0.6710
 7261SOL    HW233243   2.159   4.314   0.171 -0.2277 -0.0564 -0.5403
 7262SOL     OW33244   0.481   3.908  13.316 -0.1865  0.1244  0.3350
 7262SOL    HW133245   0.495   3.827  13.267 -2.6772 -0.4841  0.6249
 7262SOL    HW233246   0.387   3.897  13.331 -0.2379 -2.0747 -1.7054
 7263SOL     OW33247   0.945   3.187   1.718 -0.2721 -0.7140  0.4771
 7263SOL    HW133248   1.039   3.191   1.739 -0.4543 -1.7653  1.5062
 7263SOL    HW233249   0.958   3.164   1.625 -1.7158  1.7136 -0.3196
 7264SOL     OW33250   1.742   0.481   4.022 -0.6994  0.7633  0.5185
 7264SOL    HW133251   1.813   0.417   4.018 -0.1236  1.4700 -0.4327
 7264SOL    HW233252   1.738   0.518   4.110  0.5432  1.3113  0.3301
 7265SOL     OW33253   2.765   4.695   4.691 -0.0038  0.8734  0.1235
 7265SOL    HW133254   2.791   4.603   4.703  0.9189  0.9283 -1.3819
 7265SOL    HW233255   2.719   4.694   4.607 -0.7014 -2.8961  0.5226
 7266SOL     OW33256   3.915   4.683   4.702  0.2406 -0.3516  0.3044
 7266SOL    HW133257   3.835   4.663   4.653 -0.3798  3.2810 -0.1988
 7266SOL    HW233258   3.972   4.711   4.631  0.4180 -3.1771 -0.6495
 7267SOL     OW33259   1.021   2.594  10.203  0.4375  0.2441 -0.0160
 7267SOL    HW133260   0.963   2.581  10.278 -2.2494 -2.7675 -2.6442
 7267SOL    HW233261   1.067   2.676  10.223  1.1401  0.1276 -1.1504
 7268SOL     OW33262   3.124   1.616   6.542  0.2033 -0.2275 -0.2748
 7268SOL    HW133263   3.142   1.687   6.482  0.1952  0.0019 -0.0047
 7268SOL    HW233264   3.035   1.638   6.567 -0.8779 -4.1597 -0.6118
 7269SOL     OW33265   1.946   4.265   0.344  0.2132  0.4930 -0.3582
 7269SOL    HW133266   1.854   4.289   0.356  0.5248  0.7150  1.5300
 7269SOL    HW233267   1.988   4.338   0.390  0.3469  0.3898 -0.3199
 7270SOL     OW33268   2.149   4.181   2.512 -0.3184 -0.1350  0.3568
 7270SOL    HW133269   2.169   4.107   2.456  0.9906  1.1134 -0.8217
 7270SOL    HW233270   2.095   4.219   2.443  0.7357  1.7240  0.5570
 7271SOL     OW33271   3.118   3.851  14.693 -0.1911 -0.5515  0.3405
 7271SOL    HW133272   3.032   3.827  14.660  0.0482 -0.8831 -0.0421
 7271SOL    HW233273   3.104   3.902  14.773  2.4835 -1.1181  1.1945
 7272SOL     OW33274   3.905   3.041  15.387  0.5517  0.2813  0.0227
 7272SOL    HW133275   3.926   3.134  15.375  0.5578  0.7545  3.5701
 7272SOL    HW233276   3.931   2.991  15.310 -1.8010  1.2081 -1.3710
 7273SOL     OW33277   2.198   2.166   3.145  0.1351 -0.7486  0.0610
 7273SOL    HW133278   2.119   2.150   3.197  0.8339 -1.2852  0.9488
 7273SOL    HW233279   2.203   2.081   3.103  0.4277  0.2365 -1.9127
 7274SOL     OW33280   2.657   1.011  16.423  0.1504  0.4023 -0.6441
 7274SOL    HW133281   2.695   0.941  16.369 -0.5372  0.1880 -0.8528
 7274SOL    HW233282   2.690   0.988  16.510 -2.6731 -1.6962 -0.0885
 7275SOL     OW33283   2.760   4.117   6.323 -0.4088 -0.5807 -0.6801
 7275SOL    HW133284   2.813   4.192   6.348 -0.3353 -0.3924 -1.3964
 7275SOL    HW233285   2.672   4.145   6.351  0.1810 -0.0418  0.6255
 7276SOL     OW33286   3.318   2.706   4.160 -0.6051 -0.2095 -0.2874
 7276SOL    HW133287   3.412   2.712   4.140 -0.7709  1.7883 -0.5272
 7276SOL    HW233288   3.303   2.624   4.207 -2.3282 -0.9485 -2.1650
 7277SOL     OW33289   4.406   2.619  10.420 -0.4605 -0.1691  0.1525
 7277SOL    HW133290   4.436   2.704  10.387 -0.9400  0.3473  1.0754
 7277SOL    HW233291   4.324   2.606  10.373 -0.7946  0.0063  0.6964
 7278SOL     OW33292   3.110   4.650   3.785  0.2917 -0.0680 -0.0735
 7278SOL    HW133293   3.146   4.569   3.820 -1.3139 -0.6838  0.1373
 7278SOL    HW233294   3.114   4.705   3.864 -3.1593  2.2968 -1.5587
 7279SOL     OW33295   0.424   4.370   4.437  0.0675  0.0251 -0.0426
 7279SOL    HW133296   0.400   4.422   4.360  2.3177 -0.1907 -0.8979
 7279SOL    HW233297   0.416   4.441   4.500  4.3041  1.6457 -1.3358
 7280SOL     OW33298   2.890   3.537   5.376 -0.2165 -0.4904 -0.4331
 7280SOL    HW133299   2.950   3.569   5.309 -1.1702 -0.3836 -1.2377
 7280SOL    HW233300   2.812   3.501   5.334 -1.7895  0.8413  1.3675
 7281SOL     OW33301   3.375   4.425  11.321 -0.2027 -0.5650 -0.1506
 7281SOL    HW133302   3.392   4.421  11.415  1.2852 -3.6960 -0.5284
 7281SOL    HW233303   3.464   4.432  11.287 -0.7443  0.8420 -1.2451
 7282SOL     OW33304   0.671   0.466   5.326  0.2789 -0.7030 -0.2835
 7282SOL    HW133305   0.673   0.407   5.402 -2.8003  1.2533  1.3194
 7282SOL    HW233306   0.580   0.486   5.306  0.7583  0.7190 -1.0987
 7283SOL     OW33307   3.591   0.247  13.331  0.3595  0.5862 -0.1111
 7283SOL    HW133308   3.550   0.203  13.406  0.0196 -0.1118 -0.7099
 7283SOL    HW233309   3.613   0.174  13.272 -0.6271  1.9524 -2.1390
 7284SOL     OW33310   1.338   0.807   8.224  0.2996  0.0180  0.2777
 7284SOL    HW133311   1.282   0.873   8.184  0.3884 -1.0931 -1.6727
 7284SOL    HW233312   1.271   0.761   8.275  2.1441 -1.2526  1.5762
 7285SOL     OW33313   3.156   4.029   0.494 -0.0480  0.4092 -0.6143
 7285SOL    HW133314   3.248   4.049   0.479  0.0480 -1.1238 -2.1226
 7285SOL    HW233315   3.157   4.007   0.587  1.2221  2.4726 -0.1312
 7286SOL     OW33316   0.595   1.132   1.619  0.0798 -0.4357 -0.1057
 7286SOL    HW133317   0.684   1.103   1.639  0.7768  1.3993 -0.5173
 7286SOL    HW233318   0.597   1.189   1.696  0.0575  1.8057 -1.7599
 7287SOL     OW33319   3.936   4.322   4.133 -0.0193 -0.6106 -0.2056
 7287SOL    HW133320   3.974   4.290   4.051 -0.4697 -0.9812 -0.2701
 7287SOL    HW233321   3.975   4.254   4.188 -0.7402  1.2160  2.5091
 7288SOL     OW33322   1.229   4.258   7.738  0.2880 -1.0501  0.3048
 7288SOL    HW133323   1.193   4.321   7.800  0.9449  0.3077 -0.6733
 7288SOL    HW233324   1.302   4.231   7.793 -1.5177 -2.5005  1.9964
 7289SOL     OW33325   2.028   2.886  14.040 -0.2019 -0.4080  0.3733
 7289SOL    HW133326   2.123   2.886  14.030 -0.2119 -0.5683  0.2912
 7289SOL    HW233327   1.992   2.918  13.958  0.9119 -2.1310 -0.7758
 7290SOL     OW33328   2.459   3.767   9.895 -0.0681 -0.6209 -0.1563
 7290SOL    HW133329   2.528   3.743   9.832  0.2206 -0.4600  0.0991
 7290SOL    HW233330   2.518   3.802   9.962 -1.3124  2.6560 -0.7475
 7291SOL     OW33331   2.430   0.247   6.371 -0.0636 -0.0626 -0.1801
 7291SOL    HW133332   2.459   0.337   6.359  0.7368 -0.1804  0.8618
 7291SOL    HW233333   2.501   0.208   6.422 -0.1159  0.4937  0.3210
 7292SOL     OW33334   3.590   2.314   2.590 -0.0058 -0.9787  0.5210
 7292SOL    HW133335   3.679   2.310   2.556 -0.6999  0.9618 -1.4980
 7292SOL    HW233336   3.546   2.366   2.523  0.5726 -0.2810  0.6895
 7293SOL     OW33337   1.841   0.802   7.569 -0.1413 -0.0486  0.7861
 7293SOL    HW133338   1.876   0.888   7.545  1.1834 -0.3453  1.6211
 7293SOL    HW233339   1.754   0.824   7.601 -1.3514  2.0723 -3.9780
 7294SOL     OW33340   0.666   3.636   6.398  0.1005  0.1666 -0.3463
 7294SOL    HW133341   0.603   3.600   6.459  0.3300  0.0561 -0.1748
 7294SOL    HW233342   0.617   3.598   6.325  0.7593  0.2623 -0.8434
 7295SOL     OW33343   4.709   3.019   9.994  0.6129  0.3233 -0.3485
 7295SOL    HW133344   0.050   2.981  10.053  0.3531 -2.5557 -1.8986
 7295SOL    HW233345   4.631   2.972  10.022  0.0882  1.5995  0.3105
 7296SOL     OW33346   4.383   4.691   3.074 -0.3230  0.6480  0.2829
 7296SOL    HW133347   4.443   4.718   3.004  0.6639 -0.6813  0.6171
 7296SOL    HW233348   4.415   0.018   3.149  0.2591 -0.3631  0.7048
 7297SOL     OW33349   3.049   4.229  16.402  0.1732  0.1792 -0.3564
 7297SOL    HW133350   3.138   4.197  16.416  0.4339  0.7768 -0.6486
 7297SOL    HW233351   3.028   4.262  16.490  0.0275  0.7829 -0.6183
 7298SOL     OW33352   2.201   2.984   5.737  0.0056  0.4168 -0.3285
 7298SOL    HW133353   2.167   2.961   5.823 -0.4951 -0.9679 -0.9009
 7298SOL    HW233354   2.146   3.060   5.719 -2.9277 -0.9738  2.7504
 7299SOL     OW33355   1.410   3.308   8.448 -0.1123  0.2894 -0.0045
 7299SOL    HW133356   1.386   3.280   8.536 -0.3106  0.0338 -0.1443
 7299SOL    HW233357   1.398   3.402   8.462  2.2435  0.4696  0.8261
 7300SOL     OW33358   1.658   2.130   1.612 -0.5422 -0.1760  0.1668
 7300SOL    HW133359   1.730   2.100   1.557 -2.8816  0.7490 -3.3648
 7300SOL    HW233360   1.690   2.124   1.702  1.5691  1.9895 -0.4295
 7301SOL     OW33361   2.524   0.557   2.840 -0.8790  0.1225 -0.0197
 7301SOL    HW133362   2.466   0.482   2.846 -0.6287 -0.1359 -0.8091
 7301SOL    HW233363   2.590   0.531   2.775 -1.8097 -0.0727 -0.8919
 7302SOL     OW33364   0.554   0.175   6.604 -0.3971 -0.0033  0.0530
 7302SOL    HW133365   0.536   0.147   6.514  1.0586 -1.1689  0.1242
 7302SOL    HW233366   0.469   0.184   6.646 -1.1875 -1.3872 -1.2404
 7303SOL     OW33367   3.711   0.347   2.162 -0.1654  0.0826  0.0880
 7303SOL    HW133368   3.679   0.268   2.119  3.2276 -1.3009  0.1061
 7303SOL    HW233369   3.749   0.398   2.091  0.6217  2.5658  2.3166
 7304SOL     OW33370   1.346   1.793   6.230  0.1457  0.1041  0.3571
 7304SOL    HW133371   1.306   1.814   6.146  1.1807 -0.3721 -0.2504
 7304SOL    HW233372   1.440   1.801   6.216 -0.3763 -0.5884 -3.5045
 7305SOL     OW33373   0.022   3.962  11.895  0.0813 -0.7367 -0.0666
 7305SOL    HW133374   0.070   3.969  11.813 -1.2761 -0.9211 -0.8663
 7305SOL    HW233375   0.067   4.026  11.950  0.3183 -1.4744  0.6009
 7306SOL     OW33376   0.380   2.321   6.565 -0.3220  0.0879  0.9158
 7306SOL    HW133377   0.355   2.385   6.632  0.7325 -0.4788  1.8474
 7306SOL    HW233378   0.440   2.370   6.510  0.4653  0.3254  1.9867
 7307SOL     OW33379   0.036   0.319   0.631  0.2487  0.0784  0.4696
 7307SOL    HW133380   0.085   0.236   0.630 -0.9276 -0.5852 -2.3373
 7307SOL    HW233381   0.100   0.385   0.657  0.2554 -0.2783  1.3364
 7308SOL     OW33382   1.447   2.993  11.101  0.0368 -0.4863 -0.1311
 7308SOL    HW133383   1.539   3.000  11.074  0.1714  1.8642  0.9174
 7308SOL    HW233384   1.405   2.948  11.027 -0.9987 -1.0103  0.7846
 7309SOL     OW33385   1.300   2.477   8.162  0.1385 -0.3742  0.3195
 7309SOL    HW133386   1.262   2.477   8.250 -1.2191  0.5809 -0.2655
 7309SOL    HW233387   1.301   2.568   8.135  0.7095 -0.1181  1.1946
 7310SOL     OW33388   3.546   1.241   4.354 -0.0118 -0.0453 -0.2148
 7310SOL    HW133389   3.461   1.259   4.314  1.2858  4.0688 -1.1234
 7310SOL    HW233390   3.549   1.146   4.364  0.7622 -0.0058 -0.0915
 7311SOL     OW33391   4.268   0.846   2.716  0.1637  0.1370  0.1053
 7311SOL    HW133392   4.252   0.778   2.781  0.5338  0.0059  0.0596
 7311SOL    HW233393   4.236   0.920   2.768 -1.4674 -0.3875 -0.1710
 7312SOL     OW33394   4.162   2.180   4.188  0.0122  0.7129 -0.3219
 7312SOL    HW133395   4.173   2.257   4.245  1.1248  0.1290  0.2625
 7312SOL    HW233396   4.068   2.169   4.183  0.0128  0.6741 -0.2356
 7313SOL     OW33397   0.752   4.532   8.325 -0.4484  0.5049 -0.0393
 7313SOL    HW133398   0.811   4.548   8.252  2.0986  0.9556  2.1352
 7313SOL    HW233399   0.724   4.444   8.300  0.0075 -0.1683  1.7983
 7314SOL     OW33400   0.192   0.465   8.586  0.2923  0.1643 -0.8389
 7314SOL    HW133401   0.254   0.501   8.522 -0.6613  0.7581 -1.4330
 7314SOL    HW233402   0.206   0.371   8.572 -1.2731 -0.2715  0.6351
 7315SOL     OW33403   4.441   3.565  13.247  0.0510  0.6567  0.3826
 7315SOL    HW133404   4.450   3.515  13.329 -1.9348 -2.3681 -1.2445
 7315SOL    HW233405   4.400   3.492  13.201  1.7712 -0.6804  0.9642
 7316SOL     OW33406   3.318   0.157   5.828 -0.2465 -0.3242  0.5947
 7316SOL    HW133407   3.297   0.223   5.894  0.0320  1.5707 -1.1839
 7316SOL    HW233408   3.366   0.201   5.757 -0.3515  0.9352  1.2902
 7317SOL     OW33409   1.608   2.786   2.997  0.0257  0.1932  0.0742
 7317SOL    HW133410   1.519   2.823   3.002  0.0121  0.5627 -2.8555
 7317SOL    HW233411   1.625   2.803   2.904 -1.1565  2.7084  0.3087
 7318SOL     OW33412   0.424   3.284   1.140 -0.6285 -0.4105 -0.5785
 7318SOL    HW133413   0.346   3.256   1.189  0.8786  0.5243  2.3134
 7318SOL    HW233414   0.429   3.376   1.165  1.8810 -0.8846  0.6303
 7319SOL     OW33415   2.581   0.753   8.245  0.1710  0.0847 -0.3933
 7319SOL    HW133416   2.583   0.763   8.340  0.8461 -1.6965 -0.2231
 7319SOL    HW233417   2.591   0.846   8.221  1.3333  0.2120  0.5662
 7320SOL     OW33418   2.435   3.305  10.890 -0.4965 -0.5308 -0.2374
 7320SOL    HW133419   2.358   3.275  10.842 -2.1202  2.0655  0.7396
 7320SOL    HW233420   2.406   3.387  10.930  0.9690 -0.1822  0.1122
 7321SOL     OW33421   1.358   2.750   1.751  0.0052  0.2133 -0.2727
 7321SOL    HW133422   1.390   2.674   1.799 -0.4914  0.1070 -0.1174
 7321SOL    HW233423   1.389   2.733   1.662 -2.3945 -0.2809 -1.0165
 7322SOL     OW33424   4.640   3.562   4.177  0.2499  0.2591 -0.5258
 7322SOL    HW133425   4.715   3.584   4.232  0.1460 -1.0355  0.1114
 7322SOL    HW233426   4.684   3.529   4.098 -2.9905  0.3429 -2.3877
 7323SOL     OW33427   0.186   3.540  17.107  0.0415 -0.2637  0.0741
 7323SOL    HW133428   0.197   3.554  17.013  1.8348  0.2202  0.3532
 7323SOL    HW233429   0.103   3.584  17.123  0.0025 -0.0153 -0.8011
 7324SOL     OW33430   3.517   4.255   7.355 -0.2492 -0.4385 -0.1368
 7324SOL    HW133431   3.577   4.200   7.305  0.0701 -0.5431  0.3573
 7324SOL    HW233432   3.497   4.195   7.427  0.1206 -0.2704  0.1056
 7325SOL     OW33433   1.437   1.455  16.083  0.4125  0.4216 -0.0459
 7325SOL    HW133434   1.386   1.508  16.021  0.3896 -0.8931 -1.1616
 7325SOL    HW233435   1.393   1.370  16.075  1.0860 -0.0543  1.3854
 7326SOL     OW33436   1.992   0.769  10.610 -0.0266  0.6024  0.3530
 7326SOL    HW133437   1.925   0.779  10.679 -1.4504 -2.8836 -0.5242
 7326SOL    HW233438   1.959   0.809  10.529  1.2456  1.5174  0.2989
 7327SOL     OW33439   0.302   2.621   7.364  0.2198 -0.1911 -0.1138
 7327SOL    HW133440   0.391   2.655   7.362  0.7636 -1.7202 -1.7206
 7327SOL    HW233441   0.256   2.687   7.313 -0.8250  0.0991  1.1899
 7328SOL     OW33442   1.115   0.169   4.302 -0.2963  0.5820  0.1295
 7328SOL    HW133443   1.152   0.209   4.223  0.3104  1.0989  0.6776
 7328SOL    HW233444   1.200   0.152   4.342 -0.5899  0.1162  0.5498
 7329SOL     OW33445   0.315   4.607  11.908  0.0673  0.1144 -0.2251
 7329SOL    HW133446   0.360   4.524  11.926 -1.5719 -0.1405  2.6792
 7329SOL    HW233447   0.316   4.654  11.991  0.4020 -1.5154  0.7079
 7330SOL     OW33448   3.410   0.442   0.686 -0.1483 -0.2722  0.0361
 7330SOL    HW133449   3.387   0.395   0.606  0.1479  0.1160 -0.2731
 7330SOL    HW233450   3.494   0.480   0.664  0.6743 -2.6756 -0.9263
 7331SOL     OW33451   1.795   4.466   6.106  0.9087 -0.0318  0.5243
 7331SOL    HW133452   1.875   4.519   6.108  0.0581  1.2600  0.7635
 7331SOL    HW233453   1.750   4.501   6.183 -2.2123 -1.4737 -0.6228
 7332SOL     OW33454   1.120   0.628   3.114  0.6992 -0.1775 -0.0330
 7332SOL    HW133455   1.105   0.680   3.193 -1.1199  3.0857 -2.5420
 7332SOL    HW233456   1.214   0.610   3.110  0.8778  0.9931 -0.8482
 7333SOL     OW33457   0.897   2.289   2.699 -0.4213 -0.0091  0.3242
 7333SOL    HW133458   0.802   2.291   2.684 -0.6894 -0.7147  1.8828
 7333SOL    HW233459   0.911   2.369   2.750  2.5027 -0.2930 -0.0667
 7334SOL     OW33460   3.178   2.409   5.935  0.2375 -0.1215  0.3144
 7334SOL    HW133461   3.193   2.484   5.993  0.0373  0.4888 -0.4351
 7334SOL    HW233462   3.085   2.389   5.945  0.0830  0.4009 -0.0930
 7335SOL     OW33463   2.117   1.138  12.808  0.1537 -0.5595  0.0561
 7335SOL    HW133464   2.187   1.142  12.872  0.1124 -0.7865  0.1179
 7335SOL    HW233465   2.077   1.053  12.827 -0.3803 -0.5081 -0.7906
 7336SOL     OW33466   2.265   1.586   6.939  0.1465  0.3761 -0.1948
 7336SOL    HW133467   2.193   1.647   6.951  0.9564  1.4554 -0.8045
 7336SOL    HW233468   2.330   1.650   6.910 -0.4799  0.7610 -0.7312
 7337SOL     OW33469   3.687   4.493   7.862  0.2560 -0.6156  0.4338
 7337SOL    HW133470   3.755   4.558   7.880 -3.1273  3.0550 -0.0293
 7337SOL    HW233471   3.667   4.479   7.954 -0.8365  3.5877  0.8546
 7338SOL     OW33472   4.570   3.189  13.743  0.2102 -0.0693  0.4020
 7338SOL    HW133473   4.660   3.205  13.712  0.6728 -0.3304  1.6349
 7338SOL    HW233474   4.556   3.272  13.787  1.3749 -0.0855  0.8043
 7339SOL     OW33475   3.469   1.158   3.059  0.6186 -0.4278  0.3205
 7339SOL    HW133476   3.480   1.246   3.024  1.6643 -0.8651 -0.4418
 7339SOL    HW233477   3.553   1.152   3.104 -0.4412 -2.4507  2.0524
 7340SOL     OW33478   3.332   3.620   7.329  0.6235 -0.1750  0.2179
 7340SOL    HW133479   3.394   3.664   7.270 -0.8033  0.4117 -0.8565
 7340SOL    HW233480   3.389   3.561   7.378 -0.3527 -0.4218  1.0273
 7341SOL     OW33481   1.134   4.344   5.595  0.1875 -0.1896  0.4173
 7341SOL    HW133482   1.120   4.438   5.605  1.5533 -0.1536  2.0688
 7341SOL    HW233483   1.223   4.343   5.631  0.2326 -0.7071  0.2902
 7342SOL     OW33484   0.348   3.720  10.989 -0.2233  0.2281 -0.2981
 7342SOL    HW133485   0.352   3.718  11.084 -0.4524  0.1094 -0.2905
 7342SOL    HW233486   0.257   3.700  10.964  0.0752 -1.7719  0.2368
 7343SOL     OW33487   2.554   3.946   3.682 -0.7180 -0.1225 -0.3704
 7343SOL    HW133488   2.482   3.985   3.733  1.5747  0.5142  2.3388
 7343SOL    HW233489   2.533   3.855   3.700 -0.1867 -0.6779 -2.5729
 7344SOL     OW33490   2.688   2.809   8.153 -0.8748  0.3423 -0.3372
 7344SOL    HW133491   2.686   2.744   8.082 -0.4461 -0.7214  0.6396
 7344SOL    HW233492   2.693   2.753   8.230 -1.6424  0.8537  0.0861
 7345SOL     OW33493   3.899   0.607   5.043  0.3940  0.4193 -0.5576
 7345SOL    HW133494   3.880   0.583   5.133 -2.0499  1.9863 -0.6476
 7345SOL    HW233495   3.856   0.529   5.008  1.0333 -1.1295  2.1826
 7346SOL     OW33496   0.102   2.229   8.630  0.4567 -0.1398 -0.5011
 7346SOL    HW133497   0.110   2.233   8.726  0.6691  0.1249 -0.5307
 7346SOL    HW233498   0.054   2.308   8.605  1.1228 -0.1274 -1.7282
 7347SOL     OW33499   3.516   1.418  15.021 -0.1111 -0.6447  0.5865
 7347SOL    HW133500   3.553   1.505  15.033 -2.7733  0.4357  1.0036
 7347SOL    HW233501   3.588   1.371  14.980  0.2889  1.4495 -1.1099
 7348SOL     OW33502   3.819   4.339   7.151  0.6631  0.1722  0.5080
 7348SOL    HW133503   3.815   4.399   7.226  0.5734  0.1676  0.5064
 7348SOL    HW233504   3.771   4.387   7.083  1.2884  0.5931  0.3629
 7349SOL     OW33505   3.084   1.278  15.086 -0.4509 -0.3309 -0.3168
 7349SOL    HW133506   3.035   1.231  15.154 -0.2020  1.8279  1.3156
 7349SOL    HW233507   3.011   1.314  15.035 -0.5573 -0.2674 -0.1179
 7350SOL     OW33508   3.006   0.665  17.397 -0.1546  0.5933  0.0915
 7350SOL    HW133509   2.978   0.659  17.306 -0.7318 -0.7085  0.3419
 7350SOL    HW233510   2.949   0.598  17.436 -0.3083  0.0576 -1.0771
 7351SOL     OW33511   1.203   1.857   5.965 -0.3184 -0.0738  0.1864
 7351SOL    HW133512   1.262   1.807   5.908 -0.9881 -1.8998  1.1183
 7351SOL    HW233513   1.120   1.813   5.950  0.4076 -0.9230 -1.3863
 7352SOL     OW33514   4.222   0.136  12.276  0.0395 -0.1159 -0.0437
 7352SOL    HW133515   4.295   0.081  12.247  0.1767 -0.0970  0.2565
 7352SOL    HW233516   4.198   0.177  12.194  0.8692 -0.0634 -0.2573
 7353SOL     OW33517   4.026   4.431  12.486  0.6180 -0.0231  0.4380
 7353SOL    HW133518   3.996   4.505  12.434 -0.2148 -0.7761 -0.1583
 7353SOL    HW233519   4.106   4.460  12.530  1.0232 -1.4824  0.6884
 7354SOL     OW33520   2.896   3.762   2.196 -0.2469  0.5708  0.2299
 7354SOL    HW133521   2.857   3.767   2.284 -0.8924 -1.2841  0.0484
 7354SOL    HW233522   2.810   3.752   2.155  0.2362 -0.2638 -0.5571
 7355SOL     OW33523   3.971   2.243   1.314  0.0188 -0.0181 -0.2489
 7355SOL    HW133524   4.011   2.256   1.228  0.2271  2.7851  0.2615
 7355SOL    HW233525   3.884   2.278   1.295 -0.0557 -0.5821 -0.9064
 7356SOL     OW33526   3.937   2.857   7.314 -0.0025 -0.0487  0.0025
 7356SOL    HW133527   3.942   2.847   7.409 -0.6509  1.3877  0.1884
 7356SOL    HW233528   3.869   2.922   7.299 -0.6862 -0.2258  2.2934
 7357SOL     OW33529   3.978   2.974  14.213 -0.4138  0.0748  0.0080
 7357SOL    HW133530   4.015   3.038  14.274 -1.7946 -0.4430  1.4046
 7357SOL    HW233531   3.961   2.893  14.261  1.0818 -0.6170 -0.6433
 7358SOL     OW33532   2.608   4.604   9.959  0.0584  0.1517 -0.4457
 7358SOL    HW133533   2.577   4.686   9.922 -1.6199 -0.9618 -1.4730
 7358SOL    HW233534   2.702   4.625   9.956  0.6506 -2.8242 -2.6126
 7359SOL     OW33535   2.327   0.947   4.091 -1.0350  0.4176  0.4667
 7359SOL    HW133536   2.284   0.871   4.131 -1.6451  0.6205  0.1994
 7359SOL    HW233537   2.350   0.999   4.168 -0.1621  0.7711 -0.0443
 7360SOL     OW33538   2.827   0.918  11.486 -0.2415  0.6734 -0.5010
 7360SOL    HW133539   2.767   0.946  11.417  0.9108  3.1038 -0.5470
 7360SOL    HW233540   2.792   0.830  11.502  0.2334  0.6610  0.4949
 7361SOL     OW33541   4.097   2.652  16.132  0.6026  0.0154 -0.0054
 7361SOL    HW133542   4.190   2.645  16.110  0.4951  1.7732 -1.0065
 7361SOL    HW233543   4.058   2.697  16.057 -2.6606 -0.1350  1.5814
 7362SOL     OW33544   1.994   1.023  14.647 -0.0372  0.5514  0.0164
 7362SOL    HW133545   1.966   0.990  14.732 -0.0899  1.1537  0.2359
 7362SOL    HW233546   1.986   1.114  14.676 -2.2831  0.1187  0.7293
 7363SOL     OW33547   0.661   2.057   5.204 -0.2420  0.1741 -0.5843
 7363SOL    HW133548   0.622   2.109   5.274  0.3094 -1.4563  0.9464
 7363SOL    HW233549   0.611   2.080   5.126 -0.1939 -0.6693 -0.8670
 7364SOL     OW33550   2.871   1.297   1.705 -0.8322  0.1128  0.2577
 7364SOL    HW133551   2.958   1.280   1.743  0.2171  0.6455 -1.9235
 7364SOL    HW233552   2.891   1.334   1.619 -0.1277  0.2056  0.4569
 7365SOL     OW33553   0.913   2.734   2.672 -0.1078  0.4586 -0.3330
 7365SOL    HW133554   0.923   2.718   2.766 -0.6647 -0.7008 -0.4721
 7365SOL    HW233555   1.001   2.720   2.636  0.0732 -1.2591  0.7966
 7366SOL     OW33556   1.490   2.179  15.454 -0.0310  0.2303  0.3800
 7366SOL    HW133557   1.573   2.154  15.494  1.4228  0.1548 -2.6905
 7366SOL    HW233558   1.506   2.160  15.362 -0.4730  1.2755  0.0828
 7367SOL     OW33559   0.276   0.438   0.724 -0.1696 -0.2262 -1.1346
 7367SOL    HW133560   0.343   0.391   0.674 -1.8290 -3.3619 -0.3966
 7367SOL    HW233561   0.279   0.410   0.815 -1.3754 -1.4706 -1.4743
 7368SOL     OW33562   1.272   1.301   5.313  0.6180  0.1293 -0.9884
 7368SOL    HW133563   1.311   1.235   5.371 -1.7733 -1.5466 -1.2934
 7368SOL    HW233564   1.179   1.287   5.334  1.0012  2.6483  2.3329
 7369SOL     OW33565   4.123   2.438   5.308 -0.0304 -0.2183 -0.2031
 7369SOL    HW133566   4.139   2.519   5.356 -2.0066 -1.1278  2.0038
 7369SOL    HW233567   4.190   2.444   5.240  1.1183  1.0228  1.0371
 7370SOL     OW33568   4.408   1.086   4.068 -0.1101  0.3978  0.4771
 7370SOL    HW133569   4.359   1.017   4.113 -1.8226  0.9392 -0.5339
 7370SOL    HW233570   4.468   1.115   4.136  2.7437 -0.1597 -1.8034
 7371SOL     OW33571   4.116   1.130   6.162  0.1126 -0.5566 -0.4938
 7371SOL    HW133572   4.128   1.186   6.086  0.8876 -0.4129 -0.2606
 7371SOL    HW233573   4.136   1.191   6.233  2.8173 -0.5689 -1.2688
 7372SOL     OW33574   2.661   0.324   2.687 -0.5265 -0.4531 -0.8143
 7372SOL    HW133575   2.650   0.361   2.599 -0.3276  0.9294 -0.2525
 7372SOL    HW233576   2.750   0.290   2.677 -0.0757  0.6390 -0.4692
 7373SOL     OW33577   2.006   3.328   7.468  0.0875  0.4269 -0.0043
 7373SOL    HW133578   1.998   3.376   7.385 -4.3359 -1.2820 -0.6027
 7373SOL    HW233579   1.948   3.388   7.515 -0.4259 -0.2610  0.2423
 7374SOL     OW33580   0.145   0.339   2.937  0.2562  0.1612  0.6067
 7374SOL    HW133581   0.212   0.304   2.996  0.2705  0.0525  0.5258
 7374SOL    HW233582   0.071   0.282   2.958  0.3660 -0.0377  0.4581
 7375SOL     OW33583   1.383   3.707   6.974 -0.1462  0.0994  0.0533
 7375SOL    HW133584   1.347   3.673   7.056 -0.3476 -0.3172 -0.2089
 7375SOL    HW233585   1.404   3.792   7.012  0.1962 -0.3118  0.7795
 7376SOL     OW33586   1.146   4.675   5.209  0.2181  0.4514  0.1331
 7376SOL    HW133587   1.213   4.644   5.148 -0.4159 -0.4892 -0.0802
 7376SOL    HW233588   1.071   4.620   5.188  0.8518  0.0659 -1.0740
 7377SOL     OW33589   3.757   3.364   9.005  0.0603  0.2031  0.3706
 7377SOL    HW133590   3.790   3.453   8.991 -0.4405 -0.0147 -2.3449
 7377SOL    HW233591   3.789   3.338   9.091  0.7703 -0.1744 -0.0085
 7378SOL     OW33592   3.046   1.196   8.584 -0.1076 -0.5145 -0.3066
 7378SOL    HW133593   3.034   1.102   8.594 -2.7794 -0.3171 -1.6608
 7378SOL    HW233594   2.992   1.225   8.657  0.7942  0.0499  0.1433
 7379SOL     OW33595   0.662   1.221  15.674 -0.2613  0.7623 -0.5282
 7379SOL    HW133596   0.644   1.285  15.743  0.0812 -0.3769  0.6113
 7379SOL    HW233597   0.639   1.268  15.594  2.5109  0.6525 -1.3824
 7380SOL     OW33598   3.571   3.387   8.383  0.5170  0.0206 -0.4478
 7380SOL    HW133599   3.577   3.324   8.311 -0.9555 -0.0297 -0.5269
 7380SOL    HW233600   3.643   3.445   8.358  0.3688  0.0974 -0.6949
 7381SOL     OW33601   1.173   1.007   2.288 -0.2544  0.0755 -0.2695
 7381SOL    HW133602   1.134   0.919   2.286 -3.5213  1.5139  1.6877
 7381SOL    HW233603   1.100   1.053   2.246 -0.5014 -0.1148 -0.0429
 7382SOL     OW33604   0.736   0.672   1.921 -0.1657  0.1747  0.3956
 7382SOL    HW133605   0.775   0.586   1.939 -0.6140 -0.0438  0.3491
 7382SOL    HW233606   0.791   0.700   1.848 -0.5036  0.3675  0.2166
 7383SOL     OW33607   3.411   2.817  15.237  0.0596  0.0938 -0.1207
 7383SOL    HW133608   3.493   2.855  15.205 -0.2577  0.7825 -0.1315
 7383SOL    HW233609   3.368   2.889  15.284  0.5519  0.4161 -0.1670
 7384SOL     OW33610   3.206   1.407   8.180 -0.5682  0.1969  0.1825
 7384SOL    HW133611   3.113   1.400   8.202 -0.6367  2.1706  0.5088
 7384SOL    HW233612   3.231   1.442   8.266  0.3027 -0.2246  0.0996
 7385SOL     OW33613   0.568   4.299   7.981  0.0376 -0.2803  0.0328
 7385SOL    HW133614   0.636   4.308   8.048 -0.5705  1.9271  0.3582
 7385SOL    HW233615   0.581   4.206   7.963  0.2728 -0.1343 -0.5467
 7386SOL     OW33616   2.950   3.467  17.384  0.0254 -0.9737 -0.5106
 7386SOL    HW133617   2.966   3.504  17.471  1.6023  0.8924 -1.5825
 7386SOL    HW233618   2.948   3.374  17.407  1.4316 -0.9759 -0.4232
 7387SOL     OW33619   1.446   0.690   9.080  0.1942 -0.0307 -0.2276
 7387SOL    HW133620   1.387   0.617   9.099 -1.0671  1.0761  0.1702
 7387SOL    HW233621   1.520   0.652   9.033  1.2410  0.5855  0.9113
 7388SOL     OW33622   3.273   4.602   5.565  0.4139 -0.1233  0.1192
 7388SOL    HW133623   3.363   4.581   5.589  0.0815 -2.6743 -0.9279
 7388SOL    HW233624   3.257   4.679   5.620  0.5275  0.3584 -0.5282
 7389SOL     OW33625   0.991   3.211   7.238  0.1994 -0.2384 -0.0842
 7389SOL    HW133626   1.061   3.153   7.209 -0.4145 -0.9827 -0.0736
 7389SOL    HW233627   0.921   3.189   7.177 -1.1100  3.0104  0.2779
 7390SOL     OW33628   4.687   3.065   8.545  0.1862 -0.2083 -0.3125
 7390SOL    HW133629   0.007   2.988   8.582 -0.8174 -0.1850  0.9075
 7390SOL    HW233630   0.035   3.118   8.512 -0.4837  0.6683 -0.3412
 7391SOL     OW33631   0.364   1.522   6.641 -0.2392 -0.7345 -1.0505
 7391SOL    HW133632   0.292   1.585   6.640  0.1831 -0.2655 -1.9857
 7391SOL    HW233633   0.425   1.570   6.585  1.7759 -0.4970  1.3275
 7392SOL     OW33634   2.023   4.278   2.283 -1.0360 -0.1950 -0.0265
 7392SOL    HW133635   2.012   4.348   2.218 -0.0067 -0.8991 -0.9498
 7392SOL    HW233636   2.032   4.208   2.219  2.2596 -0.3696  0.6113
 7393SOL     OW33637   0.914   3.496   6.993  0.1302 -0.6439  0.1427
 7393SOL    HW133638   0.826   3.460   6.994  0.1700 -0.7372  0.2239
 7393SOL    HW233639   0.893   3.587   7.013 -0.5562  0.2393 -4.6534
 7394SOL     OW33640   2.985   1.065   5.904 -0.4383 -0.2822 -0.5692
 7394SOL    HW133641   3.073   1.028   5.905  0.8527  2.7820  0.4733
 7394SOL    HW233642   2.984   1.087   5.811  1.1968  0.2241 -0.4676
 7395SOL     OW33643   3.228   0.492   3.822  0.1708 -0.1939 -0.4511
 7395SOL    HW133644   3.287   0.444   3.880 -0.6963  0.1147  0.6867
 7395SOL    HW233645   3.289   0.562   3.799  0.0068  0.5534  1.3900
 7396SOL     OW33646   4.308   2.722   1.179  0.1814 -0.5089 -0.0914
 7396SOL    HW133647   4.377   2.700   1.242 -0.5150 -2.1231  0.0877
 7396SOL    HW233648   4.298   2.818   1.181 -1.2907 -0.5962 -3.0450
 7397SOL     OW33649   0.185   2.787   3.011  0.3141 -0.2447  0.3390
 7397SOL    HW133650   0.266   2.786   2.960 -0.3600 -1.1288 -0.6970
 7397SOL    HW233651   0.202   2.736   3.090  0.0188 -1.1322 -0.1748
 7398SOL     OW33652   1.222   4.090   8.243 -0.1286 -0.4294 -0.1269
 7398SOL    HW133653   1.236   3.996   8.255 -0.2872 -0.4218  0.1260
 7398SOL    HW233654   1.306   4.122   8.277 -0.7037  0.7494  0.1835
 7399SOL     OW33655   0.584   0.704   8.060  0.5336 -0.0757 -0.2279
 7399SOL    HW133656   0.531   0.627   8.039  1.2542 -0.5463 -0.2875
 7399SOL    HW233657   0.566   0.765   7.988 -3.4886  1.1041  1.7574
 7400SOL     OW33658   1.050   4.572   4.267 -0.3236 -0.0377 -0.1593
 7400SOL    HW133659   1.042   4.646   4.206  1.6836  0.7638  0.5595
 7400SOL    HW233660   1.106   4.522   4.208 -0.9280 -1.8052  0.7855
 7401SOL     OW33661   2.863   4.699  11.151 -0.2191  0.1803 -0.6749
 7401SOL    HW133662   2.845   4.660  11.065 -1.3115  0.8194 -0.7397
 7401SOL    HW233663   2.957   4.686  11.157  0.0861  1.3940 -2.6957
 7402SOL     OW33664   3.334   4.304   3.177  0.9754 -0.4965  0.0471
 7402SOL    HW133665   3.345   4.215   3.208 -3.3105 -1.7433 -1.9546
 7402SOL    HW233666   3.424   4.335   3.185 -0.9013  4.5064  1.6673
 7403SOL     OW33667   2.344   2.176   6.778  0.1439  0.1545 -0.3330
 7403SOL    HW133668   2.366   2.117   6.851 -0.2992  1.4516  0.8588
 7403SOL    HW233669   2.341   2.115   6.705 -0.2689 -1.4788  1.0352
 7404SOL     OW33670   0.933   2.620   3.172 -0.3160  0.8338 -0.0500
 7404SOL    HW133671   0.919   2.666   3.255  0.3585  1.8125 -0.4758
 7404SOL    HW233672   0.917   2.529   3.198 -1.7424  0.7614 -1.1899
 7405SOL     OW33673   4.102   1.564   2.374 -0.1160  0.3690  0.2757
 7405SOL    HW133674   4.149   1.504   2.315  0.6464  0.6402  0.6004
 7405SOL    HW233675   4.132   1.648   2.339 -0.8454  0.5195  0.0096
 7406SOL     OW33676   2.804   2.567   2.457 -0.3020  0.4486  0.1342
 7406SOL    HW133677   2.711   2.544   2.457 -0.1115 -0.3262  1.1197
 7406SOL    HW233678   2.843   2.492   2.503  1.4680  0.0664 -1.9865
 7407SOL     OW33679   0.457   0.970   7.240 -0.0839  0.2803 -0.0181
 7407SOL    HW133680   0.542   0.931   7.224  0.2370  0.5249  1.1129
 7407SOL    HW233681   0.401   0.897   7.214  1.0317 -1.3534  2.1277
 7408SOL     OW33682   0.401   0.819   6.755  0.3514  0.3937  0.2961
 7408SOL    HW133683   0.315   0.859   6.742 -0.5557 -2.1297 -1.4901
 7408SOL    HW233684   0.454   0.898   6.767 -0.3300  0.9650 -0.4978
 7409SOL     OW33685   3.047   4.344   9.256  0.4659 -0.4705 -0.1515
 7409SOL    HW133686   2.995   4.325   9.334 -1.2979  1.4247 -0.8778
 7409SOL    HW233687   2.980   4.377   9.196  0.2595 -0.8125 -0.1127
 7410SOL     OW33688   2.914   0.978   2.699 -0.1466  0.5599  0.2487
 7410SOL    HW133689   2.866   0.903   2.736 -0.4031  1.2109  1.2452
 7410SOL    HW233690   2.855   0.997   2.627  0.8529 -1.2788 -1.0651
 7411SOL     OW33691   2.021   2.947   3.131 -0.1458  0.1869  0.2785
 7411SOL    HW133692   1.948   2.979   3.079 -0.6612 -0.4480  0.6168
 7411SOL    HW233693   2.006   2.997   3.211  0.6991  0.9403 -0.0414
 7412SOL     OW33694   2.278   2.609   9.528  0.2730  0.1348  0.2039
 7412SOL    HW133695   2.288   2.657   9.611  0.7080 -1.7972  1.2737
 7412SOL    HW233696   2.203   2.657   9.492  0.5865  1.3666  1.1603
 7413SOL     OW33697   2.082   3.009   5.058 -0.5008  0.1462  0.6809
 7413SOL    HW133698   2.000   3.054   5.037  0.9067  2.0342 -0.8035
 7413SOL    HW233699   2.096   3.032   5.149  0.3628  0.3834  0.4851
 7414SOL     OW33700   2.256   2.021   9.238 -0.2811  0.2076 -0.3079
 7414SOL    HW133701   2.244   1.957   9.308  0.3091 -0.8880 -1.2176
 7414SOL    HW233702   2.249   1.960   9.164 -1.7160  0.3865 -0.3323
 7415SOL     OW33703   0.113   1.102   8.020  0.0329 -0.1362 -0.3389
 7415SOL    HW133704   0.024   1.137   8.018 -0.0945 -0.5427 -1.8260
 7415SOL    HW233705   0.149   1.142   8.099  0.6395  0.1560 -0.7658
 7416SOL     OW33706   4.133   0.883   6.014  0.3588  0.2185  0.0571
 7416SOL    HW133707   4.213   0.929   6.043  0.0220  2.8195 -3.0666
 7416SOL    HW233708   4.151   0.866   5.922  1.2874  0.2750  0.2269
 7417SOL     OW33709   2.172   3.287   8.906  0.0946  0.1344  0.0582
 7417SOL    HW133710   2.174   3.203   8.950 -1.5115 -0.1992 -0.5126
 7417SOL    HW233711   2.148   3.349   8.975 -2.1935  0.5266 -1.0783
 7418SOL     OW33712   0.464   1.401   0.619  0.2177  0.1785  0.3702
 7418SOL    HW133713   0.408   1.424   0.692 -0.8867  0.0499 -0.4348
 7418SOL    HW233714   0.477   1.311   0.651 -2.9946  0.4925  2.4982
 7419SOL     OW33715   4.685   0.078  11.664  0.3266 -0.5543  0.3937
 7419SOL    HW133716   0.004   0.007  11.713  2.0917  1.5959  2.0339
 7419SOL    HW233717   4.648   0.042  11.584  0.3516 -0.9865  0.5742
 7420SOL     OW33718   3.988   1.532   4.101 -0.6535  0.3148  0.3921
 7420SOL    HW133719   4.004   1.623   4.123  1.7605  0.3007 -1.3768
 7420SOL    HW233720   3.894   1.519   4.088 -0.6100  0.9467 -0.5322
 7421SOL     OW33721   1.775   0.491  11.348  0.2474 -0.1854 -0.6064
 7421SOL    HW133722   1.820   0.442  11.418 -1.2355 -0.4389  0.1553
 7421SOL    HW233723   1.692   0.499  11.395  2.9539  2.1942  3.8226
 7422SOL     OW33724   4.369   0.035   9.227  0.1800 -0.2797  0.3899
 7422SOL    HW133725   4.404   0.100   9.288 -0.2289  0.1109  0.2068
 7422SOL    HW233726   4.358   4.683   9.286  3.9267 -2.7113 -1.9978
 7423SOL     OW33727   3.184   0.832   7.250  0.7946 -0.7897 -0.2495
 7423SOL    HW133728   3.212   0.923   7.260 -0.7044 -0.3330 -0.2209
 7423SOL    HW233729   3.091   0.846   7.232  0.5036 -1.1611  0.9480
 7424SOL     OW33730   3.204   1.809   4.494  0.2927 -0.0264 -0.4680
 7424SOL    HW133731   3.128   1.862   4.517 -1.4236 -2.5541 -0.2364
 7424SOL    HW233732   3.168   1.743   4.434  0.5761 -0.7211  0.1166
 7425SOL     OW33733   0.125   1.010   6.395  0.4073  0.1972 -0.3836
 7425SOL    HW133734   0.083   1.076   6.450  0.8175  0.1413  0.0007
 7425SOL    HW233735   0.083   1.040   6.315  0.4128  0.9560 -0.1045
 7426SOL     OW33736   3.610   0.292   7.098  0.3320 -0.0332 -0.4591
 7426SOL    HW133737   3.694   0.272   7.140  0.7575 -1.7827 -2.1304
 7426SOL    HW233738   3.584   0.365   7.154 -1.5648  0.0312 -1.4312
 7427SOL     OW33739   4.631   4.721   8.996  0.3422 -0.2942 -0.5573
 7427SOL    HW133740   4.663   4.652   8.938 -0.7462  0.7457 -2.4056
 7427SOL    HW233741   4.645   4.690   9.085 -1.0934 -0.5141 -0.4243
 7428SOL     OW33742   0.507   2.249  14.220  0.5009 -0.0144 -0.2789
 7428SOL    HW133743   0.471   2.337  14.226 -0.9898 -0.6772  0.4644
 7428SOL    HW233744   0.597   2.265  14.193  1.2365  0.6766  2.5370
 7429SOL     OW33745   4.015   1.840   2.545  0.1236  0.6028  0.3682
 7429SOL    HW133746   3.983   1.774   2.483  1.5208  0.8728 -0.6510
 7429SOL    HW233747   3.927   1.874   2.559 -0.7513 -1.2474 -0.5955
 7430SOL     OW33748   2.629   0.189   7.056 -0.2622  0.2416  0.1054
 7430SOL    HW133749   2.679   0.179   7.136  0.0189  1.1206  0.0463
 7430SOL    HW233750   2.695   0.230   7.000  0.8113  1.3904  2.2430
 7431SOL     OW33751   0.420   4.503   7.877  0.0875 -0.9401  0.1504
 7431SOL    HW133752   0.485   4.445   7.916  2.5726  2.1491  0.6344
 7431SOL    HW233753   0.480   4.552   7.820 -0.6245 -0.5076 -0.2189
 7432SOL     OW33754   2.721   2.924   3.457  0.3846 -0.0190  0.8093
 7432SOL    HW133755   2.806   2.935   3.416 -0.1500 -0.9337 -0.5578
 7432SOL    HW233756   2.687   3.012   3.470  1.5755  0.8778 -2.3365
 7433SOL     OW33757   1.707   1.316   5.818 -0.3154 -0.1500 -0.9393
 7433SOL    HW133758   1.767   1.247   5.794 -0.6967  0.3437 -3.2915
 7433SOL    HW233759   1.627   1.293   5.771  0.9793 -0.1265 -3.1293
 7434SOL     OW33760   1.859   2.694   3.881  0.1139 -0.5533 -0.1102
 7434SOL    HW133761   1.872   2.689   3.976  1.0941  1.4603 -0.1593
 7434SOL    HW233762   1.786   2.754   3.866  0.3499 -0.1635  0.3246
 7435SOL     OW33763   1.308   3.441  17.513  0.2739  0.0467  0.6391
 7435SOL    HW133764   1.357   3.360  17.497 -0.4439 -0.1338 -0.6593
 7435SOL    HW233765   1.381   3.502  17.502 -0.0138  0.5612  1.6231
 7436SOL     OW33766   1.919   0.634  12.962  0.1337 -0.3843 -0.2550
 7436SOL    HW133767   1.840   0.653  13.013  1.6968 -0.7962  2.3184
 7436SOL    HW233768   1.900   0.545  12.933  0.6381  0.1517 -2.2020
 7437SOL     OW33769   4.170   0.223  17.604 -0.7435  0.4559  0.4244
 7437SOL    HW133770   4.131   0.138  17.581  1.7938 -0.2831 -1.2046
 7437SOL    HW233771   4.097   0.278  17.631  1.3690  1.2519  4.4412
 7438SOL     OW33772   1.034   0.710  14.745 -0.0943  0.4071  0.2953
 7438SOL    HW133773   1.090   0.706  14.823 -1.6108  1.8038  1.4383
 7438SOL    HW233774   1.055   0.797  14.713 -2.2646  1.0499  0.6764
 7439SOL     OW33775   3.534   3.008   7.703 -0.4060 -0.0115  0.2665
 7439SOL    HW133776   3.462   3.004   7.766  0.2274 -0.8734  0.9339
 7439SOL    HW233777   3.577   2.923   7.701  0.8904  0.6529 -0.3724
 7440SOL     OW33778   2.828   2.786   6.160 -0.2514  0.2622  0.2323
 7440SOL    HW133779   2.859   2.744   6.239 -0.2905 -1.7473 -0.8147
 7440SOL    HW233780   2.807   2.707   6.110 -0.7977  0.4998  0.0832
 7441SOL     OW33781   4.649   2.900   6.530 -0.2235  0.3725 -0.0490
 7441SOL    HW133782   4.569   2.850   6.547 -1.1011  2.1318  1.0514
 7441SOL    HW233783   4.710   2.826   6.525  0.3585  0.8586 -0.1619
 7442SOL     OW33784   0.443   4.269   6.389  0.1059 -0.0229  0.2226
 7442SOL    HW133785   0.415   4.300   6.475 -1.7641 -0.3039 -0.2878
 7442SOL    HW233786   0.537   4.284   6.388  0.2469 -1.0323 -1.5547
 7443SOL     OW33787   2.353   1.709  14.430 -0.1479 -0.3312  0.2767
 7443SOL    HW133788   2.271   1.660  14.429 -0.2193 -0.2215  0.6676
 7443SOL    HW233789   2.321   1.785  14.382  0.2999  2.5290  4.4926
 7444SOL     OW33790   1.249   1.606   1.610 -0.4839 -0.1967  0.3867
 7444SOL    HW133791   1.311   1.662   1.657  0.4239 -1.3429  0.5682
 7444SOL    HW233792   1.197   1.674   1.567  0.4670  1.1483  1.3384
 7445SOL     OW33793   2.287   4.296   8.074 -0.2963 -0.2716  0.1135
 7445SOL    HW133794   2.214   4.282   8.135  0.0615 -0.3172  0.5278
 7445SOL    HW233795   2.350   4.348   8.124 -0.2293 -0.2817  0.0391
 7446SOL     OW33796   1.393   3.358   6.041  0.5850 -0.4466  0.4332
 7446SOL    HW133797   1.449   3.294   6.084  3.0916 -0.1570 -2.3657
 7446SOL    HW233798   1.445   3.439   6.047  0.5826 -0.3358 -0.9388
 7447SOL     OW33799   3.044   1.108  12.090 -0.2134  0.1556 -0.3340
 7447SOL    HW133800   3.006   1.173  12.031  1.9028  1.6925 -0.0228
 7447SOL    HW233801   2.985   1.118  12.164  0.5395 -1.9072  0.5643
 7448SOL     OW33802   2.329   0.284  11.536 -0.6516 -0.1651 -0.1357
 7448SOL    HW133803   2.307   0.352  11.600 -0.2248  0.0128 -0.1827
 7448SOL    HW233804   2.265   0.312  11.470 -1.2399 -0.8615  0.1394
 7449SOL     OW33805   3.821   2.304   9.275  0.5468 -0.1837  0.0070
 7449SOL    HW133806   3.845   2.259   9.355 -0.0220  0.3548  0.4867
 7449SOL    HW233807   3.726   2.299   9.287  0.7091  0.8315  1.6654
 7450SOL     OW33808   2.443   4.720  13.602 -0.4065  0.1076  0.3802
 7450SOL    HW133809   2.489   4.653  13.652 -2.0323 -0.4138  1.1724
 7450SOL    HW233810   2.357   0.000  13.644 -0.8927 -2.5059 -0.3714
 7451SOL     OW33811   2.985   2.548   4.685 -0.1178  0.3812 -0.5246
 7451SOL    HW133812   2.956   2.594   4.607  1.1304  4.3061  1.3543
 7451SOL    HW233813   3.042   2.610   4.730  0.3910 -0.5906  0.1818
 7452SOL     OW33814   3.128   2.307   2.070 -0.4275 -0.4931  0.0559
 7452SOL    HW133815   3.141   2.224   2.024  0.2744 -0.0968 -0.4648
 7452SOL    HW233816   3.034   2.302   2.087 -0.3766  1.0366  0.7526
 7453SOL     OW33817   0.214   0.177  13.150 -0.0445  0.0560  0.4421
 7453SOL    HW133818   0.163   0.137  13.079  0.6950  2.3257 -1.3823
 7453SOL    HW233819   0.145   0.186  13.215  0.8711 -0.5702  1.4882
 7454SOL     OW33820   3.219   0.161   8.530  0.8327 -0.5698 -0.2528
 7454SOL    HW133821   3.292   0.154   8.469  1.1048 -1.8890  0.2349
 7454SOL    HW233822   3.254   0.105   8.600 -1.7149 -3.2544 -1.1647
 7455SOL     OW33823   0.072   3.962   7.512 -0.5015 -0.1119  0.3577
 7455SOL    HW133824   0.008   4.018   7.469  1.9801  1.9289 -0.6649
 7455SOL    HW233825   0.022   3.901   7.567 -0.0072 -2.6066 -1.9337
 7456SOL     OW33826   4.457   0.112   7.891 -0.5738  0.2703  0.3166
 7456SOL    HW133827   4.549   0.112   7.919  0.5769 -2.3907 -3.3888
 7456SOL    HW233828   4.430   0.193   7.934 -0.3555  0.4348  0.1425
 7457SOL     OW33829   4.468   3.891   9.715  0.5333  0.2600 -0.1931
 7457SOL    HW133830   4.504   3.806   9.739  1.9180  0.3329 -1.9902
 7457SOL    HW233831   4.372   3.885   9.716  0.5701 -0.7888 -1.7216
 7458SOL     OW33832   1.434   2.500   6.456 -0.4166 -0.3721  0.7501
 7458SOL    HW133833   1.358   2.556   6.468  0.0043  0.3058  0.2128
 7458SOL    HW233834   1.400   2.464   6.374 -2.4092  1.2434  0.8852
 7459SOL     OW33835   4.050   0.891  13.220 -0.0933 -0.2318 -0.4872
 7459SOL    HW133836   4.099   0.947  13.160 -0.1823  0.5112  0.1389
 7459SOL    HW233837   4.014   0.820  13.167  2.0625 -1.7101 -0.0110
 7460SOL     OW33838   1.253   4.292   3.421  0.0391 -0.3604  0.3257
 7460SOL    HW133839   1.323   4.294   3.487  0.2221 -0.0377  0.1217
 7460SOL    HW233840   1.197   4.362   3.454  1.1274  0.6569  0.0236
 7461SOL     OW33841   4.074   4.270   3.907 -0.3060  0.3701 -0.2802
 7461SOL    HW133842   4.108   4.356   3.880  0.6072 -0.7064 -2.6332
 7461SOL    HW233843   4.104   4.220   3.831  3.5091  1.9243  0.1996
 7462SOL     OW33844   2.256   3.338   7.325 -0.3047 -0.8107 -0.0818
 7462SOL    HW133845   2.288   3.303   7.408 -2.0601  0.7074  1.2276
 7462SOL    HW233846   2.207   3.260   7.300 -1.1224 -0.5138  0.6029
 7463SOL     OW33847   0.793   0.500   3.713  0.1065 -0.3878 -0.6180
 7463SOL    HW133848   0.864   0.436   3.721  1.2615  0.6540 -2.6212
 7463SOL    HW233849   0.846   0.556   3.657  0.1471  0.2644  0.0816
 7464SOL     OW33850   1.139   0.595   5.492 -0.2573 -0.1153  0.7975
 7464SOL    HW133851   1.052   0.613   5.458 -0.3867 -3.1429 -0.4871
 7464SOL    HW233852   1.129   0.500   5.503  0.7689 -0.2012  0.9933
 7465SOL     OW33853   0.350   2.873  11.551 -0.0595 -0.5686  0.0773
 7465SOL    HW133854   0.411   2.825  11.496  0.2647  2.1683 -1.9554
 7465SOL    HW233855   0.330   2.939  11.484 -1.3263 -2.3707 -1.3259
 7466SOL     OW33856   4.723   3.835  14.222  0.0120  0.6000  0.7293
 7466SOL    HW133857   0.089   3.865  14.240  0.5251  0.1656 -1.0909
 7466SOL    HW233858   4.689   3.850  14.311  1.2162  1.8309  0.9847
 7467SOL     OW33859   3.192   4.166   4.179  0.1394 -0.8503  0.1281
 7467SOL    HW133860   3.124   4.151   4.113 -2.2995 -3.1638  3.1667
 7467SOL    HW233861   3.231   4.079   4.195  1.1876  0.0911  2.7221
 7468SOL     OW33862   4.447   4.577   7.860 -0.0804 -0.0209  0.4473
 7468SOL    HW133863   4.440   4.672   7.866 -0.6302 -0.0566  0.3416
 7468SOL    HW233864   4.510   4.577   7.933 -0.0725  1.8993  0.4398
 7469SOL     OW33865   0.581   2.726   9.791 -0.2604 -0.7334  0.1587
 7469SOL    HW133866   0.609   2.784   9.720 -1.5271 -0.7862 -0.3822
 7469SOL    HW233867   0.601   2.785   9.864  1.5439  1.5448 -2.1782
 7470SOL     OW33868   0.946   0.024   7.614  0.0932  0.5141  0.0712
 7470SOL    HW133869   0.990   0.108   7.629 -2.1963  1.8210 -0.6204
 7470SOL    HW233870   0.875   0.062   7.563 -1.1702 -0.3715  1.1676
 7471SOL     OW33871   1.905   1.667   9.640  0.3188  0.0795 -0.1097
 7471SOL    HW133872   1.830   1.700   9.591 -0.3541 -1.2524  0.0223
 7471SOL    HW233873   1.883   1.713   9.720 -2.0834 -1.5469  0.1789
 7472SOL     OW33874   0.840   0.190   6.685  0.2954  0.4465  0.3205
 7472SOL    HW133875   0.762   0.195   6.629  0.8419 -1.7169 -0.6196
 7472SOL    HW233876   0.880   0.116   6.640  0.4546  1.3492 -1.0118
 7473SOL     OW33877   3.765   4.125  15.992  0.2467  0.3127  0.1590
 7473SOL    HW133878   3.705   4.191  16.026 -0.3206  0.3184 -0.8589
 7473SOL    HW233879   3.776   4.077  16.074  0.3436  0.2705  0.1213
 7474SOL     OW33880   2.670   3.073   4.076  0.7193  0.1861  0.5826
 7474SOL    HW133881   2.635   3.150   4.031 -1.6946 -0.3578  1.4740
 7474SOL    HW233882   2.598   3.038   4.129 -1.0226 -1.1190 -2.6534
 7475SOL     OW33883   0.465   2.077   9.932 -0.1987  0.6255 -0.6702
 7475SOL    HW133884   0.494   1.989   9.958  0.7012  1.0283 -0.2886
 7475SOL    HW233885   0.521   2.103   9.858  0.4054 -1.0573 -0.8061
 7476SOL     OW33886   3.308   3.686   5.029 -0.1860  0.8749  0.0405
 7476SOL    HW133887   3.393   3.646   5.047 -0.4986  0.0547 -0.3059
 7476SOL    HW233888   3.329   3.727   4.946 -0.6494  2.1813  0.5631
 7477SOL     OW33889   1.502   2.125   5.820  0.8135  0.0767  0.1118
 7477SOL    HW133890   1.577   2.155   5.769  1.1900 -0.1535  0.5220
 7477SOL    HW233891   1.503   2.035   5.788  0.1505 -0.3306  1.2529
 7478SOL     OW33892   0.559   2.273   1.459  0.4930  0.5277  0.0717
 7478SOL    HW133893   0.503   2.284   1.536  2.3331 -0.8930  1.6012
 7478SOL    HW233894   0.594   2.362   1.456  0.2177  0.6142 -0.5826
 7479SOL     OW33895   3.308   4.456   2.770  0.5934  0.1067  0.5539
 7479SOL    HW133896   3.401   4.453   2.749  0.4331 -0.4565 -0.0579
 7479SOL    HW233897   3.288   4.379   2.823 -0.4306  1.4527  2.1441
 7480SOL     OW33898   2.759   2.200   7.038  0.1620  0.0487 -0.2700
 7480SOL    HW133899   2.738   2.135   7.106  2.6082 -1.2569 -0.7362
 7480SOL    HW233900   2.750   2.280   7.090 -2.2595  0.6865 -1.6787
 7481SOL     OW33901   2.540   1.164   0.353 -0.0082 -0.2301 -0.2014
 7481SOL    HW133902   2.545   1.243   0.299  0.9574 -0.0732  0.1247
 7481SOL    HW233903   2.452   1.175   0.389 -0.1240 -0.5161 -0.3963
 7482SOL     OW33904   3.764   4.100   7.851  0.3175  0.1183 -0.3629
 7482SOL    HW133905   3.780   4.098   7.945 -0.1927 -0.0215 -0.2784
 7482SOL    HW233906   3.776   4.008   7.825  1.5587  0.0397  0.5119
 7483SOL     OW33907   2.045   4.032   4.234  0.2468  0.7254  0.1374
 7483SOL    HW133908   1.951   4.050   4.245  0.0841 -0.0270 -0.0318
 7483SOL    HW233909   2.065   4.001   4.322 -1.8963 -1.6714 -0.2187
 7484SOL     OW33910   0.148   1.870   5.894 -0.2190  0.0598  0.4642
 7484SOL    HW133911   0.192   1.790   5.863  1.1347  1.2499 -0.6710
 7484SOL    HW233912   0.189   1.941   5.845 -1.3351  0.3951  0.0196
 7485SOL     OW33913   0.379   3.829   1.937  1.3861 -0.5062 -0.1941
 7485SOL    HW133914   0.387   3.734   1.930  2.2193 -0.5189  0.9356
 7485SOL    HW233915   0.350   3.834   1.846 -1.1836 -3.0767  0.5062
 7486SOL     OW33916   0.516   3.907   0.545  0.8165  0.2583  0.0096
 7486SOL    HW133917   0.594   3.961   0.557  0.6047  0.1473  2.0269
 7486SOL    HW233918   0.443   3.967   0.527 -1.3410 -2.0082  1.1046
 7487SOL     OW33919   4.019   0.943   4.161  0.2385 -0.3247  0.2891
 7487SOL    HW133920   4.001   1.017   4.103  2.9634 -0.3058 -0.5318
 7487SOL    HW233921   4.014   0.985   4.247  0.4938 -0.5582  0.4192
 7488SOL     OW33922   3.646   0.331   3.113  0.0092 -0.1942 -0.3367
 7488SOL    HW133923   3.660   0.241   3.085 -0.2738 -0.0884 -0.8278
 7488SOL    HW233924   3.599   0.316   3.195  1.0863  2.0401  0.7062
 7489SOL     OW33925   2.723   4.386   4.464 -0.3601  0.4541 -0.4926
 7489SOL    HW133926   2.628   4.386   4.476 -0.5777  0.3664 -2.1258
 7489SOL    HW233927   2.761   4.383   4.552  2.0573 -0.5954 -1.5734
 7490SOL     OW33928   3.729   1.168  13.895 -0.2415 -0.0465  0.0955
 7490SOL    HW133929   3.639   1.198  13.876 -0.6564 -1.0835  0.4355
 7490SOL    HW233930   3.713   1.077  13.871  1.7986 -0.1734 -0.7185
 7491SOL     OW33931   0.868   1.023  10.516 -0.3484 -0.2877 -0.2308
 7491SOL    HW133932   0.927   1.052  10.585 -0.9369 -1.3766  0.7437
 7491SOL    HW233933   0.920   1.022  10.436  0.4515 -0.6780  0.3002
 7492SOL     OW33934   2.072   2.414   7.925 -0.3407 -0.2283  0.1107
 7492SOL    HW133935   2.135   2.478   7.957  0.3868 -1.1991  0.5999
 7492SOL    HW233936   2.050   2.450   7.839  1.6130  0.2974 -0.1626
 7493SOL     OW33937   0.763   1.136   2.243  0.6151  0.1390  0.3969
 7493SOL    HW133938   0.765   1.044   2.216  0.2901  0.2452  0.0044
 7493SOL    HW233939   0.673   1.159   2.220  0.0759 -1.1805  1.2249
 7494SOL     OW33940   4.104   0.780   8.599  0.1066  0.2932  0.0700
 7494SOL    HW133941   4.103   0.789   8.504  1.0185 -0.6447 -0.0416
 7494SOL    HW233942   4.018   0.815   8.621  0.2575  1.1403 -0.6865
 7495SOL     OW33943   3.694   0.526   1.332 -0.0950 -0.0272 -0.3823
 7495SOL    HW133944   3.629   0.566   1.273 -1.7068  0.7398  1.8989
 7495SOL    HW233945   3.637   0.511   1.407 -0.6894 -1.3376 -1.0926
 7496SOL     OW33946   3.342   1.810   5.417 -0.5846 -0.0921 -0.1474
 7496SOL    HW133947   3.316   1.889   5.370 -0.4380  0.5100  0.7727
 7496SOL    HW233948   3.391   1.772   5.344 -0.0177 -2.1288  1.2739
 7497SOL     OW33949   3.249   4.237   1.102  0.0536  0.1552  0.2338
 7497SOL    HW133950   3.175   4.287   1.067 -0.4004 -2.4107 -2.4448
 7497SOL    HW233951   3.282   4.287   1.176 -0.7503  2.2565 -0.8117
 7498SOL     OW33952   3.184   1.655   9.571 -1.3105 -0.1685  0.6370
 7498SOL    HW133953   3.272   1.619   9.572 -0.9938  0.6392  1.5684
 7498SOL    HW233954   3.158   1.646   9.479 -0.0747 -1.5777  0.4315
 7499SOL     OW33955   2.956   4.531   3.084 -0.3723  0.0268 -0.0720
 7499SOL    HW133956   3.001   4.511   3.002 -1.9396 -0.5851 -0.7941
 7499SOL    HW233957   3.032   4.535   3.142  0.2956  1.2065 -1.0341
 7500SOL     OW33958   1.493   4.019   0.123 -0.1339  0.0745 -0.1972
 7500SOL    HW133959   1.542   3.956   0.070  2.5054 -0.2853  2.6748
 7500SOL    HW233960   1.411   4.028   0.075  0.1236  0.7853 -0.5055
 7501SOL     OW33961   0.371   3.020  11.335  0.1783 -0.4133  0.4423
 7501SOL    HW133962   0.344   2.982  11.251 -1.1654  3.0483 -0.6966
 7501SOL    HW233963   0.441   3.070  11.293  0.2965 -2.4648 -1.8260
 7502SOL     OW33964   4.218   2.975   1.295 -0.0807 -0.2224 -0.0237
 7502SOL    HW133965   4.305   2.997   1.327 -0.3279  0.1725  0.3905
 7502SOL    HW233966   4.219   3.032   1.218 -0.3571 -0.2671 -0.0620
 7503SOL     OW33967   3.102   2.245   4.244  0.3189 -0.4744  0.0090
 7503SOL    HW133968   3.054   2.266   4.324  0.3199  1.4918 -0.4964
 7503SOL    HW233969   3.141   2.167   4.284  1.2771  0.7659  1.4868
 7504SOL     OW33970   2.451   1.842   8.775  1.0474  0.4878  0.0263
 7504SOL    HW133971   2.381   1.887   8.728  2.9642  0.7915 -2.5790
 7504SOL    HW233972   2.420   1.753   8.758  1.9439  0.0112  0.8477
 7505SOL     OW33973   4.290   2.197   5.157  1.2174 -0.1130  0.0399
 7505SOL    HW133974   4.250   2.111   5.151  0.3941  0.4560 -2.9072
 7505SOL    HW233975   4.341   2.186   5.077 -4.1535  0.4826 -3.4674
 7506SOL     OW33976   3.378   2.737   8.829 -0.2549 -0.3448 -0.3896
 7506SOL    HW133977   3.473   2.740   8.841 -0.2387  0.2650 -0.7074
 7506SOL    HW233978   3.370   2.759   8.737  0.4626 -0.0847 -0.3844
 7507SOL     OW33979   4.631   3.043   4.723 -0.1592  0.3313 -0.2852
 7507SOL    HW133980   4.541   3.065   4.699 -0.2298 -0.2522 -0.5402
 7507SOL    HW233981   4.643   3.097   4.801 -1.1402 -0.1575  0.2022
 7508SOL     OW33982   2.511   0.399   1.942 -0.1344  0.0684  0.1104
 7508SOL    HW133983   2.572   0.403   1.869 -0.3935 -0.7841 -0.1553
 7508SOL    HW233984   2.552   0.468   1.994 -1.1105  0.7459 -0.0148
 7509SOL     OW33985   3.130   1.985  16.291  0.8222  0.3126  0.4656
 7509SOL    HW133986   3.061   2.016  16.232 -0.8979  1.7602  3.2336
 7509SOL    HW233987   3.170   1.920  16.233  2.2479  1.4392  0.1700
 7510SOL     OW33988   2.797   2.740  13.128  0.2272  0.3664 -0.4841
 7510SOL    HW133989   2.863   2.807  13.113 -0.2827  1.8408  3.6706
 7510SOL    HW233990   2.752   2.731  13.044  1.2275 -0.4886 -0.9174
 7511SOL     OW33991   2.190   4.492   3.306 -0.2622 -0.4907 -0.4227
 7511SOL    HW133992   2.192   4.547   3.384  3.3953 -1.1688 -0.0527
 7511SOL    HW233993   2.205   4.554   3.234  1.7173 -0.2692  0.1791
 7512SOL     OW33994   2.154   4.656  16.987 -0.0013  0.4425 -0.3987
 7512SOL    HW133995   2.162   4.597  16.912 -0.3599 -0.3871  0.2163
 7512SOL    HW233996   2.064   4.687  16.972  0.1076  1.1998  0.5352
 7513SOL     OW33997   4.626   2.282  10.659 -0.4641 -0.2042  0.3467
 7513SOL    HW133998   4.710   2.267  10.615  0.2043  1.4849  1.0483
 7513SOL    HW233999   4.651   2.368  10.693 -1.3987 -0.6112  2.0550
 7514SOL     OW34000   2.137   3.082   1.732  0.1045  0.3203  0.4346
 7514SOL    HW134001   2.146   3.150   1.666 -3.4582  0.8735  0.5195
 7514SOL    HW234002   2.176   3.115   1.813  0.9334 -0.5408  0.3920
 7515SOL     OW34003   1.624   3.116   7.283 -0.1543  0.3870  0.1638
 7515SOL    HW134004   1.647   3.101   7.375 -0.6025 -0.2802  0.1623
 7515SOL    HW234005   1.656   3.033   7.248  0.5240  0.8283 -0.2809
 7516SOL     OW34006   0.381   0.721   7.114  0.5170 -0.2878 -0.7575
 7516SOL    HW134007   0.407   0.671   7.191  0.2210  0.2519 -0.3108
 7516SOL    HW234008   0.462   0.707   7.066  0.0944  0.4321 -1.6885
 7517SOL     OW34009   1.697   2.618  12.467 -0.2863  0.2941 -0.0617
 7517SOL    HW134010   1.705   2.573  12.382  0.4413  1.3715 -0.5598
 7517SOL    HW234011   1.789   2.642  12.479 -0.5630  0.7444  1.1406
 7518SOL     OW34012   2.732   1.679  11.039 -0.3645  0.0482  0.0465
 7518SOL    HW134013   2.746   1.598  10.990 -2.3064  0.9725 -2.0142
 7518SOL    HW234014   2.685   1.643  11.114 -1.7769  0.1770 -0.7940
 7519SOL     OW34015   0.892   4.560  14.479  0.7000 -0.2065  0.0192
 7519SOL    HW134016   0.827   4.562  14.408  0.3696 -0.5287  0.3152
 7519SOL    HW234017   0.963   4.608  14.437  1.3327 -0.2424  1.0580
 7520SOL     OW34018   1.288   3.979   6.163  0.0645 -0.1056 -0.7349
 7520SOL    HW134019   1.320   3.892   6.141  0.3486 -0.0724 -0.4530
 7520SOL    HW234020   1.222   3.985   6.094 -0.9989  1.9801  0.4709
 7521SOL     OW34021   4.288   0.694   2.485 -0.3948 -0.5005  0.0416
 7521SOL    HW134022   4.339   0.613   2.488  0.4616 -0.0540 -2.5081
 7521SOL    HW234023   4.292   0.732   2.572  0.4488 -1.2573  0.3403
 7522SOL     OW34024   2.205   1.297   0.697 -0.3917 -0.2892  0.1053
 7522SOL    HW134025   2.292   1.289   0.738  0.2270 -0.4796 -1.2679
 7522SOL    HW234026   2.163   1.273   0.780 -0.4320  0.9868  0.4540
 7523SOL     OW34027   3.358   3.549  13.180 -0.5225 -0.9024 -0.2527
 7523SOL    HW134028   3.388   3.498  13.104  0.2248  0.3000 -0.7754
 7523SOL    HW234029   3.272   3.574  13.147 -0.0673 -1.5283 -1.9637
 7524SOL     OW34030   0.130   1.267  17.323  0.5935 -0.2996  0.4364
 7524SOL    HW134031   0.059   1.267  17.387  0.1683  3.0182 -0.0434
 7524SOL    HW234032   0.121   1.343  17.265 -1.5061  0.1057  1.2777
 7525SOL     OW34033   2.269   4.380  15.622 -0.6686 -0.8772  0.2011
 7525SOL    HW134034   2.303   4.296  15.653 -3.6782 -2.4476 -0.7725
 7525SOL    HW234035   2.351   4.404  15.579 -1.1642 -0.0077 -0.2298
 7526SOL     OW34036   4.142   0.538  16.041  0.1351  0.3470  0.0018
 7526SOL    HW134037   4.080   0.610  16.028 -1.1478 -0.6217  0.7135
 7526SOL    HW234038   4.108   0.463  15.992  1.2761 -1.1799  1.5306
 7527SOL     OW34039   1.406   1.459  12.075 -0.0762  0.4613 -0.2454
 7527SOL    HW134040   1.400   1.397  12.003  2.1600  0.2724 -0.2780
 7527SOL    HW234041   1.440   1.414  12.152  0.3972  0.2386 -0.5899
 7528SOL     OW34042   1.350   2.339  16.125 -0.1887  0.0422 -0.3493
 7528SOL    HW134043   1.398   2.259  16.144 -0.9244 -0.0352  1.1115
 7528SOL    HW234044   1.407   2.376  16.057  1.6145 -1.5056  0.3129
 7529SOL     OW34045   3.228   3.202   7.242 -0.4292  0.1119 -0.5744
 7529SOL    HW134046   3.163   3.137   7.215  1.7713 -2.0124 -0.8283
 7529SOL    HW234047   3.173   3.279   7.242 -0.7118 -0.0908  0.6952
 7530SOL     OW34048   3.297   0.232   1.381  0.0174 -0.1171 -0.8331
 7530SOL    HW134049   3.276   0.308   1.328 -1.5628 -0.2161 -0.3485
 7530SOL    HW234050   3.304   0.274   1.467 -0.5587 -0.5086 -0.5951
 7531SOL     OW34051   0.510   2.033  14.781 -0.0594  0.1673 -0.1130
 7531SOL    HW134052   0.435   2.050  14.724  0.3753  1.0152 -0.4231
 7531SOL    HW234053   0.577   2.036  14.713  1.0139 -0.9724  0.9046
 7532SOL     OW34054   4.714   2.516   0.896 -0.2277  0.3324  0.4827
 7532SOL    HW134055   4.714   2.581   0.825  3.6934 -1.9030 -1.5149
 7532SOL    HW234056   0.084   2.496   0.896 -0.2867  0.1855 -2.8394
 7533SOL     OW34057   0.468   0.414   0.386 -0.1415 -0.3633 -0.0007
 7533SOL    HW134058   0.505   0.342   0.438 -1.5845 -0.1799  1.2818
 7533SOL    HW234059   0.388   0.372   0.354  0.7319 -1.2096 -1.0943
 7534SOL     OW34060   0.649   0.413   2.371  0.1204  0.2218 -0.8200
 7534SOL    HW134061   0.572   0.375   2.414  0.9371 -0.6995 -0.1729
 7534SOL    HW234062   0.631   0.377   2.284 -2.0919 -0.8320  0.0869
 7535SOL     OW34063   1.003   0.670   6.721  0.6808  0.3105  0.8695
 7535SOL    HW134064   0.978   0.639   6.634 -2.1543 -0.7430  2.0252
 7535SOL    HW234065   1.015   0.582   6.756 -0.3045  0.1994  0.9540
 7536SOL     OW34066   1.762   2.897   7.159  0.5191 -0.0281  0.0696
 7536SOL    HW134067   1.822   2.960   7.120  0.6351  1.0920  2.0904
 7536SOL    HW234068   1.744   2.844   7.081 -0.1055  0.8595 -0.3918
 7537SOL     OW34069   0.251   2.841   3.421  0.2625  0.2723  0.2868
 7537SOL    HW134070   0.240   2.907   3.489  0.6697  1.1413 -0.4999
 7537SOL    HW234071   0.293   2.891   3.351 -1.7420 -0.7678 -1.6796
 7538SOL     OW34072   1.309   4.216  10.430  0.4648 -0.0363 -0.0371
 7538SOL    HW134073   1.269   4.149  10.486 -1.1809 -0.7994 -2.1423
 7538SOL    HW234074   1.225   4.253  10.404  0.5594  0.4129  0.3002
 7539SOL     OW34075   0.821   3.723   0.510  0.6561 -0.3254  0.8975
 7539SOL    HW134076   0.778   3.699   0.428  0.6594 -0.6434  0.9911
 7539SOL    HW234077   0.740   3.739   0.558 -0.2836  1.6577 -1.3693
 7540SOL     OW34078   0.754   2.357   3.225 -0.2199 -0.1584  0.5497
 7540SOL    HW134079   0.821   2.388   3.286  1.1613  0.1102 -1.1063
 7540SOL    HW234080   0.742   2.265   3.250  1.3645 -0.8553 -1.2469
 7541SOL     OW34081   0.441   3.858  13.898  0.0430  0.3581  0.2272
 7541SOL    HW134082   0.464   3.810  13.818 -0.4594  0.0578  0.2645
 7541SOL    HW234083   0.525   3.853  13.944  0.2538  1.5123 -0.0098
 7542SOL     OW34084   0.886   2.193   8.919  0.1592 -0.2457 -0.1058
 7542SOL    HW134085   0.960   2.164   8.866  1.6693  0.5672  1.5604
 7542SOL    HW234086   0.905   2.144   8.999  0.6380 -1.5634 -1.0134
 7543SOL     OW34087   3.098   1.802   3.785 -0.2059 -0.4539 -0.1215
 7543SOL    HW134088   3.065   1.880   3.741 -1.3536 -0.4253  0.7824
 7543SOL    HW234089   3.114   1.749   3.707  4.2100 -0.3628  0.7232
 7544SOL     OW34090   3.074   0.593   3.148 -0.0881 -0.6939 -0.4893
 7544SOL    HW134091   3.006   0.657   3.172 -0.1738 -1.2052  0.6500
 7544SOL    HW234092   3.102   0.630   3.065  0.9555  1.7938  0.9704
 7545SOL     OW34093   1.222   3.056   6.413  0.0742 -0.2600  0.3912
 7545SOL    HW134094   1.145   3.034   6.361 -0.2728  0.2259  0.6941
 7545SOL    HW234095   1.195   3.141   6.449  0.8719  0.5102 -0.8267
 7546SOL     OW34096   1.391   3.528  12.444 -0.5384  0.1157  0.3298
 7546SOL    HW134097   1.430   3.616  12.444 -0.0882 -0.0848 -0.3523
 7546SOL    HW234098   1.465   3.481  12.481 -1.4707  0.2533  2.3340
 7547SOL     OW34099   2.066   3.116   6.292 -0.0962 -0.0900  0.3033
 7547SOL    HW134100   2.150   3.081   6.264  0.8779  2.2466  0.3019
 7547SOL    HW234101   2.099   3.142   6.378  0.0652 -1.7937  0.7610
 7548SOL     OW34102   2.186   2.819   1.660  0.0792  0.3237 -0.1375
 7548SOL    HW134103   2.218   2.803   1.748  2.7714 -3.3565 -1.7946
 7548SOL    HW234104   2.140   2.901   1.679 -0.1443 -0.2328  1.6685
 7549SOL     OW34105   4.073   4.600  12.266  0.8054  0.0528 -0.5220
 7549SOL    HW134106   4.132   4.673  12.248 -1.0294  1.6467 -0.0816
 7549SOL    HW234107   4.065   4.574  12.175  0.4377  0.8157 -0.7118
 7550SOL     OW34108   3.188   3.666  13.826 -0.7718 -0.2803  0.2709
 7550SOL    HW134109   3.236   3.707  13.754  0.9630 -2.1076  0.3662
 7550SOL    HW234110   3.256   3.621  13.877 -1.0290 -0.3039  0.5911
 7551SOL     OW34111   4.122   1.188   4.705 -0.2069  0.3057 -0.1000
 7551SOL    HW134112   4.140   1.118   4.768 -2.3867  0.8812  1.1923
 7551SOL    HW234113   4.130   1.150   4.617 -1.0718  2.8345 -1.2855
 7552SOL     OW34114   1.120   1.273  11.942 -0.9358 -0.7659  0.0617
 7552SOL    HW134115   1.213   1.251  11.948 -1.6829 -3.4902  1.9894
 7552SOL    HW234116   1.074   1.200  11.984 -0.4230 -2.1981 -1.8796
 7553SOL     OW34117   4.368   0.035   1.603  0.0529  0.7289  0.5769
 7553SOL    HW134118   4.335   4.669   1.608  0.7747  0.2776 -2.4854
 7553SOL    HW234119   4.431   0.026   1.674  0.1896  0.4953  0.4274
 7554SOL     OW34120   4.619   4.651   3.315 -0.1445  0.1805 -0.1775
 7554SOL    HW134121   4.709   4.676   3.336 -0.6479  0.9880  1.0337
 7554SOL    HW234122   4.632   4.568   3.270  0.6623  0.1274  0.1708
 7555SOL     OW34123   4.585   2.898   1.671 -0.3235  0.1171  0.0025
 7555SOL    HW134124   4.569   2.850   1.752  0.3688  0.7197  0.4961
 7555SOL    HW234125   4.514   2.961   1.669  0.2605  0.7297 -1.1061
 7556SOL     OW34126   0.402   1.347   8.018 -0.0305 -0.1231  0.1587
 7556SOL    HW134127   0.414   1.269   8.071 -0.7748 -1.4683 -1.6492
 7556SOL    HW234128   0.463   1.401   8.069  0.7083 -0.1717 -0.6685
 7557SOL     OW34129   2.771   3.137   7.246  0.2527 -0.1984  0.6901
 7557SOL    HW134130   2.678   3.123   7.261  0.5646 -2.0346  0.8125
 7557SOL    HW234131   2.803   3.130   7.336  2.5878  0.9534 -0.0431
 7558SOL     OW34132   0.362   2.992  11.062  0.3318 -0.3247  0.0940
 7558SOL    HW134133   0.271   3.018  11.046  0.9245  1.6215 -0.0802
 7558SOL    HW234134   0.396   2.976  10.974 -0.6217 -0.2230 -0.2918
 7559SOL     OW34135   3.417   4.650   8.151  0.1614 -0.1129 -0.0418
 7559SOL    HW134136   3.388   4.560   8.158  0.6038 -0.1704  1.1287
 7559SOL    HW234137   3.508   4.628   8.129  1.0205  2.9783  0.3600
 7560SOL     OW34138   1.219   0.272   7.892  0.4718 -0.2575  0.2867
 7560SOL    HW134139   1.232   0.180   7.916 -2.3107 -0.0005  2.8631
 7560SOL    HW234140   1.273   0.308   7.962  0.6754 -1.4560  0.7581
 7561SOL     OW34141   1.887   1.238   8.255  0.3377 -0.2353  0.2528
 7561SOL    HW134142   1.829   1.270   8.325 -0.3315 -0.9584  0.0396
 7561SOL    HW234143   1.858   1.293   8.182  1.1465  1.5166  1.2527
 7562SOL     OW34144   2.184   1.258   2.957 -0.0375 -0.2391 -0.5110
 7562SOL    HW134145   2.196   1.174   3.003 -0.5165 -0.2521 -0.4121
 7562SOL    HW234146   2.148   1.223   2.875 -1.0079  0.6579 -0.4664
 7563SOL     OW34147   0.544   0.081   9.962 -0.2424  0.2084 -0.5964
 7563SOL    HW134148   0.458   0.107   9.993 -0.5486 -0.3647 -0.9640
 7563SOL    HW234149   0.586   0.078  10.048 -0.9767  0.1419 -0.2370
 7564SOL     OW34150   0.456   0.158   6.998 -0.1864  0.1718  0.5086
 7564SOL    HW134151   0.406   0.152   7.080  2.9830  1.0085  2.4944
 7564SOL    HW234152   0.437   0.078   6.949  2.7330 -0.4196  0.3438
 7565SOL     OW34153   2.190   1.039  14.448 -0.0490  0.7116 -0.3632
 7565SOL    HW134154   2.234   0.955  14.438 -1.1494  0.4196 -2.7023
 7565SOL    HW234155   2.127   1.019  14.517  1.3330  0.0768  0.7133
 7566SOL     OW34156   0.781   1.488   3.244 -0.4271  0.4055  0.3900
 7566SOL    HW134157   0.758   1.461   3.155 -1.4900  1.7713  0.2631
 7566SOL    HW234158   0.866   1.445   3.254  1.0303  2.8614 -1.3872
 7567SOL     OW34159   3.152   4.720   4.031 -0.2064  0.2595 -0.0923
 7567SOL    HW134160   3.117   0.064   4.089  0.5868  0.4803  0.1298
 7567SOL    HW234161   3.137   4.642   4.084  0.9238  0.2171  0.1639
 7568SOL     OW34162   0.457   4.090   7.715 -0.1171  0.2058 -0.1429
 7568SOL    HW134163   0.404   4.113   7.639  1.1402 -2.8338 -1.9553
 7568SOL    HW234164   0.396   4.028   7.755  1.2781 -0.8227  0.3978
 7569SOL     OW34165   2.242   2.278   9.126 -0.3981 -0.3770 -0.3125
 7569SOL    HW134166   2.264   2.193   9.162  1.0347  1.4016  3.0198
 7569SOL    HW234167   2.287   2.336   9.188 -0.8837 -0.5029  0.1545
 7570SOL     OW34168   3.682   4.207   3.427 -0.1620  1.1604 -0.0586
 7570SOL    HW134169   3.723   4.238   3.508 -3.3771 -2.0549  2.7343
 7570SOL    HW234170   3.693   4.114   3.444  0.8175  1.0581 -1.2304
 7571SOL     OW34171   4.505   2.872   0.991  0.2266 -0.1907  0.0732
 7571SOL    HW134172   4.474   2.858   0.901  0.3694 -0.9740  0.1495
 7571SOL    HW234173   4.593   2.836   0.976  1.4141  2.3487  0.9569
 7572SOL     OW34174   2.089   2.354   0.621 -0.1500  0.3200 -0.1571
 7572SOL    HW134175   2.170   2.306   0.637 -0.0369  0.2471 -0.9237
 7572SOL    HW234176   2.068   2.306   0.541  1.5886  1.5509 -1.3358
 7573SOL     OW34177   2.587   4.452   3.387  0.1926  0.2613 -0.2537
 7573SOL    HW134178   2.524   4.396   3.342 -0.8776  2.5180 -1.4969
 7573SOL    HW234179   2.665   4.409   3.352 -0.9958 -2.3124  0.2226
 7574SOL     OW34180   1.827   2.346   5.358  0.1095  0.1762  0.1864
 7574SOL    HW134181   1.922   2.336   5.358  0.0081 -0.8077 -0.6037
 7574SOL    HW234182   1.827   2.438   5.382  1.6866 -0.1334  1.4262
 7575SOL     OW34183   2.350   3.631  10.110  0.3104 -0.1020  0.0531
 7575SOL    HW134184   2.387   3.699  10.054 -0.2158  0.2537  0.1445
 7575SOL    HW234185   2.258   3.631  10.083 -0.5039  0.7928  2.8600
 7576SOL     OW34186   3.085   1.151   8.306 -0.7704 -0.2530 -0.6213
 7576SOL    HW134187   3.053   1.171   8.394  0.3631 -0.7092 -0.1131
 7576SOL    HW234188   3.011   1.189   8.258 -1.6871  0.3539  1.2724
 7577SOL     OW34189   4.329   1.328  14.807  0.2561 -0.8894  0.4857
 7577SOL    HW134190   4.241   1.364  14.799 -0.1466 -1.9542  0.1899
 7577SOL    HW234191   4.381   1.398  14.766  1.5111 -1.2232  1.5160
 7578SOL     OW34192   3.607   0.547  11.379  0.0400  0.1609  0.2908
 7578SOL    HW134193   3.604   0.569  11.286  2.5392 -0.4486  0.0672
 7578SOL    HW234194   3.559   0.622  11.414 -0.3546 -1.2541  2.7924
 7579SOL     OW34195   0.529   0.082   2.976 -0.1686 -0.8059  0.2101
 7579SOL    HW134196   0.459   0.047   2.922  1.5135 -0.4537 -2.2088
 7579SOL    HW234197   0.558   0.154   2.920 -0.6062 -0.2659  0.6759
 7580SOL     OW34198   0.079   3.371   0.615  0.1996  0.3871  0.4831
 7580SOL    HW134199   0.127   3.327   0.545  0.8496 -0.3180  1.3761
 7580SOL    HW234200   0.064   3.462   0.589 -0.1770  0.4664  0.9868
 7581SOL     OW34201   2.164   4.284   2.984  0.1612 -0.4508  0.5572
 7581SOL    HW134202   2.107   4.349   3.025 -0.1764 -0.4367  0.0701
 7581SOL    HW234203   2.253   4.306   3.011 -0.6241 -0.3601  3.0500
 7582SOL     OW34204   0.010   0.059   7.635  0.0363  0.4231 -0.4240
 7582SOL    HW134205   0.012   0.026   7.725  0.1872 -0.9994 -0.9553
 7582SOL    HW234206   0.032   4.701   7.590  0.3384  0.5522 -0.5136
 7583SOL     OW34207   2.068   1.514   0.550  0.1578  0.4521 -0.1806
 7583SOL    HW134208   2.121   1.446   0.593  0.3393  0.7638  0.0963
 7583SOL    HW234209   2.093   1.591   0.601  1.3398  1.0774 -1.7049
 7584SOL     OW34210   2.066   0.972  12.446 -0.3262 -0.1235  0.6615
 7584SOL    HW134211   2.028   0.904  12.503 -1.3667  0.3091  0.4815
 7584SOL    HW234212   2.001   0.987  12.378  0.1078  0.4668  0.3792
 7585SOL     OW34213   3.591   4.519   5.017  0.0850  0.0452  0.3082
 7585SOL    HW134214   3.645   4.594   5.041 -0.5558  0.1994  1.2950
 7585SOL    HW234215   3.520   4.560   4.967  0.4979  0.1005 -0.2317
 7586SOL     OW34216   4.035   4.538   1.592 -0.1775 -0.6446  0.5190
 7586SOL    HW134217   4.027   4.466   1.655  1.2717 -0.7693  0.5538
 7586SOL    HW234218   4.131   4.539   1.596 -0.1801  1.2505  0.2615
 7587SOL     OW34219   1.958   4.441  13.203  0.3775 -0.2847  0.4320
 7587SOL    HW134220   2.019   4.493  13.256 -0.1619 -0.4816  1.2411
 7587SOL    HW234221   1.942   4.503  13.132 -1.2317 -1.5998 -0.3435
 7588SOL     OW34222   0.115   2.983   3.857 -0.6932 -0.3526 -0.4046
 7588SOL    HW134223   0.056   3.020   3.791 -0.0307  1.3126 -0.0765
 7588SOL    HW234224   0.139   2.912   3.798  0.9187 -0.7498  0.7289
 7589SOL     OW34225   0.901   1.052   6.535  0.3158  0.5906  1.0269
 7589SOL    HW134226   0.923   0.962   6.558 -0.4319 -0.2200 -1.4222
 7589SOL    HW234227   0.894   1.086   6.624 -0.2086 -0.2877  1.3292
 7590SOL     OW34228   4.637   2.887   4.204  0.3453  0.1108 -0.1998
 7590SOL    HW134229   4.686   2.942   4.143  1.5427  0.1473  0.7971
 7590SOL    HW234230   4.599   2.822   4.145  0.7739 -0.9682  0.7013
 7591SOL     OW34231   0.632   1.633   5.897  0.7345  0.3165 -0.8713
 7591SOL    HW134232   0.618   1.569   5.967  3.8506  0.2594 -0.2840
 7591SOL    HW234233   0.706   1.594   5.849  1.1403  1.8018 -1.4394
 7592SOL     OW34234   1.136   4.053   1.988 -0.1142  0.0105 -0.2950
 7592SOL    HW134235   1.073   4.124   1.982  0.5283  0.4494 -1.7334
 7592SOL    HW234236   1.208   4.112   2.010  0.9628 -1.6748  0.7560
 7593SOL     OW34237   1.744   0.880  15.008  0.1482 -0.2926  0.7814
 7593SOL    HW134238   1.693   0.818  14.957 -1.0246  0.2668  1.2888
 7593SOL    HW234239   1.820   0.888  14.950 -0.6821  1.0178 -0.1252
 7594SOL     OW34240   1.471   1.417   3.180  0.0131  0.5030  0.4493
 7594SOL    HW134241   1.556   1.428   3.139 -0.4069  0.8887 -0.3239
 7594SOL    HW234242   1.453   1.499   3.227 -0.9534  0.5487  0.0040
 7595SOL     OW34243   2.524   3.815   6.810  0.6694  0.5737 -0.3056
 7595SOL    HW134244   2.516   3.771   6.725  1.0395 -1.7690  0.8628
 7595SOL    HW234245   2.438   3.809   6.852  0.5468 -4.2069 -1.2907
 7596SOL     OW34246   0.924   3.956   6.172 -0.0648 -0.5299 -0.1487
 7596SOL    HW134247   0.966   3.987   6.092  0.1458  0.1763  0.2342
 7596SOL    HW234248   0.999   3.924   6.223 -0.3703 -0.6079  0.2445
 7597SOL     OW34249   2.006   0.524   8.781 -0.2135 -0.4279 -0.0819
 7597SOL    HW134250   1.972   0.518   8.870  0.4220  0.1083  0.1982
 7597SOL    HW234251   1.972   0.610   8.754 -1.0045 -1.0701 -1.1377
 7598SOL     OW34252   4.397   1.433   6.538  0.1802 -0.0839  0.5231
 7598SOL    HW134253   4.308   1.468   6.543  0.2554  0.3355 -1.2954
 7598SOL    HW234254   4.436   1.520   6.530 -0.4339  0.0475 -1.0509
 7599SOL     OW34255   1.721   0.190   3.651  0.0725  0.2493  0.3615
 7599SOL    HW134256   1.764   0.275   3.660  2.4410 -0.9880  0.8536
 7599SOL    HW234257   1.643   0.221   3.604 -0.0508 -1.5032 -0.5900
 7600SOL     OW34258   1.628   4.139  17.185 -0.1082  0.1209  0.1908
 7600SOL    HW134259   1.663   4.218  17.224  1.3878 -0.6158  0.3443
 7600SOL    HW234260   1.609   4.159  17.094 -0.6837 -0.8159  0.0961
 7601SOL     OW34261   2.804   4.364  10.613 -0.1589  0.0645 -0.1515
 7601SOL    HW134262   2.840   4.429  10.552  0.7254  0.2093  0.5224
 7601SOL    HW234263   2.732   4.341  10.554  0.1239  0.6735 -0.7315
 7602SOL     OW34264   0.125   4.542   5.571 -0.1296 -0.5351  0.1700
 7602SOL    HW134265   0.132   4.597   5.648 -0.4317  2.7456 -2.1606
 7602SOL    HW234266   0.034   4.518   5.586 -0.5439  0.7782 -0.2632
 7603SOL     OW34267   4.196   2.551   9.095  0.3172 -0.2416 -0.7611
 7603SOL    HW134268   4.137   2.476   9.091  3.1466 -2.3970 -1.2525
 7603SOL    HW234269   4.177   2.603   9.016 -1.1986 -0.5615 -0.6055
 7604SOL     OW34270   3.003   4.465  17.651  0.1875 -0.1145  0.2874
 7604SOL    HW134271   2.999   4.553  17.690  0.1694 -1.0658  2.4476
 7604SOL    HW234272   3.034   4.482  17.562 -0.6044  0.7881  0.1765
 7605SOL     OW34273   2.982   4.514   9.724 -0.5353  1.1541 -0.3895
 7605SOL    HW134274   3.050   4.467   9.773 -1.4466 -1.8839 -2.0330
 7605SOL    HW234275   3.029   4.595   9.706 -0.4829  1.2483  0.1962
 7606SOL     OW34276   2.322   1.685   8.569 -0.2795  0.1483  0.1942
 7606SOL    HW134277   2.246   1.735   8.541  1.5294  1.8652 -1.6331
 7606SOL    HW234278   2.401   1.726   8.533  0.7846 -1.8273  0.2699
 7607SOL     OW34279   0.041   1.473   6.367 -0.0573  0.1556  0.0410
 7607SOL    HW134280   0.097   1.420   6.309  0.8318  0.3959  0.6723
 7607SOL    HW234281   0.060   1.561   6.333 -0.7346 -0.4350 -1.8453
 7608SOL     OW34282   4.351   4.148   7.399  0.3583 -0.0026 -0.4519
 7608SOL    HW134283   4.446   4.135   7.411  0.2495  1.3834  1.8091
 7608SOL    HW234284   4.317   4.072   7.447  1.6636 -0.3260 -0.0348
 7609SOL     OW34285   0.809   0.701  13.525  0.7873 -0.1251  0.0685
 7609SOL    HW134286   0.740   0.655  13.572 -0.6038  2.0120  0.1349
 7609SOL    HW234287   0.824   0.659  13.440  2.3965 -1.5422  1.0537
 7610SOL     OW34288   0.713   2.741   1.569 -0.1404 -0.0035 -0.2851
 7610SOL    HW134289   0.661   2.784   1.638 -0.6752  1.7308 -1.7488
 7610SOL    HW234290   0.796   2.782   1.594 -0.7078  0.7493  0.3574
 7611SOL     OW34291   3.107   1.101   0.773 -0.1506  0.0894 -0.2548
 7611SOL    HW134292   3.025   1.057   0.749 -0.2865 -1.5323  3.0733
 7611SOL    HW234293   3.074   1.150   0.849 -0.2236 -1.0268  0.4394
 7612SOL     OW34294   1.543   4.375   8.195  0.5764 -0.2022 -0.4216
 7612SOL    HW134295   1.592   4.351   8.116  2.0247  0.3927  0.2916
 7612SOL    HW234296   1.558   4.469   8.205 -1.8411  0.2569 -1.0111
 7613SOL     OW34297   0.557   3.832   3.573  1.0911  0.2839 -0.5737
 7613SOL    HW134298   0.581   3.782   3.651  0.6720  1.4951  0.3386
 7613SOL    HW234299   0.643   3.862   3.544  1.6779 -0.6546  0.1812
 7614SOL     OW34300   0.023   2.841   7.493 -0.2060 -0.6698  0.3875
 7614SOL    HW134301   4.678   2.780   7.466 -0.2918  0.1872 -1.3190
 7614SOL    HW234302   4.698   2.864   7.572  0.6337  2.7820 -0.1001
 7615SOL     OW34303   4.347   2.257   5.753  0.4184  0.4792  0.0530
 7615SOL    HW134304   4.437   2.256   5.719  0.4158 -0.5188  0.0851
 7615SOL    HW234305   4.329   2.350   5.741  1.6443  0.8886  1.3559
 7616SOL     OW34306   1.503   2.474   3.264 -0.0446 -0.3656  0.2524
 7616SOL    HW134307   1.448   2.404   3.230 -0.9304 -0.6153  2.1522
 7616SOL    HW234308   1.572   2.483   3.199  0.6894  1.0246  1.1982
 7617SOL     OW34309   2.811   2.929   7.081  0.6549  0.7114  0.0606
 7617SOL    HW134310   2.776   3.001   7.134  0.3848 -0.8746  2.0581
 7617SOL    HW234311   2.786   2.955   6.993  0.9930  0.2205 -0.1796
 7618SOL     OW34312   4.499   3.366   2.975 -0.3258  0.0681 -0.7492
 7618SOL    HW134313   4.510   3.316   3.056 -1.4600  1.3149  0.1742
 7618SOL    HW234314   4.542   3.448   2.999 -1.4200  0.4004  0.0551
 7619SOL     OW34315   0.800   3.077   7.076  0.1091 -0.0469  0.0097
 7619SOL    HW134316   0.781   2.986   7.098 -1.2376  0.1931 -0.1452
 7619SOL    HW234317   0.712   3.107   7.054  0.5792  0.6044 -0.9774
 7620SOL     OW34318   2.203   2.772   1.927  0.2896 -0.0923 -0.0460
 7620SOL    HW134319   2.257   2.805   1.998 -0.6984  0.7590  0.2997
 7620SOL    HW234320   2.173   2.694   1.973  1.6061 -0.7536 -0.3175
 7621SOL     OW34321   2.040   4.557  11.953  0.0030 -0.8298  0.2279
 7621SOL    HW134322   2.120   4.560  11.900 -0.5877 -2.6982 -0.7594
 7621SOL    HW234323   1.970   4.579  11.892 -1.7025  0.3113  2.6236
 7622SOL     OW34324   1.890   4.029  17.601 -0.4341  0.3064 -0.2859
 7622SOL    HW134325   1.919   3.970  17.532 -0.1114 -0.8029  0.7898
 7622SOL    HW234326   1.861   4.100  17.544 -1.7400  0.2913  0.3702
 7623SOL     OW34327   1.208   3.344   2.848 -0.1084 -0.1283  0.3468
 7623SOL    HW134328   1.175   3.423   2.806  0.3807 -0.3294 -0.4010
 7623SOL    HW234329   1.141   3.283   2.817  1.0461 -0.4894 -1.4316
 7624SOL     OW34330   1.998   1.947   5.396  0.7846  0.1539  0.2057
 7624SOL    HW134331   1.980   1.956   5.490  3.5959  1.0044  0.6607
 7624SOL    HW234332   1.913   1.911   5.369  1.1588 -1.6741  1.4443
 7625SOL     OW34333   3.052   2.483   3.313 -0.4039  0.8785 -0.0682
 7625SOL    HW134334   3.095   2.523   3.238  3.3761  0.9093  2.1068
 7625SOL    HW234335   3.101   2.513   3.389  1.8664 -1.2008 -0.7279
 7626SOL     OW34336   4.630   2.751  12.213  0.0600  0.1418 -0.2196
 7626SOL    HW134337   4.669   2.770  12.298  0.5847  1.0199 -0.6571
 7626SOL    HW234338   4.708   2.775  12.164  0.3745 -1.1103 -0.3241
 7627SOL     OW34339   3.481   0.021  11.182 -0.6086 -0.2792 -1.0476
 7627SOL    HW134340   3.499   0.114  11.195 -0.5881 -0.2456 -1.3342
 7627SOL    HW234341   3.550   4.705  11.236  0.3707  0.2088 -1.9502
 7628SOL     OW34342   2.660   2.748   4.597  0.0641  0.3109 -0.0482
 7628SOL    HW134343   2.567   2.767   4.588 -0.0826 -1.4482 -2.4228
 7628SOL    HW234344   2.698   2.785   4.517  1.5610 -0.7447  0.1735
 7629SOL     OW34345   2.937   2.015  10.119 -0.2513 -0.6024  0.0938
 7629SOL    HW134346   2.849   2.025  10.084 -0.2029 -3.8910 -0.9842
 7629SOL    HW234347   2.972   1.947  10.062 -0.4352 -1.4208  0.9506
 7630SOL     OW34348   4.075   1.350   9.626 -0.0067  0.7635  0.7923
 7630SOL    HW134349   4.003   1.397   9.583  1.1056 -1.3507 -3.3550
 7630SOL    HW234350   4.089   1.275   9.569 -2.8589  2.9676 -2.8550
 7631SOL     OW34351   1.413   1.297   6.148  0.4977 -0.0540  0.0719
 7631SOL    HW134352   1.392   1.367   6.087  1.4102  0.1535 -0.0140
 7631SOL    HW234353   1.447   1.346   6.224  1.4031 -1.9870  0.9377
 7632SOL     OW34354   1.499   1.300  15.773  0.1297  0.0878 -0.2111
 7632SOL    HW134355   1.576   1.256  15.738  0.0895  0.1245 -0.3454
 7632SOL    HW234356   1.462   1.239  15.837  2.7290 -1.2519  0.0038
 7633SOL     OW34357   0.367   4.511   9.159 -0.7356  0.1427 -0.2710
 7633SOL    HW134358   0.315   4.487   9.082 -1.5731 -0.9928  0.6499
 7633SOL    HW234359   0.298   4.494   9.223 -2.8590 -1.6879 -3.0350
 7634SOL     OW34360   4.565   1.822  13.486 -0.2829  0.1328  0.3515
 7634SOL    HW134361   4.640   1.828  13.546  0.2451 -0.2396 -0.2639
 7634SOL    HW234362   4.601   1.841  13.399 -0.2277 -0.9788  0.1312
 7635SOL     OW34363   2.658   4.382   2.408 -0.0588  0.3742  0.2206
 7635SOL    HW134364   2.664   4.374   2.313  0.2758  1.0289  0.1897
 7635SOL    HW234365   2.711   4.461   2.419 -0.1407  0.6258 -1.2171
 7636SOL     OW34366   2.046   4.047  13.612 -0.0428  0.2817 -0.2830
 7636SOL    HW134367   2.115   4.057  13.547  0.9585  2.0746  1.0724
 7636SOL    HW234368   2.005   3.961  13.600 -1.5539  0.9474  0.0590
 7637SOL     OW34369   3.459   0.554   3.436 -0.2295  0.3954  0.1097
 7637SOL    HW134370   3.471   0.560   3.531 -2.3148 -1.8341  0.5048
 7637SOL    HW234371   3.544   0.586   3.407  0.5360 -1.2414  0.5314
 7638SOL     OW34372   0.765   2.538   2.393 -0.7179  0.0263  0.0547
 7638SOL    HW134373   0.802   2.595   2.325 -2.0848  2.6587  1.5308
 7638SOL    HW234374   0.783   2.584   2.475  1.1645 -2.5236  1.0703
 7639SOL     OW34375   2.085   0.754   5.665  0.3070 -0.1694 -0.4477
 7639SOL    HW134376   2.112   0.717   5.748 -3.1116 -1.2745  0.1966
 7639SOL    HW234377   2.164   0.749   5.612  1.6458 -2.9964  1.9161
 7640SOL     OW34378   2.501   4.422   8.199 -0.3247 -0.0148  0.1934
 7640SOL    HW134379   2.455   4.487   8.251  0.1872 -0.6931  1.4987
 7640SOL    HW234380   2.591   4.441   8.223  0.3871 -0.7627 -1.8824
 7641SOL     OW34381   2.378   2.267   7.169  0.3676 -0.4646 -0.0905
 7641SOL    HW134382   2.305   2.222   7.211 -0.4387  1.5060  0.6448
 7641SOL    HW234383   2.418   2.317   7.240  1.0423  0.0160 -0.8065
 7642SOL     OW34384   0.177   3.396   4.478 -0.0976 -0.2339  0.3862
 7642SOL    HW134385   0.173   3.304   4.453 -0.7611 -0.0515 -0.1648
 7642SOL    HW234386   0.267   3.420   4.455 -0.6744  1.1691 -0.3709
 7643SOL     OW34387   4.713   0.079   7.920 -0.1566 -0.2855 -0.2259
 7643SOL    HW134388   0.073   0.098   7.964  0.1197  0.0892 -0.9101
 7643SOL    HW234389   4.704   4.715   7.958 -3.2007  0.1068 -0.0722
 7644SOL     OW34390   3.135   2.880   8.873 -0.4442 -0.1414 -0.2142
 7644SOL    HW134391   3.220   2.836   8.872 -1.7613 -2.7108  0.4867
 7644SOL    HW234392   3.116   2.861   8.782 -0.4168  0.6210 -0.3764
 7645SOL     OW34393   0.640   2.242   5.905  0.5618 -1.0063  0.2991
 7645SOL    HW134394   0.557   2.196   5.890 -0.9920  2.6045 -2.1446
 7645SOL    HW234395   0.690   2.161   5.914 -0.7725 -1.8880 -0.1868
 7646SOL     OW34396   1.626   4.262  16.908  0.2528  0.0241  0.1395
 7646SOL    HW134397   1.638   4.178  16.864  1.1208  0.3365 -0.2200
 7646SOL    HW234398   1.673   4.324  16.852  0.0201  0.0717 -0.0017
 7647SOL     OW34399   2.930   0.432   8.923  0.0922  0.7285  0.5180
 7647SOL    HW134400   2.848   0.435   8.974 -0.8805 -0.8269 -0.9651
 7647SOL    HW234401   3.001   0.440   8.987 -1.1275  1.4925  1.7892
 7648SOL     OW34402   0.644   4.384  12.911  0.4849  1.1639 -0.1628
 7648SOL    HW134403   0.564   4.427  12.944 -0.0262  0.6551 -0.7326
 7648SOL    HW234404   0.708   4.412  12.977 -0.9915  2.0945  0.8874
 7649SOL     OW34405   0.622   2.344   3.618 -0.8000 -0.1291 -0.3317
 7649SOL    HW134406   0.529   2.357   3.639 -1.0529 -1.5070 -0.6577
 7649SOL    HW234407   0.649   2.435   3.635  0.3956 -0.3943 -0.8110
 7650SOL     OW34408   4.298   3.058   6.294 -0.3066  0.1752 -0.1985
 7650SOL    HW134409   4.256   2.973   6.308 -0.3867  0.4597  1.2391
 7650SOL    HW234410   4.236   3.108   6.241 -0.8152  0.1750  0.4037
 7651SOL     OW34411   2.884   3.116   4.657  0.3943 -0.0632  0.2017
 7651SOL    HW134412   2.877   3.210   4.641 -1.1231 -0.5478 -2.0448
 7651SOL    HW234413   2.951   3.094   4.592  1.5551  0.6126  1.1569
 7652SOL     OW34414   3.661   0.328   5.276 -0.8300 -0.4680  0.5720
 7652SOL    HW134415   3.570   0.300   5.265 -0.1634 -1.8426 -1.4278
 7652SOL    HW234416   3.659   0.402   5.336 -0.3985  0.5432 -0.6556
 7653SOL     OW34417   0.341   1.145   1.365 -0.3146 -0.2180  0.5390
 7653SOL    HW134418   0.272   1.173   1.425 -1.3696 -1.0839 -0.2626
 7653SOL    HW234419   0.391   1.226   1.353 -1.1315  0.1686 -0.3305
 7654SOL     OW34420   4.202   0.320   9.278 -0.2276 -0.1409  0.4103
 7654SOL    HW134421   4.134   0.254   9.293 -0.2835 -0.1170  0.2575
 7654SOL    HW234422   4.243   0.325   9.364  0.7310  0.7383 -0.1009
 7655SOL     OW34423   2.446   3.389   6.038 -0.1596 -0.0193 -0.0675
 7655SOL    HW134424   2.535   3.397   6.003  0.5296 -0.3772  1.6172
 7655SOL    HW234425   2.435   3.472   6.084  2.6568  1.6394 -2.3309
 7656SOL     OW34426   1.765   3.713   5.228  0.0153  0.1211 -0.7322
 7656SOL    HW134427   1.696   3.648   5.213 -0.7341 -0.1729  4.1005
 7656SOL    HW234428   1.779   3.744   5.139 -0.6730 -0.1614 -0.9431
 7657SOL     OW34429   0.673   0.876   3.473 -0.4705 -0.0247  0.0515
 7657SOL    HW134430   0.722   0.809   3.522 -0.8260 -0.7442 -0.5691
 7657SOL    HW234431   0.600   0.819   3.448 -0.3228  0.1664 -0.8370
 7658SOL     OW34432   2.179   2.419   5.137  0.3154 -0.2582  0.5130
 7658SOL    HW134433   2.161   2.511   5.156 -0.9295 -0.8678  2.2779
 7658SOL    HW234434   2.213   2.426   5.048 -0.2655  0.7858  0.3766
 7659SOL     OW34435   4.507   2.415   4.808 -0.3749 -0.4358  0.0010
 7659SOL    HW134436   4.554   2.481   4.757  0.9949 -1.1172  0.3761
 7659SOL    HW234437   4.427   2.398   4.758  0.8697 -1.2488 -1.6821
 7660SOL     OW34438   2.274   3.816  13.571  0.0277 -0.1749  0.0959
 7660SOL    HW134439   2.184   3.817  13.603 -0.5581  1.3214 -1.6034
 7660SOL    HW234440   2.274   3.860  13.486  2.0434 -3.0114 -1.4091
 7661SOL     OW34441   2.851   1.075   1.971 -0.8519 -0.0661  0.1217
 7661SOL    HW134442   2.916   1.042   2.034  1.1122  0.0634 -1.8379
 7661SOL    HW234443   2.899   1.129   1.908 -0.3524  1.2910  1.6655
 7662SOL     OW34444   0.754   4.177  11.013 -0.2016  0.3388  0.1527
 7662SOL    HW134445   0.708   4.260  11.030 -1.5545 -0.0629 -1.4669
 7662SOL    HW234446   0.826   4.199  10.954  0.6402  1.9186  1.7838
 7663SOL     OW34447   3.950   4.576   8.194 -0.4306 -0.6871 -0.8617
 7663SOL    HW134448   3.972   4.664   8.225  1.3161 -1.1022 -0.8859
 7663SOL    HW234449   3.982   4.520   8.265  0.8423  0.6941 -0.3387
 7664SOL     OW34450   2.237   1.253  15.224 -0.3446  0.1067 -0.1013
 7664SOL    HW134451   2.296   1.325  15.202  0.6082 -1.0635 -1.4294
 7664SOL    HW234452   2.197   1.233  15.139  1.3579  1.2032 -1.1646
 7665SOL     OW34453   2.436   2.460   5.943 -0.0509 -0.1508 -0.6256
 7665SOL    HW134454   2.434   2.393   5.875  1.1276 -1.3544  0.5324
 7665SOL    HW234455   2.452   2.405   6.019 -0.1623  0.7211  0.0310
 7666SOL     OW34456   3.955   2.791   9.065  0.4340 -0.2998  0.3660
 7666SOL    HW134457   3.901   2.716   9.039 -1.3480  2.0154 -2.6432
 7666SOL    HW234458   4.028   2.790   9.004  0.3636 -0.5291  0.2871
 7667SOL     OW34459   3.287   2.370   5.683 -0.3384 -0.1098  0.0032
 7667SOL    HW134460   3.331   2.455   5.675 -1.7019  0.7034  1.0979
 7667SOL    HW234461   3.240   2.389   5.765 -0.8470 -0.6629 -0.1597
 7668SOL     OW34462   3.795   0.664   8.376  0.1743 -0.3056 -0.8220
 7668SOL    HW134463   3.806   0.600   8.446 -1.9221 -0.5861 -0.7595
 7668SOL    HW234464   3.758   0.741   8.419  0.9736  0.8204 -2.1432
 7669SOL     OW34465   2.506   3.117   6.865  0.3676  0.1179 -0.2755
 7669SOL    HW134466   2.496   3.212   6.856  2.7722  0.4307  0.3672
 7669SOL    HW234467   2.456   3.107   6.946 -0.5235  0.3983 -0.7923
 7670SOL     OW34468   4.401   0.116   4.290 -0.4751 -0.6226 -0.0264
 7670SOL    HW134469   4.456   0.069   4.229  1.7134  1.3261  0.4485
 7670SOL    HW234470   4.363   0.041   4.336 -2.3327  1.7205  2.3170
 7671SOL     OW34471   1.392   4.329   6.003  0.5214 -0.0323  0.1868
 7671SOL    HW134472   1.297   4.328   6.014  0.7456  1.0958  2.1713
 7671SOL    HW234473   1.392   4.376   5.920  3.5216  2.0235  1.3259
 7672SOL     OW34474   2.392   4.365  14.825  0.0438 -0.2987  1.3881
 7672SOL    HW134475   2.348   4.446  14.799 -0.6865  0.0877  3.8955
 7672SOL    HW234476   2.410   4.330  14.737 -0.5220  0.9032  0.7931
 7673SOL     OW34477   0.626   4.635   9.159 -0.1496  0.1359 -0.0735
 7673SOL    HW134478   0.553   4.584   9.196  0.0046 -0.3292 -0.4112
 7673SOL    HW234479   0.679   4.662   9.234  0.7928 -0.0571 -0.6770
 7674SOL     OW34480   0.412   2.249   9.577  0.1418 -0.0506  0.2657
 7674SOL    HW134481   0.468   2.325   9.562  0.5296 -1.0243 -3.2569
 7674SOL    HW234482   0.462   2.181   9.531 -0.1826 -0.0134 -0.1422
 7675SOL     OW34483   3.780   4.682   3.816 -0.0167  0.2699  0.2917
 7675SOL    HW134484   3.756   4.651   3.903 -0.3577  1.1571  0.5185
 7675SOL    HW234485   3.722   4.631   3.761 -1.4046 -1.0566  2.9961
 7676SOL     OW34486   1.771   4.588   4.351 -0.4281  0.3254  0.0633
 7676SOL    HW134487   1.700   4.621   4.405 -1.2719 -0.7920 -0.3749
 7676SOL    HW234488   1.796   4.672   4.313 -1.2871 -0.5064 -2.2993
 7677SOL     OW34489   2.000   0.143   5.769  0.0024  0.0830 -0.6407
 7677SOL    HW134490   2.066   0.081   5.801  1.3065  1.4275 -0.7418
 7677SOL    HW234491   1.916   0.106   5.795 -0.5342  1.3080 -0.6207
 7678SOL     OW34492   4.652   1.391   6.903  0.4129 -0.3064 -0.2902
 7678SOL    HW134493   4.596   1.456   6.859 -2.7393 -1.4880  1.9637
 7678SOL    HW234494   0.019   1.408   6.878  1.1389 -1.6112  1.4421
 7679SOL     OW34495   2.990   3.304   5.025 -0.3336 -0.0073 -0.4076
 7679SOL    HW134496   2.897   3.318   5.008 -0.8248 -0.6231  1.7187
 7679SOL    HW234497   2.990   3.349   5.110 -0.3003 -0.7959  0.0053
 7680SOL     OW34498   0.374   3.099   0.951  0.1564  0.4212  0.0927
 7680SOL    HW134499   0.410   3.173   0.999 -0.7091  0.3036  0.9294
 7680SOL    HW234500   0.391   3.024   1.008  2.4686 -0.4785 -1.7784
 7681SOL     OW34501   1.040   4.137   8.661 -0.1620  0.2470  0.2128
 7681SOL    HW134502   1.030   4.048   8.628  2.6198 -0.5570  1.5020
 7681SOL    HW234503   1.069   4.126   8.752 -1.4018 -1.2682  0.4269
 7682SOL     OW34504   1.873   2.790   8.705 -0.2402  0.3110  0.5728
 7682SOL    HW134505   1.958   2.832   8.696 -1.1489  2.2499  1.0329
 7682SOL    HW234506   1.811   2.860   8.686  0.5768  0.9355  0.2467
 7683SOL     OW34507   3.391   0.493   0.966 -0.1398  0.2726 -0.2347
 7683SOL    HW134508   3.396   0.494   0.871  1.3992  1.2645 -0.1327
 7683SOL    HW234509   3.298   0.487   0.987  0.3097 -0.9676  1.4300
 7684SOL     OW34510   3.866   1.365   1.299  0.3180 -0.1741 -0.0189
 7684SOL    HW134511   3.948   1.395   1.260  0.3600 -0.2684 -0.0019
 7684SOL    HW234512   3.890   1.276   1.325  0.1286 -0.7429 -1.8086
 7685SOL     OW34513   2.579   1.854  10.307 -0.4871 -0.0385 -0.2615
 7685SOL    HW134514   2.641   1.864  10.235 -0.4268  0.7408 -0.1058
 7685SOL    HW234515   2.638   1.877  10.379 -2.2374 -0.9500  1.4533
 7686SOL     OW34516   2.860   3.757  14.620 -0.4212  0.3020  0.0383
 7686SOL    HW134517   2.824   3.820  14.683  1.0013  0.0471  1.1056
 7686SOL    HW234518   2.811   3.681  14.651  2.7554 -1.3287  1.0499
 7687SOL     OW34519   2.826   0.302   4.626  0.0688 -0.1601 -0.3656
 7687SOL    HW134520   2.752   0.363   4.623  0.6625  0.6211  0.9867
 7687SOL    HW234521   2.892   0.362   4.661 -0.8697  1.4239 -1.3031
 7688SOL     OW34522   2.050   1.626   7.432  0.3079 -0.0384  0.2263
 7688SOL    HW134523   2.043   1.647   7.525 -1.8866 -2.0227  0.5095
 7688SOL    HW234524   2.028   1.532   7.432 -0.5971  0.1650  0.7644
 7689SOL     OW34525   2.270   2.421   6.891 -0.1891  0.0958 -0.1865
 7689SOL    HW134526   2.304   2.356   6.830  1.1378  1.0822 -0.4854
 7689SOL    HW234527   2.224   2.483   6.834 -0.0447 -0.4473 -0.8981
 7690SOL     OW34528   3.608   4.437  11.200  0.1427  0.0715 -0.0510
 7690SOL    HW134529   3.695   4.478  11.199  0.3362 -0.2886  1.3059
 7690SOL    HW234530   3.612   4.373  11.129  1.6617  1.9380 -1.6187
 7691SOL     OW34531   2.580   4.666   6.466  0.1805 -0.1152  0.1922
 7691SOL    HW134532   2.648   4.721   6.505  0.8416 -0.4209 -0.5287
 7691SOL    HW234533   2.578   4.586   6.520 -2.3359 -0.0436  0.2103
 7692SOL     OW34534   1.822   2.617   4.212  0.5585 -0.7632 -0.0091
 7692SOL    HW134535   1.832   2.601   4.306 -0.1860  3.5596  0.8167
 7692SOL    HW234536   1.757   2.551   4.188 -1.7510  0.9845  1.4192
 7693SOL     OW34537   2.979   3.494   1.906 -0.0809  0.3312 -0.3977
 7693SOL    HW134538   3.005   3.491   1.998  1.8312 -0.1241 -0.9593
 7693SOL    HW234539   2.950   3.584   1.895  0.6946  0.4885 -1.1844
 7694SOL     OW34540   2.604   2.044   4.367  0.8680 -0.3225  0.4629
 7694SOL    HW134541   2.587   2.064   4.275  1.2164  0.8278  0.6452
 7694SOL    HW234542   2.603   2.133   4.405  1.8913 -0.0858 -0.0612
 7695SOL     OW34543   4.362   0.299   9.492  0.0701 -0.0798  0.2761
 7695SOL    HW134544   4.450   0.316   9.523  0.1506 -1.4608  0.8253
 7695SOL    HW234545   4.359   0.204   9.503  0.1033 -0.0538  0.5015
 7696SOL     OW34546   4.390   3.156   2.828  0.3186  0.1386  0.2612
 7696SOL    HW134547   4.443   3.233   2.845 -2.2691  1.6214  1.6545
 7696SOL    HW234548   4.462   3.096   2.810 -0.0952  0.7898 -3.6095
 7697SOL     OW34549   1.126   4.396  16.759  0.2570  0.6841 -0.5957
 7697SOL    HW134550   1.127   4.355  16.672  1.8438 -0.7116  0.0961
 7697SOL    HW234551   1.219   4.397  16.781  0.9689  1.9199 -3.6618
 7698SOL     OW34552   3.448   2.804  17.170 -0.3651 -0.5019 -0.1578
 7698SOL    HW134553   3.462   2.710  17.186  1.5071 -0.3867 -1.1807
 7698SOL    HW234554   3.494   2.820  17.088  1.0360 -0.7983  0.5750
 7699SOL     OW34555   4.019   3.989   2.744  0.4480  0.4938 -0.0442
 7699SOL    HW134556   3.964   4.029   2.677  0.9474  0.2503 -0.5943
 7699SOL    HW234557   4.056   3.912   2.701  0.6409  1.7544 -2.0963
 7700SOL     OW34558   4.250   2.023  11.460  0.0584  0.4771  0.2483
 7700SOL    HW134559   4.258   1.962  11.533  2.3213  0.3292 -0.1044
 7700SOL    HW234560   4.168   1.990  11.425 -0.1694 -0.8891  2.0875
 7701SOL     OW34561   4.467   3.949  12.853  0.4284 -0.1374 -0.3356
 7701SOL    HW134562   4.549   3.923  12.811  0.3593 -1.6570  0.4817
 7701SOL    HW234563   4.452   3.867  12.900 -0.1596  0.1446 -0.0353
 7702SOL     OW34564   4.190   0.217  16.042 -0.1634 -0.2119  0.3569
 7702SOL    HW134565   4.232   0.222  15.957 -1.5475  2.9047 -0.1346
 7702SOL    HW234566   4.263   0.235  16.102  0.0351  2.3701 -0.6554
 7703SOL     OW34567   1.531   3.962   4.010 -0.8454  0.1204 -0.0664
 7703SOL    HW134568   1.492   3.946   3.924 -3.2652 -1.0059  1.2408
 7703SOL    HW234569   1.595   4.032   4.000 -2.7119  2.1507  2.1247
 7704SOL     OW34570   0.207   2.132   0.820  0.5062 -0.0333  0.2778
 7704SOL    HW134571   0.201   2.039   0.845 -0.2104  0.1645  0.8266
 7704SOL    HW234572   0.216   2.127   0.725 -0.4505 -0.9607  0.2388
 7705SOL     OW34573   1.056   2.105   4.840 -0.0859  0.0303 -0.2961
 7705SOL    HW134574   1.069   2.044   4.767  0.0483 -0.9629  0.5448
 7705SOL    HW234575   0.965   2.126   4.823 -0.1231 -1.3397 -1.7813
 7706SOL     OW34576   3.662   4.437   8.456 -0.5416 -0.1292  0.1727
 7706SOL    HW134577   3.749   4.473   8.473  0.6151 -2.6564 -0.3207
 7706SOL    HW234578   3.615   4.461   8.536 -0.5180 -0.3083  0.2402
 7707SOL     OW34579   2.265   0.106   3.805 -0.3699  0.5632  0.4146
 7707SOL    HW134580   2.220   0.026   3.833  1.7056 -1.4321 -1.9321
 7707SOL    HW234581   2.317   0.136   3.880  0.4998  1.8429 -0.7016
 7708SOL     OW34582   4.014   3.930   0.798 -0.3735 -0.7108 -0.3107
 7708SOL    HW134583   4.048   3.973   0.877  0.2978 -0.5047 -0.7180
 7708SOL    HW234584   4.090   3.881   0.768  0.2777 -0.5991  1.1245
 7709SOL     OW34585   1.709   2.550   2.554 -0.0880 -0.0782  0.0693
 7709SOL    HW134586   1.783   2.563   2.613 -0.3131  2.9837 -0.3088
 7709SOL    HW234587   1.649   2.502   2.610 -0.3516  0.2843  0.1003
 7710SOL     OW34588   4.401   1.104   4.853 -0.4822 -0.3494 -0.2188
 7710SOL    HW134589   4.320   1.068   4.819 -1.0349  0.8331 -0.1520
 7710SOL    HW234590   4.466   1.035   4.837  0.3761  0.6445 -1.1277
 7711SOL     OW34591   4.149   2.702  14.233  0.2193  0.4400 -0.1161
 7711SOL    HW134592   4.206   2.639  14.277 -0.6876 -1.5101 -1.7259
 7711SOL    HW234593   4.214   2.752  14.185  1.0539 -1.3544 -0.8613
 7712SOL     OW34594   0.814   0.577  13.848 -0.1214 -0.0168  0.0480
 7712SOL    HW134595   0.872   0.505  13.871 -0.2440 -0.8582 -2.3491
 7712SOL    HW234596   0.745   0.536  13.796 -0.1077  0.3776 -0.2768
 7713SOL     OW34597   3.763   2.698  16.265 -0.2479 -0.0416 -0.1439
 7713SOL    HW134598   3.680   2.746  16.259 -1.1534 -1.2552  2.5908
 7713SOL    HW234599   3.730   2.608  16.271 -1.1826  0.2264 -1.2139
 7714SOL     OW34600   2.409   0.428   6.628 -0.4363  0.0487 -0.1818
 7714SOL    HW134601   2.478   0.362   6.617  0.1127  0.7378 -0.8045
 7714SOL    HW234602   2.446   0.508   6.592 -0.9491  0.8136  0.9830
 7715SOL     OW34603   1.691   3.253   4.809 -0.3612  0.2193 -0.6423
 7715SOL    HW134604   1.693   3.180   4.746  0.7390  0.3399 -0.7447
 7715SOL    HW234605   1.618   3.306   4.777 -1.0986  1.3386  2.9148
 7716SOL     OW34606   2.593   4.196  15.851 -0.5303  0.0368  0.1952
 7716SOL    HW134607   2.633   4.260  15.911 -0.2064 -0.4745  0.5283
 7716SOL    HW234608   2.635   4.224  15.770  0.2323  0.3227  0.6783
 7717SOL     OW34609   2.033   1.163   2.745  0.2725 -0.1394 -0.0822
 7717SOL    HW134610   1.978   1.107   2.801  2.4233 -1.1087  1.0648
 7717SOL    HW234611   1.969   1.233   2.733 -0.2874 -0.0574  3.2803
 7718SOL     OW34612   3.441   3.738   2.327  0.1434  0.3521  0.3131
 7718SOL    HW134613   3.456   3.686   2.248  0.8606 -1.5753  1.7001
 7718SOL    HW234614   3.504   3.810   2.318 -0.2657  0.5918 -0.6332
 7719SOL     OW34615   0.310   2.947   7.104  0.0188 -0.5511  0.0598
 7719SOL    HW134616   0.358   2.979   7.181 -0.6681 -1.3305  0.8151
 7719SOL    HW234617   0.219   2.947   7.133 -0.0298 -0.2025 -0.1031
 7720SOL     OW34618   0.802   3.438   3.037  0.6557  0.0626  0.3406
 7720SOL    HW134619   0.806   3.351   3.077 -1.8699 -0.9273 -1.5132
 7720SOL    HW234620   0.747   3.408   2.964  1.8309 -1.3786  0.0555
 7721SOL     OW34621   1.161   3.276   5.853  0.3590 -0.1728 -0.2887
 7721SOL    HW134622   1.241   3.308   5.894 -0.5143  0.8083  0.6589
 7721SOL    HW234623   1.154   3.192   5.899  0.6217 -1.1887 -2.1352
 7722SOL     OW34624   3.546   1.816   3.741 -0.3022  0.0792 -0.5551
 7722SOL    HW134625   3.472   1.805   3.800 -0.1005 -1.5955 -0.5976
 7722SOL    HW234626   3.589   1.884   3.792  2.8895 -1.5479 -1.0841
 7723SOL     OW34627   3.647   1.629   4.538  0.4974 -0.1122  0.2618
 7723SOL    HW134628   3.603   1.691   4.596 -1.0326 -0.1543 -0.8532
 7723SOL    HW234629   3.646   1.545   4.584 -3.0611 -0.3873 -0.3190
 7724SOL     OW34630   1.198   2.328   2.560 -0.1673  0.0636  0.6129
 7724SOL    HW134631   1.281   2.283   2.545 -0.7335 -0.7964  0.0244
 7724SOL    HW234632   1.167   2.314   2.649  0.5042 -0.8998  0.6934
 7725SOL     OW34633   3.419   0.457   7.809  0.6098 -0.0413  0.4965
 7725SOL    HW134634   3.425   0.552   7.819  0.0192  0.1176 -0.6166
 7725SOL    HW234635   3.336   0.442   7.854  0.3733 -1.8576 -0.5274
 7726SOL     OW34636   2.463   3.063   8.896  0.4511 -0.0885  0.1503
 7726SOL    HW134637   2.557   3.058   8.914  0.1161 -1.6862  1.4906
 7726SOL    HW234638   2.438   3.129   8.961  0.3346  1.9744 -1.9856
 7727SOL     OW34639   1.147   0.315   9.346  0.1105 -0.4356  0.6656
 7727SOL    HW134640   1.232   0.285   9.313 -0.0916 -0.4131  0.1158
 7727SOL    HW234641   1.175   0.359   9.426  0.7808  1.4148 -0.5716
 7728SOL     OW34642   1.412   4.172   2.615  0.0109 -0.2758 -0.6670
 7728SOL    HW134643   1.395   4.095   2.668 -0.6491  0.0039 -0.4699
 7728SOL    HW234644   1.508   4.168   2.608 -0.0249  0.1085 -1.4599
 7729SOL     OW34645   2.243   0.559   4.894  0.1741 -0.3294 -0.3289
 7729SOL    HW134646   2.172   0.545   4.956  1.0925 -0.1873  0.7483
 7729SOL    HW234647   2.246   0.655   4.887  0.1969 -0.2377  1.0116
 7730SOL     OW34648   3.577   0.162   4.850  0.6496 -0.2496  0.0586
 7730SOL    HW134649   3.644   0.100   4.877  1.2354 -0.0574 -0.9538
 7730SOL    HW234650   3.505   0.114   4.889  0.0453  0.5872 -0.0191
 7731SOL     OW34651   2.247   0.770   8.781  0.8141 -0.2040  0.0016
 7731SOL    HW134652   2.339   0.793   8.770  1.1488 -1.5853  0.0150
 7731SOL    HW234653   2.242   0.676   8.795  0.0087 -0.3868 -1.4609
 7732SOL     OW34654   3.524   3.506  16.539  0.7135 -0.0283  0.9350
 7732SOL    HW134655   3.477   3.490  16.620  0.5701 -0.7775  0.7057
 7732SOL    HW234656   3.591   3.438  16.537  2.8201  2.0660  0.3175
 7733SOL     OW34657   1.590   3.271   8.231  0.0407 -0.0232 -0.0593
 7733SOL    HW134658   1.528   3.215   8.184 -0.4369  1.8118 -1.6277
 7733SOL    HW234659   1.538   3.315   8.299 -0.3393 -1.1372  0.3689
 7734SOL     OW34660   2.060   1.073   0.381  0.0035 -0.2116 -0.4032
 7734SOL    HW134661   2.008   1.150   0.405  0.4787  0.0404 -0.1822
 7734SOL    HW234662   2.026   1.018   0.452  0.3284  1.3251  0.9501
 7735SOL     OW34663   0.583   2.256  10.205 -0.3947 -0.1874  0.4865
 7735SOL    HW134664   0.592   2.179  10.148 -3.0493  0.2556 -0.5430
 7735SOL    HW234665   0.526   2.208  10.266  1.2182  0.3192  2.3840
 7736SOL     OW34666   2.140   0.910   1.427 -0.4188 -0.3104  0.2087
 7736SOL    HW134667   2.161   0.907   1.521  1.2099  0.9016 -0.1283
 7736SOL    HW234668   2.221   0.942   1.389 -0.7834  1.7254  1.1788
 7737SOL     OW34669   3.899   0.011  10.032 -0.1933 -0.5651  0.0096
 7737SOL    HW134670   3.971   0.073  10.044  1.1701 -1.7730 -2.0459
 7737SOL    HW234671   3.917   4.694   9.947 -1.6011  0.0563 -0.5856
 7738SOL     OW34672   0.888   0.425   1.942 -0.3519 -1.2137  0.2959
 7738SOL    HW134673   0.922   0.370   2.013 -0.7045 -2.8033 -0.7775
 7738SOL    HW234674   0.870   0.354   1.880 -0.3081  1.5062 -2.8240
 7739SOL     OW34675   1.451   0.414   3.317  0.3218  0.6472  0.8655
 7739SOL    HW134676   1.459   0.330   3.274 -0.1310  0.2583  1.5397
 7739SOL    HW234677   1.415   0.472   3.250  0.5193 -0.0516  0.1573
 7740SOL     OW34678   0.989   3.454   0.452  0.0785 -0.4433  0.2893
 7740SOL    HW134679   1.000   3.548   0.467 -1.6279 -0.3269  0.8144
 7740SOL    HW234680   0.895   3.443   0.469  0.5325 -0.5947  2.7158
 7741SOL     OW34681   4.172   0.335   8.361  0.2468 -0.1160  0.0311
 7741SOL    HW134682   4.244   0.278   8.389  1.1926  1.0659 -0.0064
 7741SOL    HW234683   4.199   0.418   8.401  1.7192 -0.0765 -1.0247
 7742SOL     OW34684   2.438   3.347   4.313  0.0267 -0.0027  0.2519
 7742SOL    HW134685   2.481   3.277   4.363 -0.3578 -0.1702  0.3525
 7742SOL    HW234686   2.383   3.374   4.387 -0.6174 -0.7999  0.0670
 7743SOL     OW34687   4.663   2.806   2.921  0.5744 -0.0368  0.4810
 7743SOL    HW134688   4.671   2.721   2.877  1.0160  0.7818 -1.0426
 7743SOL    HW234689   0.023   2.810   2.967  0.8175 -0.9438  0.1192
 7744SOL     OW34690   2.250   2.202   5.618 -0.4198  0.4369  0.1758
 7744SOL    HW134691   2.209   2.258   5.684 -0.6139 -0.7491  1.0617
 7744SOL    HW234692   2.235   2.248   5.535 -0.8436  0.7527  0.4240
 7745SOL     OW34693   4.334   1.551   4.317 -0.5395 -0.3248 -0.6326
 7745SOL    HW134694   4.269   1.587   4.378  2.8154  3.9435  0.4424
 7745SOL    HW234695   4.352   1.469   4.363  1.3650  0.2705 -0.3300
 7746SOL     OW34696   4.667   2.042   5.829 -0.2943  0.3011  0.2343
 7746SOL    HW134697   4.598   2.011   5.887 -0.4664  1.4921  0.6717
 7746SOL    HW234698   0.014   1.984   5.860 -2.4679  0.5175  5.5333
 7747SOL     OW34699   4.347   3.635  15.068  0.0428 -0.0297  0.7931
 7747SOL    HW134700   4.414   3.658  15.132 -0.8104 -3.3459  2.8905
 7747SOL    HW234701   4.360   3.543  15.048 -1.8742 -0.0546 -0.3280
 7748SOL     OW34702   3.439   2.656   1.872 -0.3625  0.6249 -0.1151
 7748SOL    HW134703   3.436   2.657   1.967  0.7216  0.2839 -0.0817
 7748SOL    HW234704   3.460   2.749   1.862 -1.1552  0.9044  0.8745
 7749SOL     OW34705   3.504   3.920   1.643  0.2488 -0.6062  0.6954
 7749SOL    HW134706   3.412   3.943   1.650  0.1776 -0.4585 -0.7418
 7749SOL    HW234707   3.511   3.845   1.584 -2.2852 -0.4049  0.1577
 7750SOL     OW34708   3.301   3.242   4.658 -0.0516  0.0178 -0.3292
 7750SOL    HW134709   3.223   3.296   4.644  0.8084  1.4326  0.3602
 7750SOL    HW234710   3.306   3.254   4.753 -0.0702 -0.8814 -0.2202
 7751SOL     OW34711   0.059   3.829  14.628 -0.1776  0.0279  0.3081
 7751SOL    HW134712   0.021   3.788  14.550 -2.5124  2.3485  0.2352
 7751SOL    HW234713   4.718   3.899  14.636 -2.5772 -2.0870 -0.4730
 7752SOL     OW34714   0.105   4.404  12.295 -0.0694 -0.6083 -0.4047
 7752SOL    HW134715   0.177   4.379  12.353 -0.0884 -0.7977 -0.4623
 7752SOL    HW234716   0.068   4.317  12.281 -0.7061 -0.5592  0.9653
 7753SOL     OW34717   2.901   2.155   6.362 -0.2983  0.0634  0.0501
 7753SOL    HW134718   2.848   2.098   6.418  2.1077 -0.3521  1.9052
 7753SOL    HW234719   2.887   2.231   6.419 -1.4906 -0.0548 -0.0745
 7754SOL     OW34720   3.393   0.082   2.929  0.1545 -0.2956  0.1095
 7754SOL    HW134721   3.455   0.036   2.872  2.2224  1.0303  1.3138
 7754SOL    HW234722   3.438   0.109   3.009 -0.6515  0.0725  0.4370
 7755SOL     OW34723   3.870   0.397   4.757  0.5975 -0.6000 -0.1701
 7755SOL    HW134724   3.777   0.374   4.762  0.2369  0.7576 -0.7013
 7755SOL    HW234725   3.892   0.406   4.850 -1.4466 -1.6691  0.4063
 7756SOL     OW34726   4.311   3.523   0.859  0.2135 -0.2110 -0.5467
 7756SOL    HW134727   4.403   3.520   0.832  0.7911  0.2126  1.3659
 7756SOL    HW234728   4.324   3.449   0.918  0.0340  0.0657 -0.1506
 7757SOL     OW34729   0.753   1.628   6.999 -0.1420 -0.3251  0.2408
 7757SOL    HW134730   0.717   1.639   6.911  2.7942  0.1877 -0.9100
 7757SOL    HW234731   0.780   1.719   7.012  0.5745 -0.7874  1.9338
 7758SOL     OW34732   0.201   3.940   4.276  0.2302 -0.1062 -0.1562
 7758SOL    HW134733   0.125   3.896   4.313  0.9116 -0.2410  1.0965
 7758SOL    HW234734   0.177   4.032   4.279  2.5489  0.5592 -1.5982
 7759SOL     OW34735   0.360   1.835   3.223  0.2954  0.2797 -0.4288
 7759SOL    HW134736   0.443   1.789   3.238 -0.6450 -1.3575 -0.3379
 7759SOL    HW234737   0.310   1.785   3.287 -0.3119 -0.0991 -1.2010
 7760SOL     OW34738   0.795   1.434   1.332  0.0507 -0.0266  0.3024
 7760SOL    HW134739   0.842   1.446   1.250 -2.6623  1.3672 -1.0129
 7760SOL    HW234740   0.869   1.404   1.385 -0.7367 -1.6390  0.4711
 7761SOL     OW34741   4.577   4.248   4.779 -0.0603  0.1591 -0.2897
 7761SOL    HW134742   4.668   4.277   4.773  0.0588 -0.2942 -0.6790
 7761SOL    HW234743   4.525   4.328   4.790 -0.2088 -0.0325  0.3730
 7762SOL     OW34744   0.287   0.193   6.695 -0.4192  0.2602 -0.4492
 7762SOL    HW134745   0.267   0.110   6.738  2.7203  0.2111  0.9602
 7762SOL    HW234746   0.226   0.246   6.747 -0.0250 -1.8703  2.1717
 7763SOL     OW34747   4.112   1.643  15.514  0.3118 -0.2011  0.0012
 7763SOL    HW134748   4.095   1.615  15.424  0.7353 -2.4079  0.6181
 7763SOL    HW234749   4.178   1.713  15.519  0.8236 -0.6192 -0.9847
 7764SOL     OW34750   3.855   1.197   8.447 -0.0603  0.0368 -0.3655
 7764SOL    HW134751   3.890   1.156   8.525 -2.3589 -0.3336  0.4521
 7764SOL    HW234752   3.763   1.171   8.448 -0.4232  1.3721  1.1892
 7765SOL     OW34753   0.603   3.167  11.322 -0.0941 -0.4846  0.0065
 7765SOL    HW134754   0.683   3.206  11.289 -2.3589  1.6790 -2.9435
 7765SOL    HW234755   0.633   3.137  11.408  1.6651  1.9269  0.2154
 7766SOL     OW34756   4.136   2.252   8.455 -0.8450  0.7027 -0.2873
 7766SOL    HW134757   4.041   2.256   8.469 -0.7906 -1.1067  0.6116
 7766SOL    HW234758   4.155   2.174   8.506 -0.0728 -0.0244 -1.6909
 7767SOL     OW34759   4.105   3.299   2.885  0.3152 -0.0687  0.2824
 7767SOL    HW134760   4.180   3.259   2.840  0.7788 -1.1903  2.0758
 7767SOL    HW234761   4.049   3.244   2.830 -1.9024  0.6412  1.8508
 7768SOL     OW34762   3.380   3.649   8.320 -0.3336  0.3102  0.0835
 7768SOL    HW134763   3.331   3.650   8.402  1.4689 -0.2975  1.1671
 7768SOL    HW234764   3.422   3.564   8.329 -0.0481  0.4203 -0.2340
 7769SOL     OW34765   4.270   4.571   8.263 -0.6531 -0.1392  0.3591
 7769SOL    HW134766   4.258   4.620   8.182 -0.4507 -0.7370 -0.0300
 7769SOL    HW234767   4.358   4.535   8.262 -1.7397 -2.7561 -1.5433
 7770SOL     OW34768   2.375   0.991  10.011  0.2085  0.4577 -0.5481
 7770SOL    HW134769   2.445   1.031  10.062 -0.1834 -1.4581  1.4517
 7770SOL    HW234770   2.310   1.061  10.016 -1.2045 -0.9786  1.1906
 7771SOL     OW34771   0.526   1.978  15.507  0.3972  0.1997 -0.0969
 7771SOL    HW134772   0.542   2.072  15.520 -0.2828  0.5418 -1.8345
 7771SOL    HW234773   0.495   1.972  15.417  0.6773 -0.4111 -0.1501
 7772SOL     OW34774   0.207   1.299   0.996 -0.5683  0.3108  0.2221
 7772SOL    HW134775   0.236   1.351   1.071 -0.0036 -1.6470  1.3447
 7772SOL    HW234776   0.251   1.343   0.923  1.0709 -0.5469  0.6856
 7773SOL     OW34777   1.902   3.487   3.327  0.4922 -1.1286 -0.0035
 7773SOL    HW134778   1.824   3.524   3.287  1.9191  1.4231 -0.4504
 7773SOL    HW234779   1.940   3.445   3.250 -1.7979 -0.7633 -1.3369
 7774SOL     OW34780   4.015   0.684  14.474 -0.1895 -0.4370 -0.1205
 7774SOL    HW134781   4.006   0.777  14.453 -0.6064 -0.6732 -0.9877
 7774SOL    HW234782   3.937   0.667  14.421 -0.7668  0.2316  0.5164
 7775SOL     OW34783   2.993   3.751   9.664 -0.1355 -0.1959 -0.5841
 7775SOL    HW134784   2.933   3.694   9.616 -1.5735  2.7154 -2.2802
 7775SOL    HW234785   2.966   3.755   9.755 -2.1902 -2.8392 -1.0646
 7776SOL     OW34786   4.385   1.013   8.275 -0.1348  1.0483 -0.0394
 7776SOL    HW134787   4.435   1.036   8.197  2.3590  1.7415  1.7706
 7776SOL    HW234788   4.416   1.077   8.338  0.7145  2.1238 -1.5607
 7777SOL     OW34789   0.563   1.881  15.013  0.7920 -0.0077  0.2055
 7777SOL    HW134790   0.620   1.819  14.968  0.0360 -0.3241 -0.3154
 7777SOL    HW234791   0.574   1.955  14.954  0.3423  0.1429  0.3107
 7778SOL     OW34792   1.354   1.471   5.627  0.2278  0.2151  0.0630
 7778SOL    HW134793   1.400   1.388   5.642 -0.1104  0.0568  0.2279
 7778SOL    HW234794   1.408   1.503   5.555 -2.0087  0.4455 -1.5050
 7779SOL     OW34795   0.538   0.767   5.844  0.0193  0.3497 -0.2279
 7779SOL    HW134796   0.593   0.707   5.795  0.9989  1.9888 -1.1186
 7779SOL    HW234797   0.593   0.784   5.920  0.1792 -0.0302 -0.2614
 7780SOL     OW34798   3.739   2.031   9.129  0.1046 -0.4482  0.2368
 7780SOL    HW134799   3.699   2.085   9.061  2.3405  0.2577 -0.5310
 7780SOL    HW234800   3.727   1.949   9.081  0.5532 -0.1160 -0.4475
 7781SOL     OW34801   0.134   0.744   2.215  0.2057  0.1975 -0.0516
 7781SOL    HW134802   0.108   0.784   2.132  0.0619  0.1418 -0.0337
 7781SOL    HW234803   0.060   0.771   2.270 -1.4174 -1.6608 -1.2995
 7782SOL     OW34804   3.649   1.393   7.137  0.1045 -0.1953 -0.0582
 7782SOL    HW134805   3.708   1.377   7.063  1.1090 -0.4985  0.8193
 7782SOL    HW234806   3.601   1.311   7.149 -0.9166 -0.0193 -2.9316
 7783SOL     OW34807   2.806   1.906   4.785  0.1015 -0.4778 -0.0834
 7783SOL    HW134808   2.759   1.913   4.868  0.0660 -0.4325 -0.1076
 7783SOL    HW234809   2.736   1.890   4.722  1.8356 -0.6250 -1.9895
 7784SOL     OW34810   2.227   0.821   6.322  0.1824 -0.0483 -0.1007
 7784SOL    HW134811   2.261   0.734   6.302 -0.5237 -0.5137  0.7366
 7784SOL    HW234812   2.188   0.845   6.238 -1.0405 -2.6752 -0.2864
 7785SOL     OW34813   0.295   3.771  17.199  0.1105  0.0713 -0.3686
 7785SOL    HW134814   0.335   3.815  17.124  1.1170 -0.5183 -0.1844
 7785SOL    HW234815   0.276   3.686  17.158  0.8301 -0.1539 -0.2516
 7786SOL     OW34816   2.022   4.458   8.566  0.3644 -0.1236  0.3767
 7786SOL    HW134817   1.939   4.438   8.522 -0.8461  2.6012  1.4491
 7786SOL    HW234818   1.989   4.492   8.649 -2.5570 -0.3998 -0.6793
 7787SOL     OW34819   1.011   4.279  13.670  0.0220 -0.5031 -0.6618
 7787SOL    HW134820   1.103   4.301  13.684  0.0484 -1.1066  0.1138
 7787SOL    HW234821   1.022   4.194  13.627 -0.3824 -0.3682 -1.0371
 7788SOL     OW34822   4.700   3.259  10.102 -0.3029  0.2184 -0.8443
 7788SOL    HW134823   4.656   3.211  10.173  0.0309 -2.0698 -2.1772
 7788SOL    HW234824   4.706   3.185  10.041 -0.7155 -1.0167  0.6019
 7789SOL     OW34825   4.213   4.153   5.114 -0.1914  0.3200  0.2656
 7789SOL    HW134826   4.155   4.205   5.059 -1.9211 -3.0582 -1.1437
 7789SOL    HW234827   4.166   4.072   5.093  1.0888  0.2432 -2.3566
 7790SOL     OW34828   3.129   4.685  11.163 -0.1936  0.2907  0.9407
 7790SOL    HW134829   3.187   0.032  11.135 -1.2150  1.7095  2.4284
 7790SOL    HW234830   3.185   4.608  11.152  0.5730  0.8821  0.7163
 7791SOL     OW34831   3.890   2.842   5.869  0.3036  0.2052 -0.3386
 7791SOL    HW134832   3.897   2.821   5.775  1.9753 -1.4561  0.1636
 7791SOL    HW234833   3.798   2.825   5.890  0.3832  0.2044  0.0083
 7792SOL     OW34834   2.700   3.214  15.185  0.3028  0.0343 -0.9691
 7792SOL    HW134835   2.733   3.292  15.230  0.0924 -0.5517  0.1908
 7792SOL    HW234836   2.613   3.210  15.224  0.6217 -0.8714 -0.3698
 7793SOL     OW34837   1.084   3.264   7.811 -0.0671  0.1709 -0.2258
 7793SOL    HW134838   1.097   3.302   7.724  3.3181 -0.7140 -0.0994
 7793SOL    HW234839   1.154   3.199   7.816 -2.3783 -2.4876 -1.7274
 7794SOL     OW34840   4.595   1.016   0.772 -0.4437  0.8092 -0.0928
 7794SOL    HW134841   4.675   1.032   0.822 -0.2807 -1.3680  0.3776
 7794SOL    HW234842   4.534   1.077   0.814 -0.7640 -0.2334  0.9686
 7795SOL     OW34843   1.015   2.419  16.320 -0.0386  0.2453  0.2296
 7795SOL    HW134844   0.934   2.467  16.339  1.7279  2.1837  2.8258
 7795SOL    HW234845   1.020   2.429  16.225  1.7397  1.1108  0.4050
 7796SOL     OW34846   2.633   4.024   9.408 -0.5832  0.2444  0.1924
 7796SOL    HW134847   2.724   4.006   9.431 -0.1956  2.3254  0.2551
 7796SOL    HW234848   2.584   3.974   9.474 -0.3361 -1.5649 -0.9816
 7797SOL     OW34849   4.547   3.093  12.070  1.4513 -0.0234  0.0278
 7797SOL    HW134850   4.598   3.023  12.028  1.6611  0.9554 -1.3269
 7797SOL    HW234851   4.502   3.133  11.996 -0.5403 -1.0260  0.6687
 7798SOL     OW34852   2.222   3.006  13.782 -0.6907 -0.1772  0.2760
 7798SOL    HW134853   2.271   2.927  13.807  0.5729  0.2635 -0.8270
 7798SOL    HW234854   2.130   2.981  13.786 -0.6523 -0.2103  0.9457
 7799SOL     OW34855   1.768   3.628   2.065 -0.5019  0.3015 -0.2429
 7799SOL    HW134856   1.845   3.664   2.022  1.1926 -1.2678  1.4957
 7799SOL    HW234857   1.796   3.540   2.093  1.2038 -0.5083 -4.4960
 7800SOL     OW34858   0.677   4.090   4.295 -0.1330  0.4602  0.3809
 7800SOL    HW134859   0.740   4.118   4.228 -1.0601  0.2359 -0.5868
 7800SOL    HW234860   0.601   4.126   4.248 -0.1654 -1.3207 -0.9173
 7801SOL     OW34861   1.451   1.070  10.144  0.2613 -0.7833  0.0029
 7801SOL    HW134862   1.371   1.072  10.196  1.1637  3.6913  1.1956
 7801SOL    HW234863   1.496   1.005  10.197  2.0063 -0.9411 -1.6647
 7802SOL     OW34864   1.983   0.625   5.417  0.4463 -0.0094  0.4230
 7802SOL    HW134865   1.996   0.702   5.362  2.1578 -0.7408 -0.2207
 7802SOL    HW234866   1.990   0.664   5.504 -2.8845  2.8010 -0.5986
 7803SOL     OW34867   4.527   3.668  13.541 -0.2301  0.1155  0.2936
 7803SOL    HW134868   4.476   3.692  13.619  1.9108 -0.5653  1.9081
 7803SOL    HW234869   4.479   3.590  13.511  0.8997 -1.2560  2.0429
 7804SOL     OW34870   0.847   4.563   6.834  0.2752 -0.0705  0.1035
 7804SOL    HW134871   0.881   4.619   6.764  1.4082 -1.2980 -0.3314
 7804SOL    HW234872   0.872   4.475   6.807 -0.1685  0.2502 -1.3079
 7805SOL     OW34873   1.902   0.016   3.923  0.3529 -0.4765 -0.6516
 7805SOL    HW134874   1.828   4.710   3.869  0.2664 -0.8463 -0.3336
 7805SOL    HW234875   1.956   4.660   3.925  0.5224 -0.3745 -1.5585
 7806SOL     OW34876   4.487   4.321  11.571  0.3679  0.2886 -0.0726
 7806SOL    HW134877   4.506   4.252  11.634 -1.8064  0.7960  1.1457
 7806SOL    HW234878   4.397   4.292  11.556  0.2312  0.9289 -0.4740
 7807SOL     OW34879   1.947   1.238  15.553  0.0836  0.5300 -0.0604
 7807SOL    HW134880   1.983   1.327  15.547  0.0820  0.5578  0.3844
 7807SOL    HW234881   2.029   1.191  15.542 -0.7210 -1.3163  1.8403
 7808SOL     OW34882   1.862   2.504   0.737 -0.1883  0.5626  0.0624
 7808SOL    HW134883   1.936   2.484   0.680 -0.3089  1.2743 -0.3452
 7808SOL    HW234884   1.892   2.588   0.774 -0.8431 -0.0276  1.8976
 7809SOL     OW34885   4.688   0.768   2.423  0.0985 -0.5667 -0.1735
 7809SOL    HW134886   4.640   0.743   2.502 -1.8744 -0.2384 -1.2954
 7809SOL    HW234887   4.614   0.798   2.371  0.4770  0.4765 -0.1125
 7810SOL     OW34888   1.380   2.280  17.421  0.3270  0.1805 -0.3957
 7810SOL    HW134889   1.461   2.242  17.386  1.0228 -0.7304  2.1720
 7810SOL    HW234890   1.413   2.369  17.433  2.0806 -0.4256 -0.6913
 7811SOL     OW34891   4.702   2.224   5.049 -0.3694  0.2840  0.0384
 7811SOL    HW134892   0.065   2.224   5.091  0.0667  0.3180 -0.8603
 7811SOL    HW234893   4.687   2.318   5.045 -1.3964  0.1012 -0.2198
 7812SOL     OW34894   1.166   4.521  17.040 -0.2355 -0.5634  0.4093
 7812SOL    HW134895   1.261   4.516  17.054 -0.4577 -1.9051  1.4420
 7812SOL    HW234896   1.172   4.501  16.947 -0.8329 -0.8534  0.4355
 7813SOL     OW34897   1.172   4.304   1.123 -0.3358  0.1659  0.3829
 7813SOL    HW134898   1.098   4.245   1.108 -1.6066  1.7035  0.7034
 7813SOL    HW234899   1.151   4.374   1.062  1.2474  0.9558  0.7607
 7814SOL     OW34900   1.472   3.093   5.867  0.4323  0.2732 -0.0168
 7814SOL    HW134901   1.434   3.109   5.953  1.9966 -1.5093  0.9908
 7814SOL    HW234902   1.450   3.178   5.827  1.3126  0.2431 -0.5690
 7815SOL     OW34903   3.377   4.474   7.058  0.5066  0.5181  0.1012
 7815SOL    HW134904   3.338   4.394   7.095 -3.3503  2.6228  0.6441
 7815SOL    HW234905   3.302   4.510   7.011 -1.1018 -1.2081  1.2941
 7816SOL     OW34906   1.176   2.783   7.737  0.1573 -0.4678  0.1607
 7816SOL    HW134907   1.142   2.835   7.665 -2.6202 -1.4463  0.7776
 7816SOL    HW234908   1.120   2.705   7.736 -1.3925  0.6812 -0.2875
 7817SOL     OW34909   1.112   4.393  16.476 -0.2773  0.4452 -0.2583
 7817SOL    HW134910   1.131   4.350  16.393 -0.2285 -0.5194  0.2477
 7817SOL    HW234911   1.108   4.485  16.450 -0.0954  0.3027 -0.7905
 7818SOL     OW34912   3.810   1.661   7.312 -0.0089  0.1513  0.4485
 7818SOL    HW134913   3.829   1.704   7.229  3.8459 -0.2567  1.1261
 7818SOL    HW234914   3.896   1.624   7.335  0.1103  0.4934  0.5453
 7819SOL     OW34915   2.415   4.695   5.193  0.7426 -0.0041 -0.6531
 7819SOL    HW134916   2.419   4.607   5.230  0.5229  0.2666  0.0192
 7819SOL    HW234917   2.441   4.666   5.106 -1.1456 -1.8594 -0.5986
 7820SOL     OW34918   3.087   3.870  10.106 -0.7808  0.6181 -0.5533
 7820SOL    HW134919   3.082   3.960  10.074  1.6145  1.2212  0.7366
 7820SOL    HW234920   3.017   3.830  10.055  0.3557 -0.5949 -1.1629
 7821SOL     OW34921   1.118   0.126   7.173  0.0221  0.2510  0.4726
 7821SOL    HW134922   1.149   0.131   7.082 -1.8207 -0.0448 -0.1662
 7821SOL    HW234923   1.042   0.071   7.154 -0.1795  2.2023 -4.2479
 7822SOL     OW34924   2.402   0.121  12.872 -0.1963 -0.0774  0.1200
 7822SOL    HW134925   2.424   0.059  12.941 -1.2356  0.5208  0.9886
 7822SOL    HW234926   2.434   0.205  12.905  2.3883 -0.9256 -0.2573
 7823SOL     OW34927   0.991   2.815   9.149  0.2307 -0.0224 -0.2697
 7823SOL    HW134928   1.071   2.844   9.105  0.6738 -1.5205 -0.4642
 7823SOL    HW234929   0.958   2.901   9.172 -0.7251 -0.5728  0.4177
 7824SOL     OW34930   3.412   4.498   1.786 -0.3934  0.0575  0.4579
 7824SOL    HW134931   3.476   4.547   1.734 -0.1753  0.0638  0.7375
 7824SOL    HW234932   3.399   4.418   1.734 -1.0485  0.2369  0.3423
 7825SOL     OW34933   3.132   1.402   6.766  0.0980 -0.4706  0.0811
 7825SOL    HW134934   3.071   1.381   6.695  0.6163 -1.3892 -0.0849
 7825SOL    HW234935   3.192   1.471   6.738  0.2169  0.2523  2.1606
 7826SOL     OW34936   2.158   3.822   6.146 -0.4124  0.2286  0.0149
 7826SOL    HW134937   2.187   3.907   6.177  1.9738 -0.8676  0.7602
 7826SOL    HW234938   2.064   3.836   6.156  0.2887  2.6749  2.9895
 7827SOL     OW34939   4.258   0.625   0.831 -0.1426 -0.0575  0.1895
 7827SOL    HW134940   4.331   0.619   0.770 -1.7605  1.1016 -1.8512
 7827SOL    HW234941   4.204   0.684   0.780 -0.6689 -1.1212 -0.4817
 7828SOL     OW34942   0.345   3.981   3.268  0.3444  0.3303  0.3245
 7828SOL    HW134943   0.430   4.017   3.244 -0.4110  0.9932 -1.3356
 7828SOL    HW234944   0.365   3.888   3.252  0.5000  0.3250  0.5512
 7829SOL     OW34945   3.599   0.109   4.139  0.1129 -0.1032 -1.0200
 7829SOL    HW134946   3.540   0.053   4.089  0.3950 -0.6616 -0.7313
 7829SOL    HW234947   3.641   0.145   4.061 -1.0747  0.5236 -1.3840
 7830SOL     OW34948   0.319   0.698   3.729 -0.1400 -0.2883  0.7837
 7830SOL    HW134949   0.358   0.619   3.767  0.6244 -0.7819 -1.0564
 7830SOL    HW234950   0.373   0.726   3.656  0.9366  1.4128  2.2280
 7831SOL     OW34951   4.054   4.016   7.986  0.1444  0.0923  0.0481
 7831SOL    HW134952   3.987   4.036   8.052  0.3214  0.2394  0.1836
 7831SOL    HW234953   4.087   4.104   7.966  1.2121 -0.0885  1.0639
 7832SOL     OW34954   1.594   4.207   5.814  0.0743 -0.8515  0.3138
 7832SOL    HW134955   1.664   4.150   5.782 -0.6605 -1.1218 -0.8422
 7832SOL    HW234956   1.609   4.205   5.908  1.4710 -1.6456  0.0727
 7833SOL     OW34957   0.749   1.092   5.518  0.1011 -0.2966 -0.4062
 7833SOL    HW134958   0.730   0.998   5.519  2.0653 -0.6950 -1.0605
 7833SOL    HW234959   0.778   1.112   5.429  3.1913 -1.0154  0.4470
 7834SOL     OW34960   3.753   1.693   3.019  0.8998 -0.1083  0.1953
 7834SOL    HW134961   3.739   1.600   3.007 -2.0661  0.2122  1.2385
 7834SOL    HW234962   3.668   1.737   3.017  1.4913  0.9204 -1.6423
 7835SOL     OW34963   3.337   0.028   4.718  0.4764  0.0694 -0.1742
 7835SOL    HW134964   3.349   0.080   4.797 -1.5651  1.8754 -1.0714
 7835SOL    HW234965   3.245   0.043   4.696  0.1181 -1.2616  0.4154
 7836SOL     OW34966   4.346   1.574   2.960  0.0114 -0.1274  0.6200
 7836SOL    HW134967   4.364   1.497   2.906  0.3019 -0.5115  1.2747
 7836SOL    HW234968   4.286   1.530   3.020 -2.1137  0.4827 -1.0704
 7837SOL     OW34969   4.164   3.783   2.656 -0.3945 -0.3647 -0.8485
 7837SOL    HW134970   4.145   3.717   2.589 -0.2116  0.0865 -1.3486
 7837SOL    HW234971   4.195   3.724   2.725  0.6532 -0.5752 -1.4940
 7838SOL     OW34972   1.523   3.760  12.344  0.0988 -0.0121  0.6880
 7838SOL    HW134973   1.588   3.727  12.282 -1.3757  0.5995 -1.1783
 7838SOL    HW234974   1.579   3.798  12.411 -1.7484  0.6989  1.8445
 7839SOL     OW34975   3.368   2.193  11.755  0.6255 -0.5007  0.2125
 7839SOL    HW134976   3.350   2.099  11.759 -3.6058  0.4170  2.3089
 7839SOL    HW234977   3.317   2.223  11.680  3.3192 -0.6425 -1.6616
 7840SOL     OW34978   1.833   1.106   2.961  0.0886  0.1129  0.3526
 7840SOL    HW134979   1.865   1.094   3.051  1.0604 -0.0105 -0.0066
 7840SOL    HW234980   1.851   1.022   2.920  1.5479  0.5476  0.0954
 7841SOL     OW34981   0.453   4.039   0.866 -0.5335  0.0002  0.1271
 7841SOL    HW134982   0.470   4.027   0.773 -1.7924 -0.7805 -0.0059
 7841SOL    HW234983   0.529   4.087   0.899 -1.1622  0.2103  1.2964
 7842SOL     OW34984   2.736   0.586   5.837  0.4031  0.0445  0.5898
 7842SOL    HW134985   2.820   0.543   5.822 -0.8057 -1.7064 -1.1773
 7842SOL    HW234986   2.766   0.669   5.873 -1.4337  0.9412  0.0271
 7843SOL     OW34987   1.792   3.432   5.840  0.2219  0.1860  0.4131
 7843SOL    HW134988   1.804   3.411   5.933 -1.2558 -0.0748  0.5392
 7843SOL    HW234989   1.708   3.390   5.823  1.5843 -2.9313  1.3731
 7844SOL     OW34990   1.489   4.426   4.417  0.6950 -0.7360 -0.5305
 7844SOL    HW134991   1.443   4.414   4.500  0.1100 -0.0875 -0.7598
 7844SOL    HW234992   1.459   4.509   4.379  0.9043  0.5328  2.0201
 7845SOL     OW34993   2.931   2.518   8.909  0.3004 -0.3438 -0.4995
 7845SOL    HW134994   2.883   2.535   8.828 -1.1774 -0.3051  0.3710
 7845SOL    HW234995   3.024   2.522   8.888  0.6002 -1.7654  0.6045
 7846SOL     OW34996   4.686   0.859   2.001 -0.1367 -0.4344 -0.2564
 7846SOL    HW134997   4.637   0.933   2.036  3.0818  0.9054  1.3618
 7846SOL    HW234998   4.608   0.805   1.990 -0.7257  0.6828 -1.6658
 7847SOL     OW34999   3.663   0.204   8.781 -0.1125 -0.1378 -0.2904
 7847SOL    HW135000   3.659   0.154   8.700  0.1307 -2.2071  0.9610
 7847SOL    HW235001   3.617   0.281   8.750 -0.7055  0.1449  1.3016
 7848SOL     OW35002   4.604   2.391   2.519 -0.0167 -0.5242 -0.3777
 7848SOL    HW135003   4.613   2.431   2.433 -1.5230  0.8867  0.1195
 7848SOL    HW235004   4.620   2.298   2.506  1.4797 -0.2280 -0.7434
 7849SOL     OW35005   0.196   2.414   2.014  0.2868  0.0251 -0.1600
 7849SOL    HW135006   0.233   2.329   2.037  0.0258  0.0945  0.5058
 7849SOL    HW235007   0.165   2.394   1.925 -2.8783  1.7467  0.5423
 7850SOL     OW35008   2.053   3.372   5.158  0.5914 -0.0525  0.3874
 7850SOL    HW135009   2.086   3.413   5.238 -4.6023  0.8491  2.0912
 7850SOL    HW235010   1.973   3.329   5.188 -0.0829  0.7539 -0.2242
 7851SOL     OW35011   0.661   3.917   8.578  0.4689  0.3415 -0.2781
 7851SOL    HW135012   0.579   3.932   8.531 -0.0782  1.5780  1.0760
 7851SOL    HW235013   0.655   3.822   8.587 -0.2705  0.4603  0.5736
 7852SOL     OW35014   3.928   3.131   8.294  0.4222 -0.1935  0.0217
 7852SOL    HW135015   4.019   3.163   8.289 -0.3282  1.6953 -1.5884
 7852SOL    HW235016   3.888   3.193   8.355 -0.1329  0.7947 -1.3399
 7853SOL     OW35017   3.927   2.992   8.052 -0.0515  1.0619  0.1062
 7853SOL    HW135018   3.910   3.007   8.145  3.2631 -0.0072  0.8786
 7853SOL    HW235019   3.880   3.063   8.007 -0.9884  1.2368  1.3672
 7854SOL     OW35020   4.144   2.853   5.959 -0.1201 -0.5554  0.2828
 7854SOL    HW135021   4.120   2.830   6.049  0.9870  1.7184  1.1491
 7854SOL    HW235022   4.060   2.843   5.915 -0.3541  0.0596  0.5896
 7855SOL     OW35023   0.337   1.940   0.316 -0.2827  0.6724 -0.5151
 7855SOL    HW135024   0.242   1.942   0.328 -0.1572  2.9495  0.0606
 7855SOL    HW235025   0.350   1.858   0.268  0.7563  1.1380 -1.0297
 7856SOL     OW35026   3.024   0.605   5.421  0.0873  0.0979 -0.6102
 7856SOL    HW135027   3.065   0.528   5.459 -0.4549 -0.0720 -0.3734
 7856SOL    HW235028   2.996   0.569   5.337 -2.8139  1.0843 -0.0615
 7857SOL     OW35029   3.118   3.641   5.574  0.2379 -0.0475  0.4159
 7857SOL    HW135030   3.063   3.663   5.499 -0.4462 -1.4091  0.5191
 7857SOL    HW235031   3.182   3.711   5.570 -0.3662  0.3842 -1.6854
 7858SOL     OW35032   3.430   1.523  10.965  0.1824 -0.0258 -0.2683
 7858SOL    HW135033   3.396   1.581  11.033 -2.3788 -2.7440  0.7619
 7858SOL    HW235034   3.368   1.450  10.962  0.3766 -0.2374  1.3284
 7859SOL     OW35035   3.774   2.055   6.960  0.3321  0.0550 -0.5157
 7859SOL    HW135036   3.747   2.072   6.870 -1.0699  1.3159  0.1483
 7859SOL    HW235037   3.841   2.123   6.975 -0.2488  0.3864  0.5547
 7860SOL     OW35038   3.643   4.220  11.499 -0.5364 -0.2855  0.0158
 7860SOL    HW135039   3.587   4.193  11.572  0.5926  0.9030  1.3159
 7860SOL    HW235040   3.607   4.308  11.483  1.0765  0.3645 -0.0391
 7861SOL     OW35041   4.569   0.177   5.615 -0.1493 -0.1840  0.2124
 7861SOL    HW135042   4.509   0.130   5.558 -0.2046  2.1063 -1.5930
 7861SOL    HW235043   4.584   0.109   5.680  0.8726 -1.3808 -1.2932
 7862SOL     OW35044   4.254   3.753   3.597  0.1805  0.1457  1.1357
 7862SOL    HW135045   4.242   3.685   3.663 -1.5262 -2.1526 -1.5452
 7862SOL    HW235046   4.295   3.698   3.530  0.3261 -0.3479  1.6255
 7863SOL     OW35047   0.464   4.101   9.186 -0.1042  0.4201 -0.3761
 7863SOL    HW135048   0.537   4.092   9.247 -1.7263 -2.4435  1.1505
 7863SOL    HW235049   0.507   4.059   9.112 -1.3617  0.3783 -1.0886
 7864SOL     OW35050   0.428   3.804   6.805 -0.8449  0.5603  0.1431
 7864SOL    HW135051   0.341   3.781   6.772 -1.0467 -0.7014  1.5217
 7864SOL    HW235052   0.410   3.816   6.898  0.2370 -2.1600  0.6951
 7865SOL     OW35053   0.530   2.987   0.164  0.3418  0.1333 -0.1713
 7865SOL    HW135054   0.440   3.013   0.147  0.2953 -0.2816 -0.5540
 7865SOL    HW235055   0.517   2.901   0.124  2.9097  0.3449 -1.4643
 7866SOL     OW35056   0.402   3.793  12.589 -0.0925 -0.6195 -0.4468
 7866SOL    HW135057   0.392   3.704  12.621  0.4484  0.1764  1.9257
 7866SOL    HW235058   0.486   3.776  12.546  0.3276 -1.3110  0.6724
 7867SOL     OW35059   1.110   2.533   1.984 -0.0025 -0.1834  0.4123
 7867SOL    HW135060   1.127   2.498   1.896  0.8807  0.7723  0.1962
 7867SOL    HW235061   1.136   2.623   1.964 -2.4854  0.3654 -0.3249
 7868SOL     OW35062   2.625   3.449   7.303 -0.0531 -0.6028  0.0741
 7868SOL    HW135063   2.684   3.440   7.228  0.6913 -0.6983  0.6672
 7868SOL    HW235064   2.616   3.544   7.311  1.6206 -0.3290 -1.2502
 7869SOL     OW35065   0.077   1.236   8.255 -0.3192  0.0186 -0.4145
 7869SOL    HW135066   4.717   1.283   8.254  0.6203  1.6471 -1.2065
 7869SOL    HW235067   0.057   1.171   8.322 -1.6437  0.2030 -0.6377
 7870SOL     OW35068   0.399   2.727  12.052  0.5003  0.6492 -0.1283
 7870SOL    HW135069   0.408   2.737  11.957  1.7323 -2.8947 -0.3856
 7870SOL    HW235070   0.432   2.814  12.075 -0.2977  0.0231  3.4451
 7871SOL     OW35071   1.390   3.236  10.916  0.0533 -0.1874 -0.3440
 7871SOL    HW135072   1.426   3.241  11.005 -3.3134  0.5712  0.9651
 7871SOL    HW235073   1.385   3.142  10.902  2.4192 -0.2735 -0.5786
 7872SOL     OW35074   3.766   2.839  15.485 -0.4105  0.4623  0.3509
 7872SOL    HW135075   3.851   2.879  15.464  0.1855 -0.3076  1.3231
 7872SOL    HW235076   3.727   2.835  15.398  0.4831  2.2709 -0.1493
 7873SOL     OW35077   0.708   4.364   3.574 -0.3604 -0.1581  0.0203
 7873SOL    HW135078   0.775   4.427   3.548  0.8458 -1.6885 -0.5643
 7873SOL    HW235079   0.630   4.418   3.589 -1.8182 -2.4768  0.7436
 7874SOL     OW35080   1.573   2.919  11.610 -0.2988 -0.8630  0.2629
 7874SOL    HW135081   1.537   2.842  11.654 -3.5744  0.6858  0.3206
 7874SOL    HW235082   1.546   2.887  11.523 -0.0666  0.6776 -0.3750
 7875SOL     OW35083   4.386   0.261   2.138 -0.9426 -0.0664 -0.3528
 7875SOL    HW135084   4.430   0.295   2.216 -0.9532 -0.2902 -0.2513
 7875SOL    HW235085   4.420   0.321   2.071 -2.2567  0.2014 -0.7724
 7876SOL     OW35086   0.775   1.397   0.665  0.7578 -0.0716 -0.3495
 7876SOL    HW135087   0.774   1.422   0.573 -1.1456  0.7679 -0.0956
 7876SOL    HW235088   0.715   1.322   0.663 -1.2840  1.6788 -3.3421
 7877SOL     OW35089   4.316   0.581   9.722  0.1612  0.3336 -0.1796
 7877SOL    HW135090   4.336   0.517   9.790 -1.1378 -1.0359 -1.0586
 7877SOL    HW235091   4.325   0.664   9.768 -0.3881  1.2068 -1.6126
 7878SOL     OW35092   3.134   1.699   3.546 -0.3286 -0.6428 -0.0498
 7878SOL    HW135093   3.044   1.684   3.519 -0.9819 -2.6677  3.2534
 7878SOL    HW235094   3.187   1.632   3.502  2.1448  2.1780 -1.3762
 7879SOL     OW35095   3.431   1.658  15.210 -0.0506  0.2693  0.1799
 7879SOL    HW135096   3.516   1.618  15.192  0.1852  1.0788 -0.5427
 7879SOL    HW235097   3.453   1.747  15.179  0.5757 -0.6122 -1.9342
 7880SOL     OW35098   2.571   2.589  14.678 -0.0407  0.3338 -0.8818
 7880SOL    HW135099   2.622   2.632  14.747  1.2891  0.6643 -2.0755
 7880SOL    HW235100   2.605   2.619  14.594 -0.6643 -0.9427 -1.5951
 7881SOL     OW35101   2.813   0.061   7.218 -0.2760 -0.4623  0.7241
 7881SOL    HW135102   2.881   0.129   7.223  0.1621 -0.8537  0.2046
 7881SOL    HW235103   2.834   0.008   7.295 -0.0033 -1.8586 -0.3143
 7882SOL     OW35104   1.326   1.704   1.275 -0.3755  0.8841 -1.0066
 7882SOL    HW135105   1.235   1.704   1.248 -1.2314  3.5876  1.8147
 7882SOL    HW235106   1.371   1.758   1.210  0.4818 -0.5092 -1.5666
 7883SOL     OW35107   4.393   0.002  10.514  0.2986  0.0589  0.0890
 7883SOL    HW135108   4.320   0.065  10.516  1.8732  1.9178 -0.4966
 7883SOL    HW235109   4.444   0.022  10.592 -1.4181 -0.4734  1.3532
 7884SOL     OW35110   1.276   2.919   5.710 -1.0163 -0.8972 -0.1681
 7884SOL    HW135111   1.351   2.863   5.691 -0.0880  0.0369  0.7564
 7884SOL    HW235112   1.266   2.912   5.805 -0.2081 -1.4783 -0.1265
 7885SOL     OW35113   0.814   4.055   7.439  0.4358 -0.4382 -0.3637
 7885SOL    HW135114   0.832   4.106   7.518  0.6582 -1.6437  0.3662
 7885SOL    HW235115   0.861   4.106   7.374  1.4036 -1.9126 -0.8400
 7886SOL     OW35116   0.704   3.760  14.072 -0.1273  0.2595  0.0491
 7886SOL    HW135117   0.762   3.750  13.997  2.1070 -0.2936  1.8335
 7886SOL    HW235118   0.752   3.821  14.128 -0.8646 -0.0749  1.0434
 7887SOL     OW35119   0.644   2.366   2.799 -0.4719 -0.1911  0.1942
 7887SOL    HW135120   0.569   2.377   2.857 -0.0110  1.2336  0.5238
 7887SOL    HW235121   0.663   2.458   2.780  1.1819 -0.8947 -1.6209
 7888SOL     OW35122   1.956   0.282   7.705  0.6776 -0.5236  0.2507
 7888SOL    HW135123   2.009   0.227   7.647 -0.1834  1.9058 -2.8301
 7888SOL    HW235124   1.952   0.358   7.647  1.2604 -0.1896  0.6457
 7889SOL     OW35125   1.730   4.451   8.904 -0.0788  0.0378  0.4610
 7889SOL    HW135126   1.643   4.449   8.944  0.0303  3.1544  0.9054
 7889SOL    HW235127   1.709   4.378   8.846  3.0625 -0.5907  0.1169
 7890SOL     OW35128   2.242   3.660   1.427  0.3703 -0.3143 -0.4399
 7890SOL    HW135129   2.299   3.623   1.494  0.4648 -0.6480 -0.7034
 7890SOL    HW235130   2.245   3.754   1.447  0.2854 -0.3587 -0.2297
 7891SOL     OW35131   0.768   1.167   3.543 -0.3476 -0.1495 -0.6874
 7891SOL    HW135132   0.768   1.110   3.620 -0.6017 -0.5819 -1.0075
 7891SOL    HW235133   0.694   1.123   3.501 -0.5884  0.5370 -0.9892
 7892SOL     OW35134   0.727   3.745  13.172  0.0062 -0.7202  0.7656
 7892SOL    HW135135   0.757   3.655  13.184  0.6411 -0.6367 -0.2026
 7892SOL    HW235136   0.637   3.724  13.148  0.6203 -2.1568 -0.2958
 7893SOL     OW35137   0.161   1.936   8.738  0.0042  1.0135 -0.4147
 7893SOL    HW135138   0.067   1.943   8.753 -0.3058 -3.2046 -0.3690
 7893SOL    HW235139   0.191   1.959   8.826  0.5670 -1.3285  0.0238
 7894SOL     OW35140   4.390   1.970   6.738 -0.0349 -0.0767 -0.7829
 7894SOL    HW135141   4.470   1.922   6.758  0.1684  0.6613  0.2001
 7894SOL    HW235142   4.363   1.984   6.829  0.1812  0.4696 -0.8043
 7895SOL     OW35143   0.721   1.299   8.010 -0.2186 -0.3944  0.1748
 7895SOL    HW135144   0.679   1.354   8.076  1.7449  1.0615  0.1955
 7895SOL    HW235145   0.670   1.219   8.024  0.8581 -1.1396 -0.1901
 7896SOL     OW35146   3.823   2.923   4.600 -0.1666 -0.1149 -0.8134
 7896SOL    HW135147   3.876   2.848   4.572  0.7447 -0.5423  2.0521
 7896SOL    HW235148   3.750   2.915   4.539 -0.3566 -0.6412 -0.5195
 7897SOL     OW35149   2.726   0.878   5.463 -0.7082  0.2698  0.7932
 7897SOL    HW135150   2.814   0.853   5.491 -0.5506  0.6866  0.6833
 7897SOL    HW235151   2.695   0.796   5.426  1.3113 -0.1778  0.0643
 7898SOL     OW35152   0.570   0.313  15.851 -0.1714  0.3843 -0.0913
 7898SOL    HW135153   0.506   0.282  15.916 -0.8807 -1.1774 -1.5481
 7898SOL    HW235154   0.561   0.408  15.861  0.4239  0.4481 -0.1844
 7899SOL     OW35155   4.581   3.153  10.348  0.2257  0.6377 -0.0398
 7899SOL    HW135156   4.543   3.199  10.424 -0.4068  0.9724 -0.5534
 7899SOL    HW235157   4.496   3.126  10.312 -0.1202 -1.1934  2.1758
 7900SOL     OW35158   0.523   3.992   6.522  0.0729 -0.4125  0.3948
 7900SOL    HW135159   0.455   3.936   6.484 -1.1123  1.1745  0.1996
 7900SOL    HW235160   0.571   4.000   6.440 -0.9884 -0.9958 -0.2829
 7901SOL     OW35161   1.415   2.235   2.374  0.3501  0.4609  0.5720
 7901SOL    HW135162   1.383   2.166   2.316  0.1206 -0.3086  1.6134
 7901SOL    HW235163   1.356   2.304   2.346  1.6257  0.4798 -2.0437
 7902SOL     OW35164   4.410   1.065   6.961  0.0867 -0.1990 -0.3645
 7902SOL    HW135165   4.428   0.991   6.903 -2.4003 -1.7453  0.8759
 7902SOL    HW235166   4.498   1.081   6.993  1.1265 -0.7425 -2.9224
 7903SOL     OW35167   4.723   4.058   1.004 -0.3988 -0.5935 -0.2907
 7903SOL    HW135168   4.672   4.132   0.970  2.2719  1.4564  0.1522
 7903SOL    HW235169   0.048   4.033   0.926  0.5499  0.2300  0.0341
 7904SOL     OW35170   1.370   3.596   8.462  0.2629  0.5276  0.5523
 7904SOL    HW135171   1.328   3.679   8.484 -1.0290  0.1841 -0.6093
 7904SOL    HW235172   1.360   3.602   8.367  0.9233  1.6033  0.5462
 7905SOL     OW35173   1.307   1.535   8.512 -0.1637  0.5541 -0.0829
 7905SOL    HW135174   1.221   1.566   8.539  0.0962 -0.2893  1.7430
 7905SOL    HW235175   1.281   1.508   8.424  0.2308  0.4207 -0.1598
 7906SOL     OW35176   0.364   0.622   6.153 -0.5145 -0.0344  0.1569
 7906SOL    HW135177   0.438   0.643   6.096  0.0463 -1.2299  0.4501
 7906SOL    HW235178   0.375   0.531   6.180  0.0244 -0.1783 -0.5577
 7907SOL     OW35179   3.358   3.929   2.882  0.0267 -0.2784  0.1049
 7907SOL    HW135180   3.313   3.938   2.798 -2.0683 -0.8781  1.1549
 7907SOL    HW235181   3.345   4.021   2.905 -0.1599 -0.0062 -1.0787
 7908SOL     OW35182   2.081   3.883  12.262 -0.1182 -0.2670 -0.1368
 7908SOL    HW135183   2.045   3.959  12.307 -0.2962 -0.8363  0.6882
 7908SOL    HW235184   2.131   3.842  12.333  1.7703  2.5008  0.1077
 7909SOL     OW35185   1.347   4.497  10.613 -0.6016  0.4826  0.2847
 7909SOL    HW135186   1.406   4.455  10.551 -1.1428 -0.0774  0.1549
 7909SOL    HW235187   1.268   4.504  10.560  0.1819 -2.1906 -1.2264
 7910SOL     OW35188   3.761   1.674   6.751  0.2400 -0.4543  0.2809
 7910SOL    HW135189   3.792   1.609   6.814  1.0820 -0.2021  0.1231
 7910SOL    HW235190   3.817   1.750   6.768  0.3538  0.1435 -2.7808
 7911SOL     OW35191   3.805   0.463   6.322  0.4853  0.0060  0.2734
 7911SOL    HW135192   3.747   0.390   6.344  0.0871  0.0852 -0.5012
 7911SOL    HW235193   3.765   0.530   6.377  0.4315  0.8130 -0.7476
 7912SOL     OW35194   3.703   1.068   4.841 -0.7520 -0.3058 -0.3119
 7912SOL    HW135195   3.759   1.007   4.889  0.3906  3.1857  2.8322
 7912SOL    HW235196   3.613   1.050   4.870 -0.1253 -1.6730  0.7746
 7913SOL     OW35197   3.201   4.449   3.550 -0.0360 -0.2176 -0.4472
 7913SOL    HW135198   3.206   4.527   3.606 -0.7182 -0.2314 -0.3629
 7913SOL    HW235199   3.115   4.463   3.510 -0.0032  0.7774 -0.1699
 7914SOL     OW35200   3.455   2.090   1.949  0.1289 -0.6651  0.1664
 7914SOL    HW135201   3.427   2.009   1.991  2.7846 -1.3287  0.6494
 7914SOL    HW235202   3.548   2.080   1.968 -0.2461  0.1996  2.4641
 7915SOL     OW35203   3.036   2.728  10.163  0.3735  0.4672  0.0393
 7915SOL    HW135204   2.980   2.717  10.239  1.3934 -0.3860  0.6640
 7915SOL    HW235205   3.022   2.647  10.114 -0.8847 -0.3624  1.7984
 7916SOL     OW35206   3.090   2.865   4.093 -0.0894 -0.1667 -0.1763
 7916SOL    HW135207   3.168   2.811   4.102  1.0279  1.6614  0.9541
 7916SOL    HW235208   3.038   2.807   4.036  0.6490  1.7136 -2.7783
 7917SOL     OW35209   0.706   3.051   4.930 -0.3957  0.3311 -0.2230
 7917SOL    HW135210   0.649   3.001   4.872  0.3126 -2.7414  1.7056
 7917SOL    HW235211   0.653   3.050   5.010  1.6727 -0.0314  1.1473
 7918SOL     OW35212   4.237   0.448   1.030 -0.1424  0.0792 -0.2935
 7918SOL    HW135213   4.305   0.465   1.095  0.5141  0.4668 -1.0858
 7918SOL    HW235214   4.259   0.514   0.965  1.5572 -0.1251  0.0793
 7919SOL     OW35215   0.923   0.134   5.973 -0.7950 -0.1513 -0.3979
 7919SOL    HW135216   0.894   0.225   5.980 -2.3260 -0.5759 -1.2890
 7919SOL    HW235217   0.930   0.119   6.067 -1.4616  1.1564 -0.1505
 7920SOL     OW35218   3.810   3.078  12.609 -0.1147 -0.5883  0.4507
 7920SOL    HW135219   3.829   3.081  12.515 -1.0055 -0.5384  0.2650
 7920SOL    HW235220   3.838   2.988  12.625 -0.2560 -0.6337  0.4470
 7921SOL     OW35221   0.607   3.466   7.763  0.0154 -0.3217 -0.3209
 7921SOL    HW135222   0.662   3.474   7.841  0.5188 -0.7264 -0.6350
 7921SOL    HW235223   0.672   3.495   7.699  0.8313 -1.9053 -0.1996
 7922SOL     OW35224   3.131   2.044   7.340  0.0084 -0.4537  0.2161
 7922SOL    HW135225   3.152   2.130   7.305 -1.7532  0.1642  0.6983
 7922SOL    HW235226   3.213   1.999   7.320  0.3312 -0.0051  0.5191
 7923SOL     OW35227   0.465   2.680   4.617 -0.4284  0.7031  0.2411
 7923SOL    HW135228   0.482   2.710   4.528 -1.0938  0.1431 -0.0808
 7923SOL    HW235229   0.369   2.689   4.620 -0.5767 -0.1015 -2.4340
 7924SOL     OW35230   1.967   4.257   8.941  0.1323  0.4888 -0.0111
 7924SOL    HW135231   1.912   4.324   8.984 -0.2373  1.1380 -1.5093
 7924SOL    HW235232   1.916   4.228   8.866  1.1605  3.2387 -1.7511
 7925SOL     OW35233   0.379   0.315   3.370 -0.0980 -0.3430 -0.2875
 7925SOL    HW135234   0.406   0.350   3.454 -3.0996 -2.0120  1.3856
 7925SOL    HW235235   0.458   0.263   3.354  0.6079  1.0413 -1.2990
 7926SOL     OW35236   1.109   0.067   9.050  0.6990  0.0619 -0.1868
 7926SOL    HW135237   1.099   0.160   9.031  0.4989 -0.1526 -1.1229
 7926SOL    HW235238   1.042   0.020   9.000 -0.7980  1.1591  0.8089
 7927SOL     OW35239   1.565   2.160  16.180 -0.2886 -0.1450 -0.4978
 7927SOL    HW135240   1.621   2.211  16.238 -1.8847 -0.9526  1.7243
 7927SOL    HW235241   1.523   2.088  16.227  0.2741  0.9623  1.6760
 7928SOL     OW35242   4.722   4.130  15.966  0.6210 -0.1828  0.0902
 7928SOL    HW135243   0.093   4.118  15.978  1.2605  1.6947 -2.9821
 7928SOL    HW235244   4.721   4.226  15.972  1.0980 -0.1511 -0.3732
 7929SOL     OW35245   2.376   4.690   6.691  0.2091  0.1891 -0.0903
 7929SOL    HW135246   2.381   4.720   6.782  0.0238 -0.2881  0.0737
 7929SOL    HW235247   2.456   0.000   6.651  0.5328 -0.0266  0.3768
 7930SOL     OW35248   3.836   0.716   3.687  0.3563  0.4276  0.2483
 7930SOL    HW135249   3.869   0.661   3.758 -0.3763  2.7722  2.4170
 7930SOL    HW235250   3.850   0.657   3.613 -0.4852 -0.4575  0.8000
 7931SOL     OW35251   2.640   4.108   3.438  0.2661 -0.3891 -0.2950
 7931SOL    HW135252   2.614   4.048   3.508  0.3962 -0.7175 -0.5287
 7931SOL    HW235253   2.552   4.131   3.407  0.2394 -0.3925 -0.2210
 7932SOL     OW35254   0.327   1.631   5.934  1.0827 -0.4392 -0.4414
 7932SOL    HW135255   0.353   1.720   5.955  0.2567  0.0454 -1.4754
 7932SOL    HW235256   0.398   1.575   5.967 -1.1108 -2.7013  0.4352
 7933SOL     OW35257   3.832   4.166  11.234  0.0395  0.1819  0.0971
 7933SOL    HW135258   3.773   4.188  11.306 -0.8247  1.3417 -0.9714
 7933SOL    HW235259   3.792   4.193  11.152  0.4513  1.0388  0.1787
 7934SOL     OW35260   2.295   1.414   6.275 -0.2748 -0.0252 -0.3319
 7934SOL    HW135261   2.372   1.435   6.327 -1.2039  1.5816  0.3938
 7934SOL    HW235262   2.232   1.427   6.346 -0.6218  2.0311 -1.0286
 7935SOL     OW35263   1.553   4.582  15.470 -0.4803 -0.0692  0.1860
 7935SOL    HW135264   1.618   4.558  15.404  0.7890 -0.5056  1.5939
 7935SOL    HW235265   1.518   4.664  15.436 -0.9804 -0.4496 -0.2201
 7936SOL     OW35266   2.953   3.436  16.916 -0.0421 -0.2848 -0.3559
 7936SOL    HW135267   2.872   3.388  16.899 -0.1956  0.3287 -1.4098
 7936SOL    HW235268   2.926   3.461  17.004 -2.1466 -2.3965 -0.3996
 7937SOL     OW35269   1.116   1.866   5.520 -0.4161  0.4683  0.3961
 7937SOL    HW135270   1.032   1.895   5.555 -1.7154  1.5415 -3.6375
 7937SOL    HW235271   1.074   1.825   5.445 -2.0062  2.4202  0.2336
 7938SOL     OW35272   1.938   2.110  16.895  0.1795  0.4368  0.4102
 7938SOL    HW135273   1.854   2.146  16.869  0.3245 -0.3615 -1.1718
 7938SOL    HW235274   1.997   2.120  16.820  3.7810  3.1521  3.6253
 7939SOL     OW35275   1.603   2.756   2.086  0.8484 -0.4776  0.2094
 7939SOL    HW135276   1.632   2.836   2.041  1.5696 -0.0548  1.4186
 7939SOL    HW235277   1.550   2.804   2.150 -0.2718  1.6170 -2.2981
 7940SOL     OW35278   4.387   1.745  11.512 -0.3590  0.1032  0.4264
 7940SOL    HW135279   4.446   1.774  11.442  1.1625 -1.7264  0.9573
 7940SOL    HW235280   4.306   1.782  11.476 -0.9550 -0.0536  1.6265
 7941SOL     OW35281   2.869   0.714   3.290 -0.0898 -0.0603 -0.2099
 7941SOL    HW135282   2.856   0.721   3.385 -0.8801  0.0899 -0.3301
 7941SOL    HW235283   2.866   0.808   3.275 -1.8245 -0.5164 -2.6692
 7942SOL     OW35284   1.536   2.095   5.027 -0.1839 -0.4801 -0.2938
 7942SOL    HW135285   1.454   2.097   5.077 -0.2115 -0.4281 -0.3415
 7942SOL    HW235286   1.576   2.168   5.073 -0.8887 -1.3448  1.7100
 7943SOL     OW35287   0.072   1.063   2.837  0.1845  0.0163 -0.3135
 7943SOL    HW135288   0.130   1.028   2.905  1.1846  0.7477 -0.7914
 7943SOL    HW235289   0.070   0.998   2.767 -0.7137  1.9751 -2.0798
 7944SOL     OW35290   2.934   1.310   5.025  0.0721  0.1546 -0.6276
 7944SOL    HW135291   3.001   1.271   5.082 -0.7503  1.2666  1.0923
 7944SOL    HW235292   2.871   1.239   5.034 -1.1154  1.2972  0.0280
 7945SOL     OW35293   1.898   2.272  13.259 -0.5263 -0.1048  0.0991
 7945SOL    HW135294   1.864   2.358  13.285 -3.9746 -1.1911 -0.7903
 7945SOL    HW235295   1.931   2.243  13.345  0.3416  2.1783  0.5313
 7946SOL     OW35296   4.617   4.710   4.674  0.2881 -0.6017  0.5183
 7946SOL    HW135297   4.583   4.700   4.763 -1.8674 -1.2117 -0.3832
 7946SOL    HW235298   4.606   0.081   4.666  1.3081 -0.4473  0.9285
 7947SOL     OW35299   2.171   3.525   1.715  0.4976  0.6252 -0.3429
 7947SOL    HW135300   2.214   3.596   1.668  0.8351  2.6530  2.9888
 7947SOL    HW235301   2.233   3.506   1.786  1.7240  0.1160 -1.5468
 7948SOL     OW35302   0.639   3.981   3.971 -0.6558 -0.3208 -0.0767
 7948SOL    HW135303   0.638   3.910   4.035  2.8521  0.4000  0.7774
 7948SOL    HW235304   0.549   3.973   3.940 -0.5257 -0.0636 -0.5128
 7949SOL     OW35305   3.581   3.517   7.453 -0.4384 -0.5145 -0.3155
 7949SOL    HW135306   3.602   3.454   7.522 -0.1528 -0.4999 -0.3887
 7949SOL    HW235307   3.663   3.517   7.404 -0.2249  0.2469  0.0358
 7950SOL     OW35308   0.267   4.432  17.554  0.3075 -0.1653 -0.1510
 7950SOL    HW135309   0.211   4.510  17.550 -1.3022 -1.1987  2.9373
 7950SOL    HW235310   0.328   4.443  17.481  0.6892 -3.1456 -0.2821
 7951SOL     OW35311   0.214   3.060   8.479  0.5375  0.0750  0.1478
 7951SOL    HW135312   0.244   2.975   8.449 -1.1184 -0.5790  0.3337
 7951SOL    HW235313   0.271   3.124   8.436 -0.9397 -0.3801 -2.4871
 7952SOL     OW35314   4.422   0.881  15.877 -0.2009 -0.4457  0.2478
 7952SOL    HW135315   4.353   0.942  15.900 -0.1705  0.1465 -1.2345
 7952SOL    HW235316   4.411   0.832  15.958 -2.3888 -0.9535 -0.3789
 7953SOL     OW35317   4.661   0.797   5.739  0.1536 -0.1863  0.0652
 7953SOL    HW135318   4.713   0.832   5.811 -0.0353 -0.4004  0.3078
 7953SOL    HW235319   4.633   0.875   5.693  1.9525  0.5101  0.1645
 7954SOL     OW35320   1.104   2.949   7.550  0.5203  0.1660  0.3078
 7954SOL    HW135321   1.146   2.971   7.467 -1.6921  1.0346 -0.5939
 7954SOL    HW235322   1.012   2.970   7.531  0.4909  1.2053  1.5678
 7955SOL     OW35323   1.231   0.390   8.356  0.1267  0.2386  0.1644
 7955SOL    HW135324   1.204   0.476   8.324  0.2214 -0.1456 -0.9446
 7955SOL    HW235325   1.207   0.390   8.449 -3.4319 -0.1616 -0.7509
 7956SOL     OW35326   2.748   4.127  12.381  0.0265 -0.5684 -0.0521
 7956SOL    HW135327   2.732   4.185  12.306 -2.8383 -2.2002 -0.6989
 7956SOL    HW235328   2.841   4.111  12.368  0.8360  3.8587  0.3171
 7957SOL     OW35329   0.991   3.569   6.569  0.3382  0.0812  0.1522
 7957SOL    HW135330   0.939   3.521   6.634  3.3860 -2.7206  0.4972
 7957SOL    HW235331   0.979   3.522   6.486  0.8495 -0.4695  0.3900
 7958SOL     OW35332   1.142   3.302  11.931 -0.2575  0.1032  0.3843
 7958SOL    HW135333   1.174   3.391  11.916 -0.2159 -0.1044 -0.7632
 7958SOL    HW235334   1.207   3.240  11.898  0.7879  0.0798  2.4923
 7959SOL     OW35335   4.195   2.183   1.448  0.1526  0.0854  0.5424
 7959SOL    HW135336   4.117   2.211   1.399  0.1778  0.6051  0.8007
 7959SOL    HW235337   4.210   2.094   1.417  0.3285 -0.2692  1.6513
 7960SOL     OW35338   1.121   4.078  15.652 -0.3498 -0.2149 -0.7372
 7960SOL    HW135339   1.167   4.143  15.705  1.1278 -3.9752  2.5773
 7960SOL    HW235340   1.097   4.018  15.723 -0.4093  1.4549  0.6283
 7961SOL     OW35341   2.882   4.674  10.183  0.0672 -0.1247 -0.0186
 7961SOL    HW135342   2.890   4.607  10.115  0.1296  0.9060 -1.0250
 7961SOL    HW235343   2.894   0.031  10.134 -0.0987 -0.0633  0.0417
 7962SOL     OW35344   1.255   1.925  14.909 -0.5752  0.4435  0.3791
 7962SOL    HW135345   1.250   2.020  14.915 -0.1164  0.4923 -0.1108
 7962SOL    HW235346   1.229   1.894  14.996 -2.1909 -1.3103 -0.7320
 7963SOL     OW35347   0.860   1.345  11.140  0.1522 -0.8552  0.1539
 7963SOL    HW135348   0.786   1.332  11.200  0.2878  1.0371  0.7405
 7963SOL    HW235349   0.855   1.441  11.135  1.9823 -0.8104 -0.8760
 7964SOL     OW35350   2.735   1.695  16.942 -0.8073 -0.1832 -0.0599
 7964SOL    HW135351   2.709   1.743  16.862 -0.7053  0.2199  0.1489
 7964SOL    HW235352   2.815   1.743  16.962 -0.3066 -0.8692 -0.4172
 7965SOL     OW35353   4.628   0.278  11.364  0.1069 -0.1543 -0.6400
 7965SOL    HW135354   4.624   0.354  11.306 -0.1138  1.6819  1.7991
 7965SOL    HW235355   4.710   0.240  11.332  1.3756  0.9912  1.3004
 7966SOL     OW35356   2.907   4.160   7.617  0.3483 -0.4314  0.8533
 7966SOL    HW135357   2.990   4.194   7.649  0.0303  2.1516 -1.0512
 7966SOL    HW235358   2.865   4.244   7.595  0.6736 -0.6958 -0.8039
 7967SOL     OW35359   3.219   4.210  13.289  0.5832 -0.2066  0.2303
 7967SOL    HW135360   3.223   4.118  13.263  0.1444  0.3045 -1.6426
 7967SOL    HW235361   3.242   4.211  13.382 -0.0190  3.2772  0.3535
 7968SOL     OW35362   4.606   1.593  16.726 -0.2898 -0.1522 -0.2131
 7968SOL    HW135363   4.520   1.552  16.716 -0.7456  0.5022  1.0278
 7968SOL    HW235364   4.616   1.648  16.649  0.8606  0.6700  0.5323
 7969SOL     OW35365   2.083   3.212  12.778 -0.7593  0.0759  0.5265
 7969SOL    HW135366   2.017   3.274  12.746 -0.6031 -0.7604 -1.4183
 7969SOL    HW235367   2.166   3.258  12.764 -2.1305  2.4486  0.1643
 7970SOL     OW35368   1.121   1.459  16.100 -0.2891  0.8174 -0.5478
 7970SOL    HW135369   1.186   1.505  16.153 -0.1283 -0.5858  0.4559
 7970SOL    HW235370   1.117   1.372  16.138 -1.1289  1.4578  0.8088
 7971SOL     OW35371   0.473   4.079   3.690 -0.1209 -0.0769 -0.3383
 7971SOL    HW135372   0.482   3.999   3.640  2.0269 -1.2258  1.8952
 7971SOL    HW235373   0.479   4.143   3.620  0.1389  1.3347  0.9598
 7972SOL     OW35374   2.369   2.586   9.085 -0.1081  0.6544 -0.1805
 7972SOL    HW135375   2.322   2.511   9.049 -0.8794  1.4367 -0.8307
 7972SOL    HW235376   2.426   2.549   9.152 -1.1309  1.8029  1.3128
 7973SOL     OW35377   2.360   3.691   5.268  0.0995 -0.5147 -0.2022
 7973SOL    HW135378   2.442   3.709   5.314 -0.8788 -2.7141  2.4025
 7973SOL    HW235379   2.321   3.775   5.242 -0.5943 -0.6361  0.4599
 7974SOL     OW35380   3.971   0.400   3.959  0.4252  0.3861  0.1002
 7974SOL    HW135381   3.988   0.489   3.927 -2.7935  1.0374  0.1697
 7974SOL    HW235382   3.954   0.423   4.050 -1.5456 -2.0832  0.3488
 7975SOL     OW35383   2.153   3.116  15.848 -0.0480 -0.3407 -0.4631
 7975SOL    HW135384   2.109   3.095  15.765 -0.1473  2.3951 -1.1111
 7975SOL    HW235385   2.096   3.067  15.906 -1.4917  0.9052 -0.8265
 7976SOL     OW35386   1.345   1.917   7.094 -0.0757  0.5779  0.1066
 7976SOL    HW135387   1.322   2.003   7.127 -0.1684  1.6434 -2.7350
 7976SOL    HW235388   1.434   1.904   7.128  0.0645  1.2200 -0.0282
 7977SOL     OW35389   3.308   0.211   6.666  0.2519 -0.0103 -0.9900
 7977SOL    HW135390   3.340   0.293   6.702  0.1254 -0.5565  0.4045
 7977SOL    HW235391   3.370   0.147   6.702 -0.1764 -0.7569 -1.5654
 7978SOL     OW35392   4.292   3.022   9.698  0.7470 -0.6140  0.0081
 7978SOL    HW135393   4.297   2.968   9.777  0.4126 -0.3924  0.1814
 7978SOL    HW235394   4.199   3.012   9.676  1.1562 -0.8206 -1.6252
 7979SOL     OW35395   2.483   2.061   0.172 -0.1258 -0.5477 -0.2184
 7979SOL    HW135396   2.576   2.080   0.159 -0.0766 -2.3440 -2.4519
 7979SOL    HW235397   2.474   1.966   0.164 -0.2005 -0.7653  2.2714
 7980SOL     OW35398   4.518   1.458   7.156 -0.0466 -0.1144 -0.3351
 7980SOL    HW135399   4.534   1.447   7.062  0.4302  3.0056 -0.6175
 7980SOL    HW235400   4.570   1.390   7.197 -1.1564 -1.4981 -1.2310
 7981SOL     OW35401   4.384   0.938   7.390 -0.4588 -0.5424 -1.1633
 7981SOL    HW135402   4.329   1.000   7.440  0.5179 -0.7202  0.1282
 7981SOL    HW235403   4.361   0.853   7.427 -2.7317 -0.3659 -2.1585
 7982SOL     OW35404   1.814   1.261   4.308  0.4261 -0.6344 -0.0511
 7982SOL    HW135405   1.837   1.328   4.372 -0.1293 -1.9011  1.4769
 7982SOL    HW235406   1.836   1.305   4.226 -1.0200  0.2890  0.0496
 7983SOL     OW35407   0.190   4.680   9.591  0.2955  0.0615 -0.3664
 7983SOL    HW135408   0.104   4.637   9.591  0.2372  0.1724  0.3728
 7983SOL    HW235409   0.226   4.656   9.676  2.0819 -1.8830 -1.6854
 7984SOL     OW35410   2.596   1.508   8.095  0.7763 -0.6213  0.1803
 7984SOL    HW135411   2.615   1.602   8.086  1.1746 -0.7671 -0.4755
 7984SOL    HW235412   2.518   1.502   8.150  0.1198 -0.1614 -0.6957
 7985SOL     OW35413   0.193   4.115   9.401  0.3079 -0.8538  0.5598
 7985SOL    HW135414   0.182   4.081   9.312  1.1405 -0.6001  0.3559
 7985SOL    HW235415   0.155   4.049   9.458 -1.1695  0.7049  1.3954
 7986SOL     OW35416   4.055   2.707   1.887  0.0144 -0.1383  0.6667
 7986SOL    HW135417   4.114   2.750   1.825 -1.3848 -0.4111 -0.8413
 7986SOL    HW235418   4.107   2.633   1.917 -0.0741 -0.4555  0.0411
 7987SOL     OW35419   0.422   2.551   9.212 -0.1467 -0.6770 -0.0726
 7987SOL    HW135420   0.472   2.499   9.275 -0.5503 -0.6031  0.3023
 7987SOL    HW235421   0.366   2.611   9.261  1.7726 -0.2667  1.6006
 7988SOL     OW35422   0.781   0.826   7.657  0.2975 -0.1973 -0.1554
 7988SOL    HW135423   0.777   0.784   7.571  3.1019 -1.4610  0.3308
 7988SOL    HW235424   0.856   0.881   7.634  0.3799 -0.2315  0.0403
 7989SOL     OW35425   3.416   1.169  12.066 -0.8451 -0.4621 -0.2561
 7989SOL    HW135426   3.376   1.225  12.134  0.2193  0.9859 -0.8280
 7989SOL    HW235427   3.357   1.094  12.068 -1.8421  0.3180 -0.4780
 7990SOL     OW35428   4.064   1.188   9.044 -0.5986 -0.2955 -0.6243
 7990SOL    HW135429   4.131   1.238   8.997 -2.0298  2.0482 -0.1839
 7990SOL    HW235430   4.035   1.241   9.118  2.2071 -0.2554  0.4514
 7991SOL     OW35431   1.152   3.471   4.247  0.9047 -0.0107  0.3235
 7991SOL    HW135432   1.059   3.459   4.267  0.7171  0.9014  0.0209
 7991SOL    HW235433   1.157   3.448   4.154 -2.9863  1.4862 -0.2757
 7992SOL     OW35434   1.240   1.527   2.889 -0.1861  0.1997 -0.1663
 7992SOL    HW135435   1.283   1.597   2.938 -0.9518  0.7940 -0.3387
 7992SOL    HW235436   1.175   1.490   2.948  1.0700 -0.2300  0.9473
 7993SOL     OW35437   1.933   3.617   5.714 -0.1373  0.5990  0.1038
 7993SOL    HW135438   1.911   3.632   5.621 -0.9262  4.9399  0.9959
 7993SOL    HW235439   1.876   3.548   5.748 -0.0363 -0.7172 -2.3457
 7994SOL     OW35440   3.169   0.472   7.915 -0.5008  0.1930 -0.2268
 7994SOL    HW135441   3.111   0.545   7.939 -0.3551  0.7079 -1.4424
 7994SOL    HW235442   3.122   0.435   7.840 -1.8223  0.3907  0.5019
 7995SOL     OW35443   3.869   4.408   5.185  0.2524 -0.7766 -0.0380
 7995SOL    HW135444   3.955   4.386   5.221 -0.9620 -2.5391  1.7520
 7995SOL    HW235445   3.845   4.454   5.265 -0.1205  0.9800 -1.1451
 7996SOL     OW35446   0.602   0.520   9.024  0.5829  0.7340 -0.1991
 7996SOL    HW135447   0.523   0.527   9.077  0.1194  1.0600 -0.9397
 7996SOL    HW235448   0.639   0.439   9.060 -0.2916  0.8176  0.8682
 7997SOL     OW35449   4.264   3.231   7.110  0.5297  0.4298 -0.1091
 7997SOL    HW135450   4.341   3.209   7.057  0.7506 -1.9275  1.1799
 7997SOL    HW235451   4.255   3.147   7.155  1.2418  0.8107  0.7214
 7998SOL     OW35452   3.069   3.441   7.140 -0.3154 -0.1592  0.1662
 7998SOL    HW135453   3.129   3.477   7.075  0.4123 -0.9217  0.4165
 7998SOL    HW235454   3.040   3.524   7.179 -1.5022 -1.0769  1.2387
 7999SOL     OW35455   4.718   3.631  15.130 -1.0231  0.0605 -0.1617
 7999SOL    HW135456   0.039   3.549  15.150 -1.4965  0.3474  2.1209
 7999SOL    HW235457   0.022   3.628  15.039 -0.8482  0.9555 -0.1331
 8000SOL     OW35458   2.087   3.468   2.362  0.7800 -0.0224  0.3104
 8000SOL    HW135459   2.073   3.560   2.385 -0.5855 -0.3049  0.6282
 8000SOL    HW235460   2.101   3.437   2.452  0.2415  1.7738  1.0020
 8001SOL     OW35461   4.524   0.220  12.405  0.0401  0.0759  0.2681
 8001SOL    HW135462   4.508   0.310  12.378  0.3646  0.0866  0.1057
 8001SOL    HW235463   4.526   0.161  12.330 -1.1773 -0.0273  0.3248
 8002SOL     OW35464   0.762   3.356   5.334  0.2025 -0.1404 -0.6362
 8002SOL    HW135465   0.669   3.343   5.319  0.4791  0.9732 -3.4086
 8002SOL    HW235466   0.758   3.450   5.353 -3.9905 -0.5042  0.2481
 8003SOL     OW35467   2.624   0.219   5.199  0.2676 -0.7502 -0.5321
 8003SOL    HW135468   2.589   0.132   5.218 -1.4800 -0.1081 -0.8298
 8003SOL    HW235469   2.558   0.243   5.135 -1.2119 -1.4340  0.7415
 8004SOL     OW35470   4.522   3.790   2.113  0.3632  0.1230  0.3767
 8004SOL    HW135471   4.595   3.825   2.062  0.6497  2.5178  2.4063
 8004SOL    HW235472   4.493   3.721   2.053 -0.1905  0.0910  0.6765
 8005SOL     OW35473   4.529   1.113   8.079 -0.1081  0.4862 -0.2030
 8005SOL    HW135474   4.451   1.107   8.024 -0.3242  1.3345  0.0160
 8005SOL    HW235475   4.570   1.196   8.054  1.4305 -0.4217 -0.7597
 8006SOL     OW35476   3.581   1.992   8.536  0.1258 -0.0477 -0.2896
 8006SOL    HW135477   3.527   2.061   8.497 -0.4175 -0.6505 -0.6100
 8006SOL    HW235478   3.580   1.918   8.475 -0.7386 -1.3845  1.3710
 8007SOL     OW35479   0.861   0.654   5.863 -0.1136  0.5740  0.3963
 8007SOL    HW135480   0.934   0.603   5.828  0.1770  0.3848  1.2638
 8007SOL    HW235481   0.795   0.618   5.803 -1.5751  3.3852  0.3049
 8008SOL     OW35482   3.980   0.363   7.657  0.5902 -0.1988 -0.6081
 8008SOL    HW135483   3.928   0.403   7.587  1.2515  1.3382 -0.2223
 8008SOL    HW235484   3.930   0.397   7.731 -0.4889  0.2113 -1.5226
 8009SOL     OW35485   3.510   4.415   0.902 -0.0281  0.6244 -0.3248
 8009SOL    HW135486   3.478   4.446   0.986 -2.1184 -1.3843 -0.3878
 8009SOL    HW235487   3.512   4.496   0.852 -0.4669  0.3553 -0.7750
 8010SOL     OW35488   0.046   3.625   0.522 -0.5453  0.1090 -0.1646
 8010SOL    HW135489   0.135   3.661   0.526 -0.1482 -0.9935  1.3702
 8010SOL    HW235490   4.720   3.685   0.577 -0.4892  1.7249 -1.8946
 8011SOL     OW35491   3.546   2.765   7.889  0.4810 -0.1054  0.6690
 8011SOL    HW135492   3.464   2.763   7.938 -0.7579 -0.6273 -1.3891
 8011SOL    HW235493   3.553   2.671   7.874  0.2901 -0.0878  0.4744
 8012SOL     OW35494   4.035   0.164   7.442  0.3899  0.4118  0.2398
 8012SOL    HW135495   4.021   0.087   7.496  0.4662 -0.9160 -1.6314
 8012SOL    HW235496   3.980   0.232   7.481 -1.4325  0.0408 -1.6667
 8013SOL     OW35497   0.668   4.407  11.119  0.0155 -0.6741 -0.0221
 8013SOL    HW135498   0.631   4.481  11.166  0.4248 -0.1105 -0.5748
 8013SOL    HW235499   0.668   4.351  11.197  1.1276 -0.5085  0.0927
 8014SOL     OW35500   2.616   1.142   7.432 -0.3213  0.1968 -1.3505
 8014SOL    HW135501   2.645   1.100   7.351 -1.7732 -0.2021 -1.6673
 8014SOL    HW235502   2.677   1.215   7.432  0.9208 -0.8454 -0.1051
 8015SOL     OW35503   0.373   1.291   3.848  0.0347  0.0594 -0.0730
 8015SOL    HW135504   0.415   1.363   3.894  0.7488  0.7790 -1.8671
 8015SOL    HW235505   0.298   1.267   3.903 -1.1067 -0.7176 -1.9403
 8016SOL     OW35506   2.153   2.561   2.896 -0.5128 -0.3062 -0.2038
 8016SOL    HW135507   2.237   2.516   2.909  0.0279  0.5315 -0.8199
 8016SOL    HW235508   2.089   2.519   2.954 -0.8808  0.7572  0.1532
 8017SOL     OW35509   1.771   0.074   4.163  0.6296 -0.1554 -0.3851
 8017SOL    HW135510   1.783   0.050   4.072 -1.3468 -2.0302 -0.1707
 8017SOL    HW235511   1.678   0.096   4.169  0.4235 -0.4165 -2.6438
 8018SOL     OW35512   4.032   2.641   4.812 -0.6832 -0.5823 -0.0656
 8018SOL    HW135513   4.012   2.556   4.851 -1.1160 -0.6237 -0.3759
 8018SOL    HW235514   3.966   2.695   4.855 -1.1142  1.0541 -2.8170
 8019SOL     OW35515   3.160   4.115   6.999  0.2457 -0.2027  0.1191
 8019SOL    HW135516   3.128   4.045   6.943  1.1745  0.0868 -0.7812
 8019SOL    HW235517   3.083   4.169   7.016  1.0001  0.4992  1.3579
 8020SOL     OW35518   2.878   0.233   9.447  0.3884  0.1942 -0.2309
 8020SOL    HW135519   2.957   0.245   9.499  0.0366 -1.3737  0.6672
 8020SOL    HW235520   2.919   0.252   9.363 -0.7681  0.8443 -0.6565
 8021SOL     OW35521   4.500   2.973   1.296  0.0366  0.4154  0.7142
 8021SOL    HW135522   4.571   2.915   1.325 -1.1242 -1.5143 -0.3313
 8021SOL    HW235523   4.514   2.958   1.203  0.1841  1.9925  0.4960
 8022SOL     OW35524   1.686   3.308   2.887 -0.2451  0.2167  0.3986
 8022SOL    HW135525   1.745   3.328   2.814 -3.3545  1.0166 -1.9055
 8022SOL    HW235526   1.606   3.272   2.851  0.7474 -2.4421  0.8875
 8023SOL     OW35527   2.652   1.851   7.104  0.0090  0.8643 -0.2508
 8023SOL    HW135528   2.728   1.829   7.050  0.6680 -0.1743  1.1127
 8023SOL    HW235529   2.629   1.765   7.139 -1.7190  1.6670  0.6059
 8024SOL     OW35530   1.256   1.186   8.636  0.4353  0.1305  0.0157
 8024SOL    HW135531   1.235   1.136   8.715 -0.5661 -0.2283 -0.4898
 8024SOL    HW235532   1.336   1.233   8.660  2.1699 -3.0049  0.4444
 8025SOL     OW35533   3.653   0.586   3.904 -0.0064 -0.9315 -0.3959
 8025SOL    HW135534   3.652   0.535   3.985 -1.1351 -2.6129 -1.4680
 8025SOL    HW235535   3.710   0.662   3.915 -0.8465 -0.0670 -2.0082
 8026SOL     OW35536   2.809   3.352  13.722  0.1428  0.0469 -0.0266
 8026SOL    HW135537   2.854   3.429  13.757 -0.1200 -0.0711  0.5718
 8026SOL    HW235538   2.801   3.390  13.634 -0.0376  1.3518  0.5559
 8027SOL     OW35539   4.722   0.712   4.927 -0.0742 -0.2551  0.3823
 8027SOL    HW135540   0.055   0.786   4.903 -1.0880  0.4621  0.1865
 8027SOL    HW235541   0.039   0.637   4.884 -1.5011 -1.8494  1.8241
 8028SOL     OW35542   1.614   0.187  10.967 -0.6978  0.2163 -0.5679
 8028SOL    HW135543   1.617   0.231  11.051  0.9474 -0.9820 -0.0028
 8028SOL    HW235544   1.667   0.108  10.979 -2.7660 -0.4390  4.2412
 8029SOL     OW35545   4.431   4.700  12.236  0.3659  0.0502  0.2151
 8029SOL    HW135546   4.488   4.706  12.160 -0.3575  1.8679 -0.2001
 8029SOL    HW235547   4.484   4.658  12.303  0.3321 -0.6835 -0.2252
 8030SOL     OW35548   3.960   2.560  11.080 -0.2461  0.4572 -0.3322
 8030SOL    HW135549   4.017   2.546  11.004 -0.1671 -1.0670 -0.0015
 8030SOL    HW235550   3.888   2.601  11.032 -0.1173  3.1495  1.8096
 8031SOL     OW35551   2.549   2.964   9.767 -0.2067  0.2333 -0.1686
 8031SOL    HW135552   2.612   2.892   9.764  0.5253  0.8302  0.8645
 8031SOL    HW235553   2.472   2.907   9.763  1.1999 -1.6342 -1.2998
 8032SOL     OW35554   0.656   0.750   4.805  0.1194  0.7406  0.4955
 8032SOL    HW135555   0.702   0.666   4.802  0.7257  1.0136  2.1035
 8032SOL    HW235556   0.681   0.783   4.891  0.7194  1.8597 -0.0989
 8033SOL     OW35557   2.394   0.186   6.088 -0.4156 -0.1944 -0.1375
 8033SOL    HW135558   2.308   0.221   6.108 -0.2811 -0.4990  0.9430
 8033SOL    HW235559   2.432   0.191   6.175 -2.7961  1.8802  0.7538
 8034SOL     OW35560   4.237   0.942  13.419  0.6152  0.5174  0.0329
 8034SOL    HW135561   4.193   0.988  13.348  0.4968  0.9692  0.3917
 8034SOL    HW235562   4.213   0.850  13.410  0.6335  0.5891 -0.6812
 8035SOL     OW35563   2.026   3.223   2.869 -0.3959  0.7603 -0.4770
 8035SOL    HW135564   1.986   3.273   2.798 -0.4926 -0.2302 -1.1135
 8035SOL    HW235565   2.020   3.131   2.844 -2.8540  0.7177  0.2802
 8036SOL     OW35566   4.454   4.090   7.767  0.2494 -0.1668  0.0345
 8036SOL    HW135567   4.535   4.130   7.798  0.8076  1.0399 -3.0495
 8036SOL    HW235568   4.412   4.057   7.847 -1.2120 -0.7892 -1.0074
 8037SOL     OW35569   2.966   2.779   2.544  0.1832  0.2409  0.2042
 8037SOL    HW135570   2.890   2.743   2.499  0.2379 -1.8001  1.7234
 8037SOL    HW235571   3.019   2.699   2.554 -1.7100 -0.7820  2.1162
 8038SOL     OW35572   2.860   1.369  14.938  0.2509  0.0865 -0.1222
 8038SOL    HW135573   2.788   1.428  14.917  0.6503  0.5342 -0.2309
 8038SOL    HW235574   2.846   1.308  14.865  0.7400  0.2390 -0.3451
 8039SOL     OW35575   2.605   4.222   9.245  0.3237  0.1726 -0.4707
 8039SOL    HW135576   2.514   4.244   9.266 -0.2569 -1.3838 -1.3982
 8039SOL    HW235577   2.621   4.138   9.287  1.0467  0.4927 -0.1094
 8040SOL     OW35578   3.122   2.481   1.553  0.4268  0.2117  0.3539
 8040SOL    HW135579   3.171   2.416   1.502 -0.0549  0.4740 -0.4370
 8040SOL    HW235580   3.069   2.527   1.489  0.2300 -0.6384 -0.0997
 8041SOL     OW35581   0.271   1.680   7.455  0.0435  0.1483 -0.4078
 8041SOL    HW135582   0.345   1.667   7.515 -1.5269 -1.4687  1.1890
 8041SOL    HW235583   0.292   1.639   7.371 -0.5302 -0.3978 -0.2789
 8042SOL     OW35584   1.215   3.209   1.795  0.3235  0.0003 -0.0371
 8042SOL    HW135585   1.196   3.218   1.889  2.6896 -0.4593  0.4887
 8042SOL    HW235586   1.263   3.286   1.766  1.3068 -0.6497 -0.1164
 8043SOL     OW35587   2.485   2.425   5.224 -0.0806 -0.7555  0.6269
 8043SOL    HW135588   2.484   2.521   5.225  0.0110 -0.7601  1.4818
 8043SOL    HW235589   2.426   2.409   5.151  0.8467  0.9109 -0.4987
 8044SOL     OW35590   2.092   3.672  17.262 -0.2183  0.1203  0.1565
 8044SOL    HW135591   2.117   3.637  17.348 -0.6090 -0.8515 -0.1291
 8044SOL    HW235592   2.112   3.592  17.213  2.9457  1.2154 -0.2913
 8045SOL     OW35593   1.303   2.307  11.480 -0.1861  0.0480 -0.0677
 8045SOL    HW135594   1.398   2.310  11.496 -0.1570  0.0228 -0.2313
 8045SOL    HW235595   1.289   2.401  11.478 -1.6581 -0.2082 -1.2108
 8046SOL     OW35596   4.102   4.052   2.415 -0.3060  0.3484 -0.5269
 8046SOL    HW135597   4.157   3.977   2.438  0.7503  1.4208  0.4362
 8046SOL    HW235598   4.162   4.124   2.433  1.5308 -0.9037 -1.6620
 8047SOL     OW35599   4.127   0.065  11.649 -0.7624 -0.1770  0.3199
 8047SOL    HW135600   4.184   0.140  11.668  0.0282 -0.3465 -1.3911
 8047SOL    HW235601   4.048   0.118  11.657 -1.0520 -0.8398  1.8653
 8048SOL     OW35602   0.748   4.038   6.353 -0.3399 -0.6807  0.1008
 8048SOL    HW135603   0.797   4.023   6.272  0.0404  1.6672 -0.0930
 8048SOL    HW235604   0.753   3.948   6.385 -2.5393 -1.0436 -0.5738
 8049SOL     OW35605   4.114   3.793  14.656  0.6754  0.3464  1.1566
 8049SOL    HW135606   4.111   3.827  14.745 -1.4987 -0.1260  1.2777
 8049SOL    HW235607   4.070   3.858  14.600  2.0305  0.4569  0.2127
 8050SOL     OW35608   0.480   3.906   9.618 -0.3457  0.2954 -0.1638
 8050SOL    HW135609   0.470   3.930   9.526  2.5159 -0.1818 -0.5771
 8050SOL    HW235610   0.462   3.812   9.608  0.8593 -0.1221  1.5313
 8051SOL     OW35611   2.030   0.121   4.244  0.0671  0.4842  0.1883
 8051SOL    HW135612   1.981   0.177   4.305 -1.4246  0.1003 -0.6387
 8051SOL    HW235613   1.955   0.094   4.190  0.6510  0.7723 -0.7437
 8052SOL     OW35614   2.275   3.942   1.441 -0.2601 -0.3947 -0.1090
 8052SOL    HW135615   2.191   3.972   1.475 -0.4524 -1.1211  0.0564
 8052SOL    HW235616   2.274   3.980   1.353 -2.8452 -0.1647  0.0174
 8053SOL     OW35617   1.812   2.351   9.309 -0.1864  1.1095 -0.2055
 8053SOL    HW135618   1.772   2.283   9.363  1.7830 -1.7115 -2.2946
 8053SOL    HW235619   1.902   2.318   9.307 -0.1181  1.2341  1.0257
 8054SOL     OW35620   4.060   1.026   5.688 -0.0142  0.1765  0.0532
 8054SOL    HW135621   4.007   1.072   5.623 -1.2809 -1.8953 -0.3927
 8054SOL    HW235622   4.132   1.088   5.693  0.0205  0.2053 -0.9293
 8055SOL     OW35623   2.487   3.539   8.820  0.3149 -0.2496 -0.8759
 8055SOL    HW135624   2.490   3.634   8.826  2.6257 -0.3336 -0.5087
 8055SOL    HW235625   2.464   3.515   8.910 -2.7409 -3.7625 -2.5704
 8056SOL     OW35626   2.038   0.770   2.058  0.5248 -0.4406  0.2796
 8056SOL    HW135627   1.960   0.825   2.050  2.4494  1.7337 -3.2616
 8056SOL    HW235628   2.052   0.776   2.153 -0.5219  2.1833  0.2745
 8057SOL     OW35629   2.977   3.525   4.092  0.2013 -0.0475 -0.4706
 8057SOL    HW135630   3.022   3.459   4.144  1.7752  0.5030 -1.1115
 8057SOL    HW235631   2.955   3.586   4.162  0.9517 -0.3013 -0.0067
 8058SOL     OW35632   4.322   0.128   4.844 -0.1758  0.6478 -0.4471
 8058SOL    HW135633   4.272   0.157   4.920 -0.5812  1.6016 -1.0790
 8058SOL    HW235634   4.264   0.143   4.769 -0.9894  0.6024  0.1634
 8059SOL     OW35635   0.545   0.256   2.166  0.0208 -0.2713 -0.1952
 8059SOL    HW135636   0.507   0.304   2.091 -1.7043 -0.5783  0.4776
 8059SOL    HW235637   0.597   0.185   2.128  1.7024  1.8336 -1.8711
 8060SOL     OW35638   1.730   2.351   8.419  0.2013 -0.1947 -0.4201
 8060SOL    HW135639   1.773   2.270   8.447 -1.2173 -1.2574 -1.3065
 8060SOL    HW235640   1.737   2.352   8.324 -3.9886 -1.0754 -0.7372
 8061SOL     OW35641   2.947   4.247   9.491 -0.3257 -0.1342  0.1733
 8061SOL    HW135642   2.926   4.159   9.523 -1.6177 -0.3073 -1.0955
 8061SOL    HW235643   2.878   4.286   9.545 -1.4287 -2.9821  0.8240
 8062SOL     OW35644   2.394   3.402   2.212 -0.7059  0.0699 -0.2595
 8062SOL    HW135645   2.358   3.491   2.213 -0.4469  0.1753 -0.6699
 8062SOL    HW235646   2.334   3.368   2.145 -0.1400  1.0346 -1.2477
 8063SOL     OW35647   2.911   1.276   8.097 -0.5616 -0.3325 -0.3027
 8063SOL    HW135648   2.955   1.336   8.036  0.5306  1.3414  2.1230
 8063SOL    HW235649   2.875   1.212   8.036 -3.2872  1.8706 -0.9801
 8064SOL     OW35650   3.502   4.543   8.643 -0.2897  0.3632  0.3595
 8064SOL    HW135651   3.443   4.603   8.689  1.8700  3.1570 -0.4967
 8064SOL    HW235652   3.456   4.527   8.561  3.2726  1.7631 -1.9028
 8065SOL     OW35653   0.437   4.288   2.383  0.3979  0.0677 -0.3529
 8065SOL    HW135654   0.399   4.231   2.316 -0.0399  1.4032 -1.2328
 8065SOL    HW235655   0.528   4.260   2.385  0.2623 -0.1157  3.1144
 8066SOL     OW35656   0.872   1.016   5.768  0.2804  0.0290 -0.0704
 8066SOL    HW135657   0.830   1.057   5.693 -1.2632  0.5126  1.0568
 8066SOL    HW235658   0.863   0.930   5.726 -0.1555 -0.7499  1.5949
 8067SOL     OW35659   2.889   3.603   5.014 -0.0197 -0.4278  0.0258
 8067SOL    HW135660   2.815   3.663   5.021 -0.1235 -0.4735 -0.7926
 8067SOL    HW235661   2.840   3.523   5.030  0.3999 -0.2977  2.0380
 8068SOL     OW35662   0.713   2.868   9.306  0.5412 -0.5454  0.3796
 8068SOL    HW135663   0.709   2.789   9.251  0.7866  0.6164 -1.3015
 8068SOL    HW235664   0.757   2.927   9.246  0.0613  0.4494  1.0168
 8069SOL     OW35665   0.099   2.624   6.902  0.3900 -0.2632 -0.5411
 8069SOL    HW135666   0.113   2.642   6.995  1.9986  1.3784 -1.0878
 8069SOL    HW235667   0.184   2.642   6.861 -0.8445  1.4123 -2.3778
 8070SOL     OW35668   3.836   0.641   8.112  0.0768 -0.4739 -0.1300
 8070SOL    HW135669   3.929   0.660   8.099  0.1240  0.0201  0.9880
 8070SOL    HW235670   3.827   0.649   8.207 -1.2607 -0.4269 -0.2565
 8071SOL     OW35671   0.307   2.452   6.985 -0.2778  0.3790 -0.2099
 8071SOL    HW135672   0.229   2.464   6.931 -0.9212 -0.3855  0.5572
 8071SOL    HW235673   0.331   2.543   6.999  0.6582  0.0484  0.3188
 8072SOL     OW35674   2.055   2.829  15.073 -0.0118 -0.2037  0.5429
 8072SOL    HW135675   2.012   2.811  14.989  3.4285 -3.7610 -0.4622
 8072SOL    HW235676   2.006   2.902  15.110  0.8039  0.0817  1.0596
 8073SOL     OW35677   2.256   1.619   4.637  0.5254  0.1380  0.1764
 8073SOL    HW135678   2.267   1.705   4.679  0.4498  0.1142  0.2462
 8073SOL    HW235679   2.170   1.636   4.599  0.0542 -1.3214  0.5696
 8074SOL     OW35680   3.984   2.525   7.530  0.0944  0.4822  0.0001
 8074SOL    HW135681   3.929   2.602   7.542 -1.0701 -0.3994  0.3487
 8074SOL    HW235682   4.066   2.556   7.569  1.0640 -0.6161 -1.1832
 8075SOL     OW35683   2.823   0.565   3.694  0.4515 -0.2988 -0.4027
 8075SOL    HW135684   2.879   0.611   3.632  1.3338 -0.3790  0.3354
 8075SOL    HW235685   2.790   0.501   3.632  0.5971 -0.5662 -0.2015
 8076SOL     OW35686   0.039   0.576   4.016  0.1386 -0.5529 -0.5465
 8076SOL    HW135687   4.675   0.616   4.019  0.2338 -0.3825  0.0131
 8076SOL    HW235688   0.030   0.502   3.956 -0.4969 -1.1535  0.2889
 8077SOL     OW35689   2.458   1.913  17.083  0.0669  0.2431  0.0105
 8077SOL    HW135690   2.553   1.901  17.078  0.0458 -0.0155  0.2303
 8077SOL    HW235691   2.450   1.985  17.145  2.1678  0.5925 -0.1153
 8078SOL     OW35692   4.676   2.107   3.388 -0.0899  0.2862  0.4484
 8078SOL    HW135693   0.011   2.053   3.441  0.1867 -0.7068 -0.8563
 8078SOL    HW235694   4.623   2.153   3.453 -0.4862 -2.3014  1.9615
 8079SOL     OW35695   2.020   4.593  16.607  0.0497 -0.1621 -0.1466
 8079SOL    HW135696   1.948   4.655  16.595 -0.7662 -0.9554  0.5131
 8079SOL    HW235697   1.972   4.524  16.654  0.9276 -1.0792 -0.6027
 8080SOL     OW35698   0.838   4.538  15.154 -0.2730  0.2848  0.4644
 8080SOL    HW135699   0.904   4.471  15.141 -1.3280 -0.3530 -1.4850
 8080SOL    HW235700   0.851   4.559  15.247  1.0378  0.4375  0.2383
 8081SOL     OW35701   1.207   3.509  13.857  0.2181 -0.1539 -0.1934
 8081SOL    HW135702   1.301   3.497  13.839  0.2153 -0.5351  0.0373
 8081SOL    HW235703   1.186   3.429  13.905  2.1701  1.7675  3.8673
 8082SOL     OW35704   3.668   2.690   1.574 -1.2660  0.2541  0.1263
 8082SOL    HW135705   3.611   2.730   1.508 -2.2079 -0.5853  0.4110
 8082SOL    HW235706   3.757   2.705   1.543 -0.8130 -1.3647  0.6434
 8083SOL     OW35707   0.691   4.288   8.255  0.4499  0.0877  0.2446
 8083SOL    HW135708   0.775   4.278   8.301  1.2261  1.0581 -0.9958
 8083SOL    HW235709   0.679   4.196   8.230 -0.4134  0.4955 -0.7997
 8084SOL     OW35710   1.474   1.982   1.247  0.3432 -0.3191  0.1254
 8084SOL    HW135711   1.383   2.002   1.227  0.7701  1.2281 -0.3099
 8084SOL    HW235712   1.503   1.954   1.161 -1.7966  0.1698 -0.7299
 8085SOL     OW35713   1.743   2.984  17.518 -0.1046  0.3819  0.0878
 8085SOL    HW135714   1.666   2.962  17.466  1.5493 -0.7294 -1.8885
 8085SOL    HW235715   1.732   2.912  17.580 -1.6964  1.2573  0.8179
 8086SOL     OW35716   1.149   1.837   7.755  0.2738 -0.5131 -0.6008
 8086SOL    HW135717   1.204   1.911   7.729  1.4505 -1.1929 -0.0223
 8086SOL    HW235718   1.188   1.771   7.698  1.3412 -0.2509 -0.1675
 8087SOL     OW35719   1.473   1.356   1.889 -0.3761 -0.6116 -0.6352
 8087SOL    HW135720   1.409   1.288   1.869  0.0271 -1.0883 -0.3194
 8087SOL    HW235721   1.558   1.312   1.880 -1.5230 -3.1539  0.6521
 8088SOL     OW35722   2.828   4.613  12.943 -0.0515 -0.1542  0.1312
 8088SOL    HW135723   2.757   4.559  12.977  0.1581  0.6210  1.8081
 8088SOL    HW235724   2.866   4.652  13.021  2.1931 -0.1044 -0.9826
 8089SOL     OW35725   1.858   2.045  10.604 -0.4562 -0.3481 -0.3681
 8089SOL    HW135726   1.952   2.037  10.617 -0.8114 -1.4462  1.4934
 8089SOL    HW235727   1.851   2.141  10.607  2.7113 -0.1017 -1.4566
 8090SOL     OW35728   2.305   2.166   0.683  0.0331 -0.0493  0.0593
 8090SOL    HW135729   2.360   2.217   0.741 -0.4163  0.7301 -0.2014
 8090SOL    HW235730   2.373   2.118   0.636  0.8224 -0.2786  1.4694
 8091SOL     OW35731   3.848   2.833   4.264  0.4382 -0.4652 -0.3216
 8091SOL    HW135732   3.887   2.795   4.343 -0.4935 -0.6974  0.0188
 8091SOL    HW235733   3.860   2.927   4.272  1.4085 -0.5883 -0.2772
 8092SOL     OW35734   2.277   1.435   1.023  0.1824  0.2272  0.4358
 8092SOL    HW135735   2.358   1.387   1.003  0.9632  1.8969 -0.4790
 8092SOL    HW235736   2.211   1.369   1.004  1.4065 -0.7232 -0.5654
 8093SOL     OW35737   4.225   1.078   1.895  0.3756  0.4570 -0.5556
 8093SOL    HW135738   4.165   1.081   1.820  0.8262  0.8575 -0.8955
 8093SOL    HW235739   4.178   1.142   1.948  2.4307  1.8074 -0.3805
 8094SOL     OW35740   3.544   2.772   7.539 -0.2614  0.0861  0.3504
 8094SOL    HW135741   3.461   2.776   7.492  0.2468  0.5012 -0.5244
 8094SOL    HW235742   3.588   2.852   7.510 -2.0399  0.9953  0.1545
 8095SOL     OW35743   0.863   3.491   1.676 -0.0368 -0.3497  0.1808
 8095SOL    HW135744   0.809   3.485   1.597 -1.2668  2.9616  0.7454
 8095SOL    HW235745   0.899   3.403   1.681  1.8735  0.4577  0.5997
 8096SOL     OW35746   2.278   4.650  14.420  0.1388  0.6182 -0.0834
 8096SOL    HW135747   2.207   4.588  14.436 -1.1291  2.4262  1.3435
 8096SOL    HW235748   2.245   4.711  14.354  1.9949  1.4117 -0.2768
 8097SOL     OW35749   4.259   1.661   7.431 -0.1828 -0.0958  0.2392
 8097SOL    HW135750   4.217   1.631   7.511 -0.0250  1.8306  1.0644
 8097SOL    HW235751   4.346   1.671   7.471 -0.3884 -0.8010  0.8615
 8098SOL     OW35752   4.706   3.472  15.897  0.0711  0.1987 -0.0406
 8098SOL    HW135753   4.655   3.522  15.833 -0.5371  1.7667  1.6857
 8098SOL    HW235754   4.635   3.437  15.951 -0.4975 -0.9630 -1.5413
 8099SOL     OW35755   1.432   0.169   2.898  0.1717  0.2380  0.5319
 8099SOL    HW135756   1.408   0.262   2.892 -0.4999  0.0108 -0.2485
 8099SOL    HW235757   1.343   0.136   2.887 -0.0387  0.6062  1.1237
 8100SOL     OW35758   1.974   3.758  14.025 -0.1761  0.5311  1.0378
 8100SOL    HW135759   1.918   3.697  13.977  0.7269 -1.0327  1.9534
 8100SOL    HW235760   1.923   3.838  14.013  1.8009  1.5764 -0.2754
 8101SOL     OW35761   0.201   1.183  16.898 -0.4781  0.5590  0.0149
 8101SOL    HW135762   0.129   1.185  16.961 -1.1322  1.8346 -0.7974
 8101SOL    HW235763   0.157   1.216  16.820 -3.1726  0.4594  1.4980
 8102SOL     OW35764   3.685   3.230   7.092  0.0761 -0.1167 -0.4428
 8102SOL    HW135765   3.700   3.320   7.063 -0.6407  0.1186 -0.0864
 8102SOL    HW235766   3.731   3.176   7.028 -0.3032  1.4510 -2.0318
 8103SOL     OW35767   1.156   3.383   8.035  0.2799 -0.4242  0.3773
 8103SOL    HW135768   1.084   3.408   8.093  0.5144  1.4731 -0.1612
 8103SOL    HW235769   1.113   3.348   7.957 -0.1987 -0.6420  0.7393
 8104SOL     OW35770   1.520   4.328   6.440 -0.3526  0.0403  0.0462
 8104SOL    HW135771   1.513   4.254   6.380 -2.5787 -1.5672  2.2497
 8104SOL    HW235772   1.584   4.284   6.496 -0.0704  0.2539 -0.1100
 8105SOL     OW35773   1.377   2.910   0.886  0.3253  0.0290 -0.1842
 8105SOL    HW135774   1.458   2.869   0.854  0.8209  2.4717 -2.0748
 8105SOL    HW235775   1.355   2.855   0.961  0.1699 -1.4225 -1.2979
 8106SOL     OW35776   4.577   0.289  10.448 -0.0518  0.0046 -0.2149
 8106SOL    HW135777   4.649   0.345  10.419 -0.2266  0.0102 -0.6551
 8106SOL    HW235778   4.615   0.264  10.531 -4.1246  1.2056  2.0414
 8107SOL     OW35779   0.551   1.596   0.460 -0.2674  0.1250  0.4065
 8107SOL    HW135780   0.631   1.553   0.431 -0.0358  1.3331 -0.7557
 8107SOL    HW235781   0.509   1.522   0.503 -3.4689  2.5826  1.5688
 8108SOL     OW35782   1.614   1.290   7.439 -0.1128  0.2110  0.4801
 8108SOL    HW135783   1.549   1.359   7.428  0.2086  0.5349  0.6416
 8108SOL    HW235784   1.643   1.270   7.350  1.3980  0.8868  0.8114
 8109SOL     OW35785   0.356   4.667   0.441 -0.3475  0.0174 -0.3088
 8109SOL    HW135786   0.317   4.596   0.391 -0.8727  0.7826 -0.9786
 8109SOL    HW235787   0.442   4.671   0.401 -0.1585 -0.8114  0.0295
 8110SOL     OW35788   4.302   4.316   2.851  0.3075  0.3030 -0.1283
 8110SOL    HW135789   4.335   4.403   2.874  0.5554 -0.1254  1.1354
 8110SOL    HW235790   4.282   4.280   2.937  2.1434 -1.1194 -0.3077
 8111SOL     OW35791   1.393   3.893   4.237  0.2129  0.1568 -0.3882
 8111SOL    HW135792   1.431   3.902   4.149  0.8553 -1.6037 -0.2940
 8111SOL    HW235793   1.371   3.985   4.250 -1.1790 -0.1370 -0.7462
 8112SOL     OW35794   4.574   0.302   1.761  0.0720 -0.8846 -0.7374
 8112SOL    HW135795   4.502   0.350   1.721 -0.9518 -0.2336  1.9185
 8112SOL    HW235796   4.557   0.324   1.852 -2.0021  1.0644 -1.6030
 8113SOL     OW35797   1.507   1.858  17.408 -0.0912  0.2453  0.5163
 8113SOL    HW135798   1.477   1.787  17.464 -0.3842 -1.1487 -1.4102
 8113SOL    HW235799   1.421   1.891  17.384  0.9841  1.6436 -1.4354
 8114SOL     OW35800   0.045   0.715  16.682  0.0859 -0.0535  0.3166
 8114SOL    HW135801   0.062   0.796  16.730  2.7767  0.4851 -1.5801
 8114SOL    HW235802   0.075   0.651  16.746  2.5682 -2.6331 -3.4069
 8115SOL     OW35803   2.247   1.391  14.112 -0.6489  0.1588 -0.0828
 8115SOL    HW135804   2.329   1.397  14.161 -2.4868 -0.3963  3.1113
 8115SOL    HW235805   2.198   1.336  14.173  1.2687 -2.0186 -0.4900
 8116SOL     OW35806   0.360   3.866   2.644 -0.0436  0.5124  0.1826
 8116SOL    HW135807   0.437   3.914   2.676 -0.0509  1.1515 -0.7529
 8116SOL    HW235808   0.301   3.941   2.636 -1.3606 -0.3705  1.6334
 8117SOL     OW35809   3.628   1.886   1.800  0.1416 -0.2929 -0.1954
 8117SOL    HW135810   3.556   1.859   1.858 -0.0425 -1.1880 -0.8549
 8117SOL    HW235811   3.682   1.922   1.871  0.7609  1.1558 -1.3970
 8118SOL     OW35812   4.272   4.407  17.016 -0.1713 -0.5846 -0.5941
 8118SOL    HW135813   4.228   4.378  16.936 -0.6714  0.2346 -0.6144
 8118SOL    HW235814   4.290   4.316  17.042 -3.2576 -0.6642  1.3047
 8119SOL     OW35815   0.147   0.467   0.401  0.2561  0.1260  0.2097
 8119SOL    HW135816   0.146   0.383   0.447  0.0412 -0.5617 -1.0459
 8119SOL    HW235817   0.176   0.444   0.313 -1.2106 -2.4440  0.3841
 8120SOL     OW35818   1.135   4.156   3.975 -0.1130 -0.0181  0.3948
 8120SOL    HW135819   1.100   4.245   3.976 -1.3994 -0.5329  2.3235
 8120SOL    HW235820   1.054   4.116   4.007 -0.6425  0.9757  0.2819
 8121SOL     OW35821   2.145   1.861   6.957 -0.0195  0.3481 -0.5936
 8121SOL    HW135822   2.122   1.952   6.939 -0.8575  0.1321 -0.6187
 8121SOL    HW235823   2.209   1.882   7.025  0.4201 -0.2504 -0.8209
 8122SOL     OW35824   2.697   3.341   8.758 -0.0922  0.6119  0.2022
 8122SOL    HW135825   2.672   3.308   8.671  1.3845  0.2310 -0.0842
 8122SOL    HW235826   2.627   3.405   8.773 -1.7559 -1.2079  0.2927
 8123SOL     OW35827   0.907   0.901   8.215 -0.5771 -0.3924  1.0751
 8123SOL    HW135828   0.997   0.930   8.203 -0.7087 -0.2417  0.4786
 8123SOL    HW235829   0.888   0.859   8.131  1.1336 -0.2159  0.6019
 8124SOL     OW35830   0.820   0.495   8.674  0.1865  0.4918 -0.6772
 8124SOL    HW135831   0.778   0.548   8.606  0.1851  0.3198 -0.8101
 8124SOL    HW235832   0.785   0.542   8.749 -0.4565 -0.5282 -0.3324
 8125SOL     OW35833   2.155   3.341   6.988 -0.2877 -1.0570 -0.1195
 8125SOL    HW135834   2.242   3.367   7.018 -0.4726  0.7395 -1.2058
 8125SOL    HW235835   2.163   3.356   6.894 -0.0110 -1.0501 -0.0950
 8126SOL     OW35836   4.209   0.297   5.041 -0.1754  0.1936 -1.0288
 8126SOL    HW135837   4.193   0.381   4.999 -0.1852  2.2993  3.1373
 8126SOL    HW235838   4.251   0.318   5.125 -0.5563  2.1472 -1.3300
 8127SOL     OW35839   3.829   1.465  16.173 -0.3382 -0.1045 -0.4000
 8127SOL    HW135840   3.865   1.526  16.237 -0.3867 -1.5124  0.9805
 8127SOL    HW235841   3.825   1.524  16.097  1.9659 -0.0948 -0.4963
 8128SOL     OW35842   0.295   1.067   2.213  0.6203  0.6578 -0.4243
 8128SOL    HW135843   0.219   1.117   2.184  0.8688  1.5661  0.5264
 8128SOL    HW235844   0.261   1.041   2.299  0.0852 -0.7974 -1.0606
 8129SOL     OW35845   2.057   2.676   8.232  0.1051 -0.0782  0.1075
 8129SOL    HW135846   1.989   2.742   8.218 -1.5138 -1.5795  0.8892
 8129SOL    HW235847   2.112   2.704   8.305 -0.1220 -0.5695  0.4662
 8130SOL     OW35848   0.364   3.692   1.543 -0.1591  0.2391  0.1814
 8130SOL    HW135849   0.285   3.675   1.492  0.2521  0.6440 -0.5865
 8130SOL    HW235850   0.345   3.778   1.582 -1.2252 -0.2958  0.8485
 8131SOL     OW35851   0.390   1.672   0.230  0.2762  0.7770 -0.4268
 8131SOL    HW135852   0.438   1.650   0.151  0.5328 -0.4082  0.0565
 8131SOL    HW235853   0.456   1.639   0.291 -1.5176 -1.5733  0.2450
 8132SOL     OW35854   3.945   4.139  10.640 -0.5738  0.4223 -0.6534
 8132SOL    HW135855   3.981   4.132  10.728 -0.2342  0.3724 -0.7988
 8132SOL    HW235856   3.970   4.054  10.603  0.0576  0.7776 -1.0353
 8133SOL     OW35857   0.526   1.997   1.414  0.2439 -0.4547 -0.1428
 8133SOL    HW135858   0.609   1.968   1.451  0.5934  2.2790  1.2459
 8133SOL    HW235859   0.534   2.089   1.439 -1.0844 -0.3476 -0.1184
 8134SOL     OW35860   4.074   4.385  11.748 -0.1425  0.2607 -0.5187
 8134SOL    HW135861   4.141   4.325  11.713  1.5861  0.3643  2.5732
 8134SOL    HW235862   4.013   4.317  11.778 -0.2075  1.3016  1.7402
 8135SOL     OW35863   1.334   2.581   2.811  0.0513  0.3976  0.2032
 8135SOL    HW135864   1.244   2.564   2.782  0.3121 -0.5715 -0.0275
 8135SOL    HW235865   1.313   2.624   2.894 -3.4306  1.4421 -1.2238
 8136SOL     OW35866   3.797   0.538   2.554  0.0962 -0.8008  0.3295
 8136SOL    HW135867   3.833   0.454   2.526  2.8103  0.2995  0.5256
 8136SOL    HW235868   3.704   0.518   2.543  0.0625 -0.1384 -0.5792
 8137SOL     OW35869   3.184   0.881   4.400  0.2299  0.3472  0.3156
 8137SOL    HW135870   3.202   0.793   4.433  1.4656 -0.0190 -1.3252
 8137SOL    HW235871   3.200   0.868   4.307  0.8392 -1.9150  0.7232
 8138SOL     OW35872   3.269   2.669  10.341 -0.2614 -0.3014 -0.1558
 8138SOL    HW135873   3.341   2.612  10.315  0.4852  1.7908 -2.6344
 8138SOL    HW235874   3.214   2.669  10.263  0.1531  2.8838 -0.4406
 8139SOL     OW35875   1.634   0.923   2.315  0.3301  0.8863 -0.3832
 8139SOL    HW135876   1.705   0.986   2.317 -0.4952  1.8169 -0.1403
 8139SOL    HW235877   1.571   0.962   2.254 -0.1542  0.8409  0.0821
 8140SOL     OW35878   0.681   2.543   0.798  0.0948 -0.4490  0.1823
 8140SOL    HW135879   0.628   2.581   0.728  3.8154  1.3152 -1.6844
 8140SOL    HW235880   0.626   2.472   0.830  0.2041 -1.4815 -1.9183
 8141SOL     OW35881   4.040   1.452   3.526  0.3251 -0.8652  0.2186
 8141SOL    HW135882   4.134   1.457   3.509  0.3232  1.1799  0.7854
 8141SOL    HW235883   4.041   1.453   3.621 -0.4279 -2.4515  0.2377
 8142SOL     OW35884   1.507   0.397   3.832  0.4126  0.2186 -0.0285
 8142SOL    HW135885   1.497   0.367   3.742 -1.5795 -0.2792  0.3601
 8142SOL    HW235886   1.587   0.450   3.825 -0.9840  2.3446  0.1608
 8143SOL     OW35887   3.028   2.544  13.131  0.0357  0.6975  0.2845
 8143SOL    HW135888   3.093   2.567  13.198  2.2627 -3.7448 -0.3329
 8143SOL    HW235889   2.964   2.611  13.155  0.7991  0.8991  1.8266
 8144SOL     OW35890   3.484   0.404   9.436 -0.7089  0.6430 -0.0784
 8144SOL    HW135891   3.508   0.383   9.526 -1.9653 -1.4980 -0.2292
 8144SOL    HW235892   3.389   0.417   9.442 -0.5770  1.2502  0.6058
 8145SOL     OW35893   0.310   1.807   1.813  0.0543 -0.1780  0.0976
 8145SOL    HW135894   0.287   1.728   1.861  2.8483 -0.8360  0.3676
 8145SOL    HW235895   0.350   1.766   1.736  1.3156 -0.8079  1.0835
 8146SOL     OW35896   2.250   1.097   3.869 -0.1641  0.0729 -0.3835
 8146SOL    HW135897   2.293   1.072   3.951  0.2921 -1.1745 -1.0106
 8146SOL    HW235898   2.226   1.008   3.844  0.9204 -1.0895  2.6486
 8147SOL     OW35899   2.799   3.036  15.020  0.6001 -0.3564 -0.0492
 8147SOL    HW135900   2.757   3.084  15.091 -0.9098 -1.2990 -0.3138
 8147SOL    HW235901   2.895   3.044  15.027  0.2612  2.7120  1.1913
 8148SOL     OW35902   2.328   1.711   2.640 -0.0986  0.1162 -0.1402
 8148SOL    HW135903   2.262   1.731   2.574 -0.0120  0.0263 -0.2540
 8148SOL    HW235904   2.354   1.626   2.603  0.4371 -0.5311  1.7375
 8149SOL     OW35905   1.564   4.394   6.838  0.5111 -0.2334  0.3947
 8149SOL    HW135906   1.544   4.482   6.872 -1.8552 -0.4126 -0.5243
 8149SOL    HW235907   1.642   4.411   6.787  0.1993 -1.3292 -0.4337
 8150SOL     OW35908   2.053   0.713   2.697 -0.9569 -0.1120 -0.0435
 8150SOL    HW135909   2.010   0.658   2.632 -0.3462 -0.9162  0.2331
 8150SOL    HW235910   2.064   0.664   2.779  1.4481  2.3264  1.1358
 8151SOL     OW35911   3.546   2.098   9.372  0.0712 -0.1254 -0.1816
 8151SOL    HW135912   3.613   2.094   9.304 -1.1698  0.5673 -1.4411
 8151SOL    HW235913   3.543   2.193   9.378 -0.7941 -0.1155 -0.8219
 8152SOL     OW35914   2.815   2.205  15.666  0.3032 -0.3447 -0.0581
 8152SOL    HW135915   2.742   2.191  15.726  0.6008  2.0057  0.8180
 8152SOL    HW235916   2.778   2.273  15.610 -0.6517 -1.1968 -0.4811
 8153SOL     OW35917   2.290   1.918  10.422  0.6797 -0.4533 -0.6640
 8153SOL    HW135918   2.298   1.906  10.516  2.7350  2.2689 -0.4935
 8153SOL    HW235919   2.379   1.894  10.399  1.0726  2.1214 -1.8677
 8154SOL     OW35920   3.014   3.801   3.965  0.0710 -0.3855 -0.2465
 8154SOL    HW135921   3.096   3.831   3.927  0.6573 -0.2188  1.1891
 8154SOL    HW235922   3.003   3.867   4.033 -1.5472  0.4438 -1.3156
 8155SOL     OW35923   3.411   4.633   6.730 -0.1315  0.4372  0.5934
 8155SOL    HW135924   3.355   4.608   6.804 -0.5486 -2.1559 -0.6010
 8155SOL    HW235925   3.406   4.556   6.673  0.9184  0.5931  0.2743
 8156SOL     OW35926   2.611   4.314   4.028 -0.2841 -0.3898  0.3495
 8156SOL    HW135927   2.638   4.402   4.053 -0.2618 -0.1668 -0.4491
 8156SOL    HW235928   2.636   4.261   4.104 -0.8611 -0.5342  0.4367
 8157SOL     OW35929   1.030   0.403   6.670 -0.3875  0.1358  0.0834
 8157SOL    HW135930   0.955   0.343   6.675 -0.7490  0.7586  2.3752
 8157SOL    HW235931   1.105   0.347   6.688  2.1056  3.8612  1.1869
 8158SOL     OW35932   0.819   3.620   5.348 -0.1528 -0.5391  0.1332
 8158SOL    HW135933   0.738   3.653   5.309  0.3584  0.3059 -0.2089
 8158SOL    HW235934   0.836   3.683   5.418  1.4371 -0.7497 -0.0565
 8159SOL     OW35935   1.766   3.775  12.225  0.5606 -0.0952  0.0906
 8159SOL    HW135936   1.818   3.822  12.290 -0.3237 -0.3494  0.9813
 8159SOL    HW235937   1.718   3.849  12.186 -0.5082  0.2853  2.1358
 8160SOL     OW35938   3.783   2.521   7.015  0.1472  0.1137 -0.0556
 8160SOL    HW135939   3.804   2.613   7.033 -1.4328  0.3828  0.3955
 8160SOL    HW235940   3.864   2.496   6.970  1.4071  1.9077  1.1839
 8161SOL     OW35941   3.549   1.456   4.795 -0.6616 -0.3867 -0.3612
 8161SOL    HW135942   3.491   1.380   4.789 -1.4116  0.1854 -0.2847
 8161SOL    HW235943   3.621   1.421   4.742 -0.0937 -1.4774  1.1156
 8162SOL     OW35944   3.657   0.384   4.549  0.6014  0.2385 -0.1922
 8162SOL    HW135945   3.593   0.371   4.479  0.5945 -0.0202 -0.1409
 8162SOL    HW235946   3.734   0.410   4.498 -0.6240  1.3510 -1.4585
 8163SOL     OW35947   0.961   0.995   7.543  0.2723  0.5833  0.5657
 8163SOL    HW135948   1.036   1.007   7.484  0.7412 -1.8447  0.6847
 8163SOL    HW235949   0.927   1.085   7.540  2.1901  1.2674 -1.0520
 8164SOL     OW35950   0.030   3.220   7.274 -0.6391 -0.6902  0.2071
 8164SOL    HW135951   0.014   3.283   7.204 -2.3094 -1.2447  0.0955
 8164SOL    HW235952   0.007   3.275   7.349 -0.5288 -0.4216  0.0428
 8165SOL     OW35953   0.242   0.880   7.974 -0.0517  0.2875  0.2393
 8165SOL    HW135954   0.209   0.842   7.892 -1.5481  0.8718  0.5642
 8165SOL    HW235955   0.170   0.943   7.976  2.1664  2.7929 -0.5621
 8166SOL     OW35956   0.585   3.586   4.472 -0.2991  0.3327  0.6308
 8166SOL    HW135957   0.512   3.648   4.464  0.6154  1.3350  0.0583
 8166SOL    HW235958   0.655   3.635   4.428 -1.1688  2.1405  1.2676
 8167SOL     OW35959   4.326   4.723   3.725 -0.3743  0.0808 -0.1996
 8167SOL    HW135960   4.277   4.656   3.773  1.0678 -0.2233  0.8631
 8167SOL    HW235961   4.257   0.049   3.680 -2.1670 -0.9744  1.4173
 8168SOL     OW35962   1.816   2.579   2.159 -0.9940 -0.3237 -0.4251
 8168SOL    HW135963   1.743   2.641   2.163 -0.8183 -0.2380  1.5243
 8168SOL    HW235964   1.769   2.502   2.191 -0.3141 -1.0952 -1.2964
 8169SOL     OW35965   2.851   2.394   4.870  0.3992 -0.3207 -0.2785
 8169SOL    HW135966   2.884   2.427   4.787 -0.2090  0.1335 -0.3390
 8169SOL    HW235967   2.903   2.441   4.935 -1.7268  0.7653  0.6377
 8170SOL     OW35968   1.924   0.226   8.307  0.0412 -0.2277 -0.3576
 8170SOL    HW135969   1.952   0.139   8.333 -0.7737  0.2550  2.0792
 8170SOL    HW235970   2.002   0.276   8.331 -0.0182 -0.5591  0.4986
 8171SOL     OW35971   2.754   3.723  13.926 -0.1147  0.3754 -0.1170
 8171SOL    HW135972   2.772   3.677  14.008  0.5986  2.2677  0.7937
 8171SOL    HW235973   2.827   3.783  13.911  1.8698 -1.9208  0.2006
 8172SOL     OW35974   3.945   1.981   3.185 -0.2067  0.1509 -0.3815
 8172SOL    HW135975   3.874   2.021   3.235 -0.7891 -0.5591 -0.6281
 8172SOL    HW235976   3.931   1.887   3.200 -0.2400  0.2276  0.0484
 8173SOL     OW35977   3.862   3.640   8.509  0.0412  0.8186  0.3931
 8173SOL    HW135978   3.838   3.632   8.601  2.2977 -2.5615  0.7194
 8173SOL    HW235979   3.912   3.722   8.506  1.4134  0.0395  1.7185
 8174SOL     OW35980   1.712   0.338  17.050 -0.0810  0.5879  0.0785
 8174SOL    HW135981   1.627   0.311  17.015 -1.0103  1.4075  1.6974
 8174SOL    HW235982   1.762   0.355  16.970  1.2512  3.7391  1.5632
 8175SOL     OW35983   1.007   0.081   8.122 -0.6570 -0.3413  0.2409
 8175SOL    HW135984   1.079   0.062   8.062  0.0770  2.0326  0.3766
 8175SOL    HW235985   0.980   4.717   8.151  1.3503 -1.0947 -0.1610
 8176SOL     OW35986   2.788   2.909   4.384  0.0368  0.6792 -0.0429
 8176SOL    HW135987   2.863   2.968   4.381 -0.6928  1.7838  3.0056
 8176SOL    HW235988   2.796   2.861   4.302  4.6190  0.5107  0.5194
 8177SOL     OW35989   4.096   3.678  10.721 -0.8456  0.2629 -0.3787
 8177SOL    HW135990   4.075   3.585  10.712  2.3856 -0.3740 -1.6748
 8177SOL    HW235991   4.190   3.668  10.740 -0.9932 -0.8818 -0.2824
 8178SOL     OW35992   4.356   2.211   0.477  0.0548  0.1723 -0.0032
 8178SOL    HW135993   4.391   2.249   0.397 -0.1601  0.8127  0.2103
 8178SOL    HW235994   4.267   2.193   0.445  0.6102  0.0722 -1.4871
 8179SOL     OW35995   1.018   0.288   4.522 -0.1224 -0.0887  0.4429
 8179SOL    HW135996   1.079   0.244   4.463  0.4088  2.9161 -1.2152
 8179SOL    HW235997   0.958   0.336   4.465  0.0230  1.6352  1.7560
 8180SOL     OW35998   2.227   1.364   5.392 -0.4848 -0.8262  0.0592
 8180SOL    HW135999   2.293   1.432   5.389 -2.7117  1.4133  1.9721
 8180SOL    HW236000   2.269   1.287   5.431  2.7189  0.0528 -1.7201
 8181SOL     OW36001   4.571   0.348   7.204  0.6540 -0.2199  0.4417
 8181SOL    HW136002   4.520   0.409   7.151 -0.5596 -2.5029 -1.0689
 8181SOL    HW236003   4.506   0.333   7.272  1.1941  3.0153  1.6701
 8182SOL     OW36004   1.128   1.652   0.665 -0.1094  0.2758 -0.5266
 8182SOL    HW136005   1.129   1.557   0.673 -1.5892  0.3297  0.2759
 8182SOL    HW236006   1.192   1.675   0.597 -1.8814  0.3791 -2.1624
 8183SOL     OW36007   3.987   1.996   4.379  0.3693  0.4146  0.6236
 8183SOL    HW136008   3.973   2.061   4.310  1.0895  1.0666  1.0982
 8183SOL    HW236009   3.918   2.018   4.441 -0.8092 -0.5525 -0.3571
 8184SOL     OW36010   2.547   1.288   5.194  0.1073 -0.4643 -0.2469
 8184SOL    HW136011   2.559   1.376   5.229 -0.1204 -0.6266  0.2510
 8184SOL    HW236012   2.603   1.249   5.261 -0.7847  2.0903  1.9776
 8185SOL     OW36013   3.749   0.821  11.260  0.1466 -0.0752 -0.2031
 8185SOL    HW136014   3.662   0.832  11.220 -0.4451 -1.2781  0.7486
 8185SOL    HW236015   3.803   0.843  11.184 -2.1094 -0.6103 -1.9633
 8186SOL     OW36016   4.123   0.821   3.250  0.2314 -0.3994 -0.3121
 8186SOL    HW136017   4.057   0.785   3.192  2.1882 -1.9655 -1.5781
 8186SOL    HW236018   4.147   0.733   3.279  0.0563 -0.6632 -0.9851
 8187SOL     OW36019   0.690   1.816   9.594 -0.3035 -0.4584 -0.5127
 8187SOL    HW136020   0.595   1.822   9.607 -0.1728  0.6309 -0.0067
 8187SOL    HW236021   0.725   1.763   9.665  1.3408  2.3301  0.7675
 8188SOL     OW36022   0.359   1.237   6.427 -0.3906 -0.1952  0.4765
 8188SOL    HW136023   0.370   1.148   6.460 -1.7544  0.3513  2.3902
 8188SOL    HW236024   0.279   1.262   6.474 -0.9178 -0.8703 -0.0603
 8189SOL     OW36025   4.701   1.690   7.891  0.0758 -0.6762  0.4033
 8189SOL    HW136026   4.679   1.752   7.822 -0.7141 -1.3957  0.0121
 8189SOL    HW236027   4.614   1.677   7.927 -0.2475  0.4173  0.0096
 8190SOL     OW36028   4.699   2.462  10.986  0.2904  0.0101  0.1629
 8190SOL    HW136029   4.700   2.552  11.020 -0.8839  0.3550 -0.6940
 8190SOL    HW236030   4.702   2.406  11.063 -0.4058 -1.1959 -0.6891
 8191SOL     OW36031   3.133   3.930  11.205  0.2155  0.4299 -0.1248
 8191SOL    HW136032   3.053   3.892  11.242  0.7169  0.3027  0.8522
 8191SOL    HW236033   3.098   3.979  11.131 -1.7767 -2.9572 -1.4363
 8192SOL     OW36034   4.646   2.170   1.721  0.2613 -0.8526  0.1540
 8192SOL    HW136035   4.638   2.162   1.626 -0.4013 -1.0589  0.2283
 8192SOL    HW236036   4.600   2.252   1.738 -2.2078 -2.5974  1.8929
 8193SOL     OW36037   4.587   3.521   0.344  0.3072  0.4975 -0.5605
 8193SOL    HW136038   4.671   3.562   0.367 -0.1923  0.5195  1.2061
 8193SOL    HW236039   4.604   3.464   0.269 -1.0142 -1.5158  0.6627
 8194SOL     OW36040   2.533   0.023   2.591 -0.4168  0.0769 -0.6716
 8194SOL    HW136041   2.601   4.689   2.557 -1.1621 -0.9800 -0.3915
 8194SOL    HW236042   2.495   4.691   2.660 -0.4440  0.4262 -0.4026
 8195SOL     OW36043   1.853   0.020   5.010 -0.0526 -0.2196 -0.1784
 8195SOL    HW136044   1.773   0.045   5.057  1.4298  0.8801  1.7369
 8195SOL    HW236045   1.888   0.109   5.011 -0.7378  0.0405  0.6151
 8196SOL     OW36046   3.222   3.409   4.354  0.0734  0.2194 -0.4440
 8196SOL    HW136047   3.139   3.374   4.386 -0.4558 -1.2715 -3.4842
 8196SOL    HW236048   3.272   3.331   4.329 -0.5664 -0.8847  1.6944
 8197SOL     OW36049   0.646   0.426   7.739  0.2199  0.1471 -0.1678
 8197SOL    HW136050   0.732   0.468   7.745 -0.9432  2.2868  1.9685
 8197SOL    HW236051   0.598   0.479   7.803 -0.9212 -2.1002  0.8352
 8198SOL     OW36052   1.191   1.942   3.522  0.0194  0.5954  0.3032
 8198SOL    HW136053   1.216   1.987   3.441  0.7319  0.7873  0.6292
 8198SOL    HW236054   1.100   1.918   3.505  0.9289 -2.4038 -0.3920
 8199SOL     OW36055   3.072   2.666  10.554  0.3543 -0.0686 -0.1817
 8199SOL    HW136056   3.032   2.604  10.492 -2.3004  1.4169  0.0108
 8199SOL    HW236057   3.145   2.688  10.496  0.5595  0.7946  0.4000
 8200SOL     OW36058   0.329   0.527  16.343 -0.3474 -0.1152 -0.7081
 8200SOL    HW136059   0.275   0.584  16.288 -0.5822  2.0192  1.7390
 8200SOL    HW236060   0.411   0.542  16.296 -0.9680  0.3602 -1.6484
 8201SOL     OW36061   3.500   3.816   6.556 -0.7570  0.0017  0.0739
 8201SOL    HW136062   3.433   3.796   6.620 -0.5564 -2.2205 -0.4262
 8201SOL    HW236063   3.504   3.911   6.570 -2.3497  0.2572 -1.1775
 8202SOL     OW36064   2.583   2.637  16.337  0.2259 -0.5534  0.5020
 8202SOL    HW136065   2.590   2.543  16.354  0.5226 -0.2551  2.0277
 8202SOL    HW236066   2.549   2.672  16.419  0.0154 -1.2854  0.7287
 8203SOL     OW36067   3.806   1.437  13.712  0.1065  0.2717  0.4071
 8203SOL    HW136068   3.828   1.530  13.718 -1.0051  0.5446  0.3349
 8203SOL    HW236069   3.848   1.423  13.627  0.7644 -1.4934  1.0344
 8204SOL     OW36070   1.190   4.174   4.705 -0.2169  0.1637  0.0291
 8204SOL    HW136071   1.191   4.184   4.801 -2.0734 -1.5476  0.2193
 8204SOL    HW236072   1.132   4.099   4.701 -0.2007  0.2005 -0.9525
 8205SOL     OW36073   3.842   3.428   8.135  0.0453  0.6273  0.2341
 8205SOL    HW136074   3.923   3.478   8.146 -0.8788  2.1845  0.0731
 8205SOL    HW236075   3.838   3.400   8.226  2.7230 -2.5313 -0.6110
 8206SOL     OW36076   2.854   3.979   8.473  0.0952 -0.0105  0.1929
 8206SOL    HW136077   2.903   3.931   8.539  2.4741  0.2695 -1.3778
 8206SOL    HW236078   2.878   4.072   8.464  1.0783 -0.0637  2.3389
 8207SOL     OW36079   1.072   1.696  13.599  0.4249  0.1333 -0.4402
 8207SOL    HW136080   1.132   1.747  13.545 -0.8336 -0.2375 -2.1574
 8207SOL    HW236081   1.029   1.765  13.651 -0.5875 -1.6650  1.0975
 8208SOL     OW36082   0.635   3.087   6.231 -0.1281 -0.9247  0.2611
 8208SOL    HW136083   0.546   3.094   6.268 -0.0286  0.9059  0.1862
 8208SOL    HW236084   0.684   3.125   6.304  1.6284 -2.0559 -0.3429
 8209SOL     OW36085   3.053   1.217   3.342 -0.1483 -0.2612 -0.3611
 8209SOL    HW136086   3.124   1.237   3.404 -0.3872  0.0187 -0.1783
 8209SOL    HW236087   3.025   1.307   3.330 -1.0749 -0.5170 -0.0847
 8210SOL     OW36088   3.800   0.463   7.437  0.0778 -0.4195 -0.1458
 8210SOL    HW136089   3.854   0.541   7.422 -0.0025 -0.0269  1.6208
 8210SOL    HW236090   3.711   0.497   7.431 -0.1664 -0.5629  2.4757
 8211SOL     OW36091   4.425   1.625   8.020  0.3406  0.0664  0.3564
 8211SOL    HW136092   4.358   1.676   8.066 -0.5947 -2.2397  1.5478
 8211SOL    HW236093   4.402   1.546   8.067  0.6945 -2.1713 -3.2143
 8212SOL     OW36094   4.483   1.645  13.278 -0.3285 -0.2718  0.4683
 8212SOL    HW136095   4.493   1.682  13.366  0.3719  3.1417 -1.0498
 8212SOL    HW236096   4.523   1.713  13.223 -1.8468  1.1787  1.1577
 8213SOL     OW36097   3.020   3.854   7.802  0.4282 -0.3257 -0.3082
 8213SOL    HW136098   3.095   3.895   7.845 -1.6437  2.2136  0.8984
 8213SOL    HW236099   3.045   3.763   7.818 -0.6636 -0.4685  0.5652
 8214SOL     OW36100   2.620   0.188  16.602  0.2088  0.2162  0.0341
 8214SOL    HW136101   2.612   0.096  16.626 -1.8945  0.7053  1.2372
 8214SOL    HW236102   2.531   0.217  16.624  0.0667 -1.4791  1.7698
 8215SOL     OW36103   4.041   1.056   3.412  0.5482  0.2872  0.2492
 8215SOL    HW136104   4.051   0.975   3.362 -0.4187 -1.1556  2.3566
 8215SOL    HW236105   4.102   1.038   3.484  2.1029  0.8335 -0.9385
 8216SOL     OW36106   0.712   1.734   2.975 -0.2565  0.5169 -0.0689
 8216SOL    HW136107   0.665   1.783   3.042  0.8766 -1.7358  2.3958
 8216SOL    HW236108   0.649   1.662   2.966 -0.9449  0.9960  0.9870
 8217SOL     OW36109   3.554   3.220  15.884 -0.6860  0.2441 -0.4538
 8217SOL    HW136110   3.538   3.269  15.965  0.4117  0.2843 -0.2566
 8217SOL    HW236111   3.507   3.137  15.894 -1.6235  0.7233 -0.9593
 8218SOL     OW36112   0.730   0.120   4.028 -0.1459  0.0548 -0.3412
 8218SOL    HW136113   0.687   0.105   3.944 -2.8697 -0.7675  1.2075
 8218SOL    HW236114   0.684   0.056   4.082 -3.1051  2.2729 -0.2277
 8219SOL     OW36115   4.453   2.178  17.058 -0.5073  0.8064  0.4517
 8219SOL    HW136116   4.454   2.126  16.978  2.8449 -0.4280  1.2921
 8219SOL    HW236117   4.360   2.189  17.078 -0.5245  0.2916  0.6586
 8220SOL     OW36118   3.817   3.426   3.114 -0.2623  0.9332 -0.4772
 8220SOL    HW136119   3.774   3.401   3.033  0.2172  0.9002 -0.7208
 8220SOL    HW236120   3.771   3.508   3.134 -0.1083  0.6736  0.9611
 8221SOL     OW36121   2.578   3.358   4.075 -0.1962  0.6258 -0.4151
 8221SOL    HW136122   2.520   3.386   4.146  0.9558  0.0508  0.7468
 8221SOL    HW236123   2.665   3.356   4.113 -1.1012 -0.9773  1.6010
 8222SOL     OW36124   0.723   1.947   5.842  0.3709 -0.0647  0.4722
 8222SOL    HW136125   0.773   1.913   5.916 -0.2832  0.8405  1.3341
 8222SOL    HW236126   0.649   1.886   5.847 -0.6259  0.9774 -1.4542
 8223SOL     OW36127   3.269   1.245   7.624 -0.2173  0.5503 -0.1330
 8223SOL    HW136128   3.266   1.157   7.660  0.4609  0.9108  0.8075
 8223SOL    HW236129   3.317   1.295   7.691  1.6394 -1.1853 -0.1660
 8224SOL     OW36130   0.651   0.895  12.683  0.4379  0.5369  0.1506
 8224SOL    HW136131   0.656   0.929  12.593  1.0345 -1.0592 -0.4249
 8224SOL    HW236132   0.610   0.812  12.660  0.8205  0.0454  1.2560
 8225SOL     OW36133   4.125   2.839   6.251 -0.1073  0.2427  0.2371
 8225SOL    HW136134   4.188   2.768   6.245 -0.6974 -0.2585 -0.0370
 8225SOL    HW236135   4.057   2.802   6.307  2.0052 -1.9900  1.3298
 8226SOL     OW36136   3.643   0.490   5.508 -0.2725  0.2751  0.8590
 8226SOL    HW136137   3.578   0.431   5.545 -0.1518 -0.5812 -0.3129
 8226SOL    HW236138   3.685   0.509   5.593  1.1573 -0.7317  0.3803
 8227SOL     OW36139   0.617   3.678  12.444 -0.4898  0.3584 -0.0166
 8227SOL    HW136140   0.542   3.621  12.430  0.3405 -0.7582  0.0192
 8227SOL    HW236141   0.676   3.612  12.482 -1.1180  0.5965  1.3640
 8228SOL     OW36142   1.421   2.700   1.498 -0.0203  0.0575  0.0134
 8228SOL    HW136143   1.445   2.622   1.448  1.2506  0.8346 -0.5795
 8228SOL    HW236144   1.493   2.760   1.479 -0.4436  0.3420 -0.6693
 8229SOL     OW36145   1.436   1.316  13.810 -0.4233  0.1141 -0.0487
 8229SOL    HW136146   1.401   1.405  13.800 -3.2809 -0.6818  2.9935
 8229SOL    HW236147   1.466   1.296  13.722 -2.2927  0.9413 -0.8736
 8230SOL     OW36148   4.382   2.854   0.682  0.9216  0.8410 -0.0971
 8230SOL    HW136149   4.337   2.937   0.666  1.2155  0.4873 -2.9051
 8230SOL    HW236150   4.457   2.867   0.624 -0.5727  0.6911 -2.0705
 8231SOL     OW36151   3.192   0.443   1.239  0.3400 -0.0040  1.4653
 8231SOL    HW136152   3.191   0.430   1.145  0.3055 -0.0198  1.4681
 8231SOL    HW236153   3.097   0.451   1.246 -0.0054 -0.8784 -2.3793
 8232SOL     OW36154   2.959   3.261   5.407 -0.0220 -0.3358 -0.3204
 8232SOL    HW136155   3.041   3.292   5.445 -2.1433  2.7076  1.7206
 8232SOL    HW236156   2.909   3.341   5.393 -1.1269 -0.2899  3.9902
 8233SOL     OW36157   4.448   2.181  16.689  0.2839 -0.3966 -0.1021
 8233SOL    HW136158   4.495   2.263  16.704  0.1555 -0.4410  0.5434
 8233SOL    HW236159   4.386   2.201  16.619  0.3497 -1.7981 -0.5721
 8234SOL     OW36160   0.760   4.335   7.179  0.8536 -0.0192 -0.4473
 8234SOL    HW136161   0.753   4.264   7.115 -0.6395 -1.2222  1.0645
 8234SOL    HW236162   0.853   4.331   7.201  0.8256 -1.4599 -0.6163
 8235SOL     OW36163   0.478   3.172   5.665 -0.1026 -0.1784 -0.2452
 8235SOL    HW136164   0.499   3.112   5.594  0.3808 -0.4533  0.1353
 8235SOL    HW236165   0.556   3.155   5.718 -0.4754  3.7045  1.5708
 8236SOL     OW36166   4.194   4.012   3.470  0.7413 -1.0621 -0.1550
 8236SOL    HW136167   4.223   3.929   3.509 -1.1931 -0.6651  2.0723
 8236SOL    HW236168   4.114   3.990   3.423  0.2599  0.4805 -0.0583
 8237SOL     OW36169   0.076   0.617   7.815 -0.5483 -0.3583 -0.6393
 8237SOL    HW136170   0.163   0.636   7.780  0.4103  0.8519  2.4260
 8237SOL    HW236171   0.054   0.701   7.855 -1.3700 -0.6465 -0.4840
 8238SOL     OW36172   2.541   1.701   3.753  0.5939  0.3149  0.8527
 8238SOL    HW136173   2.631   1.730   3.742  0.9994 -0.9570  0.8204
 8238SOL    HW236174   2.494   1.784   3.754  0.2911  0.1093  3.1097
 8239SOL     OW36175   2.166   0.460   5.701  0.3893 -0.5155 -0.1443
 8239SOL    HW136176   2.188   0.487   5.612  0.5041  1.5370  0.5064
 8239SOL    HW236177   2.243   0.417   5.738  2.0360  1.1578 -1.6393
 8240SOL     OW36178   1.969   4.276   5.132  0.4455  0.4883  0.1906
 8240SOL    HW136179   1.911   4.303   5.061  0.1957 -1.0179 -0.1615
 8240SOL    HW236180   1.918   4.236   5.202 -0.5156  1.1549 -0.1328
 8241SOL     OW36181   4.643   3.174   6.453 -0.1533  0.4052 -0.1875
 8241SOL    HW136182   4.617   3.143   6.366  1.5678  0.8594 -0.8558
 8241SOL    HW236183   4.644   3.086   6.488 -0.8934  0.2225 -0.6249
 8242SOL     OW36184   3.150   3.403   6.004  0.5941  0.3034  0.5324
 8242SOL    HW136185   3.061   3.439   5.999  0.7244  0.6043  0.3701
 8242SOL    HW236186   3.199   3.448   5.935  2.6381  0.9520  2.3994
 8243SOL     OW36187   2.590   4.430   7.364  0.5672 -0.3004  0.0662
 8243SOL    HW136188   2.495   4.439   7.377  0.4516 -0.3761 -0.7534
 8243SOL    HW236189   2.624   4.466   7.446  1.2119  1.7581 -1.1035
 8244SOL     OW36190   1.884   1.513   7.151  0.1719  0.2588  0.6434
 8244SOL    HW136191   1.835   1.435   7.123 -0.4430  0.1444  2.0480
 8244SOL    HW236192   1.902   1.487   7.241  1.0296  0.4679  0.5322
 8245SOL     OW36193   4.493   2.197   6.581  0.4878 -0.3823  0.1060
 8245SOL    HW136194   4.555   2.177   6.511  0.7561  3.2577 -0.6682
 8245SOL    HW236195   4.493   2.110   6.621 -1.2942 -0.0416  0.8603
 8246SOL     OW36196   1.053   1.287   5.488  0.3002 -0.2215  0.0549
 8246SOL    HW136197   1.046   1.378   5.459  4.2297  0.4134  1.0789
 8246SOL    HW236198   0.988   1.256   5.425  2.0864 -1.8352 -1.0271
 8247SOL     OW36199   3.064   1.719   9.316 -0.3073  0.0507  0.3904
 8247SOL    HW136200   2.989   1.731   9.258 -1.1283 -1.6702  1.0960
 8247SOL    HW236201   3.131   1.756   9.259  1.3393 -3.9869 -0.2257
 8248SOL     OW36202   2.231   1.217  10.036  0.1344  0.2818  0.0070
 8248SOL    HW136203   2.320   1.246  10.016 -0.9286  1.3731 -3.0215
 8248SOL    HW236204   2.213   1.274  10.111 -2.6707 -0.1740 -0.3097
 8249SOL     OW36205   1.614   1.248  14.868 -0.1731  0.3532 -0.3033
 8249SOL    HW136206   1.593   1.341  14.853 -0.8993  0.1425 -0.5908
 8249SOL    HW236207   1.554   1.225  14.939  1.3067  0.9398  1.1134
 8250SOL     OW36208   4.698   3.692   1.863 -0.4749  0.1684 -0.3651
 8250SOL    HW136209   0.070   3.694   1.867 -0.5065 -1.0440  0.9799
 8250SOL    HW236210   4.673   3.629   1.930 -2.3717  1.3047 -0.0077
 8251SOL     OW36211   2.666   1.045   7.194 -0.2035  0.0593  0.4738
 8251SOL    HW136212   2.602   1.042   7.123  0.8397 -0.5325 -0.4468
 8251SOL    HW236213   2.747   1.019   7.149 -1.9049 -1.5798 -1.6673
 8252SOL     OW36214   0.393   1.368  11.154  0.2860 -0.3507 -0.5891
 8252SOL    HW136215   0.352   1.454  11.145  0.0195 -0.2400  1.9357
 8252SOL    HW236216   0.419   1.342  11.065 -0.2844 -0.6232 -0.6762
 8253SOL     OW36217   4.172   2.027   8.603  0.2702 -0.0522 -0.3989
 8253SOL    HW136218   4.254   1.977   8.607  1.4473  1.7762 -1.8339
 8253SOL    HW236219   4.191   2.076   8.683  1.3061 -0.2301 -0.5446
 8254SOL     OW36220   1.662   2.008   2.650  0.5679  0.0519 -0.0845
 8254SOL    HW136221   1.651   1.950   2.574 -1.5739 -1.1431  1.1410
 8254SOL    HW236222   1.666   1.949   2.726 -2.1419 -0.3124 -0.2231
 8255SOL     OW36223   4.554   1.472  14.455 -0.1874 -0.1072 -0.1549
 8255SOL    HW136224   4.628   1.533  14.451 -2.4920  2.6217 -1.2483
 8255SOL    HW236225   4.539   1.488  14.549  0.2633  1.5268 -0.3474
 8256SOL     OW36226   3.294   2.874   2.145  0.1138 -0.2393 -0.2932
 8256SOL    HW136227   3.344   2.802   2.107 -1.3556 -1.7797  0.7101
 8256SOL    HW236228   3.290   2.848   2.237  0.8126  2.7742  0.6082
 8257SOL     OW36229   0.373   4.545   5.413  0.4950 -0.1397 -0.2097
 8257SOL    HW136230   0.287   4.534   5.454  0.7017  0.5240  0.4010
 8257SOL    HW236231   0.348   4.515   5.325 -0.8347  0.2120  0.0562
 8258SOL     OW36232   3.647   4.173  16.835  0.3736  0.2949  0.5033
 8258SOL    HW136233   3.569   4.159  16.889 -0.3490  2.7106  0.1004
 8258SOL    HW236234   3.711   4.116  16.876 -0.4495 -0.1938  1.1155
 8259SOL     OW36235   0.769   3.993   3.398 -0.0104 -0.0675 -0.2289
 8259SOL    HW136236   0.724   4.077   3.401 -1.0079 -0.6220  0.2443
 8259SOL    HW236237   0.770   3.981   3.303  0.4368 -0.1231 -0.2173
 8260SOL     OW36238   0.349   2.762   2.002  0.3315  0.0614 -0.6269
 8260SOL    HW136239   0.369   2.674   1.970  0.3052  0.5814 -2.0596
 8260SOL    HW236240   0.390   2.810   1.930  0.8967  0.7222  0.1272
 8261SOL     OW36241   2.505   1.079   3.573  0.0634 -0.4261 -0.2194
 8261SOL    HW136242   2.594   1.112   3.557 -1.3971  2.7530 -1.8824
 8261SOL    HW236243   2.514   1.030   3.654 -1.0380 -1.6415 -0.8392
 8262SOL     OW36244   2.791   1.386   0.020  0.7839 -0.0449 -0.0289
 8262SOL    HW136245   2.699   1.408   0.036  0.9201  0.6076 -0.1420
 8262SOL    HW236246   2.830   1.415   0.102  2.9820 -1.6472 -0.5034
 8263SOL     OW36247   2.158   4.599   2.784  0.1095 -0.1309 -0.6932
 8263SOL    HW136248   2.105   4.527   2.751  0.3703 -0.2507 -0.8485
 8263SOL    HW236249   2.247   4.573   2.761  0.2294 -1.2579  0.9960
 8264SOL     OW36250   4.188   4.145   1.662 -1.2010 -0.3225  0.1396
 8264SOL    HW136251   4.144   4.229   1.672  0.8666  0.9401 -1.2916
 8264SOL    HW236252   4.113   4.091   1.639 -0.1042 -1.2091 -1.3052
 8265SOL     OW36253   2.097   1.472   3.862 -0.3410  0.0757  0.1278
 8265SOL    HW136254   2.082   1.431   3.777  1.3781 -0.0581 -0.1112
 8265SOL    HW236255   2.020   1.529   3.858  1.8406  2.9730 -0.2869
 8266SOL     OW36256   1.476   1.293   8.768  0.2312  0.8219  0.0665
 8266SOL    HW136257   1.526   1.251   8.838  0.8658  0.9328 -0.3131
 8266SOL    HW236258   1.509   1.382   8.784 -0.4084  1.3279 -1.4826
 8267SOL     OW36259   1.812   3.805  11.906  0.3536 -0.1411 -0.3271
 8267SOL    HW136260   1.903   3.832  11.900  0.6984 -1.2722 -0.1201
 8267SOL    HW236261   1.777   3.857  11.978 -3.2072 -1.0126 -1.4254
 8268SOL     OW36262   2.434   3.842   4.338 -0.1212  0.0450  0.2808
 8268SOL    HW136263   2.473   3.856   4.252  0.7320 -2.7230  0.2309
 8268SOL    HW236264   2.371   3.778   4.305 -2.5452  2.8567 -0.6441
 8269SOL     OW36265   0.153   4.395   8.184 -0.4177 -0.6401 -0.1776
 8269SOL    HW136266   0.121   4.305   8.188 -1.3986 -0.2690  0.4102
 8269SOL    HW236267   0.229   4.384   8.241 -0.2454 -0.2869 -0.3385
 8270SOL     OW36268   3.568   3.747   7.172  0.2464  0.0270 -0.5476
 8270SOL    HW136269   3.622   3.673   7.142 -1.5193 -2.0135  1.3683
 8270SOL    HW236270   3.635   3.797   7.218 -1.0109  1.2750 -0.0839
 8271SOL     OW36271   2.486   2.204  15.528 -0.7712 -0.0897 -0.2712
 8271SOL    HW136272   2.536   2.134  15.486 -1.2890 -2.1989  2.6014
 8271SOL    HW236273   2.506   2.182  15.619 -1.6314  0.5412  0.0707
 8272SOL     OW36274   2.562   0.995   6.140  0.0018  0.2138 -0.1228
 8272SOL    HW136275   2.481   1.043   6.124 -0.4292 -0.5186 -0.1010
 8272SOL    HW236276   2.622   1.067   6.120  0.2418  0.8170  2.7182
 8273SOL     OW36277   3.999   3.714   2.924  0.2044  0.2069  0.2027
 8273SOL    HW136278   4.061   3.650   2.961  0.3412 -1.2082 -2.4753
 8273SOL    HW236279   3.917   3.694   2.968  0.0396  1.0400  0.2650
 8274SOL     OW36280   0.467   2.925   5.455 -0.4509  0.5669  0.4799
 8274SOL    HW136281   0.411   2.942   5.379  0.6925 -2.6556 -1.0956
 8274SOL    HW236282   0.450   2.831   5.466 -2.6002  0.9677  0.6812
 8275SOL     OW36283   2.406   1.928  10.110 -0.0600 -0.1839 -0.2809
 8275SOL    HW136284   2.317   1.895  10.123 -0.8371  1.0209 -2.4956
 8275SOL    HW236285   2.466   1.881  10.167  0.5046  0.4661 -0.3295
 8276SOL     OW36286   1.826   1.522   5.683 -0.7388  0.0618 -0.6183
 8276SOL    HW136287   1.797   1.448   5.737 -0.2132  0.7423  0.6039
 8276SOL    HW236288   1.844   1.483   5.598  3.3342  0.3708  0.1066
 8277SOL     OW36289   1.122   3.824   9.026 -0.9170 -0.6050  0.3259
 8277SOL    HW136290   1.042   3.772   9.032 -0.1695 -1.7666  0.2301
 8277SOL    HW236291   1.103   3.901   9.079 -0.5158 -0.7387  0.6621
 8278SOL     OW36292   3.890   3.815   2.301 -0.2536 -0.2280 -0.2309
 8278SOL    HW136293   3.956   3.803   2.232 -0.8778  1.6136 -1.1434
 8278SOL    HW236294   3.917   3.902   2.332 -0.1596 -0.7060  1.0275
 8279SOL     OW36295   3.487   0.053   2.383 -0.1861  0.5236 -0.2565
 8279SOL    HW136296   3.505   0.013   2.298  1.2190  0.8370 -0.1184
 8279SOL    HW236297   3.432   4.711   2.425  1.5347 -1.2550 -0.7614
 8280SOL     OW36298   0.667   2.648   2.755  0.0509 -0.4896  0.7932
 8280SOL    HW136299   0.721   2.701   2.697 -1.8221  0.1201 -0.3934
 8280SOL    HW236300   0.709   2.670   2.838  0.4986 -0.8108  0.6506
 8281SOL     OW36301   0.154   1.626   8.919  0.0246 -0.0358  0.1681
 8281SOL    HW136302   0.206   1.640   8.840  0.3208  0.9287  0.5357
 8281SOL    HW236303   0.086   1.693   8.919 -0.6170 -0.6849  0.1697
 8282SOL     OW36304   1.902   0.468   5.821 -0.2963 -0.0775  0.0713
 8282SOL    HW136305   1.926   0.549   5.866  1.1061  0.4101 -1.5540
 8282SOL    HW236306   1.982   0.452   5.770  0.4033  2.3208  0.4169
 8283SOL     OW36307   2.663   1.441   8.899  0.3631 -0.1870 -0.3942
 8283SOL    HW136308   2.574   1.454   8.931  0.3010  0.2111 -0.7210
 8283SOL    HW236309   2.639   1.441   8.806 -2.3961  0.6366  0.3246
 8284SOL     OW36310   0.353   0.982  16.978 -0.3097  0.4138  0.4983
 8284SOL    HW136311   0.381   1.036  17.051  2.0859 -1.7321  1.2007
 8284SOL    HW236312   0.298   1.047  16.935  2.9843  0.8660 -3.0725
 8285SOL     OW36313   1.622   2.256   3.374 -0.4295  0.6543  0.8348
 8285SOL    HW136314   1.611   2.351   3.376  4.3070  1.3085 -1.8376
 8285SOL    HW236315   1.543   2.233   3.326  1.5599 -1.0297 -1.6755
 8286SOL     OW36316   0.335   4.386   5.213  0.3034  0.5091 -0.4716
 8286SOL    HW136317   0.272   4.415   5.148  2.8262  1.5516 -2.4620
 8286SOL    HW236318   0.418   4.385   5.165 -0.7183  0.2226 -2.2158
 8287SOL     OW36319   3.998   0.904   9.018  0.4719  0.1994  0.3451
 8287SOL    HW136320   4.008   0.993   8.984 -4.1668  1.5743  2.6336
 8287SOL    HW236321   4.035   0.842   8.955  1.9705  0.1372  1.2621
 8288SOL     OW36322   2.101   0.848   6.097  0.0981 -0.1493 -0.0161
 8288SOL    HW136323   2.059   0.775   6.051 -0.9420  0.2069  0.3664
 8288SOL    HW236324   2.044   0.915   6.061  0.2540 -0.4725 -0.8484
 8289SOL     OW36325   1.732   0.965   6.956  1.2195 -0.2591  0.0583
 8289SOL    HW136326   1.639   0.947   6.966  1.1965 -0.9325 -1.2739
 8289SOL    HW236327   1.746   0.963   6.861 -0.5316  1.3701 -0.2463
 8290SOL     OW36328   1.652   4.564  17.447 -0.8462  0.2804  0.0406
 8290SOL    HW136329   1.557   4.570  17.444 -0.9814 -2.2998 -0.7663
 8290SOL    HW236330   1.666   4.522  17.531  1.2562  3.8946  1.5004
 8291SOL     OW36331   2.232   1.458   2.322  0.1322 -0.1452 -0.6038
 8291SOL    HW136332   2.152   1.477   2.272 -0.9524  0.8478  1.5061
 8291SOL    HW236333   2.223   1.365   2.339 -0.0045 -0.0719 -0.2797
 8292SOL     OW36334   2.065   3.873  11.975 -0.0462  0.3867  0.0158
 8292SOL    HW136335   2.128   3.814  12.016 -0.0796  0.1818 -0.2285
 8292SOL    HW236336   2.039   3.901  12.062  0.9244  0.0501  0.4096
 8293SOL     OW36337   0.725   2.916   5.568  0.3023  0.4317 -0.0740
 8293SOL    HW136338   0.760   2.990   5.519 -0.4072  1.9263  1.6484
 8293SOL    HW236339   0.661   2.877   5.509  2.0532  0.4042 -1.9628
 8294SOL     OW36340   1.687   2.969   6.731 -0.5294  0.1537 -0.5179
 8294SOL    HW136341   1.700   3.060   6.759  0.9745  0.1646 -1.2169
 8294SOL    HW236342   1.601   2.976   6.689 -0.9974 -0.0572  0.4231
 8295SOL     OW36343   3.860   3.318  16.157  0.4329  0.8875 -0.4757
 8295SOL    HW136344   3.913   3.342  16.081  1.2142 -0.1224 -0.2491
 8295SOL    HW236345   3.878   3.224  16.153  0.8770  0.9668 -0.2508
 8296SOL     OW36346   4.706   3.790   8.573  0.5676  0.0136  0.0898
 8296SOL    HW136347   0.013   3.721   8.633 -0.7360 -0.3641  0.3219
 8296SOL    HW236348   0.050   3.854   8.596 -0.5933  0.3305  2.6217
 8297SOL     OW36349   2.125   3.354   4.349 -0.0890  0.3281  0.4390
 8297SOL    HW136350   2.031   3.373   4.348 -0.0268  0.6893  1.6543
 8297SOL    HW236351   2.152   3.376   4.259  0.0810 -0.7645  0.2189
 8298SOL     OW36352   2.256   0.383   2.076 -0.1369 -0.0617 -0.2144
 8298SOL    HW136353   2.328   0.363   2.017  0.6875 -0.5014  0.9441
 8298SOL    HW236354   2.223   0.464   2.037  1.1656  0.4001 -0.3570
 8299SOL     OW36355   1.161   3.563   5.084 -0.4954 -0.0220  0.0580
 8299SOL    HW136356   1.124   3.502   5.020  0.6879  0.3760 -1.0140
 8299SOL    HW236357   1.109   3.642   5.075 -0.7193 -0.2047 -0.2627
 8300SOL     OW36358   0.973   4.533   8.174  0.6818 -0.6193  0.1789
 8300SOL    HW136359   0.974   4.522   8.079  2.1428 -0.9610  0.2345
 8300SOL    HW236360   1.012   4.447   8.185 -0.5935 -1.3357 -0.8415
 8301SOL     OW36361   1.107   0.532  12.792  0.2422  0.1804 -0.0694
 8301SOL    HW136362   1.115   0.579  12.875  0.5931 -1.3453  0.7598
 8301SOL    HW236363   1.046   0.464  12.820  0.4993 -0.4285 -0.9946
 8302SOL     OW36364   4.357   4.144  11.293  1.1088  0.4784  0.0186
 8302SOL    HW136365   4.394   4.149  11.205  0.2336 -0.1257 -0.3830
 8302SOL    HW236366   4.414   4.080  11.336 -2.2052 -1.9530  0.7246
 8303SOL     OW36367   3.817   0.672  14.285  0.6377 -0.5761  0.0930
 8303SOL    HW136368   3.749   0.608  14.264 -1.0834  0.6383  2.0268
 8303SOL    HW236369   3.771   0.750  14.257 -1.1412 -0.5611  3.1531
 8304SOL     OW36370   4.502   1.234   5.766 -0.2994 -0.2581  0.8010
 8304SOL    HW136371   4.520   1.325   5.792  0.2711  0.5627 -2.4396
 8304SOL    HW236372   4.408   1.227   5.785 -0.2685 -0.0878  1.0145
 8305SOL     OW36373   1.770   0.662   8.495  0.2324  1.0509  0.2227
 8305SOL    HW136374   1.736   0.745   8.463  0.3018  0.9742 -0.0519
 8305SOL    HW236375   1.815   0.697   8.571 -0.0164  2.2966 -0.2021
 8306SOL     OW36376   4.099   1.101   9.804  0.1660 -0.1249  0.3259
 8306SOL    HW136377   4.094   1.092   9.709  2.4513  1.2858  0.0554
 8306SOL    HW236378   4.175   1.049   9.830  0.7909  0.6424  0.0412
 8307SOL     OW36379   3.911   3.055  10.650  0.0171  0.2791 -0.8539
 8307SOL    HW136380   3.861   3.137  10.658  0.9988  0.5821  2.0696
 8307SOL    HW236381   3.884   3.010  10.730 -0.7623 -1.8838 -2.3521
 8308SOL     OW36382   3.940   4.155   4.941 -0.6556 -0.1784 -0.0916
 8308SOL    HW136383   3.857   4.199   4.958 -0.1071  1.3848 -1.4675
 8308SOL    HW236384   3.960   4.181   4.851  0.4434 -1.3098 -0.1780
 8309SOL     OW36385   4.035   1.447   2.595  0.0232 -0.1437 -0.7735
 8309SOL    HW136386   3.972   1.518   2.607 -0.3081 -0.2921 -1.6832
 8309SOL    HW236387   4.062   1.476   2.508  0.3303  1.1679 -0.2450
 8310SOL     OW36388   2.273   4.654  16.691  0.3305 -0.0967 -0.0052
 8310SOL    HW136389   2.194   4.634  16.639 -0.8395  1.2357  1.2634
 8310SOL    HW236390   2.282   4.573  16.741  0.8416 -0.2460 -0.3388
 8311SOL     OW36391   3.740   2.069   3.334  0.0179 -0.2961  0.2887
 8311SOL    HW136392   3.692   2.006   3.389 -0.9990  1.0581  0.9526
 8311SOL    HW236393   3.674   2.138   3.340  1.9609  1.4399  1.5328
 8312SOL     OW36394   3.023   1.920  11.682  0.5189  0.4427 -0.0898
 8312SOL    HW136395   3.109   1.912  11.641  0.4542  0.5824 -0.2544
 8312SOL    HW236396   2.998   2.007  11.651  3.2322  1.5679  0.9459
 8313SOL     OW36397   3.492   4.165   1.002  0.3395 -0.3973  0.7503
 8313SOL    HW136398   3.405   4.199   1.020  0.7081  2.1209 -2.1117
 8313SOL    HW236399   3.543   4.243   0.978  0.4195 -0.7010 -0.0699
 8314SOL     OW36400   4.584   2.831  10.517 -0.1033 -1.0244  0.7143
 8314SOL    HW136401   4.549   2.881  10.443 -2.7750 -2.4365  1.0394
 8314SOL    HW236402   4.662   2.801  10.471  0.2370  2.1367 -0.8094
 8315SOL     OW36403   1.309   1.204  16.012 -0.0153  0.4204 -0.7448
 8315SOL    HW136404   1.372   1.134  16.028  0.4099  1.0649  0.4050
 8315SOL    HW236405   1.231   1.172  16.057  2.4113 -0.4879  2.7649
 8316SOL     OW36406   2.418   2.826   5.747 -0.4207  0.1881  0.3502
 8316SOL    HW136407   2.362   2.904   5.747 -2.3367 -1.2137  0.2282
 8316SOL    HW236408   2.491   2.864   5.698 -0.8849  0.5012 -0.1090
 8317SOL     OW36409   0.840   4.135   2.210  0.1920 -0.1613  0.0157
 8317SOL    HW136410   0.809   4.052   2.173  1.4308 -1.1756  1.2222
 8317SOL    HW236411   0.877   4.185   2.138  1.3122 -2.3679 -0.9598
 8318SOL     OW36412   1.933   3.170   6.760  0.3821 -0.2024  0.3056
 8318SOL    HW136413   1.851   3.212   6.785  1.5259  2.4869 -0.5400
 8318SOL    HW236414   1.953   3.124   6.842  0.5957  1.2175  1.0420
 8319SOL     OW36415   0.532   0.396   6.856 -0.4268  0.1250  0.3474
 8319SOL    HW136416   0.491   0.346   6.928 -1.8279  0.1571 -0.4340
 8319SOL    HW236417   0.553   0.321   6.800 -2.2999 -0.5810  0.5806
 8320SOL     OW36418   1.656   2.994   7.974 -0.2977  0.0072  0.0418
 8320SOL    HW136419   1.625   2.942   8.047  0.4160  0.1770  0.4630
 8320SOL    HW236420   1.593   2.967   7.907  0.2406 -1.3608  0.0982
 8321SOL     OW36421   3.117   0.925  14.950 -0.7408 -0.0452  0.1246
 8321SOL    HW136422   3.104   0.994  14.884 -0.7964  0.1292  0.3195
 8321SOL    HW236423   3.134   0.974  15.030 -0.2785 -0.2628  0.1608
 8322SOL     OW36424   4.199   3.618   4.455 -0.1799 -0.0498 -0.2085
 8322SOL    HW136425   4.182   3.609   4.361 -2.3262 -1.7801  0.3299
 8322SOL    HW236426   4.252   3.697   4.463  2.8065 -2.1173  0.8567
 8323SOL     OW36427   3.611   0.124   7.991  0.3542 -0.3732  0.5967
 8323SOL    HW136428   3.562   0.127   8.073 -0.9000  4.1574 -0.2974
 8323SOL    HW236429   3.680   0.189   8.003 -0.7965  1.1057 -0.7320
 8324SOL     OW36430   4.722   2.781   4.885  0.2180  0.2270 -0.0550
 8324SOL    HW136431   4.711   2.714   4.817  1.0914  0.6053 -0.5688
 8324SOL    HW236432   4.696   2.855   4.830 -0.5884 -0.3012 -0.3955
 8325SOL     OW36433   0.425   2.270   1.216 -0.0389 -0.0185 -0.5098
 8325SOL    HW136434   0.505   2.284   1.165 -0.5092 -1.1335 -1.5570
 8325SOL    HW236435   0.459   2.275   1.305  1.2205 -0.6312 -0.9671
 8326SOL     OW36436   4.622   4.156   7.416 -0.5183 -0.4211 -0.2543
 8326SOL    HW136437   4.595   4.238   7.374 -0.8342 -0.3502  0.0837
 8326SOL    HW236438   4.636   4.191   7.505 -0.1142 -0.9584 -0.1079
 8327SOL     OW36439   1.486   1.564   6.446  0.1895  0.0796 -0.6959
 8327SOL    HW136440   1.529   1.536   6.366  0.3227 -1.6460 -0.0175
 8327SOL    HW236441   1.533   1.643   6.475 -0.2519 -0.4271  1.3891
 8328SOL     OW36442   0.134   1.658   0.583  0.3343  0.1612 -0.4963
 8328SOL    HW136443   0.145   1.753   0.585 -1.6821  0.3279  2.4363
 8328SOL    HW236444   0.126   1.635   0.490  1.7349 -2.8173  0.1461
 8329SOL     OW36445   0.626   2.047   7.896  0.0363  0.0106  0.2817
 8329SOL    HW136446   0.715   2.041   7.863  0.4961 -2.8952  2.1106
 8329SOL    HW236447   0.634   1.999   7.979  1.3188  0.9386  0.6957
 8330SOL     OW36448   2.803   3.083  14.738 -0.4645  0.2696  0.3127
 8330SOL    HW136449   2.710   3.099  14.722 -0.2531  0.8953 -0.3020
 8330SOL    HW236450   2.802   3.073  14.833  0.6579  0.1819  0.3187
 8331SOL     OW36451   3.163   1.575   8.644  0.1922 -0.1142 -0.1528
 8331SOL    HW136452   3.106   1.608   8.713  0.0316 -0.5860 -0.0551
 8331SOL    HW236453   3.188   1.491   8.683 -0.4309 -0.2509 -0.0531
 8332SOL     OW36454   3.536   1.743   7.756  0.2549 -0.0103  0.2862
 8332SOL    HW136455   3.450   1.703   7.752  0.9622 -1.1869 -3.3895
 8332SOL    HW236456   3.514   1.835   7.746  1.6937  0.3356  0.2180
 8333SOL     OW36457   0.200   1.008   3.673 -0.5898  0.3899  0.6659
 8333SOL    HW136458   0.224   1.010   3.765  1.2681 -1.7402  0.2249
 8333SOL    HW236459   0.133   0.940   3.683  1.1006 -1.4850 -0.9605
 8334SOL     OW36460   1.662   2.418   6.994 -0.0937  0.5331 -0.5099
 8334SOL    HW136461   1.630   2.330   7.013  0.5681  1.2742  4.0250
 8334SOL    HW236462   1.596   2.437   6.927  0.9658  1.1342 -1.3838
 8335SOL     OW36463   2.346   0.697   6.545  0.2123 -0.1120 -0.0894
 8335SOL    HW136464   2.311   0.767   6.490 -0.4517 -0.9704 -0.7568
 8335SOL    HW236465   2.297   0.713   6.626 -0.3880  0.8316 -0.6291
 8336SOL     OW36466   4.329   3.184  13.610  0.0253 -0.3847 -0.1399
 8336SOL    HW136467   4.295   3.106  13.653  1.3252  0.9322  3.2974
 8336SOL    HW236468   4.405   3.186  13.669 -2.5932  1.1550  3.1911
 8337SOL     OW36469   1.083   3.717   5.760 -0.1134 -0.2329  0.4090
 8337SOL    HW136470   1.014   3.756   5.706  1.1058  2.6480  0.9185
 8337SOL    HW236471   1.157   3.704   5.700 -1.2368 -0.7513 -0.8494
 8338SOL     OW36472   0.445   3.724  13.669  0.2031  0.6314  0.7854
 8338SOL    HW136473   0.394   3.773  13.605 -0.2383  0.3067  0.8912
 8338SOL    HW236474   0.491   3.662  13.612 -0.8856  0.6271 -0.0840
 8339SOL     OW36475   4.135   1.957   8.883  0.4562 -0.7652 -0.6003
 8339SOL    HW136476   4.076   1.901   8.833  0.9344 -2.6649  0.9739
 8339SOL    HW236477   4.087   1.990   8.958 -0.6954 -2.4695 -0.5849
 8340SOL     OW36478   4.489   2.922   5.209  0.0266 -0.2970 -0.2860
 8340SOL    HW136479   4.456   2.935   5.298 -1.0480 -1.5409 -0.4927
 8340SOL    HW236480   4.422   2.867   5.169 -0.5833  0.9532 -0.9822
 8341SOL     OW36481   4.559   0.243   4.661 -0.1998 -0.0474  0.0575
 8341SOL    HW136482   4.602   0.328   4.670 -0.3266  0.1427 -1.1406
 8341SOL    HW236483   4.512   0.231   4.744 -1.2532  0.7532 -0.4309
 8342SOL     OW36484   0.315   1.852   6.921 -0.3782  0.1657  0.2225
 8342SOL    HW136485   0.398   1.894   6.900 -0.4844  1.3204  2.1236
 8342SOL    HW236486   0.263   1.845   6.841 -0.2502  0.7704  0.0881
 8343SOL     OW36487   2.937   1.022   4.415  0.6219  0.2189  0.3349
 8343SOL    HW136488   3.021   0.976   4.417  2.0685  2.7676 -1.2596
 8343SOL    HW236489   2.875   0.950   4.424  1.9349 -1.1227 -1.3185
 8344SOL     OW36490   0.708   1.244  11.593  0.0355 -0.0084 -0.3931
 8344SOL    HW136491   0.769   1.312  11.622 -0.2263  0.3696 -0.7152
 8344SOL    HW236492   0.693   1.268  11.501 -1.2201 -1.7906 -0.6573
 8345SOL     OW36493   3.481   0.518   2.601 -0.1429 -0.4218 -0.2823
 8345SOL    HW136494   3.484   0.450   2.533  0.1001 -1.9826  1.2772
 8345SOL    HW236495   3.421   0.578   2.557 -0.1136 -0.0954  0.1229
 8346SOL     OW36496   1.401   1.553   5.323 -0.2437  0.5474  0.1972
 8346SOL    HW136497   1.359   1.468   5.338  0.6399 -0.1035 -1.0897
 8346SOL    HW236498   1.357   1.571   5.240 -2.2649 -0.0367  1.1412
 8347SOL     OW36499   1.893   3.893   7.105 -0.2758  0.5491 -0.3272
 8347SOL    HW136500   1.838   3.815   7.099  1.1903 -0.4585 -0.7138
 8347SOL    HW236501   1.969   3.853   7.148 -1.9595 -0.8685  1.3239
 8348SOL     OW36502   1.619   3.651   2.814 -0.4403 -0.1117 -0.6342
 8348SOL    HW136503   1.613   3.556   2.808 -3.7078  0.1309 -0.8333
 8348SOL    HW236504   1.665   3.664   2.730  2.3266 -1.3174  0.6681
 8349SOL     OW36505   2.862   0.369  15.300  0.3423 -0.0514  0.2377
 8349SOL    HW136506   2.797   0.342  15.365  1.3184 -0.7314  0.9485
 8349SOL    HW236507   2.847   0.299  15.237 -0.1677 -0.5500  0.9089
 8350SOL     OW36508   3.891   3.599  10.954  0.3409 -0.1474  0.4002
 8350SOL    HW136509   3.978   3.568  10.979  0.9040 -0.4804 -1.9549
 8350SOL    HW236510   3.900   3.694  10.949 -0.6227 -0.0929 -0.3664
 8351SOL     OW36511   3.255   1.573  15.986  0.1639  0.0689  0.2499
 8351SOL    HW136512   3.219   1.489  15.957  0.8434 -0.0357 -0.2691
 8351SOL    HW236513   3.211   1.578  16.071  0.8410  1.4627  0.5329
 8352SOL     OW36514   2.804   0.233   6.821 -0.1952  0.8493 -0.1692
 8352SOL    HW136515   2.889   0.196   6.845 -0.6528 -0.3110 -0.3422
 8352SOL    HW236516   2.820   0.324   6.845 -2.1921  0.8707  1.0336
 8353SOL     OW36517   3.142   0.487   9.092 -0.5685 -0.0387  0.2804
 8353SOL    HW136518   3.233   0.458   9.103 -0.8086 -0.1311  2.0264
 8353SOL    HW236519   3.161   0.581   9.094  1.8081 -0.5258  1.2608
 8354SOL     OW36520   2.149   3.160  17.649  0.1130 -0.1028 -0.0366
 8354SOL    HW136521   2.200   3.196   0.026 -0.2405 -0.5909  0.4524
 8354SOL    HW236522   2.057   3.183  17.665  0.7915  1.4904  1.5564
 8355SOL     OW36523   4.401   2.088   3.251  0.6251 -0.1796  0.2284
 8355SOL    HW136524   4.488   2.085   3.291  1.3774  0.1308 -1.3373
 8355SOL    HW236525   4.410   2.034   3.172 -0.2302 -0.8534  0.5961
 8356SOL     OW36526   0.277   2.888   6.591  0.5315 -0.0595  0.2945
 8356SOL    HW136527   0.298   2.797   6.613  2.0799  0.4929  1.1071
 8356SOL    HW236528   0.223   2.885   6.512  0.9785  1.6212 -0.0706
 8357SOL     OW36529   2.538   1.458  17.026  0.5211  0.1862 -0.7457
 8357SOL    HW136530   2.620   1.507  17.032  1.6716 -1.7049 -0.8749
 8357SOL    HW236531   2.491   1.486  16.947 -1.0733 -2.2179 -0.6638
 8358SOL     OW36532   1.617   1.060  14.113 -0.3571 -0.4343  0.2408
 8358SOL    HW136533   1.646   1.025  14.028  0.3009  0.5327  0.0676
 8358SOL    HW236534   1.576   0.983  14.151  1.2779 -0.2449  2.3668
 8359SOL     OW36535   3.925   0.333  17.663  0.3029 -0.2591 -0.0343
 8359SOL    HW136536   3.951   0.371   0.051  1.3718  1.0440 -0.9551
 8359SOL    HW236537   3.848   0.279  17.680  0.2938 -0.0484  0.6252
 8360SOL     OW36538   0.977   1.806   7.457  0.0842 -0.0962  0.3909
 8360SOL    HW136539   0.889   1.839   7.440  1.4357  2.3585 -1.8788
 8360SOL    HW236540   1.034   1.872   7.417  1.1714 -2.7415 -2.4746
 8361SOL     OW36541   3.973   4.033   3.011 -0.2304 -0.8357 -0.7284
 8361SOL    HW136542   4.009   4.022   2.923  1.5421  0.0387 -0.1210
 8361SOL    HW236543   3.886   3.998   2.997 -0.4452 -1.2742  1.6058
 8362SOL     OW36544   0.015   1.603   7.511 -0.7566 -0.3973 -0.4865
 8362SOL    HW136545   0.101   1.644   7.504 -0.9889 -0.0086 -1.0188
 8362SOL    HW236546   0.044   1.514   7.489 -1.0812 -0.7171  0.3724
 8363SOL     OW36547   1.243   1.768  15.762 -0.2773  0.2024  0.6715
 8363SOL    HW136548   1.248   1.691  15.819 -1.3211  0.8374  1.6071
 8363SOL    HW236549   1.154   1.761  15.726  0.5010 -1.6894 -0.8818
 8364SOL     OW36550   0.015   2.097   4.175  0.3221  0.9828 -0.2686
 8364SOL    HW136551   0.020   2.176   4.228  0.9470  1.4765 -1.0690
 8364SOL    HW236552   0.059   2.129   4.097  1.6001  0.1019  0.0793
 8365SOL     OW36553   3.423   3.397  12.959 -0.0568  0.5063 -0.7482
 8365SOL    HW136554   3.502   3.426  12.914  0.0567  2.2346  0.5491
 8365SOL    HW236555   3.359   3.369  12.893  0.2793 -0.4377 -0.6665
 8366SOL     OW36556   2.137   1.404  15.444  0.0141 -0.3923 -0.3530
 8366SOL    HW136557   2.096   1.484  15.410  1.7495  0.6532  0.0431
 8366SOL    HW236558   2.179   1.359  15.370  2.6442  0.2495  0.7649
 8367SOL     OW36559   0.192   1.353   7.456  0.3457 -0.6390 -0.0946
 8367SOL    HW136560   0.200   1.298   7.534 -2.4755  1.2531  1.5356
 8367SOL    HW236561   0.262   1.319   7.400  0.4859 -0.3215 -0.1102
 8368SOL     OW36562   1.110   0.179   8.718 -0.0558 -0.0444  0.0903
 8368SOL    HW136563   1.020   0.178   8.684  0.4329 -0.8220 -1.1863
 8368SOL    HW236564   1.102   0.207   8.810  2.4536 -0.7550  0.5394
 8369SOL     OW36565   3.513   0.305  16.570  0.1024  0.2923  0.1694
 8369SOL    HW136566   3.534   0.284  16.661 -0.2355  0.8593  0.3766
 8369SOL    HW236567   3.497   0.216  16.537  1.3669 -0.4553  1.5648
 8370SOL     OW36568   0.481   3.500   6.880  0.3689 -0.2837 -0.0755
 8370SOL    HW136569   0.399   3.451   6.877 -0.4815  1.0820  0.3786
 8370SOL    HW236570   0.460   3.567   6.815 -1.7603  0.6378  1.5795
 8371SOL     OW36571   1.193   1.467   4.577 -0.0833 -0.2254 -0.0558
 8371SOL    HW136572   1.119   1.525   4.562  1.6997  1.6046 -1.8762
 8371SOL    HW236573   1.158   1.390   4.532 -2.6966  1.0550 -0.1653
 8372SOL     OW36574   0.234   0.122   0.619 -0.1164  0.1103  0.4430
 8372SOL    HW136575   0.258   0.049   0.562  1.0976  0.8852 -0.0655
 8372SOL    HW236576   0.313   0.176   0.614 -2.2913  3.3236  0.6406
 8373SOL     OW36577   1.683   4.162   2.333  0.1929 -0.6278 -0.0397
 8373SOL    HW136578   1.675   4.228   2.264 -1.2141  2.0554  2.6583
 8373SOL    HW236579   1.595   4.125   2.338  0.2648 -0.9387 -1.1041
 8374SOL     OW36580   2.410   2.562   5.576 -0.1740  0.2961  0.9463
 8374SOL    HW136581   2.417   2.632   5.642 -2.7110 -0.0794  1.6253
 8374SOL    HW236582   2.373   2.610   5.502  2.1757 -0.1792 -0.5122
 8375SOL     OW36583   3.217   2.553  13.411 -0.0727  0.3357  0.2843
 8375SOL    HW136584   3.169   2.615  13.465 -2.3907 -1.9916  0.9175
 8375SOL    HW236585   3.233   2.609  13.336  0.9237  2.0713  1.7922
 8376SOL     OW36586   1.857   0.226   6.675 -0.3549 -0.5582 -0.3159
 8376SOL    HW136587   1.934   0.271   6.708 -0.8852  1.1728 -1.4127
 8376SOL    HW236588   1.884   0.196   6.588  1.2645  1.5719 -0.5589
 8377SOL     OW36589   2.759   0.106   4.317 -0.1013 -0.5446 -0.1927
 8377SOL    HW136590   2.784   0.020   4.282  0.0378 -0.9475  0.9133
 8377SOL    HW236591   2.688   0.077   4.375 -2.0853  3.0269 -0.8560
 8378SOL     OW36592   2.601   2.791   9.221 -0.1479  0.3602  0.0541
 8378SOL    HW136593   2.675   2.774   9.162 -0.2300  1.8832 -0.4791
 8378SOL    HW236594   2.613   2.717   9.280 -1.6344 -1.2839 -1.6982
 8379SOL     OW36595   2.763   3.739   3.985 -0.3224  0.5922 -0.3114
 8379SOL    HW136596   2.836   3.792   3.953 -0.7292  0.3279 -1.7184
 8379SOL    HW236597   2.807   3.661   4.019 -0.7311  0.2186 -0.6363
 8380SOL     OW36598   3.855   3.812  11.653  0.3893  0.3574  0.3264
 8380SOL    HW136599   3.945   3.839  11.635  1.1222 -1.4797  1.3015
 8380SOL    HW236600   3.861   3.764  11.735 -1.1870  1.1010  0.8816
 8381SOL     OW36601   2.269   2.561   8.064 -0.3135  0.4829 -0.0028
 8381SOL    HW136602   2.331   2.628   8.093 -2.1982  0.6325  3.6955
 8381SOL    HW236603   2.208   2.573   8.136 -0.9266  0.4091 -0.5025
 8382SOL     OW36604   1.457   4.702  14.586 -0.1365 -0.4212  0.4621
 8382SOL    HW136605   1.549   4.694  14.557 -0.2974  0.5210 -0.3193
 8382SOL    HW236606   1.438   4.609  14.591 -0.1713 -0.3141  2.3096
 8383SOL     OW36607   1.552   2.401   2.748  0.6290  0.2598  0.1246
 8383SOL    HW136608   1.516   2.330   2.694 -1.1232  0.8856  0.4775
 8383SOL    HW236609   1.476   2.456   2.767 -1.5809 -2.3170 -1.3476
 8384SOL     OW36610   3.671   1.414   2.524  0.3552  0.1661  0.2198
 8384SOL    HW136611   3.708   1.501   2.541  1.8292 -0.1292 -1.4752
 8384SOL    HW236612   3.591   1.440   2.479  0.7745  0.8650 -0.1388
 8385SOL     OW36613   0.719   4.288  15.592 -0.2181  0.3590  0.5333
 8385SOL    HW136614   0.781   4.234  15.543 -0.7840  0.0257  0.1784
 8385SOL    HW236615   0.669   4.225  15.644  1.4222 -1.3012  0.1072
 8386SOL     OW36616   3.001   1.112   5.645  0.0364  0.1226 -0.0258
 8386SOL    HW136617   3.090   1.125   5.612  0.1393 -2.2798 -0.6925
 8386SOL    HW236618   2.975   1.027   5.609  1.1776  0.3546 -1.3885
 8387SOL     OW36619   1.125   2.209   5.731  0.6848 -0.3892 -0.2818
 8387SOL    HW136620   1.216   2.185   5.709  1.7702  0.2891  3.4902
 8387SOL    HW236621   1.082   2.197   5.647 -0.7563  1.1996  0.2351
 8388SOL     OW36622   0.908   2.104  11.450  0.2489  0.0459 -0.2493
 8388SOL    HW136623   0.818   2.072  11.448 -0.0997  0.8741  2.0406
 8388SOL    HW236624   0.935   2.077  11.538 -1.4285 -1.4200 -0.1974
 8389SOL     OW36625   0.210   0.170   8.068  0.6325 -0.4496 -0.0276
 8389SOL    HW136626   0.262   0.177   8.148 -0.1009 -0.0155  0.4109
 8389SOL    HW236627   0.279   0.140   8.009 -0.2589 -0.5515 -1.0320
 8390SOL     OW36628   2.143   3.520   0.687  0.1410  0.1648 -0.2522
 8390SOL    HW136629   2.189   3.604   0.688  2.6402 -1.1918 -0.9420
 8390SOL    HW236630   2.129   3.506   0.780  0.2792  0.6668 -0.1569
 8391SOL     OW36631   0.875   2.759   3.439  0.3071 -0.1323 -0.1241
 8391SOL    HW136632   0.800   2.749   3.498  0.3783 -0.2661 -0.0544
 8391SOL    HW236633   0.881   2.854   3.441  1.2877 -0.1830 -0.8555
 8392SOL     OW36634   4.535   0.567  16.806  0.3414 -0.4087  0.2498
 8392SOL    HW136635   4.574   0.567  16.893 -0.0975  0.2463  0.4431
 8392SOL    HW236636   4.589   0.636  16.767 -0.5956 -0.8695 -1.8673
 8393SOL     OW36637   4.063   2.937   2.061  0.0483 -0.1103 -0.1052
 8393SOL    HW136638   4.054   2.887   1.981  4.3117 -0.6571 -0.2413
 8393SOL    HW236639   4.124   2.881   2.110 -0.1508  0.6191  0.9925
 8394SOL     OW36640   3.391   0.807  13.799  0.2012 -0.0349 -0.3042
 8394SOL    HW136641   3.304   0.790  13.835  0.2940  0.2496  0.0523
 8394SOL    HW236642   3.397   0.766  13.712  2.0742 -0.5396  0.0727
 8395SOL     OW36643   0.070   3.985   6.557 -0.0855 -0.3389  0.2291
 8395SOL    HW136644   0.112   4.044   6.619 -2.1476 -0.0875  1.3784
 8395SOL    HW236645   0.069   3.900   6.602  2.3104 -0.0135  0.8866
 8396SOL     OW36646   4.137   1.547   7.661  0.0604 -0.6599 -0.7323
 8396SOL    HW136647   4.069   1.583   7.719  0.5640  1.8032 -1.6788
 8396SOL    HW236648   4.108   1.457   7.648 -0.7379 -0.6752  1.1614
 8397SOL     OW36649   3.172   1.482   5.290  0.5679 -0.3765  0.0975
 8397SOL    HW136650   3.144   1.426   5.218 -1.3942  1.4291 -0.5296
 8397SOL    HW236651   3.088   1.527   5.292  1.5444  1.4629 -0.4324
 8398SOL     OW36652   4.554   2.532   1.090 -0.2467  0.4062  0.1369
 8398SOL    HW136653   4.610   2.544   1.014  1.2467 -0.2462  1.1353
 8398SOL    HW236654   4.468   2.507   1.055  0.1365 -1.1109  0.2822
 8399SOL     OW36655   3.677   3.332   2.465 -0.2275  0.6653  0.6537
 8399SOL    HW136656   3.745   3.363   2.525 -0.6651  0.2668  1.3563
 8399SOL    HW236657   3.707   3.372   2.383 -1.5072  0.9564  0.3181
 8400SOL     OW36658   4.225   1.548   6.812 -0.5000 -0.1155  0.8554
 8400SOL    HW136659   4.220   1.579   6.722 -1.3287  1.9527  1.5942
 8400SOL    HW236660   4.319   1.534   6.825 -0.9350 -2.8703  0.8888
 8401SOL     OW36661   3.428   3.755   8.968 -0.0478 -0.2855 -0.7385
 8401SOL    HW136662   3.440   3.734   8.875  0.2880 -0.8244 -0.5778
 8401SOL    HW236663   3.490   3.828   8.976  0.7137 -0.9943 -0.1115
 8402SOL     OW36664   1.999   4.690   8.404  0.1564  0.0841  0.1149
 8402SOL    HW136665   1.931   4.715   8.466 -1.7847 -1.6729 -1.3033
 8402SOL    HW236666   2.050   4.633   8.462 -3.0363 -2.4072  0.4734
 8403SOL     OW36667   4.050   0.902  15.756 -0.3996 -0.2451  0.2380
 8403SOL    HW136668   4.075   0.842  15.685 -2.1856 -0.6432 -0.0432
 8403SOL    HW236669   4.033   0.983  15.707 -0.6270 -1.3366 -1.4893
 8404SOL     OW36670   1.408   0.434   2.912 -0.1190 -0.4380 -0.2436
 8404SOL    HW136671   1.389   0.489   2.836  0.2310  0.4269  0.2989
 8404SOL    HW236672   1.427   0.497   2.982  1.9595  0.0423 -1.2474
 8405SOL     OW36673   2.909   2.361   6.881 -0.3098  0.1938  0.8560
 8405SOL    HW136674   2.843   2.422   6.912  0.7460  2.7655 -2.0055
 8405SOL    HW236675   2.864   2.278   6.899  0.8107 -0.3850  1.0574
 8406SOL     OW36676   2.593   3.772   3.096  0.2984  0.5453  0.4634
 8406SOL    HW136677   2.529   3.714   3.056 -1.5026  1.7430  1.6057
 8406SOL    HW236678   2.605   3.716   3.173  2.5086 -0.3890 -0.5346
 8407SOL     OW36679   3.219   1.641   5.893  0.0086 -0.2154 -0.9165
 8407SOL    HW136680   3.246   1.726   5.858 -2.6547  1.2438  0.6803
 8407SOL    HW236681   3.308   1.610   5.911  1.0670  1.8399 -2.5787
 8408SOL     OW36682   3.117   4.551   4.429 -0.2148  0.4146 -0.5062
 8408SOL    HW136683   3.110   4.573   4.522 -0.0047  1.3394 -0.7132
 8408SOL    HW236684   3.105   4.636   4.388 -1.7893  1.4203  2.0377
 8409SOL     OW36685   2.109   1.903  16.923  0.5131 -0.7758  0.3158
 8409SOL    HW136686   2.066   1.878  17.005  0.1394 -0.0369  0.3478
 8409SOL    HW236687   2.046   1.970  16.899 -0.4850 -1.0682  2.1069
 8410SOL     OW36688   2.668   4.059   8.694 -0.6846 -0.2890  0.2563
 8410SOL    HW136689   2.741   4.048   8.754 -2.0081 -0.0319  1.9156
 8410SOL    HW236690   2.687   4.138   8.644 -1.3229  0.6529  1.5297
 8411SOL     OW36691   4.476   0.856   2.293  0.2224  0.0013  0.4558
 8411SOL    HW136692   4.474   0.918   2.220 -0.6011  1.6550  1.8911
 8411SOL    HW236693   4.396   0.807   2.276 -0.8718  1.9038  0.0799
 8412SOL     OW36694   1.329   2.037   2.151  0.4172 -0.1424 -0.2566
 8412SOL    HW136695   1.391   2.044   2.078  1.5259  1.5292  0.8369
 8412SOL    HW236696   1.267   1.971   2.119 -1.4116  2.1280 -1.4038
 8413SOL     OW36697   4.099   2.479   7.994  0.0109 -0.0676  0.1771
 8413SOL    HW136698   4.042   2.556   8.000  0.0942  0.1691 -2.0441
 8413SOL    HW236699   4.140   2.484   8.080  3.9429  1.5207 -1.7519
 8414SOL     OW36700   4.230   0.393  12.398 -0.3324 -0.2167 -0.4110
 8414SOL    HW136701   4.307   0.424  12.351  0.1925  3.1330  2.6414
 8414SOL    HW236702   4.216   0.317  12.341  0.6686 -0.8740  0.2378
 8415SOL     OW36703   2.444   2.582   6.261 -0.1615 -0.4162 -0.8137
 8415SOL    HW136704   2.466   2.665   6.303  0.3560 -0.5838 -0.7620
 8415SOL    HW236705   2.462   2.601   6.169  0.8136  0.4449 -0.4444
 8416SOL     OW36706   1.212   3.368   9.713  0.3094 -0.0790  0.2943
 8416SOL    HW136707   1.215   3.430   9.786 -1.6000  0.2280  0.1073
 8416SOL    HW236708   1.307   3.361   9.699  0.1156 -0.2203 -0.9614
 8417SOL     OW36709   4.200   3.700   9.256 -0.1241 -0.3737  0.0164
 8417SOL    HW136710   4.106   3.691   9.238  0.1073  0.1925 -1.5460
 8417SOL    HW236711   4.200   3.661   9.343  0.0594  0.8352  0.5565
 8418SOL     OW36712   2.724   1.965  13.264 -0.2641  0.5448 -0.2882
 8418SOL    HW136713   2.753   1.962  13.173  0.2506 -0.4286 -0.0934
 8418SOL    HW236714   2.784   2.035  13.289  2.2072 -1.1048 -1.5854
 8419SOL     OW36715   3.037   4.558  10.731  0.2712 -0.0598 -0.2436
 8419SOL    HW136716   3.033   4.596  10.644 -3.0150  2.2580  0.9259
 8419SOL    HW236717   3.118   4.509  10.748 -0.0293 -0.8680 -1.1071
 8420SOL     OW36718   2.837   3.237   4.219 -0.3017 -0.4376  0.3752
 8420SOL    HW136719   2.815   3.245   4.311  1.1364  0.9210  0.6118
 8420SOL    HW236720   2.769   3.177   4.187  0.8589 -1.6404  0.1433
 8421SOL     OW36721   3.054   4.415   7.709  0.3581 -0.5162  0.4319
 8421SOL    HW136722   3.096   4.411   7.623  3.2800 -1.0002  1.8846
 8421SOL    HW236723   2.990   4.486   7.697  0.9063 -0.1495 -0.3532
 8422SOL     OW36724   4.343   0.231  13.218 -0.1608 -1.3659 -0.7918
 8422SOL    HW136725   4.424   0.211  13.172  0.4803  0.1869 -0.3218
 8422SOL    HW236726   4.349   0.168  13.290 -1.9944 -0.1567  0.4387
 8423SOL     OW36727   3.372   2.118   8.076  0.0985  0.0055  0.2138
 8423SOL    HW136728   3.443   2.156   8.024  1.1739 -0.9946  0.9522
 8423SOL    HW236729   3.399   2.026   8.077 -1.6481 -0.5262 -0.6411
 8424SOL     OW36730   2.275   2.204  13.968 -0.1151 -0.0004 -0.2337
 8424SOL    HW136731   2.366   2.176  13.954 -0.0276  0.1664  0.0071
 8424SOL    HW236732   2.239   2.116  13.981  2.1483 -0.9978 -0.5669
 8425SOL     OW36733   1.808   0.521   6.212 -0.0422 -0.3432  0.2998
 8425SOL    HW136734   1.750   0.457   6.254 -0.6114 -0.7518 -1.0867
 8425SOL    HW236735   1.873   0.537   6.280 -0.0389 -0.7960  0.4037
 8426SOL     OW36736   2.891   1.269   3.768  0.4720  0.1718  0.2143
 8426SOL    HW136737   2.890   1.284   3.862  0.3425  1.4200  0.0159
 8426SOL    HW236738   2.927   1.181   3.772  0.6352  0.2007 -0.5375
 8427SOL     OW36739   3.401   1.273   1.522  0.4499  0.2003  0.3933
 8427SOL    HW136740   3.352   1.267   1.604 -0.7581 -2.1433 -0.5080
 8427SOL    HW236741   3.483   1.283   1.571 -0.3386 -1.0385  1.9422
 8428SOL     OW36742   2.126   3.543  11.227 -0.1019  0.0251 -0.0368
 8428SOL    HW136743   2.045   3.552  11.177  0.2669  0.1746 -0.6079
 8428SOL    HW236744   2.187   3.513  11.159  1.2287  0.7677  0.8221
 8429SOL     OW36745   3.177   2.269   3.610  0.1995  0.0225  0.0785
 8429SOL    HW136746   3.156   2.361   3.593  0.5234  0.3938  1.6913
 8429SOL    HW236747   3.171   2.238   3.520 -0.2528 -0.8375  0.4048
 8430SOL     OW36748   3.301   0.673   2.477 -0.1404 -0.1553  0.1866
 8430SOL    HW136749   3.314   0.621   2.398 -2.0475  0.7587 -0.7265
 8430SOL    HW236750   3.206   0.682   2.480  0.0950  2.5839 -0.4185
 8431SOL     OW36751   2.914   3.501   6.654  0.7026  0.4511 -0.0377
 8431SOL    HW136752   2.955   3.414   6.652 -2.3084 -0.9685 -0.4583
 8431SOL    HW236753   2.992   3.544   6.620 -0.3663  1.3700 -1.3208
 8432SOL     OW36754   2.588   0.646   3.099 -0.1375  0.3392 -0.3561
 8432SOL    HW136755   2.629   0.573   3.146 -0.0907 -0.6423 -1.9263
 8432SOL    HW236756   2.576   0.599   3.017  1.2466  0.8140 -0.8314
 8433SOL     OW36757   3.615   2.738   2.841 -0.3561  0.2809 -0.2713
 8433SOL    HW136758   3.559   2.727   2.918  0.1220  1.5678  0.2589
 8433SOL    HW236759   3.675   2.665   2.857 -0.5015  0.6784  2.1072
 8434SOL     OW36760   3.857   1.437   9.448 -0.0357 -0.0778 -0.1921
 8434SOL    HW136761   3.862   1.505   9.515 -0.6438 -1.5400  1.3346
 8434SOL    HW236762   3.763   1.418   9.451  0.2824 -1.9602 -2.4172
 8435SOL     OW36763   4.609   0.696  12.297  0.5471  0.3268 -0.6937
 8435SOL    HW136764   4.692   0.712  12.342  0.0296 -0.5551  0.5629
 8435SOL    HW236765   4.633   0.694  12.204  0.9968 -5.4203 -0.4696
 8436SOL     OW36766   2.653   2.148  15.248 -0.3429 -1.0265 -0.3224
 8436SOL    HW136767   2.650   2.055  15.225  1.1247 -1.4341  1.1076
 8436SOL    HW236768   2.564   2.176  15.229 -0.1129 -0.6478 -0.8755
 8437SOL     OW36769   2.578   3.970   2.427 -0.1176  0.1175  0.3479
 8437SOL    HW136770   2.653   4.024   2.452  0.7431 -0.7826 -0.3305
 8437SOL    HW236771   2.535   4.039   2.376  2.7414  2.0399  0.5543
 8438SOL     OW36772   2.415   2.605   4.116  0.8186  0.0801  0.5462
 8438SOL    HW136773   2.364   2.556   4.051  3.7561  0.3101 -1.8897
 8438SOL    HW236774   2.420   2.691   4.075 -1.5250  0.5104  1.1537
 8439SOL     OW36775   3.125   0.061   3.017 -0.2761  0.1480  0.2121
 8439SOL    HW136776   3.113   0.000   2.944  4.3158 -0.3785 -0.1109
 8439SOL    HW236777   3.196   0.113   2.980 -0.7343 -0.8010 -2.0194
 8440SOL     OW36778   1.984   3.009  12.397  0.1084 -0.6152  0.0139
 8440SOL    HW136779   2.045   2.969  12.459  0.0547  0.2191  0.6000
 8440SOL    HW236780   2.047   3.006  12.325 -1.3987 -0.2648 -1.3212
 8441SOL     OW36781   3.733   4.449   2.144 -0.0305 -0.3294  0.2068
 8441SOL    HW136782   3.730   4.393   2.066  1.0483 -0.4561  0.2560
 8441SOL    HW236783   3.826   4.472   2.138 -0.1202 -0.0292 -0.0334
 8442SOL     OW36784   0.256   3.776  12.317 -0.0003  0.2143  0.2918
 8442SOL    HW136785   0.266   3.681  12.309  1.8827  0.6097 -2.3400
 8442SOL    HW236786   0.329   3.800  12.374 -0.5703 -0.2142  1.1939
 8443SOL     OW36787   4.228   1.012  15.251  0.1787 -0.0254 -0.5726
 8443SOL    HW136788   4.321   0.989  15.247 -0.0259 -0.9949  0.3749
 8443SOL    HW236789   4.229   1.102  15.218 -0.9628  0.1252 -0.1796
 8444SOL     OW36790   1.310   1.502  15.023  0.4526  0.1937  0.0920
 8444SOL    HW136791   1.224   1.499  15.065 -0.1606  0.0344 -1.1820
 8444SOL    HW236792   1.290   1.495  14.930  3.3631  2.1965 -0.7025
 8445SOL     OW36793   3.284   2.842   9.972  0.2463 -0.3840 -0.1465
 8445SOL    HW136794   3.275   2.747   9.969  1.9974 -0.5477 -0.5216
 8445SOL    HW236795   3.247   2.879  10.051 -2.0770 -2.8913 -0.0690
 8446SOL     OW36796   2.365   4.266  13.270  0.0895 -0.5955 -0.7037
 8446SOL    HW136797   2.322   4.295  13.189  0.2312 -0.8326 -0.8647
 8446SOL    HW236798   2.414   4.346  13.291 -0.7861  0.5515 -2.8981
 8447SOL     OW36799   3.582   3.764   0.575 -0.6294 -0.0330 -0.1990
 8447SOL    HW136800   3.611   3.680   0.612 -0.0933  0.1449 -0.2177
 8447SOL    HW236801   3.663   3.801   0.609 -0.9372  2.3228 -2.0199
 8448SOL     OW36802   3.250   1.777   7.652  0.2434  0.5016 -0.0953
 8448SOL    HW136803   3.319   1.844   7.647  0.5636  0.3307  1.8752
 8448SOL    HW236804   3.245   1.742   7.564  1.4011  0.4604 -0.1493
 8449SOL     OW36805   0.881   0.844  16.157  0.5034  0.4474 -0.5582
 8449SOL    HW136806   0.886   0.931  16.117 -1.4944  0.3428 -1.0172
 8449SOL    HW236807   0.833   0.851  16.239  0.7781  0.2001 -0.3763
 8450SOL     OW36808   0.346   3.854   6.339 -0.1260 -0.3381  0.5127
 8450SOL    HW136809   0.366   3.776   6.391  0.4784  1.5566  3.0534
 8450SOL    HW236810   0.265   3.828   6.294 -1.4390  2.5537  1.2373
 8451SOL     OW36811   0.846   3.852   2.397  0.0376 -0.5697 -0.3991
 8451SOL    HW136812   0.860   3.870   2.304  0.9259  0.5795 -0.0471
 8451SOL    HW236813   0.788   3.776   2.387 -0.3253 -0.0456 -2.2708
 8452SOL     OW36814   2.150   1.611   9.442  0.3758  0.5454  0.3560
 8452SOL    HW136815   2.229   1.640   9.487  1.6398  1.8113 -2.6342
 8452SOL    HW236816   2.085   1.648   9.501  0.3506  2.3138 -0.7625
 8453SOL     OW36817   4.719   2.686   3.453 -0.4388 -0.6215  0.2114
 8453SOL    HW136818   0.022   2.768   3.412  0.9683 -0.8595  0.6361
 8453SOL    HW236819   4.624   2.686   3.444 -0.2293  1.8846 -1.9711
 8454SOL     OW36820   2.519   3.888   9.055 -0.0131 -0.1095 -0.3743
 8454SOL    HW136821   2.514   3.855   8.965  2.0275 -2.2746  0.2730
 8454SOL    HW236822   2.565   3.818   9.102  2.5605  0.2138 -2.3959
 8455SOL     OW36823   2.174   4.085   5.758 -0.2631 -0.0652 -0.0084
 8455SOL    HW136824   2.104   4.071   5.822  0.3848 -1.6396  0.3567
 8455SOL    HW236825   2.129   4.133   5.689  2.2017  1.8881 -0.2548
 8456SOL     OW36826   1.650   0.312  15.992  0.5334 -0.0553 -0.0718
 8456SOL    HW136827   1.595   0.238  16.018 -1.8100  1.8644  0.4593
 8456SOL    HW236828   1.647   0.322  15.897 -1.6624  1.5967  0.1671
 8457SOL     OW36829   0.220   0.038   0.127 -0.2864 -0.1971 -0.0126
 8457SOL    HW136830   0.228   4.679   0.174  1.4674  1.3233  2.3190
 8457SOL    HW236831   0.189   0.011   0.040 -1.2300  3.0998 -0.7008
 8458SOL     OW36832   3.956   1.443   6.471 -0.2285 -0.2468 -0.7491
 8458SOL    HW136833   3.934   1.354   6.443  0.9381 -0.9701  0.6435
 8458SOL    HW236834   3.939   1.487   6.388 -0.6915  1.3991  0.2149
 8459SOL     OW36835   0.757   2.553  10.536 -0.1411  0.2336 -0.2595
 8459SOL    HW136836   0.662   2.539  10.536 -0.3731  1.8422  3.2975
 8459SOL    HW236837   0.788   2.498  10.464  1.9143  1.5264 -0.3640
 8460SOL     OW36838   4.607   2.655   9.286  0.1169  0.1110 -0.0437
 8460SOL    HW136839   4.607   2.745   9.252  0.4976 -0.0817 -0.5505
 8460SOL    HW236840   4.678   2.624   9.230 -1.0201 -0.7102 -1.0280
 8461SOL     OW36841   4.519   3.283  12.281 -0.2598  0.2392 -0.0723
 8461SOL    HW136842   4.536   3.205  12.228  0.3753  0.8136 -0.7058
 8461SOL    HW236843   4.543   3.363  12.235 -3.4660  0.1321 -1.9427
 8462SOL     OW36844   2.801   2.426   3.661  0.7015 -0.0563  0.1651
 8462SOL    HW136845   2.812   2.349   3.717  0.4315  0.5091  1.0050
 8462SOL    HW236846   2.858   2.491   3.703  0.2352  0.7812 -0.4941
 8463SOL     OW36847   0.499   1.040  17.422  0.4484 -0.1701  0.3359
 8463SOL    HW136848   0.474   1.119  17.471 -0.4045  0.9484 -1.9085
 8463SOL    HW236849   0.433   0.983  17.463  0.0186 -0.3291 -0.5853
 8464SOL     OW36850   0.820   3.436  12.468 -0.3226 -0.3218 -0.0097
 8464SOL    HW136851   0.883   3.495  12.426 -0.0520  0.1786  1.0920
 8464SOL    HW236852   0.869   3.354  12.472  1.3233  0.7301  1.4902
 8465SOL     OW36853   1.897   1.558   7.849 -0.2296  0.5814 -0.2273
 8465SOL    HW136854   1.823   1.519   7.897  0.1099 -0.7518 -0.7806
 8465SOL    HW236855   1.951   1.480   7.836 -2.7331 -1.0026 -1.2955
 8466SOL     OW36856   1.722   3.663   7.256  0.1844  0.4817  0.1314
 8466SOL    HW136857   1.651   3.709   7.302 -1.7539 -0.2743 -2.0837
 8466SOL    HW236858   1.695   3.571   7.262  2.4995 -0.1205  1.0411
 8467SOL     OW36859   3.557   2.859  12.042 -0.2125  0.1024 -0.1875
 8467SOL    HW136860   3.484   2.808  12.007  0.0105  0.0210 -0.5323
 8467SOL    HW236861   3.527   2.864  12.133  1.3668  2.6333  0.2066
 8468SOL     OW36862   2.590   2.357  11.680  0.5161  0.4060 -0.2871
 8468SOL    HW136863   2.518   2.385  11.737  1.2321  0.2885  0.6660
 8468SOL    HW236864   2.566   2.417  11.610 -0.7203  2.0865  1.5686
 8469SOL     OW36865   0.878   1.663   7.674  0.0316 -0.9385  0.1530
 8469SOL    HW136866   0.923   1.726   7.617 -0.5640 -1.1804 -0.5866
 8469SOL    HW236867   0.926   1.668   7.757  0.6971  2.1756 -0.4260
 8470SOL     OW36868   4.582   0.353   6.207  0.2987 -0.1893  0.9323
 8470SOL    HW136869   4.521   0.289   6.244  0.5378 -0.0824  1.5228
 8470SOL    HW236870   4.585   0.433   6.260 -1.9238  1.1429 -0.9485
 8471SOL     OW36871   3.921   4.309   2.743 -0.4128  0.4587  0.2574
 8471SOL    HW136872   3.852   4.298   2.677  0.3846  2.5301 -0.9241
 8471SOL    HW236873   3.893   4.254   2.817 -0.9448  0.1021 -0.2046
 8472SOL     OW36874   0.846   2.978   6.117  0.0227 -0.5622 -0.1056
 8472SOL    HW136875   0.758   3.008   6.142  1.0935  1.6982  0.9552
 8472SOL    HW236876   0.837   2.982   6.021  1.2810 -0.5723 -0.2207
 8473SOL     OW36877   4.301   4.027   4.766  0.0783  0.3088 -0.0005
 8473SOL    HW136878   4.254   3.970   4.828  1.6008  0.0103  0.8993
 8473SOL    HW236879   4.357   4.076   4.826 -1.0584 -0.2998  1.5592
 8474SOL     OW36880   4.380   2.115  13.451 -0.3730 -0.3538 -0.1409
 8474SOL    HW136881   4.465   2.144  13.485 -0.7095 -1.3244  1.5185
 8474SOL    HW236882   4.332   2.196  13.438  0.7766  0.2477 -0.6297
 8475SOL     OW36883   0.106   4.313   5.397 -0.4691  0.0756 -0.8944
 8475SOL    HW136884   0.171   4.375   5.430  0.3553 -0.4204 -1.5811
 8475SOL    HW236885   0.030   4.363   5.429  0.0031  0.1091  0.1539
 8476SOL     OW36886   4.221   1.782   8.157  0.2765  0.2955  0.0290
 8476SOL    HW136887   4.158   1.736   8.212 -1.0372  1.6080 -0.4032
 8476SOL    HW236888   4.284   1.828   8.213 -0.6335  0.7492  0.6654
 8477SOL     OW36889   3.186   2.547   3.595  0.0847  0.0025 -0.2752
 8477SOL    HW136890   3.139   2.593   3.664  2.6781  1.2678  0.6395
 8477SOL    HW236891   3.213   2.625   3.546  1.3375  0.1168  0.5915
 8478SOL     OW36892   3.602   1.609  12.849  0.0377 -0.0802  0.2072
 8478SOL    HW136893   3.638   1.692  12.820  0.2302 -0.9059 -1.8853
 8478SOL    HW236894   3.536   1.587  12.783  1.2217  0.0144 -1.0121
 8479SOL     OW36895   4.105   0.683  15.555 -0.0261 -0.2008  0.3207
 8479SOL    HW136896   4.045   0.646  15.491 -2.3054  1.3732  1.5696
 8479SOL    HW236897   4.176   0.620  15.544 -2.5496 -3.2863  1.6731
 8480SOL     OW36898   0.599   1.442   2.547 -0.0751  0.8831 -0.0711
 8480SOL    HW136899   0.671   1.379   2.547  0.3835  1.4156 -0.4769
 8480SOL    HW236900   0.540   1.392   2.603 -1.3615  0.9950 -1.3193
 8481SOL     OW36901   3.432   3.418   3.062 -0.4319 -0.1859 -0.1634
 8481SOL    HW136902   3.435   3.370   2.979 -0.0552  0.3343 -0.4502
 8481SOL    HW236903   3.507   3.477   3.053 -0.2328 -0.6948 -1.7980
 8482SOL     OW36904   1.658   0.612   1.209  0.1948  0.9102 -0.4984
 8482SOL    HW136905   1.606   0.672   1.156 -1.3093  0.0110 -0.0293
 8482SOL    HW236906   1.741   0.622   1.163  0.6702 -2.2704 -0.3369
 8483SOL     OW36907   1.653   2.322   6.380 -0.3179 -0.4047 -0.7493
 8483SOL    HW136908   1.597   2.380   6.432 -1.6209 -1.6911 -0.7151
 8483SOL    HW236909   1.643   2.371   6.298  0.1875 -1.7524 -1.6195
 8484SOL     OW36910   1.653   2.774   6.951  0.3423  0.3133  0.0598
 8484SOL    HW136911   1.661   2.694   6.900 -0.2628 -0.3762  1.0528
 8484SOL    HW236912   1.636   2.843   6.887  0.6767 -1.3117 -1.7997
 8485SOL     OW36913   1.060   3.142   4.436  0.1156  0.0140  0.1992
 8485SOL    HW136914   1.056   3.046   4.444  1.8124 -0.2273 -1.6817
 8485SOL    HW236915   0.998   3.171   4.502  0.2262  2.5079 -0.7930
 8486SOL     OW36916   4.062   4.601   1.337  0.9648  0.7055 -0.3324
 8486SOL    HW136917   4.156   4.597   1.358  0.6891  0.5326  0.8774
 8486SOL    HW236918   4.028   4.558   1.416 -1.5589  1.0948 -1.2309
 8487SOL     OW36919   1.592   4.445   4.118 -0.6871  0.1220 -0.0803
 8487SOL    HW136920   1.682   4.476   4.131 -0.3758 -0.6378 -0.4644
 8487SOL    HW236921   1.580   4.395   4.199 -0.9051 -1.6947 -1.2324
 8488SOL     OW36922   1.172   2.553  10.596 -0.0291 -0.0456 -1.1109
 8488SOL    HW136923   1.173   2.636  10.549  0.3142  1.1515  1.0363
 8488SOL    HW236924   1.099   2.563  10.656  0.1775  0.5774 -0.9698
 8489SOL     OW36925   1.759   0.902  13.481  0.4013 -0.0927 -0.4652
 8489SOL    HW136926   1.791   0.992  13.470  0.5821 -0.0621  0.3249
 8489SOL    HW236927   1.827   0.877  13.544  2.3001  0.9244 -2.0977
 8490SOL     OW36928   0.694   3.016   0.479 -0.1051  0.0907 -0.1600
 8490SOL    HW136929   0.756   2.948   0.507 -2.4907 -1.1892  2.0676
 8490SOL    HW236930   0.738   3.056   0.405 -1.0774  2.0196  0.3198
 8491SOL     OW36931   0.756   4.228   3.795  0.2081  0.1073 -0.0792
 8491SOL    HW136932   0.671   4.188   3.814 -0.0736  0.0122 -1.5084
 8491SOL    HW236933   0.739   4.254   3.705 -1.1188 -1.2767 -0.2313
 8492SOL     OW36934   4.611   3.369   5.663  0.4292 -0.2363  0.4058
 8492SOL    HW136935   4.573   3.285   5.638  0.5638 -0.4629  0.9439
 8492SOL    HW236936   4.544   3.381   5.730  1.0054 -0.1159  0.9643
 8493SOL     OW36937   1.556   1.395   2.551  0.3177 -0.4205  0.1867
 8493SOL    HW136938   1.567   1.456   2.478  1.7137 -1.4249 -0.4461
 8493SOL    HW236939   1.496   1.326   2.521  0.1069 -0.7990  1.4860
 8494SOL     OW36940   1.432   4.241   7.941 -0.6088 -0.7088 -0.5929
 8494SOL    HW136941   1.436   4.151   7.973 -0.9230  0.2959  2.1928
 8494SOL    HW236942   1.525   4.247   7.918 -0.2108  0.2110  1.3013
 8495SOL     OW36943   1.791   2.938  11.797  0.1854  0.4203 -0.3215
 8495SOL    HW136944   1.745   2.942  11.713  1.3096 -0.2442 -0.9710
 8495SOL    HW236945   1.764   2.849  11.817 -0.2453  0.5327 -0.3997
 8496SOL     OW36946   4.286   4.059  17.621 -0.1894 -0.2389  0.4393
 8496SOL    HW136947   4.249   4.017  17.543 -0.8140  2.2036 -0.5733
 8496SOL    HW236948   4.352   3.989  17.622 -1.9656 -1.9231 -0.2736
 8497SOL     OW36949   1.243   2.307   5.420 -0.4698  0.5128 -0.3668
 8497SOL    HW136950   1.281   2.221   5.440 -0.6669  0.5881  0.3283
 8497SOL    HW236951   1.317   2.366   5.433 -0.1753 -0.0087  0.3505
 8498SOL     OW36952   2.989   3.004  13.930 -0.2230  0.3795  0.4990
 8498SOL    HW136953   3.045   3.007  13.852 -1.7983  2.7782 -0.5575
 8498SOL    HW236954   2.921   2.947  13.895  1.1740 -0.4875 -0.8473
 8499SOL     OW36955   4.246   4.500   9.641 -1.0901 -0.2740 -0.1124
 8499SOL    HW136956   4.312   4.481   9.708 -1.3066 -0.4050  0.0653
 8499SOL    HW236957   4.184   4.430   9.665 -0.0570 -0.2335  2.7022
 8500SOL     OW36958   4.159   2.536   2.846  0.2122  0.0150 -0.5621
 8500SOL    HW136959   4.111   2.615   2.823 -0.4092  0.3005  1.8103
 8500SOL    HW236960   4.152   2.542   2.941  3.1503  1.9879 -0.4690
 8501SOL     OW36961   1.692   4.223   7.930  0.5768  0.0941  0.6471
 8501SOL    HW136962   1.750   4.271   7.871 -2.7857  3.1118 -0.2157
 8501SOL    HW236963   1.750   4.160   7.972  1.5456 -0.4020 -1.4657
 8502SOL     OW36964   2.808   2.136   9.624  0.3135  0.4794  0.2546
 8502SOL    HW136965   2.820   2.175   9.538 -1.0584  0.1164 -0.1057
 8502SOL    HW236966   2.828   2.046   9.601 -0.9456  0.6119 -1.3523
 8503SOL     OW36967   3.716   0.081   6.154 -0.9081 -0.0854  0.0243
 8503SOL    HW136968   3.783   0.072   6.086  0.3953  0.7825  1.1953
 8503SOL    HW236969   3.656   0.010   6.133 -0.9764 -0.3268  1.0440
 8504SOL     OW36970   3.540   2.830   5.670 -0.0852 -0.2384 -0.1876
 8504SOL    HW136971   3.513   2.740   5.654  0.1630 -0.1656 -1.0325
 8504SOL    HW236972   3.562   2.812   5.761  2.5650 -1.2290 -1.0358
 8505SOL     OW36973   0.667   0.185  16.141  0.0609  0.5972 -0.0871
 8505SOL    HW136974   0.601   0.136  16.190  1.8328  0.9739  2.6554
 8505SOL    HW236975   0.725   0.205  16.214 -1.5586  1.0785  1.0557
 8506SOL     OW36976   1.545   1.050  15.536  0.3080 -0.0682  0.0017
 8506SOL    HW136977   1.458   1.026  15.569  0.1598  1.3934  0.6519
 8506SOL    HW236978   1.594   1.081  15.612 -1.5289  1.4589  0.5439
 8507SOL     OW36979   4.543   4.624   2.369 -0.1905 -0.1018 -0.1207
 8507SOL    HW136980   4.609   4.669   2.316  0.7663 -0.5776  0.6646
 8507SOL    HW236981   4.572   4.632   2.460  0.3338 -0.9858 -0.2177
 8508SOL     OW36982   3.401   4.421  15.409 -0.1676  0.1068 -0.1231
 8508SOL    HW136983   3.371   4.456  15.493  0.8731 -0.2310  0.3984
 8508SOL    HW236984   3.380   4.489  15.346  1.3887  0.2856 -0.4491
 8509SOL     OW36985   1.933   2.233   7.220  0.3575 -0.0862 -0.4341
 8509SOL    HW136986   1.974   2.202   7.300 -1.7595 -2.5499 -0.2842
 8509SOL    HW236987   2.002   2.224   7.154  0.6890 -1.4430  0.1045
 8510SOL     OW36988   1.526   2.025   1.964 -0.8101  0.2848  0.5068
 8510SOL    HW136989   1.621   2.038   1.969 -0.7617  0.1500  0.0214
 8510SOL    HW236990   1.496   2.105   1.921  0.7901  1.3186  1.3354
 8511SOL     OW36991   3.192   3.790   3.601  0.1722  0.4193  0.2553
 8511SOL    HW136992   3.211   3.696   3.602  0.9528  0.5871  0.9537
 8511SOL    HW236993   3.101   3.791   3.630  0.0971  0.5307  0.0117
 8512SOL     OW36994   0.626   3.089   5.877  0.2942 -0.4341  0.0134
 8512SOL    HW136995   0.696   3.141   5.917 -1.3745  0.2363  2.0297
 8512SOL    HW236996   0.676   3.008   5.866  1.8332  0.8983 -2.9005
 8513SOL     OW36997   1.690   1.887   7.682  0.4575  0.1897  0.5804
 8513SOL    HW136998   1.701   1.804   7.636 -0.7158 -0.5973  1.7148
 8513SOL    HW236999   1.624   1.865   7.748 -0.6867  0.5461 -0.4345
 8514SOL     OW37000   0.104   1.123  13.774  0.1841 -0.4208  0.0198
 8514SOL    HW137001   0.031   1.076  13.815 -0.6471  1.2033  0.4470
 8514SOL    HW237002   0.123   1.061  13.704 -0.6660 -1.5801  0.8162
 8515SOL     OW37003   4.403   3.095   6.926  0.4676  0.4148 -0.1267
 8515SOL    HW137004   4.488   3.053   6.913  0.3702  0.5151 -1.0952
 8515SOL    HW237005   4.376   3.116   6.837  0.7284  1.8968  0.1463
 8516SOL     OW37006   1.427   0.781   2.452  0.0373 -0.2690 -0.4255
 8516SOL    HW137007   1.350   0.838   2.457  0.2917 -0.0507  1.1293
 8516SOL    HW237008   1.490   0.838   2.409  1.8211 -3.3091 -1.8237
 8517SOL     OW37009   3.178   0.183   7.755  0.1169 -0.3073 -0.2779
 8517SOL    HW137010   3.247   0.207   7.692  3.0271 -0.6011  2.8125
 8517SOL    HW237011   3.236   0.134   7.814  0.3723 -1.1979 -1.2549
 8518SOL     OW37012   3.789   0.559  17.071 -0.3490 -0.1571 -0.6451
 8518SOL    HW137013   3.791   0.651  17.043  1.7835 -0.5637 -1.8594
 8518SOL    HW237014   3.862   0.524  17.021  0.5588 -0.7314  1.0959
 8519SOL     OW37015   1.029   2.319   7.831 -0.1720 -0.0382  0.2042
 8519SOL    HW137016   0.994   2.239   7.793 -1.2754 -0.8401  2.8962
 8519SOL    HW237017   1.070   2.279   7.907  1.6803  1.4386 -0.0060
 8520SOL     OW37018   2.948   1.937  16.756  0.5680  0.1471 -0.2082
 8520SOL    HW137019   2.957   1.918  16.850 -0.2009  1.4674  0.1316
 8520SOL    HW237020   2.955   2.033  16.757  0.2757  0.1642  0.0389
 8521SOL     OW37021   2.596   3.142  13.575  0.2855  0.0218 -0.0506
 8521SOL    HW137022   2.539   3.067  13.562 -1.7550  1.7078 -0.8153
 8521SOL    HW237023   2.640   3.113  13.654  0.7142 -0.9177 -0.6320
 8522SOL     OW37024   4.428   0.213   2.856  0.7244  0.3000  0.0902
 8522SOL    HW137025   4.388   0.220   2.769 -0.7764 -0.1221  0.7489
 8522SOL    HW237026   4.444   0.307   2.872  2.1583 -0.0791  0.9155
 8523SOL     OW37027   1.241   1.332   4.054 -0.7109 -0.4106 -0.3976
 8523SOL    HW137028   1.231   1.283   3.973 -0.3029  0.4690 -0.9844
 8523SOL    HW237029   1.311   1.286   4.101 -0.3304 -0.0679 -0.6252
 8524SOL     OW37030   3.467   0.241   7.629 -0.1908 -0.1821 -0.0487
 8524SOL    HW137031   3.454   0.306   7.698 -1.3922  0.6218 -1.0260
 8524SOL    HW237032   3.558   0.214   7.643 -0.7118 -2.3365 -0.8014
 8525SOL     OW37033   0.943   3.507  11.873  0.0293  0.4677 -0.0360
 8525SOL    HW137034   0.992   3.437  11.917 -0.3195  1.5333  2.0269
 8525SOL    HW237035   1.006   3.578  11.858  1.1925 -0.5372  0.0260
 8526SOL     OW37036   3.657   3.139  10.808  0.1237  0.3882 -0.3391
 8526SOL    HW137037   3.574   3.174  10.839 -0.3066 -0.2671 -0.7391
 8526SOL    HW237038   3.660   3.207  10.741  0.1789  0.4740 -0.2492
 8527SOL     OW37039   0.138   1.895   4.285  0.2798  0.4249  0.3923
 8527SOL    HW137040   0.086   1.968   4.251  1.5304  1.4803  0.7552
 8527SOL    HW237041   0.069   1.850   4.333 -0.2509  1.1714  0.3220
 8528SOL     OW37042   1.682   0.763   4.888  0.2956  0.6580  0.1054
 8528SOL    HW137043   1.628   0.826   4.839  1.7259  1.7130 -0.1215
 8528SOL    HW237044   1.630   0.683   4.883  1.4378 -0.1491  1.2038
 8529SOL     OW37045   3.321   0.918   8.378 -0.1866  0.3477  0.4682
 8529SOL    HW137046   3.269   0.838   8.392 -1.0365  0.7370 -0.4277
 8529SOL    HW237047   3.256   0.982   8.349  0.7119 -0.4838 -3.3906
 8530SOL     OW37048   3.006   1.653   4.679 -0.0040  0.1874 -0.7863
 8530SOL    HW137049   2.994   1.618   4.591 -1.5769 -1.6979  0.1602
 8530SOL    HW237050   3.033   1.576   4.729  0.4555 -0.3535 -1.8578
 8531SOL     OW37051   3.865   0.740   4.354  0.3452  0.1897  0.0056
 8531SOL    HW137052   3.833   0.829   4.338  0.8763  0.4346  0.3170
 8531SOL    HW237053   3.852   0.689   4.274 -1.0384 -1.9721  1.6144
 8532SOL     OW37054   1.472   0.134   0.256  0.1416  0.4255 -0.3181
 8532SOL    HW137055   1.525   0.214   0.256 -1.0076  1.2012  0.4761
 8532SOL    HW237056   1.384   0.172   0.249 -0.1641 -0.5135 -1.4701
 8533SOL     OW37057   2.970   0.957  16.345  0.2659 -0.2542 -0.2735
 8533SOL    HW137058   2.905   0.912  16.399 -0.7415 -0.5565 -1.7357
 8533SOL    HW237059   3.031   0.992  16.410  0.4053  1.3426 -1.2705
 8534SOL     OW37060   2.464   0.817   4.445 -0.1817 -0.2284 -0.7268
 8534SOL    HW137061   2.436   0.772   4.524  0.3917 -2.0475 -1.5613
 8534SOL    HW237062   2.431   0.907   4.452  1.2566  0.0902  1.6394
 8535SOL     OW37063   0.860   1.112   1.609 -0.0670 -0.5568  0.7953
 8535SOL    HW137064   0.934   1.173   1.598 -0.6499 -0.1974 -1.0774
 8535SOL    HW237065   0.886   1.091   1.699  0.6320  1.6896  1.1206
 8536SOL     OW37066   1.743   4.457   7.291  0.0094 -0.4760  0.3533
 8536SOL    HW137067   1.814   4.470   7.228  1.0581  3.9902  2.5101
 8536SOL    HW237068   1.778   4.510   7.363  1.0143 -0.9028  0.1862
 8537SOL     OW37069   0.357   2.110   3.949 -0.4733  0.4555  0.3884
 8537SOL    HW137070   0.409   2.079   3.875  2.1799  2.2608  1.4985
 8537SOL    HW237071   0.290   2.042   3.946  0.6899 -0.8075  2.8076
 8538SOL     OW37072   4.205   1.897   1.337 -0.3903 -0.8389  0.2240
 8538SOL    HW137073   4.243   1.834   1.275  1.5830  0.0864  0.4872
 8538SOL    HW237074   4.117   1.886   1.301 -0.5563 -2.8477  1.2585
 8539SOL     OW37075   2.147   1.834   2.461  0.1562  0.1701  0.5478
 8539SOL    HW137076   2.183   1.799   2.380  1.1209 -1.5203  1.6985
 8539SOL    HW237077   2.126   1.924   2.435  0.9543  0.1404 -0.1948
 8540SOL     OW37078   2.851   3.663   2.598 -0.6427 -0.0420  0.2823
 8540SOL    HW137079   2.834   3.604   2.671 -0.5916 -1.3245 -0.7595
 8540SOL    HW237080   2.924   3.712   2.636 -1.8865 -0.1989  2.8599
 8541SOL     OW37081   1.435   0.636   3.113  0.0693 -0.0707 -0.0984
 8541SOL    HW137082   1.400   0.710   3.064 -0.6090 -1.4816 -1.7153
 8541SOL    HW237083   1.517   0.677   3.143 -0.9230  0.2630  2.1242
 8542SOL     OW37084   0.752   2.535   8.340 -0.1071 -0.0250  0.2255
 8542SOL    HW137085   0.810   2.464   8.312  0.9269  0.9117  0.0019
 8542SOL    HW237086   0.803   2.574   8.411  0.7828 -3.4632  1.4989
 8543SOL     OW37087   3.265   4.272   7.225  0.1437 -0.1373  0.5096
 8543SOL    HW137088   3.226   4.200   7.174 -0.2406 -0.8722  1.8177
 8543SOL    HW237089   3.349   4.233   7.249  1.2534  0.6321 -2.2208
 8544SOL     OW37090   2.012   0.586   0.218 -0.9040 -0.3250  0.1627
 8544SOL    HW137091   2.028   0.496   0.249  0.5533 -0.0995  0.0760
 8544SOL    HW237092   1.986   0.636   0.296 -0.2596 -2.4998  1.7785
 8545SOL     OW37093   4.595   3.461   0.861 -0.0747  0.4431 -0.0782
 8545SOL    HW137094   4.635   3.540   0.899  0.6266  0.8073 -1.5893
 8545SOL    HW237095   4.664   3.439   0.799 -0.4828 -0.4498 -0.2066
 8546SOL     OW37096   3.847   0.073  12.125  0.0852  0.0846  0.1541
 8546SOL    HW137097   3.866   0.045  12.036  0.0678  2.8763 -0.7285
 8546SOL    HW237098   3.803   4.718  12.156  1.7211  0.2492  2.8794
 8547SOL     OW37099   3.516   4.301  16.430 -0.2289  0.5145 -0.3119
 8547SOL    HW137100   3.599   4.339  16.403 -1.7560  4.1196 -0.0097
 8547SOL    HW237101   3.495   4.366  16.498  0.9454  0.5978 -0.0310
 8548SOL     OW37102   4.527   1.901   0.157  0.1731 -0.4856  0.0106
 8548SOL    HW137103   4.563   1.821   0.197  0.3044 -1.2696 -1.6847
 8548SOL    HW237104   4.454   1.915   0.218  0.1130  1.2225 -0.4613
 8549SOL     OW37105   0.444   3.755   3.146 -0.5963 -0.6412  0.3918
 8549SOL    HW137106   0.540   3.751   3.151 -0.5881  0.3552  0.9918
 8549SOL    HW237107   0.435   3.750   3.051  2.0319 -0.5990  0.1414
 8550SOL     OW37108   4.637   1.699   0.273 -0.6396  0.4020  0.1902
 8550SOL    HW137109   4.578   1.643   0.322  0.1616 -0.0717  0.6198
 8550SOL    HW237110   4.718   1.646   0.276 -0.4704  0.6682  0.3014
 8551SOL     OW37111   3.353   3.963   4.879  0.3070  0.0648  0.0800
 8551SOL    HW137112   3.263   3.947   4.851  0.5647  0.8401 -1.1619
 8551SOL    HW237113   3.399   3.890   4.837 -1.2559 -0.4065 -0.7774
 8552SOL     OW37114   0.920   3.021   3.347  0.4561 -0.1231 -0.1396
 8552SOL    HW137115   0.937   2.972   3.267  1.4404 -0.7516  0.4402
 8552SOL    HW237116   0.948   3.109   3.322 -0.7300  0.6616  1.3025
 8553SOL     OW37117   3.670   0.248  16.167 -0.5591 -0.8592  0.0451
 8553SOL    HW137118   3.635   0.337  16.172  1.9052  0.0068  1.9512
 8553SOL    HW237119   3.742   0.249  16.103 -1.0922 -1.2287 -0.5563
 8554SOL     OW37120   0.779   2.068  11.178 -0.5588 -0.2357  0.1994
 8554SOL    HW137121   0.819   1.981  11.182  2.9680  1.2876 -2.1757
 8554SOL    HW237122   0.716   2.056  11.250 -0.1942 -3.2886  0.0031
 8555SOL     OW37123   3.604   3.535  11.277 -0.0105  0.1563 -0.6432
 8555SOL    HW137124   3.631   3.447  11.303  0.4412  0.1749 -1.0426
 8555SOL    HW237125   3.673   3.592  11.310  2.0158 -0.8715 -3.0991
 8556SOL     OW37126   4.439   2.394   8.614 -0.7512  0.1968  0.7198
 8556SOL    HW137127   4.356   2.440   8.598 -1.0549 -0.4897  0.3296
 8556SOL    HW237128   4.463   2.443   8.693 -0.3058 -0.1296  0.7868
 8557SOL     OW37129   1.336   1.457  10.495 -0.0754 -0.2919 -0.3375
 8557SOL    HW137130   1.281   1.440  10.572  1.5680 -1.6454  0.5379
 8557SOL    HW237131   1.324   1.374  10.448  0.6059 -0.9427  0.6404
 8558SOL     OW37132   2.238   4.444   6.695  0.8503 -0.1509  0.1739
 8558SOL    HW137133   2.262   4.531   6.727 -2.9260  1.1082 -0.4800
 8558SOL    HW237134   2.324   4.404   6.683  0.9873  0.7216 -1.7105
 8559SOL     OW37135   0.051   2.951   7.231 -0.8844 -0.0664 -0.2979
 8559SOL    HW137136   0.055   2.920   7.322 -0.2586 -1.7757 -0.9115
 8559SOL    HW237137   0.062   3.046   7.240 -0.2676 -0.0634 -1.1658
 8560SOL     OW37138   2.716   2.852   5.720  0.1067 -0.3362 -0.1413
 8560SOL    HW137139   2.780   2.891   5.661 -0.6143 -0.8905 -1.2889
 8560SOL    HW237140   2.760   2.768   5.732  0.4216  0.2606  2.8844
 8561SOL     OW37141   4.244   3.639   6.215 -0.4360 -0.0428 -0.5018
 8561SOL    HW137142   4.326   3.597   6.187 -0.1383  0.7339 -0.8023
 8561SOL    HW237143   4.196   3.561   6.241 -2.3028  1.3611  0.2364
 8562SOL     OW37144   4.034   0.401   5.331  0.1935 -0.0509 -0.6680
 8562SOL    HW137145   4.010   0.417   5.423  1.6410  1.7941 -0.6119
 8562SOL    HW237146   4.125   0.429   5.328  1.0241 -2.4529  2.0046
 8563SOL     OW37147   2.481   2.889  13.464 -0.6735  0.1513  0.4837
 8563SOL    HW137148   2.436   2.938  13.396  0.9910  0.8824 -0.0940
 8563SOL    HW237149   2.471   2.796  13.441 -0.1082 -0.4661  2.7147
 8564SOL     OW37150   3.842   0.737   2.149  0.0363  0.8056 -0.1953
 8564SOL    HW137151   3.839   0.821   2.102  1.3471  1.2259  0.4629
 8564SOL    HW237152   3.911   0.749   2.215  0.8912  1.5433 -1.2184
 8565SOL     OW37153   4.618   1.200   5.516  0.3082  0.3289 -0.0613
 8565SOL    HW137154   4.590   1.196   5.607 -1.3674 -1.2731 -0.6245
 8565SOL    HW237155   4.667   1.282   5.518 -1.2658  1.2688 -0.1769
 8566SOL     OW37156   2.809   2.077   7.573  0.1970 -0.1774 -0.3732
 8566SOL    HW137157   2.905   2.079   7.575  0.2140  0.2401 -1.7840
 8566SOL    HW237158   2.790   2.057   7.665 -2.7015 -1.8315 -1.3612
 8567SOL     OW37159   2.229   0.772  13.037  0.1283  0.1339 -0.3670
 8567SOL    HW137160   2.162   0.787  12.969  0.7578  1.6223 -0.6648
 8567SOL    HW237161   2.304   0.785  12.978 -1.0750 -0.5412 -2.0604
 8568SOL     OW37162   4.172   3.089  10.600 -0.8165  0.4903  0.5093
 8568SOL    HW137163   4.084   3.052  10.608 -0.1283 -1.2531 -0.0537
 8568SOL    HW237164   4.202   3.085  10.691  1.3332 -0.3276 -0.2380
 8569SOL     OW37165   1.019   2.504  14.242  0.3785 -0.3912 -0.0316
 8569SOL    HW137166   0.967   2.424  14.232  0.8778 -0.7937  0.5715
 8569SOL    HW237167   0.953   2.545  14.298 -0.9392 -1.5133 -0.7400
 8570SOL     OW37168   4.443   4.559   7.484 -0.0740 -0.4245 -0.4041
 8570SOL    HW137169   4.422   4.646   7.518 -2.0083 -0.4590 -1.4748
 8570SOL    HW237170   4.465   4.576   7.392  1.9773 -0.2833  0.1181
 8571SOL     OW37171   3.146   1.113   2.787  0.0282 -0.5405  0.0479
 8571SOL    HW137172   3.145   1.108   2.883  0.6251 -2.4750 -0.0418
 8571SOL    HW237173   3.058   1.093   2.755  1.1715 -3.1784 -1.4177
 8572SOL     OW37174   0.899   0.452   4.338 -0.7403  0.0250  0.0962
 8572SOL    HW137175   0.901   0.539   4.379 -3.0115  0.6471 -1.1342
 8572SOL    HW237176   0.926   0.470   4.248 -0.0384 -1.2586  0.0535
 8573SOL     OW37177   0.076   4.562   0.487  0.3351  0.0265 -0.1317
 8573SOL    HW137178   0.128   4.608   0.552 -0.7045  1.5161 -0.3512
 8573SOL    HW237179   0.149   4.530   0.434  0.6454 -1.7884  1.4063
 8574SOL     OW37180   0.634   3.124   4.159  0.1728 -0.3963  0.0023
 8574SOL    HW137181   0.706   3.094   4.105 -0.1236  1.0214 -1.1853
 8574SOL    HW237182   0.682   3.135   4.241  1.4356 -0.0423 -0.7952
 8575SOL     OW37183   4.647   3.212   6.024  0.6289 -0.3077 -0.9107
 8575SOL    HW137184   4.613   3.147   6.085 -0.1233  0.1910 -0.7967
 8575SOL    HW237185   4.586   3.281   6.051  0.8566 -0.1382 -0.8303
 8576SOL     OW37186   0.510   0.076   5.390 -0.2071  0.1624  0.3623
 8576SOL    HW137187   0.446   0.120   5.335 -0.8264  0.8472  1.6214
 8576SOL    HW237188   0.481   4.711   5.366 -0.9694  0.6717 -0.5927
 8577SOL     OW37189   2.290   3.698   8.410 -0.0911  0.1423 -0.2879
 8577SOL    HW137190   2.288   3.693   8.506  1.8461  1.3476 -0.1843
 8577SOL    HW237191   2.263   3.789   8.397 -1.6327  0.2275  3.5822
 8578SOL     OW37192   2.271   0.534   5.317 -0.2576 -0.5833  0.0715
 8578SOL    HW137193   2.178   0.527   5.336 -0.6513  0.2949 -1.6100
 8578SOL    HW237194   2.265   0.495   5.231  1.2269  1.8032 -1.1424
 8579SOL     OW37195   0.630   2.706  15.549  0.0725  0.0332  0.0730
 8579SOL    HW137196   0.607   2.798  15.535 -0.6530 -0.3375 -1.1139
 8579SOL    HW237197   0.719   2.710  15.515  0.7517 -1.8567  1.6167
 8580SOL     OW37198   4.224   1.045  15.945  0.4998  0.2266  0.4315
 8580SOL    HW137199   4.169   1.031  15.868  2.5034  1.9742 -1.3308
 8580SOL    HW237200   4.157   1.033  16.013 -0.9298 -1.1573 -1.2229
 8581SOL     OW37201   0.173   4.416   3.482  0.3767 -0.2327 -0.8687
 8581SOL    HW137202   0.178   4.511   3.473  0.7008 -0.1986 -0.3455
 8581SOL    HW237203   0.124   4.386   3.406 -0.5309  0.2941 -0.4909
 8582SOL     OW37204   0.540   4.440   6.646  0.4452 -0.6091 -0.2767
 8582SOL    HW137205   0.539   4.406   6.736 -0.0629 -1.2264 -0.5257
 8582SOL    HW237206   0.612   4.389   6.609  0.7425 -0.1856 -0.2870
 8583SOL     OW37207   3.655   1.336   2.790 -0.1914 -0.2137  0.4557
 8583SOL    HW137208   3.670   1.358   2.698  1.0317 -0.7233  0.5363
 8583SOL    HW237209   3.561   1.355   2.793  0.2396  1.7167  2.0430
 8584SOL     OW37210   2.882   1.231  11.906  0.2387  0.0276 -0.0301
 8584SOL    HW137211   2.896   1.310  11.852 -2.3502  1.8245  1.9397
 8584SOL    HW237212   2.902   1.166  11.839 -0.5161  1.2379 -1.4440
 8585SOL     OW37213   0.186   4.061   9.150 -0.5274 -0.2377 -0.3410
 8585SOL    HW137214   0.274   4.078   9.182 -1.2078  0.3931  1.2424
 8585SOL    HW237215   0.179   4.140   9.097 -0.4197  1.3758  2.0523
 8586SOL     OW37216   1.630   1.834   8.951  0.2559  0.7755  0.3969
 8586SOL    HW137217   1.615   1.929   8.954 -0.6762  0.5931  1.5393
 8586SOL    HW237218   1.580   1.824   8.870  0.7988  1.1294  0.0172
 8587SOL     OW37219   0.016   3.069   0.733  0.0223 -0.4100 -0.1678
 8587SOL    HW137220   0.102   3.096   0.701 -0.1723 -1.9088 -1.9678
 8587SOL    HW237221   4.683   3.097   0.660  1.5128 -1.4560 -1.7244
 8588SOL     OW37222   4.600   3.403  13.919 -0.5033 -0.3278  0.0643
 8588SOL    HW137223   4.658   3.478  13.904 -0.4414 -0.3301  0.2870
 8588SOL    HW237224   4.606   3.408  14.014  0.0624 -0.0129  0.0148
 8589SOL     OW37225   3.125   2.852   6.405  0.6352  0.4704  0.2404
 8589SOL    HW137226   3.203   2.800   6.389 -0.4125 -1.3518  1.0983
 8589SOL    HW237227   3.061   2.792   6.368  0.7315  0.9064 -0.6286
 8590SOL     OW37228   0.266   4.444   0.327 -0.1216  0.3085  0.1428
 8590SOL    HW137229   0.218   4.366   0.297  1.4666 -0.4892 -0.3650
 8590SOL    HW237230   0.337   4.433   0.263  1.7454  0.5735  2.1805
 8591SOL     OW37231   0.650   3.090  11.026  0.2214  0.1655  0.0309
 8591SOL    HW137232   0.636   3.137  11.109 -0.8282  0.7620 -0.4895
 8591SOL    HW237233   0.615   3.004  11.051  1.2976 -0.3356 -0.2164
 8592SOL     OW37234   4.379   3.188   2.345  0.7723 -0.0667 -0.2847
 8592SOL    HW137235   4.364   3.277   2.313 -1.1683  1.2026  4.0536
 8592SOL    HW237236   4.379   3.144   2.260  0.6573 -0.9609  0.1729
 8593SOL     OW37237   2.796   0.607   7.147 -0.3080  0.4708  0.0414
 8593SOL    HW137238   2.702   0.621   7.150 -0.0069  2.2048  1.1585
 8593SOL    HW237239   2.816   0.596   7.240 -2.1496  0.3026  0.4183
 8594SOL     OW37240   0.225   0.190   8.497 -0.1650  0.0641  0.1381
 8594SOL    HW137241   0.262   0.240   8.424  0.1891 -3.1521 -1.9236
 8594SOL    HW237242   0.285   0.115   8.493 -0.4488 -0.1630  0.1474
 8595SOL     OW37243   0.560   2.959   1.320  0.4231  0.0375  0.0731
 8595SOL    HW137244   0.601   3.021   1.260  0.2781  1.2221  1.1898
 8595SOL    HW237245   0.624   2.888   1.319  2.4482  1.9639 -3.6969
 8596SOL     OW37246   3.497   0.552   8.978 -0.5742  0.6312 -0.3810
 8596SOL    HW137247   3.589   0.542   8.951 -0.9522 -0.6975 -1.2062
 8596SOL    HW237248   3.459   0.468   8.953 -0.4084 -0.0939  1.8111
 8597SOL     OW37249   3.104   1.904   4.787  0.1175 -0.3661  0.2709
 8597SOL    HW137250   3.011   1.927   4.781 -0.0119 -1.5039 -1.9677
 8597SOL    HW237251   3.099   1.811   4.764 -1.2864 -0.6824  1.8520
 8598SOL     OW37252   3.622   4.276   4.744 -0.2481 -0.3647  0.6079
 8598SOL    HW137253   3.657   4.267   4.832  2.7982  0.1071 -0.5417
 8598SOL    HW237254   3.622   4.187   4.709 -1.0869  0.6232 -1.9143
 8599SOL     OW37255   2.020   2.273  15.940  0.2546 -0.0942 -0.3970
 8599SOL    HW137256   1.972   2.308  16.014  0.7248  0.0255 -0.1512
 8599SOL    HW237257   2.073   2.206  15.983 -0.4804  1.2883  2.6361
 8600SOL     OW37258   4.148   1.939  17.383 -0.1985 -0.2567 -0.3460
 8600SOL    HW137259   4.057   1.970  17.381 -0.3303 -0.7367 -1.7035
 8600SOL    HW237260   4.128   1.847  17.402 -0.6386 -0.3165 -1.0733
 8601SOL     OW37261   1.976   2.002   5.654 -0.0320  0.5287 -0.2561
 8601SOL    HW137262   2.053   2.002   5.711 -0.1611  0.9508 -0.0814
 8601SOL    HW237263   1.920   1.940   5.701  1.3851 -1.0531 -0.6428
 8602SOL     OW37264   0.886   2.637   7.015 -0.3895 -0.1503 -0.4234
 8602SOL    HW137265   0.967   2.615   7.060 -0.4999 -3.4805 -1.8607
 8602SOL    HW237266   0.821   2.624   7.084 -0.3135 -1.0733 -0.5308
 8603SOL     OW37267   1.263   3.109   1.266 -0.0354  0.2080 -0.6941
 8603SOL    HW137268   1.230   3.185   1.315  0.1615 -0.8789  1.1346
 8603SOL    HW237269   1.352   3.142   1.259  0.9735 -2.1571  0.9589
 8604SOL     OW37270   4.386   3.439  13.477  0.3039  0.5205  0.2047
 8604SOL    HW137271   4.294   3.466  13.477 -0.1443 -0.9813 -0.6858
 8604SOL    HW237272   4.369   3.353  13.516 -0.0080  1.6548  2.5559
 8605SOL     OW37273   1.887   0.219   6.032 -0.2688  0.7063 -0.0319
 8605SOL    HW137274   1.853   0.141   5.987  2.6006  0.6694 -2.1644
 8605SOL    HW237275   1.879   0.289   5.967 -1.8837  0.9660  0.4315
 8606SOL     OW37276   1.084   0.315   4.777 -0.8037  0.0322  0.5559
 8606SOL    HW137277   1.050   0.298   4.689 -0.3384 -0.5147  0.4814
 8606SOL    HW237278   1.004   0.304   4.827  0.2644  0.7635  2.4241
 8607SOL     OW37279   0.270   0.889   1.955  0.0090  0.6634  0.0059
 8607SOL    HW137280   0.178   0.868   1.939 -0.6159  2.4843  1.1331
 8607SOL    HW237281   0.256   0.959   2.019 -3.2030 -1.4397  1.5846
 8608SOL     OW37282   1.588   3.491   7.502 -0.3280  0.9960 -0.4529
 8608SOL    HW137283   1.567   3.449   7.419  1.5884 -2.0127  0.6000
 8608SOL    HW237284   1.570   3.579   7.468 -0.0340  1.6640  1.1245
 8609SOL     OW37285   2.878   3.759   1.857  0.0612 -0.2635  0.3377
 8609SOL    HW137286   2.886   3.819   1.783 -0.8380  0.2494  0.6565
 8609SOL    HW237287   2.784   3.743   1.848  0.2814 -1.8783  0.8355
 8610SOL     OW37288   2.395   1.440   2.629 -0.1518  0.7022  0.3633
 8610SOL    HW137289   2.409   1.413   2.720 -0.9052  2.9086  1.1283
 8610SOL    HW237290   2.358   1.358   2.596  1.2669 -0.8707  2.6357
 8611SOL     OW37291   0.752   1.491   4.506 -0.1282 -0.0301  0.4100
 8611SOL    HW137292   0.705   1.548   4.566 -0.7673  0.3063 -0.4168
 8611SOL    HW237293   0.705   1.514   4.426 -1.2697 -0.2642  1.0195
 8612SOL     OW37294   3.109   3.560   4.855  0.3910  0.2378  0.2305
 8612SOL    HW137295   3.164   3.630   4.887  0.4078 -0.0791  0.8919
 8612SOL    HW237296   3.033   3.583   4.909 -2.2665 -2.1960 -2.3936
 8613SOL     OW37297   3.628   1.069  13.236  0.6254  0.2552 -0.4232
 8613SOL    HW137298   3.688   1.143  13.228  1.1583 -0.1757 -0.4369
 8613SOL    HW237299   3.610   1.070  13.330  0.0737  2.6109 -0.5539
 8614SOL     OW37300   0.800   0.908   3.221 -0.4631  0.3142 -0.1674
 8614SOL    HW137301   0.851   0.890   3.300 -0.5227 -2.0952 -0.6626
 8614SOL    HW237302   0.753   0.825   3.216  1.0292 -0.4902 -0.7314
 8615SOL     OW37303   2.261   0.952   8.214 -0.0327  0.2176 -0.7711
 8615SOL    HW137304   2.251   0.884   8.281 -0.0417  0.6999 -0.2754
 8615SOL    HW237305   2.203   1.019   8.252 -0.6065 -0.4231 -0.5078
 8616SOL     OW37306   2.766   1.695   8.395 -0.5638  0.7332 -0.6137
 8616SOL    HW137307   2.830   1.748   8.443 -0.8195  0.6009 -0.1182
 8616SOL    HW237308   2.689   1.739   8.432  1.3153  2.8831  0.6693
 8617SOL     OW37309   4.585   0.222   2.462  0.0709  0.0055 -0.6036
 8617SOL    HW137310   4.586   0.225   2.366  0.3870 -2.1932 -0.6536
 8617SOL    HW237311   4.677   0.231   2.486  0.5533 -2.6985 -1.5138
 8618SOL     OW37312   0.752   1.834   0.331  0.0049 -0.1504 -0.8495
 8618SOL    HW137313   0.809   1.841   0.407 -1.6244 -1.0465  0.4516
 8618SOL    HW237314   0.749   1.927   0.310 -2.8648 -0.4545 -1.7611
 8619SOL     OW37315   0.172   4.209   4.339 -0.4016 -0.0198  0.2270
 8619SOL    HW137316   0.178   4.199   4.434 -3.4921 -3.3668  0.0626
 8619SOL    HW237317   0.230   4.285   4.337  1.2691 -1.2615  0.8451
 8620SOL     OW37318   1.666   3.566   8.253  0.3296 -0.2503  0.6390
 8620SOL    HW137319   1.689   3.475   8.232  1.0646  0.2424 -0.6515
 8620SOL    HW237320   1.624   3.600   8.174  1.6339  1.0917  0.5187
 8621SOL     OW37321   3.941   4.723   3.172 -0.5045  0.0088  0.7173
 8621SOL    HW137322   4.016   4.709   3.115 -0.7217  0.8276  0.2266
 8621SOL    HW237323   3.866   4.702   3.116 -0.1660 -1.1927  0.7130
 8622SOL     OW37324   0.618   2.692   0.429 -0.3574 -0.2817  0.0041
 8622SOL    HW137325   0.705   2.702   0.389 -0.0136 -0.1531  0.7909
 8622SOL    HW237326   0.623   2.755   0.500  2.1594 -1.3357  0.7912
 8623SOL     OW37327   1.696   3.197   2.302  0.0435 -0.3365  0.2436
 8623SOL    HW137328   1.769   3.139   2.280  0.9339  0.6108  0.6643
 8623SOL    HW237329   1.637   3.129   2.334  0.7945 -1.3279 -0.4899
 8624SOL     OW37330   1.804   1.053   8.546 -0.0365  0.2398 -0.0408
 8624SOL    HW137331   1.891   1.037   8.583  0.4178 -0.2059 -1.3122
 8624SOL    HW237332   1.766   1.096   8.622  0.5671 -0.5975  0.7278
 8625SOL     OW37333   2.460   4.551  13.799 -0.4886 -0.3245  0.4016
 8625SOL    HW137334   2.412   4.468  13.801  0.9442 -1.1719 -0.1320
 8625SOL    HW237335   2.516   4.542  13.877  1.3203  1.5636 -0.6716
 8626SOL     OW37336   4.290   3.932   4.297  0.3103  0.2040  0.6095
 8626SOL    HW137337   4.350   3.935   4.372 -1.0852 -1.3066  1.7866
 8626SOL    HW237338   4.338   3.863   4.253  1.1187  0.1496  1.5586
 8627SOL     OW37339   3.139   0.886   3.434  0.5126  0.3749 -0.3620
 8627SOL    HW137340   3.191   0.926   3.364  1.1151  0.9028  0.3925
 8627SOL    HW237341   3.057   0.929   3.411 -1.0019 -1.5347  1.5307
 8628SOL     OW37342   2.575   3.044   7.714 -0.0288 -0.7415 -0.0030
 8628SOL    HW137343   2.541   3.096   7.787  0.6244  0.9496 -0.8992
 8628SOL    HW237344   2.588   2.961   7.761  0.7374 -1.2525 -1.1131
 8629SOL     OW37345   0.197   0.141   9.383 -0.3580 -0.0204  0.1003
 8629SOL    HW137346   0.246   0.209   9.430  1.7741 -1.2096 -0.4136
 8629SOL    HW237347   0.201   0.064   9.440 -1.5494 -1.1589 -1.3938
 8630SOL     OW37348   4.227   4.194   6.095 -0.3877  0.0477 -0.7305
 8630SOL    HW137349   4.296   4.246   6.136  0.0569 -0.5515 -0.7228
 8630SOL    HW237350   4.144   4.231   6.127  1.3012  2.3269  1.0057
 8631SOL     OW37351   1.708   4.674   3.746 -0.0754 -0.0524 -0.2720
 8631SOL    HW137352   1.717   0.036   3.703  0.0386 -0.0748 -0.2911
 8631SOL    HW237353   1.653   4.624   3.685  1.2001 -2.2528  0.3897
 8632SOL     OW37354   2.457   2.407   4.937  0.7428 -0.4831  0.0922
 8632SOL    HW137355   2.514   2.426   4.863  0.9938 -0.7298  0.2222
 8632SOL    HW237356   2.435   2.314   4.935  0.4518 -0.4025 -0.3992
 8633SOL     OW37357   0.362   3.509   4.189 -0.3147  0.4067 -0.3205
 8633SOL    HW137358   0.372   3.499   4.094  0.9807  0.1133 -0.1637
 8633SOL    HW237359   0.398   3.597   4.199  0.8815 -0.2521  1.3799
 8634SOL     OW37360   4.502   3.725   9.463  0.2623  0.2189  0.3069
 8634SOL    HW137361   4.547   3.710   9.546 -1.1551  2.7352  1.5325
 8634SOL    HW237362   4.415   3.689   9.483  0.9363 -0.9920  1.0260
 8635SOL     OW37363   3.642   2.945   6.245  0.1058 -0.2034  0.8370
 8635SOL    HW137364   3.699   3.013   6.280  2.4769 -1.2958 -0.8848
 8635SOL    HW237365   3.593   2.926   6.325  0.0397 -1.3068  0.5419
 8636SOL     OW37366   1.823   2.128  17.183  0.6086  0.2425 -0.1897
 8636SOL    HW137367   1.831   2.107  17.090  2.1411  0.2526 -0.0591
 8636SOL    HW237368   1.907   2.092  17.214  0.6651  1.6048  1.2436
 8637SOL     OW37369   1.384   1.462   6.692 -0.0009  0.1121 -0.3825
 8637SOL    HW137370   1.424   1.515   6.623  0.4659 -0.4649 -0.5557
 8637SOL    HW237371   1.416   1.373   6.677 -0.1195 -0.4714  2.7773
 8638SOL     OW37372   4.636   3.217   4.927  0.5143  0.0716 -0.2529
 8638SOL    HW137373   4.554   3.261   4.950  0.2135 -0.7251  0.2067
 8638SOL    HW237374   4.695   3.287   4.953 -0.6465  1.8774 -2.4689
 8639SOL     OW37375   3.918   0.406   4.306  0.1182 -0.3018 -0.1866
 8639SOL    HW137376   3.923   0.313   4.286 -2.0687 -0.3227 -0.5691
 8639SOL    HW237377   4.006   0.425   4.339 -0.5864  1.7229  0.5279
 8640SOL     OW37378   1.570   0.352   5.764  0.3375 -0.1237  0.1606
 8640SOL    HW137379   1.664   0.360   5.781  0.4322  0.1182 -0.4765
 8640SOL    HW237380   1.578   0.281   5.700 -1.1116 -0.3773  0.2620
 8641SOL     OW37381   0.644   0.583   9.368 -0.0601  0.1575  0.4823
 8641SOL    HW137382   0.701   0.508   9.354 -0.0164  0.1155  0.8947
 8641SOL    HW237383   0.650   0.611   9.459 -2.4316 -0.0769  0.7182
 8642SOL     OW37384   2.074   4.570   5.019 -0.0317 -0.0488  0.6484
 8642SOL    HW137385   2.001   4.633   5.015 -2.5022 -3.0339 -1.2907
 8642SOL    HW237386   2.047   4.519   5.095 -1.8759  0.0979  0.1033
 8643SOL     OW37387   4.503   2.207   7.674 -0.2686 -0.1285 -1.0505
 8643SOL    HW137388   4.539   2.291   7.704 -0.5017 -0.6640  0.7148
 8643SOL    HW237389   4.410   2.227   7.686 -0.1115  0.6512 -1.1260
 8644SOL     OW37390   2.917   0.729   4.638  0.6418 -0.2805 -0.0709
 8644SOL    HW137391   2.990   0.667   4.641  1.6125  0.9722  2.6596
 8644SOL    HW237392   2.928   0.769   4.725 -0.1405  0.4513 -0.3125
 8645SOL     OW37393   1.942   1.733   3.431 -0.2970 -0.3531 -0.3970
 8645SOL    HW137394   1.993   1.652   3.437  1.4308  0.7582 -0.0446
 8645SOL    HW237395   1.983   1.796   3.490 -0.9936 -1.0198  0.8010
 8646SOL     OW37396   2.726   0.327   4.172  0.2138  0.3001 -0.2624
 8646SOL    HW137397   2.781   0.293   4.102 -2.0635 -1.0573 -1.4016
 8646SOL    HW237398   2.731   0.248   4.226  2.1854  1.0539  0.6416
 8647SOL     OW37399   0.610   0.693   3.702  0.1030  0.7763 -0.3837
 8647SOL    HW137400   0.631   0.754   3.773 -0.9533  0.6426  0.0526
 8647SOL    HW237401   0.681   0.629   3.706  0.0574  0.9766  3.9956
 8648SOL     OW37402   1.830   2.066   8.710 -0.2571  0.4037 -0.1537
 8648SOL    HW137403   1.873   2.146   8.742  2.3504 -1.3914  0.8290
 8648SOL    HW237404   1.740   2.097   8.717 -0.2244  0.3450  0.5529
 8649SOL     OW37405   3.715   1.248  12.335 -0.2743 -0.0664  0.5577
 8649SOL    HW137406   3.729   1.259  12.241 -1.2634 -1.5493  0.2431
 8649SOL    HW237407   3.675   1.162  12.345 -0.1073 -0.4504 -2.1334
 8650SOL     OW37408   3.102   2.844   8.618  0.3115  0.1997  0.5499
 8650SOL    HW137409   3.080   2.886   8.535 -2.0247 -0.9873  0.5565
 8650SOL    HW237410   3.182   2.794   8.604  0.2687 -0.6217  3.1380
 8651SOL     OW37411   4.321   1.367   2.621 -0.7134  0.0100  0.3459
 8651SOL    HW137412   4.348   1.379   2.530 -1.4327  0.2382  0.1672
 8651SOL    HW237413   4.242   1.421   2.629 -0.7323 -0.1693  1.3707
 8652SOL     OW37414   2.624   0.761   6.228 -0.1787 -0.4257  0.5365
 8652SOL    HW137415   2.681   0.798   6.295  0.9745  2.7090 -2.2172
 8652SOL    HW237416   2.575   0.842   6.209  0.9950  0.0599 -0.3648
 8653SOL     OW37417   4.213   0.180   2.353  0.3055 -0.0095 -0.1162
 8653SOL    HW137418   4.152   0.245   2.319  0.0463 -1.4254 -2.3278
 8653SOL    HW237419   4.248   0.149   2.270 -1.6201  0.2987 -1.0227
 8654SOL     OW37420   1.232   0.928  15.052  0.4431  0.2176  0.4422
 8654SOL    HW137421   1.322   0.949  15.078  0.4799  1.3031 -0.5658
 8654SOL    HW237422   1.195   1.013  15.028  0.5142 -0.8909 -3.6050
 8655SOL     OW37423   2.723   0.395   0.280 -0.0212  0.4057 -0.2744
 8655SOL    HW137424   2.635   0.408   0.317 -0.3243 -3.5879  0.3882
 8655SOL    HW237425   2.776   0.424   0.355 -0.8206 -0.9589  0.8222
 8656SOL     OW37426   4.654   3.895   4.405  0.1240  0.1198  0.3118
 8656SOL    HW137427   4.671   3.870   4.496 -3.0133  1.1820  1.2126
 8656SOL    HW237428   4.594   3.826   4.376 -1.7420  2.4371 -1.4342
 8657SOL     OW37429   2.748   1.846   4.486  0.1769 -0.2171  0.0980
 8657SOL    HW137430   2.711   1.928   4.453  1.6559  0.2725 -0.3337
 8657SOL    HW237431   2.691   1.785   4.440  1.1946 -0.1218 -1.2785
 8658SOL     OW37432   3.877   4.401   9.162 -0.3083  0.1845  0.2213
 8658SOL    HW137433   3.868   4.486   9.119  1.4083 -0.2832 -1.0966
 8658SOL    HW237434   3.829   4.420   9.243 -1.6079 -1.5429 -0.1445
 8659SOL     OW37435   1.470   1.767   7.827  0.2080  0.6339  0.3882
 8659SOL    HW137436   1.491   1.736   7.914 -1.1349  0.0895  0.5228
 8659SOL    HW237437   1.418   1.701   7.780  0.8172  1.8248 -2.0022
 8660SOL     OW37438   4.494   3.527   8.812  0.3907  0.1891 -0.2441
 8660SOL    HW137439   4.553   3.569   8.875  0.3903 -2.4799  1.4978
 8660SOL    HW237440   4.451   3.608   8.786 -1.3452 -0.3631  0.9222
 8661SOL     OW37441   3.718   0.297  10.100  0.0858 -0.1636 -0.1201
 8661SOL    HW137442   3.697   0.263  10.013 -0.2248 -1.1820  0.3453
 8661SOL    HW237443   3.643   0.271  10.154  1.8013  0.6199  2.5987
 8662SOL     OW37444   4.521   4.661  17.603  0.0579 -0.1432 -0.0694
 8662SOL    HW137445   4.429   4.677  17.579 -0.4379 -3.6150 -0.4903
 8662SOL    HW237446   4.511   4.654   0.002  1.3202 -0.8937  0.0034
 8663SOL     OW37447   1.781   0.578   2.200 -0.4752  0.4583  0.0273
 8663SOL    HW137448   1.699   0.554   2.157  0.3877  0.6074 -1.7030
 8663SOL    HW237449   1.804   0.645   2.136 -0.4723 -0.4900 -0.9615
 8664SOL     OW37450   2.630   2.385   6.402  0.0886  0.3309  0.2600
 8664SOL    HW137451   2.599   2.295   6.407 -0.4066  0.3698 -2.1143
 8664SOL    HW237452   2.575   2.425   6.334  0.0908 -1.3043 -0.6926
 8665SOL     OW37453   2.132   1.925   2.993  0.0118 -0.2188  0.1283
 8665SOL    HW137454   2.168   1.886   3.073  0.9800 -0.5168 -0.4531
 8665SOL    HW237455   2.200   1.897   2.932 -1.5828  0.4653 -1.9647
 8666SOL     OW37456   3.400   0.752   3.237  0.5719  0.0804 -0.1698
 8666SOL    HW137457   3.415   0.696   3.313 -0.8993 -1.7807 -1.2541
 8666SOL    HW237458   3.485   0.737   3.197  1.2457  3.4758  0.0181
 8667SOL     OW37459   1.745   4.323   4.935 -0.5641  0.4528 -0.1901
 8667SOL    HW137460   1.757   4.344   4.842 -1.0332  1.2108 -0.0824
 8667SOL    HW237461   1.700   4.239   4.931 -0.1875  0.2916 -1.1269
 8668SOL     OW37462   3.968   3.728  10.006  0.6674  0.1217 -0.2210
 8668SOL    HW137463   4.057   3.698  10.027  1.4306  1.5976 -1.3537
 8668SOL    HW237464   3.963   3.786  10.083 -0.1136 -0.3414  0.0784
 8669SOL     OW37465   2.941   2.986  17.562 -0.1824  0.1460 -0.1692
 8669SOL    HW137466   2.951   3.023  17.650 -2.3555 -0.2670  0.2573
 8669SOL    HW237467   2.847   2.969  17.563 -0.0789 -0.3620  1.1354
 8670SOL     OW37468   1.720   3.554  16.105 -0.6692 -0.0041 -0.2437
 8670SOL    HW137469   1.719   3.641  16.066 -0.2048  0.2591  0.3344
 8670SOL    HW237470   1.728   3.494  16.031 -1.4336 -0.1237 -0.2201
 8671SOL     OW37471   4.325   1.050   7.911  0.2908 -0.0456  0.2337
 8671SOL    HW137472   4.280   0.967   7.899 -1.9171  1.4826 -2.2255
 8671SOL    HW237473   4.354   1.067   7.822  2.4765  1.8344  1.3160
 8672SOL     OW37474   3.330   2.696   0.642  0.1733 -0.0871  0.2343
 8672SOL    HW137475   3.249   2.720   0.687  0.8108  0.8487  0.8741
 8672SOL    HW237476   3.293   2.628   0.585  0.2946  0.6495 -0.7218
 8673SOL     OW37477   0.597   2.128   9.196  0.5103 -0.2804  0.4925
 8673SOL    HW137478   0.578   2.113   9.289 -0.6378  1.0187  0.4632
 8673SOL    HW237479   0.673   2.185   9.212 -0.1360  0.9191 -0.8214
 8674SOL     OW37480   1.178   2.438   1.755 -0.3139 -0.0244  0.2507
 8674SOL    HW137481   1.155   2.511   1.698  1.2520  1.5864  1.7008
 8674SOL    HW237482   1.227   2.373   1.704 -1.2249  0.1505 -0.8451
 8675SOL     OW37483   0.114   3.293   2.177 -0.5509  0.6261  0.2501
 8675SOL    HW137484   0.146   3.377   2.146 -0.1490 -0.3148 -1.9136
 8675SOL    HW237485   0.059   3.257   2.107  0.8241 -0.3335 -0.3295
 8676SOL     OW37486   2.519   0.753   7.115 -0.1395  0.0932  0.0083
 8676SOL    HW137487   2.497   0.838   7.076 -3.1528  0.0051  1.4835
 8676SOL    HW237488   2.495   0.691   7.046 -2.4885  1.6149 -0.5488
 8677SOL     OW37489   4.684   1.154   6.780  0.4079 -0.8723 -0.4468
 8677SOL    HW137490   0.006   1.214   6.720  0.3082 -1.3748 -1.0195
 8677SOL    HW237491   4.646   1.227   6.830 -0.4613 -2.1122  0.6761
 8678SOL     OW37492   2.677   2.154   2.817 -0.2155 -0.3154  0.6636
 8678SOL    HW137493   2.765   2.190   2.809 -0.0868 -1.0073 -1.1616
 8678SOL    HW237494   2.704   2.089   2.883  0.9523 -1.3372 -0.8031
 8679SOL     OW37495   2.788   1.728   2.766 -0.3680 -0.2318  0.5647
 8679SOL    HW137496   2.702   1.716   2.807 -0.1583  0.6610  1.2576
 8679SOL    HW237497   2.745   1.760   2.686  2.3836  3.1828  0.4706
 8680SOL     OW37498   2.112   2.681   7.353  0.0395  0.1357  0.2322
 8680SOL    HW137499   2.058   2.606   7.377  0.9422 -0.2631  1.0412
 8680SOL    HW237500   2.107   2.671   7.258  0.3971  0.7098  0.1515
 8681SOL     OW37501   1.362   3.924   6.619 -0.2255 -0.8879 -0.1701
 8681SOL    HW137502   1.442   3.914   6.672  0.4014 -3.2402 -1.5317
 8681SOL    HW237503   1.322   3.837   6.626 -0.7134 -0.9474 -3.6026
 8682SOL     OW37504   3.974   3.447   3.879  0.4898  0.0087  0.7625
 8682SOL    HW137505   3.883   3.444   3.909  0.3988 -1.7958  0.3332
 8682SOL    HW237506   3.997   3.358   3.905  0.6650  0.0352  0.6954
 8683SOL     OW37507   1.011   2.365   6.717 -0.5651  0.7077 -0.0730
 8683SOL    HW137508   0.940   2.390   6.776 -0.8963  2.0517 -1.0447
 8683SOL    HW237509   1.015   2.272   6.738  2.1316  1.0831  0.9799
 8684SOL     OW37510   2.632   1.478  14.839  0.2728  0.1681  0.5531
 8684SOL    HW137511   2.585   1.399  14.812  0.1382  0.8244 -1.1606
 8684SOL    HW237512   2.592   1.543  14.782 -2.0311 -1.7229  0.0044
 8685SOL     OW37513   1.979   2.328   1.715  0.1575 -0.0719 -0.0002
 8685SOL    HW137514   2.058   2.379   1.698  0.6874  0.2151  3.3819
 8685SOL    HW237515   1.960   2.337   1.808 -0.4206  1.4409 -0.2523
 8686SOL     OW37516   2.337   2.994   8.237  0.1093 -0.5758 -0.0984
 8686SOL    HW137517   2.407   3.059   8.232 -1.2032  0.7723 -0.9885
 8686SOL    HW237518   2.264   3.053   8.254  0.0577 -1.1125  1.6151
 8687SOL     OW37519   1.887   2.471   3.511  0.3161  0.0339 -0.1408
 8687SOL    HW137520   1.958   2.443   3.569 -0.1199  1.2553  0.9956
 8687SOL    HW237521   1.863   2.388   3.470  0.8644 -0.2126  0.0434
 8688SOL     OW37522   2.578   3.278  16.955 -0.4046  0.1103  0.2921
 8688SOL    HW137523   2.521   3.350  16.984 -0.8685 -0.1960  0.1457
 8688SOL    HW237524   2.609   3.315  16.872  1.6154  2.1550  1.9696
 8689SOL     OW37525   0.933   1.680   2.460 -0.1086 -0.0630 -0.1841
 8689SOL    HW137526   0.975   1.748   2.409  2.1342 -0.7077  0.8028
 8689SOL    HW237527   0.850   1.678   2.412  0.6529  1.7261 -1.5446
 8690SOL     OW37528   1.934   2.731   4.480 -0.5338  0.1260 -0.1087
 8690SOL    HW137529   2.029   2.717   4.488 -0.1900  1.2828 -2.2556
 8690SOL    HW237530   1.899   2.642   4.486  0.7129 -0.3441  0.2521
 8691SOL     OW37531   3.050   2.631   8.401  0.4517  0.2785 -0.0095
 8691SOL    HW137532   2.975   2.595   8.447  0.3282 -1.2769 -1.4227
 8691SOL    HW237533   3.032   2.595   8.314  1.0664 -3.5088  1.4126
 8692SOL     OW37534   2.673   0.351   7.862  0.5846  1.0751  0.3774
 8692SOL    HW137535   2.763   0.317   7.856  0.4787  0.5707  1.6917
 8692SOL    HW237536   2.680   0.403   7.942 -0.7643  1.1865  0.4131
 8693SOL     OW37537   0.699   0.654  12.533 -0.0043  0.2863  0.0786
 8693SOL    HW137538   0.786   0.633  12.500  0.0832  1.0348 -0.1649
 8693SOL    HW237539   0.719   0.646  12.626  0.8951  1.7598  0.0193
 8694SOL     OW37540   3.304   2.031  13.471  0.6536 -0.1045 -0.0320
 8694SOL    HW137541   3.303   2.126  13.483  0.6517  0.1784 -2.3045
 8694SOL    HW237542   3.399   2.014  13.473  0.5613 -0.5607  0.5938
 8695SOL     OW37543   3.177   2.243   4.930 -0.2710 -0.8607  0.5169
 8695SOL    HW137544   3.257   2.291   4.951 -0.0865 -0.3473 -1.3030
 8695SOL    HW237545   3.119   2.311   4.964 -2.3308 -1.9552 -0.7865
 8696SOL     OW37546   3.229   2.852   3.778  0.2207  0.1733  0.4582
 8696SOL    HW137547   3.149   2.866   3.727 -0.3454 -0.5992  1.1353
 8696SOL    HW237548   3.222   2.934   3.827  1.2375  0.1580  0.6330
 8697SOL     OW37549   3.987   1.636  10.548 -0.0570  0.0339  0.6249
 8697SOL    HW137550   4.018   1.550  10.576  1.7588  0.1447 -1.0232
 8697SOL    HW237551   3.897   1.640  10.581 -1.0594  0.0659 -2.0759
 8698SOL     OW37552   2.259   2.016   7.501 -0.8242 -0.3376  0.5954
 8698SOL    HW137553   2.337   2.021   7.556 -1.0434 -1.5493  1.0198
 8698SOL    HW237554   2.220   1.946   7.553 -0.1524 -0.8379  0.4287
 8699SOL     OW37555   3.898   3.191  14.530 -0.1565 -0.1111 -0.0218
 8699SOL    HW137556   3.855   3.112  14.499  1.9339 -1.2102 -0.1019
 8699SOL    HW237557   3.847   3.206  14.609  0.6088 -1.6405  0.7598
 8700SOL     OW37558   0.875   2.261   9.704 -0.1119 -0.5836  0.2840
 8700SOL    HW137559   0.964   2.291   9.682  0.8158 -3.9315 -0.5012
 8700SOL    HW237560   0.832   2.345   9.719  0.3722 -0.4339  0.8292
 8701SOL     OW37561   0.873   3.154   4.659  0.0623  0.4226 -0.4065
 8701SOL    HW137562   0.788   3.112   4.657  0.9030 -1.2361 -1.1723
 8701SOL    HW237563   0.930   3.088   4.698  0.3601 -0.1841 -1.8653
 8702SOL     OW37564   0.948   0.117  16.977  0.7690  0.2364 -0.5433
 8702SOL    HW137565   0.977   0.128  17.068  0.2895 -2.3655 -0.0584
 8702SOL    HW237566   0.854   0.126  16.993  1.1113  1.7756  0.6143
 8703SOL     OW37567   3.078   2.809  16.451  0.3143 -0.1887 -0.0186
 8703SOL    HW137568   3.078   2.728  16.400 -1.5331 -0.6260  0.6892
 8703SOL    HW237569   3.011   2.791  16.517  0.5194  0.4730  0.3698
 8704SOL     OW37570   0.907   0.331   4.018 -0.1921 -0.2847 -0.3366
 8704SOL    HW137571   0.872   0.245   4.038 -0.5511 -0.7955 -3.0758
 8704SOL    HW237572   0.939   0.321   3.928  0.8000 -1.2146  0.1236
 8705SOL     OW37573   1.685   2.011   6.113  0.4399 -0.0831 -0.0132
 8705SOL    HW137574   1.765   2.063   6.106 -0.7666  1.7792  0.0317
 8705SOL    HW237575   1.622   2.082   6.119  1.1023  0.5436 -0.4887
 8706SOL     OW37576   3.061   4.618   6.050  0.5593 -0.2367 -0.2398
 8706SOL    HW137577   2.987   4.671   6.018 -1.4171 -2.4154  0.6823
 8706SOL    HW237578   3.092   4.676   6.119  1.1450 -1.9468  0.9341
 8707SOL     OW37579   1.818   4.135   4.535  0.4564  0.0880  0.0635
 8707SOL    HW137580   1.783   4.217   4.499 -0.6965 -1.0573 -1.4065
 8707SOL    HW237581   1.772   4.074   4.477  0.3631  1.3011 -1.1397
 8708SOL     OW37582   4.354   3.390   0.308 -0.1603 -0.0341  0.2792
 8708SOL    HW137583   4.304   3.450   0.363 -0.1630 -0.0417  0.2851
 8708SOL    HW237584   4.433   3.443   0.305  1.0810 -1.7957  2.4129
 8709SOL     OW37585   3.125   0.424   1.978  0.5740 -0.4594 -0.3939
 8709SOL    HW137586   3.162   0.411   1.890 -2.2046  0.3352 -1.6696
 8709SOL    HW237587   3.180   0.361   2.026 -0.6282 -1.5691 -0.4615
 8710SOL     OW37588   2.200   4.527   8.278 -0.3723 -0.0132  0.1887
 8710SOL    HW137589   2.132   4.593   8.288  2.2214  2.2865  2.5494
 8710SOL    HW237590   2.282   4.576   8.267  0.5253 -1.3021  1.1211
 8711SOL     OW37591   4.204   0.278   3.359  0.0294 -0.1514 -0.0635
 8711SOL    HW137592   4.252   0.215   3.413  0.4806  0.2140 -0.0288
 8711SOL    HW237593   4.254   0.273   3.277  1.6632 -1.0711  0.9938
 8712SOL     OW37594   1.432   2.222   7.494  0.4155  1.0031 -0.1276
 8712SOL    HW137595   1.453   2.292   7.432  2.0089  0.7455  0.1378
 8712SOL    HW237596   1.516   2.179   7.502  0.5299  0.5318 -3.6898
 8713SOL     OW37597   3.233   3.368  16.927  0.1630 -0.4269  0.5124
 8713SOL    HW137598   3.251   3.279  16.955  0.0885  0.0841  2.1895
 8713SOL    HW237599   3.140   3.378  16.950  0.6838 -0.0021  2.4916
 8714SOL     OW37600   0.591   1.494   8.851  0.4514 -0.0950  0.6358
 8714SOL    HW137601   0.596   1.522   8.943 -2.1576 -0.2060  0.8379
 8714SOL    HW237602   0.676   1.512   8.812 -0.0322 -1.5890 -1.1015
 8715SOL     OW37603   3.240   4.363   6.219 -0.2590 -0.3814 -0.0557
 8715SOL    HW137604   3.293   4.443   6.214  0.3551 -0.8340 -0.8686
 8715SOL    HW237605   3.193   4.389   6.298  1.0560  1.2696  0.1948
 8716SOL     OW37606   0.907   1.437   8.142 -0.1540  0.2035  0.1008
 8716SOL    HW137607   0.867   1.414   8.225 -1.1318  1.1577 -0.1088
 8716SOL    HW237608   0.863   1.373   8.086 -1.8592 -0.8599  2.6633
 8717SOL     OW37609   4.605   3.347   6.774 -0.0154 -0.2436 -0.3450
 8717SOL    HW137610   4.516   3.352   6.810  0.4964  1.8543  0.6442
 8717SOL    HW237611   4.642   3.279   6.831 -2.1900 -0.7759  0.4390
 8718SOL     OW37612   0.381   3.910   1.180 -0.2639 -0.4823  0.0259
 8718SOL    HW137613   0.370   3.911   1.085  1.8509  0.1088 -0.2109
 8718SOL    HW237614   0.472   3.934   1.194 -0.7381  1.3339  0.1299
 8719SOL     OW37615   1.912   3.685   5.443  0.8620 -0.1446  0.4145
 8719SOL    HW137616   1.848   3.712   5.377 -2.1791 -0.9863  3.0689
 8719SOL    HW237617   1.951   3.608   5.401 -1.1053 -0.0235 -1.6502
 8720SOL     OW37618   2.987   1.577   6.005  0.2181  0.3218 -0.0716
 8720SOL    HW137619   3.042   1.639   5.957  0.6228 -1.0271 -1.3497
 8720SOL    HW237620   2.991   1.590   6.100  2.1504  0.9918 -0.2645
 8721SOL     OW37621   2.780   4.298   6.836 -0.4480 -0.3954 -0.1707
 8721SOL    HW137622   2.822   4.290   6.750 -1.4377  0.3740 -0.7338
 8721SOL    HW237623   2.743   4.211   6.849  0.0513 -0.5575  0.1286
 8722SOL     OW37624   4.065   0.315   1.708 -0.0723 -0.0774  0.2364
 8722SOL    HW137625   3.988   0.359   1.670 -0.9823 -1.7856  0.1198
 8722SOL    HW237626   4.073   0.235   1.655 -0.5351  0.0220  0.0138
 8723SOL     OW37627   1.498   2.958  14.637 -0.4666 -0.0138 -0.4289
 8723SOL    HW137628   1.508   2.866  14.613 -1.2512  0.2080 -1.6313
 8723SOL    HW237629   1.429   2.948  14.703  1.2640  2.9122  1.8582
 8724SOL     OW37630   0.357   4.033   3.950 -0.3847 -0.1664  0.0901
 8724SOL    HW137631   0.278   3.990   3.915 -0.6058  0.3557 -0.0642
 8724SOL    HW237632   0.385   4.077   3.870 -3.2644  1.6213  0.0461
 8725SOL     OW37633   3.442   2.710   5.300 -0.3227 -0.1214  0.4889
 8725SOL    HW137634   3.402   2.776   5.357 -0.2162  2.2489 -2.1791
 8725SOL    HW237635   3.491   2.767   5.240 -1.1512 -0.5084 -0.5507
 8726SOL     OW37636   1.059   1.837   0.172 -0.0565 -0.5434 -0.2797
 8726SOL    HW137637   1.077   1.826   0.266 -0.9723  0.6091  0.0391
 8726SOL    HW237638   0.986   1.777   0.157 -1.7741  2.0085 -1.9993
 8727SOL     OW37639   2.553   3.437  13.912  0.0018  0.4417 -0.6393
 8727SOL    HW137640   2.597   3.522  13.904  1.5987 -0.1953  1.5341
 8727SOL    HW237641   2.463   3.467  13.928 -0.3465 -0.0886 -1.6374
 8728SOL     OW37642   1.570   3.966  17.537  0.4547  0.8174 -0.0943
 8728SOL    HW137643   1.564   4.060  17.557  0.7370  1.5165 -3.2820
 8728SOL    HW237644   1.531   3.961  17.449  2.2065  1.6148 -0.9184
 8729SOL     OW37645   2.695   1.509   9.220 -0.0407 -0.2757  0.1214
 8729SOL    HW137646   2.773   1.461   9.195  0.2870  1.5875 -2.4340
 8729SOL    HW237647   2.674   1.548   9.135 -0.1527  0.1755  0.3533
 8730SOL     OW37648   1.577   1.870   7.237 -0.1678 -0.4004 -0.0325
 8730SOL    HW137649   1.653   1.915   7.200 -0.6031 -1.3667 -2.1061
 8730SOL    HW237650   1.627   1.817   7.298 -1.8588 -1.5143  0.4014
 8731SOL     OW37651   1.765   0.830   0.802  0.0663  0.2394  0.2152
 8731SOL    HW137652   1.808   0.826   0.888 -1.8420 -0.0182  1.1664
 8731SOL    HW237653   1.695   0.767   0.819  2.1608 -1.9601  0.6871
 8732SOL     OW37654   3.765   1.055   9.388  0.0908  0.4019  0.0871
 8732SOL    HW137655   3.699   1.112   9.348 -1.7620 -0.5015  1.8683
 8732SOL    HW237656   3.813   1.124   9.434  1.4945 -1.0943  0.8377
 8733SOL     OW37657   3.440   2.113   7.331  0.0178 -0.7063  0.1995
 8733SOL    HW137658   3.438   2.061   7.251 -1.5308  0.9635 -0.8476
 8733SOL    HW237659   3.470   2.198   7.298  0.4264  0.3030  3.2427
 8734SOL     OW37660   3.790   3.643   9.059 -0.1630  0.0502  0.1380
 8734SOL    HW137661   3.849   3.641   9.134  0.4428  1.0484 -0.3100
 8734SOL    HW237662   3.701   3.642   9.094 -0.9351  3.0148 -1.7448
 8735SOL     OW37663   2.392   0.063   4.659  0.1031 -0.4254 -0.7560
 8735SOL    HW137664   2.298   0.053   4.643  0.4028 -0.1943 -2.7498
 8735SOL    HW237665   2.412   0.056   4.752 -0.1681 -0.7348 -0.7215
 8736SOL     OW37666   3.251   1.319  10.981 -0.0479 -0.1479 -0.3795
 8736SOL    HW137667   3.219   1.239  11.022  0.3233 -0.0728  0.0630
 8736SOL    HW237668   3.239   1.304  10.888  3.6544 -0.3690 -0.8200
 8737SOL     OW37669   0.734   3.383   0.542  0.0256  0.2265  0.0349
 8737SOL    HW137670   0.639   3.397   0.548  0.1698  0.7219  1.2475
 8737SOL    HW237671   0.761   3.401   0.632  0.7755  1.5696 -0.4570
 8738SOL     OW37672   2.408   1.575  16.250 -0.4035  0.2841  0.2495
 8738SOL    HW137673   2.454   1.538  16.176  0.4485  1.2758  0.2908
 8738SOL    HW237674   2.318   1.590  16.220 -0.9052 -1.8114  0.7300
 8739SOL     OW37675   3.071   4.591   2.824  0.7381 -0.8765 -0.1230
 8739SOL    HW137676   3.057   4.635   2.740 -1.0069  1.0774  1.1855
 8739SOL    HW237677   3.160   4.557   2.826  0.9801 -0.4239 -2.6993
 8740SOL     OW37678   3.451   0.074  13.499  0.5276  0.0336 -0.5519
 8740SOL    HW137679   3.474   4.705  13.504  0.9318  0.1527 -0.2705
 8740SOL    HW237680   3.374   0.085  13.556 -1.1350 -0.1064 -2.7506
 8741SOL     OW37681   0.956   1.204   9.188  0.5587 -0.2085  0.3216
 8741SOL    HW137682   0.870   1.199   9.228  0.0902  0.7468 -0.5489
 8741SOL    HW237683   0.934   1.264   9.116  4.4351 -0.7082 -1.2779
 8742SOL     OW37684   2.472   3.984   4.549  0.1027  0.4590 -0.0090
 8742SOL    HW137685   2.462   3.948   4.461  0.1860 -0.8377  0.5175
 8742SOL    HW237686   2.378   3.999   4.560 -0.5202 -1.8953 -2.2233
 8743SOL     OW37687   3.700   3.532  12.759  0.2609 -0.3645  0.1426
 8743SOL    HW137688   3.714   3.438  12.776 -0.6486 -0.9444 -2.3316
 8743SOL    HW237689   3.765   3.562  12.696  1.8325  0.4018  2.1450
 8744SOL     OW37690   2.255   0.557   6.202 -0.1598 -0.0613 -0.2437
 8744SOL    HW137691   2.210   0.475   6.181  2.3155 -1.4602 -0.0607
 8744SOL    HW237692   2.329   0.520   6.251 -1.1983 -1.6768  0.1062
 8745SOL     OW37693   1.662   2.266   7.276  0.1024 -0.3585 -0.8296
 8745SOL    HW137694   1.748   2.254   7.235  1.2863  2.4946  0.8664
 8745SOL    HW237695   1.636   2.174   7.285  0.7696 -0.3181  1.6110
 8746SOL     OW37696   1.129   0.492   7.768 -0.3309  0.2337 -0.0028
 8746SOL    HW137697   1.141   0.412   7.819  1.3676 -0.1946 -1.0571
 8746SOL    HW237698   1.224   0.505   7.767 -0.2954  0.0171  0.8274
 8747SOL     OW37699   3.116   3.620  10.901 -0.2582  0.3440 -0.1240
 8747SOL    HW137700   3.030   3.605  10.940 -0.3483 -1.2764 -0.9540
 8747SOL    HW237701   3.109   3.708  10.864 -0.4463  0.4167  0.0868
 8748SOL     OW37702   1.573   0.492   7.829  0.5244 -0.2491  0.4283
 8748SOL    HW137703   1.656   0.473   7.873  0.6578 -0.2844  0.1618
 8748SOL    HW237704   1.531   0.554   7.889  0.0117  0.7447 -0.9442
 8749SOL     OW37705   3.482   3.471   5.114  0.3351 -0.5722 -0.6905
 8749SOL    HW137706   3.438   3.469   5.199  1.0793 -0.3202 -0.2953
 8749SOL    HW237707   3.514   3.381   5.116  0.9709 -0.3662 -1.4170
 8750SOL     OW37708   2.356   4.372   2.478  0.3124  0.0733  0.1680
 8750SOL    HW137709   2.315   4.292   2.510  0.9458 -0.9642 -1.6084
 8750SOL    HW237710   2.448   4.348   2.468  0.8154  1.4186  1.4962
 8751SOL     OW37711   1.838   2.529   6.703  0.5390 -0.5067  0.2064
 8751SOL    HW137712   1.833   2.603   6.642  2.6953  0.5218  1.2805
 8751SOL    HW237713   1.745   2.509   6.710 -0.0821  2.2106 -0.2475
 8752SOL     OW37714   1.504   3.336   5.772  0.0275  0.6530 -0.3980
 8752SOL    HW137715   1.485   3.357   5.681 -2.0776  1.4866  0.2301
 8752SOL    HW237716   1.488   3.420   5.814  0.0434 -0.1938  1.3100
 8753SOL     OW37717   0.857   1.731  10.385 -0.7277  0.0081 -0.1881
 8753SOL    HW137718   0.930   1.753  10.443 -1.3635  0.1357  0.5637
 8753SOL    HW237719   0.835   1.643  10.414  1.9180 -1.2132 -1.8586
 8754SOL     OW37720   2.686   4.622   5.012 -0.0846  0.0501  0.2076
 8754SOL    HW137721   2.731   4.699   4.978 -0.4173  0.9703  1.8796
 8754SOL    HW237722   2.760   4.561   5.016  0.7454  0.9553 -1.4798
 8755SOL     OW37723   4.245   2.351   4.437 -0.2937  0.0379 -0.2002
 8755SOL    HW137724   4.257   2.334   4.530  0.7266 -3.2753 -0.9142
 8755SOL    HW237725   4.330   2.393   4.422 -0.8492  1.1044 -0.3263
 8756SOL     OW37726   3.424   0.749   7.871 -0.1575  0.7631  0.0968
 8756SOL    HW137727   3.409   0.788   7.956 -0.3500  0.7378  0.0750
 8756SOL    HW237728   3.517   0.729   7.867 -0.2477 -0.1447  2.7758
 8757SOL     OW37729   1.915   2.322   8.140  0.0098  0.2226 -0.3982
 8757SOL    HW137730   1.986   2.339   8.201  0.1627  1.3593 -0.8982
 8757SOL    HW237731   1.974   2.336   8.066  1.1495 -1.3364  0.2254
 8758SOL     OW37732   1.525   3.534   6.811  0.3620 -0.6402 -0.3252
 8758SOL    HW137733   1.577   3.602   6.768  1.6863 -0.5853  1.3835
 8758SOL    HW237734   1.475   3.583   6.876 -0.9953  0.4334 -2.1715
 8759SOL     OW37735   4.148   3.929  16.801 -0.1588  0.2430 -0.0077
 8759SOL    HW137736   4.105   4.003  16.843 -0.5074 -1.1187  2.0395
 8759SOL    HW237737   4.227   3.915  16.854  1.2237 -2.2607 -2.7524
 8760SOL     OW37738   2.891   3.923   1.649 -0.1580 -0.5303 -0.5796
 8760SOL    HW137739   2.814   3.962   1.607  0.9892  0.6465 -1.6163
 8760SOL    HW237740   2.942   3.870   1.587 -0.8768 -1.6327 -0.2353
 8761SOL     OW37741   4.404   0.370   4.399 -0.0186 -0.6840 -0.2116
 8761SOL    HW137742   4.379   0.284   4.367  0.9685 -0.3132 -1.9615
 8761SOL    HW237743   4.473   0.346   4.461  1.6405 -2.0510 -2.6277
 8762SOL     OW37744   4.032   3.876   4.238 -0.5034 -0.2980  0.3261
 8762SOL    HW137745   4.032   3.835   4.151 -0.9697  1.5633 -0.5292
 8762SOL    HW237746   4.127   3.871   4.247 -0.4562  0.5723  0.2122
 8763SOL     OW37747   4.137   3.381   8.565 -0.1269  0.2180 -0.2486
 8763SOL    HW137748   4.206   3.444   8.545 -0.4537  0.9202  0.8236
 8763SOL    HW237749   4.138   3.342   8.478  0.9276 -1.1206  0.3620
 8764SOL     OW37750   2.613   3.159   4.435  0.2928  0.5408 -0.2232
 8764SOL    HW137751   2.681   3.098   4.463 -0.1481 -0.7151 -1.8841
 8764SOL    HW237752   2.544   3.093   4.440  0.4160  0.1601 -3.1368
 8765SOL     OW37753   1.263   4.578   0.229 -1.0100 -0.1075 -0.3291
 8765SOL    HW137754   1.280   4.504   0.172 -1.5073 -0.7765  0.3951
 8765SOL    HW237755   1.256   4.640   0.156  0.6061  1.8315  1.1350
 8766SOL     OW37756   3.051   3.394   3.034 -0.2527 -0.1637  0.0648
 8766SOL    HW137757   3.008   3.397   2.948  1.3048 -0.5931 -0.7324
 8766SOL    HW237758   3.135   3.433   3.010 -1.4597  2.8844  0.8917
 8767SOL     OW37759   3.973   2.888   6.635 -0.3211  0.0208 -0.2950
 8767SOL    HW137760   3.957   2.982   6.642  0.3197  0.2719 -2.0209
 8767SOL    HW237761   4.046   2.894   6.696 -0.3195 -0.1250 -0.2825
 8768SOL     OW37762   1.233   1.704   8.228 -0.5310 -0.1536  0.3095
 8768SOL    HW137763   1.225   1.713   8.322 -2.3130 -0.3548  0.1916
 8768SOL    HW237764   1.247   1.795   8.201  2.0158 -0.1459  1.7129
 8769SOL     OW37765   2.168   3.997   8.090 -0.3451 -0.0201  0.2006
 8769SOL    HW137766   2.141   4.086   8.112 -3.3107 -0.8484 -0.0073
 8769SOL    HW237767   2.250   4.010   8.042 -0.2534 -1.9867 -0.1685
 8770SOL     OW37768   0.625   1.639   6.767  0.8245  0.3809  0.0952
 8770SOL    HW137769   0.614   1.555   6.722 -1.1826  0.0797  1.1372
 8770SOL    HW237770   0.603   1.705   6.701 -0.9041  0.7796  1.0643
 8771SOL     OW37771   0.334   2.539   3.766 -0.3460 -0.4135  0.9651
 8771SOL    HW137772   0.372   2.557   3.680  2.0496  2.1279  2.5615
 8771SOL    HW237773   0.264   2.476   3.748  0.9815 -2.1228  1.6993
 8772SOL     OW37774   2.920   3.366   3.836  0.6174 -0.3715  0.3905
 8772SOL    HW137775   2.931   3.434   3.902  3.2926  0.4152 -0.8713
 8772SOL    HW237776   2.857   3.413   3.782 -1.7289 -3.0950  0.7351
 8773SOL     OW37777   2.351   2.933  12.765  0.2109 -0.2479  0.3986
 8773SOL    HW137778   2.416   2.909  12.831  1.0636 -0.8598 -0.6709
 8773SOL    HW237779   2.402   2.971  12.693 -1.1386  0.4454 -0.1960
 8774SOL     OW37780   1.006   4.308   4.553 -0.1330 -0.5449  0.2895
 8774SOL    HW137781   0.996   4.255   4.474 -0.8408 -0.7295  0.5039
 8774SOL    HW237782   1.087   4.276   4.593  0.2488  2.0228  1.5932
 8775SOL     OW37783   0.123   2.162   4.806 -0.0808 -0.3826  0.6937
 8775SOL    HW137784   0.063   2.088   4.800 -1.3875  0.6368  0.9967
 8775SOL    HW237785   0.100   2.199   4.891 -0.8211 -0.6756  0.6269
 8776SOL     OW37786   0.459   3.137   2.980 -0.2084  0.1746 -0.3595
 8776SOL    HW137787   0.551   3.133   3.005  0.0375  1.3697 -1.0493
 8776SOL    HW237788   0.443   3.231   2.967 -0.8826  0.2277  0.8607
 8777SOL     OW37789   1.393   4.013   3.289 -0.5338  0.2264  0.8010
 8777SOL    HW137790   1.434   3.962   3.219  0.1260  2.0370 -0.1496
 8777SOL    HW237791   1.418   4.104   3.271  2.3897 -0.8167 -0.4306
 8778SOL     OW37792   3.273   0.056  11.808 -0.0228 -0.2270  0.3277
 8778SOL    HW137793   3.205   0.015  11.861 -0.8570 -0.9271 -1.2699
 8778SOL    HW237794   3.243   0.083  11.721  0.8545 -0.3123 -0.0098
 8779SOL     OW37795   4.334   3.952   5.619  0.1731 -0.0072 -0.3157
 8779SOL    HW137796   4.352   3.879   5.679  0.8037 -1.1235 -1.8679
 8779SOL    HW237797   4.318   4.019   5.685 -2.8175  1.6056 -2.6624
 8780SOL     OW37798   3.614   2.066   2.297  0.4410  0.2248 -0.0328
 8780SOL    HW137799   3.533   2.115   2.314 -0.3466 -1.5139  1.2599
 8780SOL    HW237800   3.602   2.001   2.366  1.1092  0.6878  0.5229
 8781SOL     OW37801   0.996   1.203   4.724  0.0938  0.1967  0.7351
 8781SOL    HW137802   0.931   1.248   4.779 -1.0761 -0.3571 -0.1914
 8781SOL    HW237803   1.074   1.225   4.773  1.1267  0.5275 -1.0495
 8782SOL     OW37804   3.349   4.449   9.673  0.1602  0.1756  0.2452
 8782SOL    HW137805   3.409   4.504   9.724 -0.0939  1.6156 -0.9836
 8782SOL    HW237806   3.339   4.372   9.728 -0.2015  0.7527  1.0010
 8783SOL     OW37807   4.092   1.435  13.765  0.9403  0.2359 -0.0774
 8783SOL    HW137808   4.112   1.497  13.836  0.0771  0.4365 -0.0079
 8783SOL    HW237809   4.153   1.471  13.700  1.2093  1.4940  0.8530
 8784SOL     OW37810   2.078   3.555   6.496 -0.3140  0.5924 -0.4655
 8784SOL    HW137811   2.078   3.513   6.410 -2.5562 -3.6316  1.6023
 8784SOL    HW237812   2.106   3.643   6.470 -0.9116 -0.2121 -3.7913
 8785SOL     OW37813   0.344   3.294   7.172 -0.2413 -0.2632 -0.0785
 8785SOL    HW137814   0.409   3.313   7.239 -1.8215  0.6862  1.1927
 8785SOL    HW237815   0.274   3.269   7.232 -0.4850  0.0246 -0.2409
 8786SOL     OW37816   4.033   4.113   9.703  0.3444 -0.0455 -0.4479
 8786SOL    HW137817   4.038   4.050   9.631  1.1569 -0.5553  0.0464
 8786SOL    HW237818   3.999   4.185   9.651 -0.3461 -0.0832 -0.0515
 8787SOL     OW37819   0.116   2.588   5.276  0.1454  0.3661 -0.1039
 8787SOL    HW137820   0.156   2.561   5.193 -1.4544  1.4657 -1.2321
 8787SOL    HW237821   0.056   2.653   5.239  1.1796  1.6609  0.4796
 8788SOL     OW37822   2.027   2.728   2.208 -0.0218  0.0730 -0.1911
 8788SOL    HW137823   1.953   2.667   2.208 -0.5933  0.7690 -1.1490
 8788SOL    HW237824   2.096   2.671   2.174  1.6205  0.9952  1.6320
 8789SOL     OW37825   0.166   3.350   4.960  0.1513 -0.1413  0.1644
 8789SOL    HW137826   0.210   3.377   5.040 -0.2770  0.0731  0.3277
 8789SOL    HW237827   0.208   3.268   4.933  0.7084  0.9072 -2.1570
 8790SOL     OW37828   3.938   3.945   9.244 -0.2115 -0.3643  0.0800
 8790SOL    HW137829   3.914   4.008   9.176 -0.0614 -0.6946 -0.2815
 8790SOL    HW237830   3.860   3.892   9.259  0.8841 -1.6490  1.1864
 8791SOL     OW37831   1.047   2.832   6.239 -0.1559  0.2115 -0.2931
 8791SOL    HW137832   0.981   2.869   6.180 -0.5467 -1.3451 -0.8126
 8791SOL    HW237833   1.013   2.744   6.251 -0.4687  0.3009 -0.5114
 8792SOL     OW37834   3.834   0.819   2.539 -0.2264 -0.2127 -0.0716
 8792SOL    HW137835   3.881   0.802   2.458 -0.5198 -0.1673 -0.2525
 8792SOL    HW237836   3.816   0.732   2.574  1.0157  1.2135  4.2315
 8793SOL     OW37837   1.712   1.413   6.690 -0.3452  0.3211  0.0914
 8793SOL    HW137838   1.629   1.367   6.698 -0.2388  0.3945  1.5125
 8793SOL    HW237839   1.733   1.401   6.597 -2.0052 -1.3801 -0.0528
 8794SOL     OW37840   3.047   3.494   3.524  0.1714 -0.3650  0.2640
 8794SOL    HW137841   3.027   3.534   3.439 -3.3665  0.0084  1.2712
 8794SOL    HW237842   2.969   3.514   3.577 -1.2878 -1.4222 -1.4938
 8795SOL     OW37843   2.993   4.466   8.637  0.2547  0.4236  0.1001
 8795SOL    HW137844   2.938   4.408   8.689  1.4860 -0.5614  0.3127
 8795SOL    HW237845   2.998   4.539   8.699  1.5652  1.3324 -1.0693
 8796SOL     OW37846   2.509   1.693   4.393 -0.5662  0.3550  0.3758
 8796SOL    HW137847   2.484   1.764   4.334  1.5181  0.2927 -0.6024
 8796SOL    HW237848   2.500   1.614   4.339 -0.4365  2.1480 -2.2934
 8797SOL     OW37849   2.426   3.065   5.514 -0.2886 -0.1613 -0.1819
 8797SOL    HW137850   2.358   3.133   5.522 -1.0076 -1.1424  2.0007
 8797SOL    HW237851   2.484   3.101   5.580 -0.0096  0.7915 -0.9588
 8798SOL     OW37852   1.036   3.767   0.229 -0.0144 -0.4433  0.1134
 8798SOL    HW137853   1.101   3.748   0.297  0.1796 -2.7279 -0.6899
 8798SOL    HW237854   0.979   3.828   0.275  0.3444 -0.5259  0.6661
 8799SOL     OW37855   1.552   3.309   1.703  0.2673 -0.2218  0.1092
 8799SOL    HW137856   1.468   3.345   1.676  0.6923 -0.1729 -1.1567
 8799SOL    HW237857   1.588   3.386   1.746 -1.4067  0.0646  0.9945
 8800SOL     OW37858   1.523   3.927   4.572 -0.3314 -0.9468 -0.1378
 8800SOL    HW137859   1.487   3.843   4.599  1.0675 -2.2508 -2.3288
 8800SOL    HW237860   1.553   3.902   4.485  0.1818 -0.9837  0.0534
 8801SOL     OW37861   4.308   3.210   7.898  0.1825 -0.2597  0.6961
 8801SOL    HW137862   4.243   3.238   7.833  1.6944  0.5894 -0.4466
 8801SOL    HW237863   4.361   3.286   7.922 -0.6997 -0.2495  2.5901
 8802SOL     OW37864   2.597   2.933  11.952 -0.0062 -0.2726 -0.0661
 8802SOL    HW137865   2.582   2.974  12.037 -1.9500 -1.1245  0.0162
 8802SOL    HW237866   2.692   2.938  11.947 -0.0010 -0.5795 -0.2519
 8803SOL     OW37867   4.099   3.695   3.246  0.4056  0.0727  0.5804
 8803SOL    HW137868   4.078   3.645   3.325  1.5680  1.4013  1.7291
 8803SOL    HW237869   4.109   3.627   3.180 -1.2984  0.1057  0.2890
 8804SOL     OW37870   3.875   0.833   9.298 -0.6538  0.0223 -0.1137
 8804SOL    HW137871   3.840   0.914   9.337 -1.8579 -0.1458 -0.8486
 8804SOL    HW237872   3.913   0.865   9.216 -1.1976 -1.3722 -0.9078
 8805SOL     OW37873   2.406   1.959   3.781  0.4303  0.2957 -0.3493
 8805SOL    HW137874   2.335   1.936   3.841  1.1180  0.5477  0.5731
 8805SOL    HW237875   2.456   2.012   3.844 -2.8728  2.0252  0.8005
 8806SOL     OW37876   1.955   0.425   4.643 -0.4243  0.1109 -0.0697
 8806SOL    HW137877   1.977   0.466   4.727  0.0257  2.1626 -1.1833
 8806SOL    HW237878   1.892   0.489   4.610 -2.0089 -2.3290 -1.7652
 8807SOL     OW37879   3.878   0.181   5.649  0.5638  0.0003 -0.0307
 8807SOL    HW137880   3.939   0.251   5.672  0.5019  0.4274 -1.1440
 8807SOL    HW237881   3.800   0.195   5.703  0.5608 -0.2427  0.0248
 8808SOL     OW37882   0.180   0.534   9.189 -0.1905  0.0358  0.2452
 8808SOL    HW137883   0.097   0.566   9.225  0.8003 -0.7092  3.1607
 8808SOL    HW237884   0.149   0.453   9.148 -1.8435  0.5708  0.4466
 8809SOL     OW37885   3.428   1.075   3.589  0.4263  0.0312  0.1726
 8809SOL    HW137886   3.488   1.144   3.617  1.0474  0.0571 -1.2297
 8809SOL    HW237887   3.477   1.004   3.630  1.3548 -0.2001 -1.3295
 8810SOL     OW37888   4.446   2.254   9.005 -0.0816 -0.1408 -0.2290
 8810SOL    HW137889   4.396   2.265   9.086 -1.5438  1.8886 -1.3883
 8810SOL    HW237890   4.519   2.312   9.026 -0.6108  0.8181 -1.0633
 8811SOL     OW37891   3.149   2.285   2.369  0.6604 -0.5747  0.1625
 8811SOL    HW137892   3.077   2.299   2.430 -0.4550 -2.3953 -0.7007
 8811SOL    HW237893   3.098   2.271   2.289  0.6617  2.2071 -0.3041
 8812SOL     OW37894   1.533   3.025  14.366  0.3228 -0.5083  0.5251
 8812SOL    HW137895   1.524   3.036  14.460 -3.0509 -1.2273  0.2550
 8812SOL    HW237896   1.538   2.929  14.359  2.8561 -0.1476 -2.9520
 8813SOL     OW37897   0.829   1.495   5.775  0.3663 -0.4926 -0.5363
 8813SOL    HW137898   0.812   1.403   5.796 -0.5127 -0.1748  0.0999
 8813SOL    HW237899   0.919   1.492   5.741  0.6692 -1.7045  0.3615
 8814SOL     OW37900   3.670   0.394   3.665  0.0518 -0.2171  0.1125
 8814SOL    HW137901   3.689   0.342   3.743 -3.3996  2.4550  2.6913
 8814SOL    HW237902   3.634   0.466   3.715 -2.7171 -1.4310 -0.1430
 8815SOL     OW37903   4.513   3.982  11.471 -0.0076  0.0989  0.3476
 8815SOL    HW137904   4.496   4.019  11.557 -0.3428 -0.2676  0.4405
 8815SOL    HW237905   4.507   3.887  11.487 -1.7727  0.2861  0.7967
 8816SOL     OW37906   3.528   1.651   7.132  0.3402  0.3000 -0.5079
 8816SOL    HW137907   3.510   1.684   7.220 -0.9795 -0.4007 -0.5142
 8816SOL    HW237908   3.567   1.565   7.149 -0.4813  0.4679  2.2153
 8817SOL     OW37909   0.068   0.215   9.149 -0.2622  0.6662 -0.1297
 8817SOL    HW137910   4.718   0.154   9.146 -1.6110  2.1777  2.5042
 8817SOL    HW237911   0.127   0.176   9.213 -0.4373  1.2082  0.3607
 8818SOL     OW37912   2.064   0.801   5.232  0.2970 -0.2753 -0.4974
 8818SOL    HW137913   2.075   0.888   5.193  1.4311 -0.6276 -0.9558
 8818SOL    HW237914   2.080   0.745   5.157  0.8541 -0.2363 -0.4071
 8819SOL     OW37915   2.414   1.390   8.261  0.0107 -0.1781  0.3216
 8819SOL    HW137916   2.434   1.365   8.352  2.5612 -0.4970 -0.3202
 8819SOL    HW237917   2.340   1.447   8.285 -0.1067  0.8640 -2.4995
 8820SOL     OW37918   0.835   3.283  11.248  0.5071  0.1344  0.2235
 8820SOL    HW137919   0.891   3.224  11.197  0.2621  1.3592 -1.4807
 8820SOL    HW237920   0.839   3.370  11.208 -0.6798 -0.4846 -1.2557
 8821SOL     OW37921   3.563   1.408   7.948 -0.2635  0.2407 -0.2083
 8821SOL    HW137922   3.541   1.409   7.855  0.6213  0.8027 -0.4071
 8821SOL    HW237923   3.554   1.316   7.972 -0.4481  0.6688  1.3957
 8822SOL     OW37924   1.091   1.203  11.684  0.4147 -0.3570  0.0870
 8822SOL    HW137925   1.181   1.209  11.652  0.7908 -0.7986  1.0702
 8822SOL    HW237926   1.100   1.241  11.771 -2.9071  2.1081 -0.6549
 8823SOL     OW37927   1.887   0.585   0.959 -0.3986 -0.2238  0.2524
 8823SOL    HW137928   1.924   0.673   0.969  1.8299 -1.3004  1.4410
 8823SOL    HW237929   1.805   0.617   0.921 -0.2936 -0.9667 -0.5803
 8824SOL     OW37930   1.604   1.483   6.221 -0.0805 -0.2823 -0.1286
 8824SOL    HW137931   1.582   1.572   6.191  2.4081  0.7773  1.1518
 8824SOL    HW237932   1.683   1.467   6.168  0.7057  0.9813  0.6650
 8825SOL     OW37933   0.284   3.593   8.183 -0.1458 -0.2422 -0.4711
 8825SOL    HW137934   0.350   3.553   8.126  0.3064  2.8110 -2.0614
 8825SOL    HW237935   0.304   3.549   8.266  1.2260  1.4134  0.0883
 8826SOL     OW37936   1.299   0.514   4.458 -0.0722  0.5733 -0.5200
 8826SOL    HW137937   1.217   0.505   4.507  0.0415  0.0152 -0.4238
 8826SOL    HW237938   1.269   0.532   4.369 -2.8201  0.4740  0.3814
 8827SOL     OW37939   4.443   0.352   9.112 -0.3136  0.3625  0.3306
 8827SOL    HW137940   4.405   0.276   9.154 -0.2269  0.4989  0.6535
 8827SOL    HW237941   4.526   0.352   9.160 -0.4157  0.1114  0.5033
 8828SOL     OW37942   4.070   0.734   8.101  0.3445  0.0435  0.4673
 8828SOL    HW137943   4.139   0.675   8.073  0.7283  0.1847  1.1194
 8828SOL    HW237944   4.085   0.775   8.186  2.2307 -1.2011  0.7227
 8829SOL     OW37945   2.536   1.940   4.986  0.3760  0.3623 -0.1090
 8829SOL    HW137946   2.581   1.950   5.070 -0.3876 -0.5289  0.3976
 8829SOL    HW237947   2.539   1.845   4.976  0.1249  0.2120  1.2684
 8830SOL     OW37948   3.585   2.603  17.506  0.1772 -0.5729  0.1952
 8830SOL    HW137949   3.514   2.666  17.498  0.4531 -0.1429  1.1881
 8830SOL    HW237950   3.596   2.550  17.426 -1.6017 -0.0210 -0.4179
 8831SOL     OW37951   2.601   3.897   8.433  0.3273  0.2057  0.8039
 8831SOL    HW137952   2.691   3.905   8.402  0.4447  0.0042  1.0964
 8831SOL    HW237953   2.623   3.927   8.521  0.7047 -1.5375  1.3086
 8832SOL     OW37954   1.991   0.576  14.272 -0.6530 -0.2042  0.2098
 8832SOL    HW137955   1.940   0.576  14.353 -0.3964  2.6989  0.3614
 8832SOL    HW237956   1.946   0.648  14.228  0.2744 -0.3088 -0.9075
 8833SOL     OW37957   1.188   0.797  12.885  0.5059 -0.4147  0.1735
 8833SOL    HW137958   1.209   0.888  12.904 -0.9846  0.2747 -1.4945
 8833SOL    HW237959   1.147   0.807  12.799  3.8430  1.3093 -1.2483
 8834SOL     OW37960   3.165   2.351   3.924 -0.0044 -0.4172  0.8206
 8834SOL    HW137961   3.152   2.367   3.831 -2.9780 -0.6289  1.1987
 8834SOL    HW237962   3.115   2.273   3.949 -1.0742 -0.3727 -1.2080
 8835SOL     OW37963   2.070   2.569  15.122 -0.1185 -0.2607  0.6614
 8835SOL    HW137964   2.149   2.561  15.070 -1.3272  1.6752 -1.4477
 8835SOL    HW237965   2.061   2.664  15.126  2.3379  0.0954 -2.2267
 8836SOL     OW37966   1.165   1.747   4.792 -0.1933 -0.3475 -0.0585
 8836SOL    HW137967   1.105   1.805   4.745  0.1188 -1.5057 -1.8494
 8836SOL    HW237968   1.254   1.769   4.765 -0.4978  1.2288  0.2248
 8837SOL     OW37969   3.071   0.065   6.749  0.3761  0.4824  0.1806
 8837SOL    HW137970   3.068   0.102   6.838  0.5607 -0.0359  0.4021
 8837SOL    HW237971   3.156   0.100   6.723  0.5798 -1.0813 -1.2979
 8838SOL     OW37972   1.906   0.845  10.351 -0.6705 -0.1521  0.4208
 8838SOL    HW137973   1.878   0.754  10.341  0.9433 -0.6889  0.7247
 8838SOL    HW237974   1.830   0.899  10.330  0.3963  0.8618 -0.8684
 8839SOL     OW37975   2.695   2.211   4.685 -0.0182 -0.1748  0.4511
 8839SOL    HW137976   2.778   2.184   4.724 -0.4448 -0.0168  1.4671
 8839SOL    HW237977   2.688   2.284   4.746 -3.6632 -0.1812  0.0735
 8840SOL     OW37978   4.550   0.729   4.418 -0.4975 -0.5257  0.5274
 8840SOL    HW137979   4.554   0.747   4.324  0.9435 -0.7440  0.5393
 8840SOL    HW237980   4.626   0.784   4.437 -1.3751  1.4489 -1.5715
 8841SOL     OW37981   2.383   3.478   1.908 -0.3134  0.6282 -0.0194
 8841SOL    HW137982   2.417   3.389   1.913 -1.4274  0.2252  0.4406
 8841SOL    HW237983   2.467   3.522   1.896  0.9689 -1.5651  0.8901
 8842SOL     OW37984   0.607   0.713   4.498 -0.8861  0.0956 -0.2371
 8842SOL    HW137985   0.587   0.632   4.451 -0.9013 -0.6592  1.0789
 8842SOL    HW237986   0.690   0.736   4.456 -1.7143  0.1406 -1.8586
 8843SOL     OW37987   1.027   3.411   4.900  0.0643  0.1882 -0.4592
 8843SOL    HW137988   1.018   3.338   4.962  0.4949  2.6352  2.4598
 8843SOL    HW237989   0.938   3.431   4.872 -0.3983  0.1106  0.9460
 8844SOL     OW37990   0.570   2.550   1.415  0.3857 -0.1217  0.3153
 8844SOL    HW137991   0.597   2.626   1.466 -1.6463  0.4484  0.5406
 8844SOL    HW237992   0.594   2.584   1.329 -0.6247  0.6882  0.3523
 8845SOL     OW37993   4.175   2.907   2.725  0.1077 -0.8494  0.5612
 8845SOL    HW137994   4.223   2.912   2.643 -0.1921  0.8013  0.4790
 8845SOL    HW237995   4.243   2.875   2.784  0.7626  1.5946  1.1444
 8846SOL     OW37996   2.892   2.664  14.404 -0.0660 -0.0834 -0.1075
 8846SOL    HW137997   2.873   2.708  14.487 -0.5005 -0.0275 -0.2381
 8846SOL    HW237998   2.965   2.606  14.426  0.6239  1.4326  1.6167
 8847SOL     OW37999   0.371   2.717   0.657  0.4923  0.0850  0.5193
 8847SOL    HW138000   0.308   2.763   0.602  1.5374  2.8343  1.6302
 8847SOL    HW238001   0.337   2.729   0.745 -3.0556  1.6076 -1.0703
 8848SOL     OW38002   2.778   4.138   0.659 -0.1344  0.3085  0.0148
 8848SOL    HW138003   2.845   4.176   0.603 -0.6439 -0.5025 -1.1503
 8848SOL    HW238004   2.753   4.216   0.709  1.3621  1.4538 -1.0284
 8849SOL     OW38005   3.529   3.750   8.682 -0.0242  0.1223  0.0216
 8849SOL    HW138006   3.450   3.763   8.630 -0.2432  0.2226  0.3849
 8849SOL    HW238007   3.547   3.658   8.661  2.1103  0.7072 -0.6526
 8850SOL     OW38008   2.964   2.859   7.458  0.2809 -0.1046  0.0152
 8850SOL    HW138009   2.923   2.781   7.420 -0.0765 -0.3201  0.8338
 8850SOL    HW238010   2.907   2.925   7.420  0.6174 -0.2301 -0.7048
 8851SOL     OW38011   3.516   3.117   5.415  0.1669  0.3897 -0.7532
 8851SOL    HW138012   3.591   3.173   5.431 -1.0231  2.0737 -1.0758
 8851SOL    HW238013   3.476   3.102   5.501  0.2509 -0.1886 -0.8102
 8852SOL     OW38014   2.805   1.743  11.682 -0.4869 -0.0622 -0.2923
 8852SOL    HW138015   2.882   1.774  11.636 -0.8012 -0.5411 -1.1345
 8852SOL    HW238016   2.748   1.747  11.605 -0.6853  0.8965 -0.0893
 8853SOL     OW38017   1.057   4.137  10.373 -0.2677  0.0836  0.4046
 8853SOL    HW138018   1.091   4.162  10.287  0.0664 -0.2892  0.4282
 8853SOL    HW238019   1.008   4.059  10.347  1.6630 -0.9873 -0.0293
 8854SOL     OW38020   3.633   2.482   6.765 -0.9479  0.2135 -0.6371
 8854SOL    HW138021   3.700   2.529   6.714 -0.0984 -1.7659 -1.3406
 8854SOL    HW238022   3.630   2.527   6.850  2.2449 -0.0203 -0.3888
 8855SOL     OW38023   3.657   3.628   3.549 -0.0871 -0.2652  0.6934
 8855SOL    HW138024   3.668   3.631   3.645 -2.4997  2.0645  0.9147
 8855SOL    HW238025   3.685   3.539   3.532 -0.8759 -0.1788 -1.0429
 8856SOL     OW38026   4.428   1.613   4.049  0.2145 -0.5682 -0.3727
 8856SOL    HW138027   4.391   1.563   4.121 -0.5377 -0.9371 -1.0299
 8856SOL    HW238028   4.521   1.589   4.045 -0.1165 -1.8824 -0.0031
 8857SOL     OW38029   1.086   4.031   5.188 -0.3720  0.0541 -0.0811
 8857SOL    HW138030   1.131   3.949   5.210 -1.6081 -0.4577  0.5369
 8857SOL    HW238031   1.112   4.093   5.256  0.1818  0.7967 -0.9690
 8858SOL     OW38032   1.870   0.340   2.115 -0.3853  0.1623 -0.5182
 8858SOL    HW138033   1.844   0.430   2.134 -0.4402  0.0507 -0.0629
 8858SOL    HW238034   1.868   0.333   2.020  1.9738 -1.9082 -0.4284
 8859SOL     OW38035   2.141   1.179  14.981  0.4207  0.0316 -0.2520
 8859SOL    HW138036   2.157   1.089  15.011 -2.3260 -1.2669 -2.5929
 8859SOL    HW238037   2.054   1.176  14.941  0.7398 -0.7648 -0.8861
 8860SOL     OW38038   0.651   0.361   1.174 -0.0440 -0.2467 -0.1527
 8860SOL    HW138039   0.577   0.419   1.156  0.3257  0.0334 -0.7659
 8860SOL    HW238040   0.617   0.287   1.224 -0.0424  0.3361  0.7121
 8861SOL     OW38041   3.356   2.968   4.587  0.2082 -0.0962 -0.1034
 8861SOL    HW138042   3.314   2.932   4.664  0.0460  1.7518  0.6787
 8861SOL    HW238043   3.316   3.053   4.565 -0.7800 -0.6150 -0.2788
 8862SOL     OW38044   3.290   0.532   2.988 -0.0223 -0.1690  0.2274
 8862SOL    HW138045   3.226   0.510   3.055  0.3804  1.0976  1.0178
 8862SOL    HW238046   3.278   0.470   2.915 -1.2898  0.9307 -0.5024
 8863SOL     OW38047   3.479   3.314   2.010 -0.0176  0.3921 -0.3356
 8863SOL    HW138048   3.432   3.332   1.928  0.0053  1.7922 -0.0502
 8863SOL    HW238049   3.411   3.292   2.073  3.7134 -2.2255  2.7587
 8864SOL     OW38050   2.473   3.402   6.792 -0.4048  0.3581  0.1025
 8864SOL    HW138051   2.420   3.409   6.871 -1.9276  2.1856 -1.0771
 8864SOL    HW238052   2.559   3.436   6.814 -0.2610  0.1621 -0.1609
 8865SOL     OW38053   0.745   2.205   0.661  0.2459 -0.4252  0.1266
 8865SOL    HW138054   0.736   2.119   0.701  0.0264 -1.1304 -1.4439
 8865SOL    HW238055   0.655   2.221   0.634  0.9791 -0.1120 -2.1608
 8866SOL     OW38056   1.645   3.035   2.022 -0.2571  0.1929 -0.2501
 8866SOL    HW138057   1.616   2.991   1.942 -2.2161 -0.2791  0.7159
 8866SOL    HW238058   1.714   3.091   1.987 -0.9553  0.6039 -0.9864
 8867SOL     OW38059   1.730   2.477  13.944  0.1492 -0.0910  0.2021
 8867SOL    HW138060   1.754   2.389  13.973  5.0992  1.0691 -0.3360
 8867SOL    HW238061   1.646   2.494  13.987  0.7482  3.3706  0.0419
 8868SOL     OW38062   0.237   2.175   1.394  0.5100  0.0792  0.3015
 8868SOL    HW138063   0.308   2.153   1.334 -1.4212 -1.3783 -1.4023
 8868SOL    HW238064   0.231   2.268   1.370  2.6102 -0.0450 -0.7423
 8869SOL     OW38065   1.624   4.330  14.602  0.3189  0.3504 -0.1923
 8869SOL    HW138066   1.622   4.336  14.697  0.0593  0.5936 -0.2105
 8869SOL    HW238067   1.703   4.277  14.596 -1.1579 -1.9514  1.0286
 8870SOL     OW38068   0.173   1.307   5.736  0.4977 -0.1131  0.1407
 8870SOL    HW138069   0.180   1.329   5.643  1.8478 -0.5084  0.1525
 8870SOL    HW238070   0.132   1.383   5.777 -2.3948 -0.3108 -2.3731
 8871SOL     OW38071   2.084   0.243   6.818 -0.3020 -0.2121  0.4305
 8871SOL    HW138072   2.007   0.262   6.871 -0.0558  0.7254  0.4496
 8871SOL    HW238073   2.147   0.238   6.890 -0.1636  1.1562  0.3960
 8872SOL     OW38074   1.312   3.468   1.640 -0.2888  0.1713 -0.5414
 8872SOL    HW138075   1.266   3.549   1.617  1.2648  1.0724 -0.5538
 8872SOL    HW238076   1.278   3.412   1.571 -1.1262 -0.0219  0.0335
 8873SOL     OW38077   2.827   1.253   0.458 -0.3110  0.0166  0.0718
 8873SOL    HW138078   2.742   1.230   0.419  0.1377  0.8477 -1.4187
 8873SOL    HW238079   2.867   1.305   0.388 -3.6171  0.6976 -1.3182
 8874SOL     OW38080   2.612   1.598   2.468  0.1348  0.3595  0.6532
 8874SOL    HW138081   2.546   1.531   2.485  0.5593  0.1511  1.4622
 8874SOL    HW238082   2.593   1.614   2.375  1.6293  3.5433  0.9153
 8875SOL     OW38083   0.728   3.344   5.696  0.3318 -0.3622  0.8067
 8875SOL    HW138084   0.737   3.440   5.699  1.8262 -0.4671 -0.9107
 8875SOL    HW238085   0.720   3.322   5.789 -5.8853 -3.2778 -0.4304
 8876SOL     OW38086   3.957   0.618   5.940  0.1689 -0.2691 -0.0794
 8876SOL    HW138087   3.953   0.659   6.026  0.6975  0.0898 -0.2255
 8876SOL    HW238088   4.050   0.634   5.923  0.4750 -0.0353  1.7800
 8877SOL     OW38089   3.480   3.188  12.228 -0.0421 -0.1760  0.0681
 8877SOL    HW138090   3.469   3.217  12.319 -1.5558 -2.2663  0.5577
 8877SOL    HW238091   3.416   3.118  12.217  0.8149 -0.6877 -1.6744
 8878SOL     OW38092   1.087   2.273   2.327 -0.2777  0.2245  0.0596
 8878SOL    HW138093   1.161   2.325   2.296 -0.9582  1.0898 -0.1127
 8878SOL    HW238094   1.074   2.300   2.418  3.1389  0.7919  0.3692
 8879SOL     OW38095   4.197   2.984   7.256  0.5107 -0.4679 -0.3662
 8879SOL    HW138096   4.258   2.937   7.312 -1.2490 -0.1670  1.8111
 8879SOL    HW238097   4.113   2.941   7.272 -0.5830  1.0612 -2.0388
 8880SOL     OW38098   2.642   3.229   5.637 -0.1975  0.4171  0.5667
 8880SOL    HW138099   2.570   3.287   5.612  0.3823  2.2986  3.2755
 8880SOL    HW238100   2.694   3.275   5.702 -0.1093  4.4924 -2.3960
 8881SOL     OW38101   1.300   2.281   5.973  0.5976  0.2466 -0.2065
 8881SOL    HW138102   1.244   2.218   6.018 -0.7690  0.6617 -1.3083
 8881SOL    HW238103   1.365   2.227   5.929  1.1291 -0.4842  1.4719
 8882SOL     OW38104   1.864   3.610   1.369  0.3831 -0.5151  0.4410
 8882SOL    HW138105   1.801   3.681   1.383 -1.0273 -1.8363  0.7654
 8882SOL    HW238106   1.925   3.671   1.327 -0.5937 -1.0256 -1.6904
 8883SOL     OW38107   1.013   3.300   5.595 -0.2357 -0.3492 -0.3592
 8883SOL    HW138108   1.069   3.317   5.671  0.4004 -0.4919 -0.8048
 8883SOL    HW238109   0.924   3.315   5.629 -1.6316 -1.2345 -3.6250
 8884SOL     OW38110   4.628   4.138   9.249 -0.1723  0.0120  0.3202
 8884SOL    HW138111   4.624   4.096   9.335 -1.7854  0.1090  0.2931
 8884SOL    HW238112   4.686   4.075   9.206 -0.1184 -0.1797  0.6741
 8885SOL     OW38113   1.393   2.617   7.690 -0.7503  0.2616  0.3838
 8885SOL    HW138114   1.432   2.622   7.778  1.5459  1.5326 -0.7260
 8885SOL    HW238115   1.319   2.674   7.711 -1.2103  0.7618 -2.6236
 8886SOL     OW38116   0.050   3.660   0.952  0.0774 -0.1223 -0.5236
 8886SOL    HW138117   4.700   3.706   0.991  0.5397 -1.3729  1.8120
 8886SOL    HW238118   0.077   3.614   1.031 -1.5342  1.7420  1.1069
 8887SOL     OW38119   0.070   1.978   1.183 -0.6426 -0.4687 -0.6270
 8887SOL    HW138120   0.098   1.931   1.105  1.4087  0.6605 -0.5692
 8887SOL    HW238121   0.003   2.033   1.141 -2.2059 -3.2295 -1.7175
 8888SOL     OW38122   0.907   1.335  15.913 -0.5019  0.3227  0.0342
 8888SOL    HW138123   0.945   1.403  15.969 -0.2504 -0.9642  1.4433
 8888SOL    HW238124   0.812   1.346  15.916 -0.2571  2.3213  0.0876
 8889SOL     OW38125   0.589   1.088   8.543 -0.0541  0.7442  0.5310
 8889SOL    HW138126   0.550   1.120   8.624 -1.7157  0.8040 -0.3049
 8889SOL    HW238127   0.627   1.005   8.573  0.4210  0.0445 -1.9181
 8890SOL     OW38128   1.141   1.379   0.410  0.1874  0.4160 -0.0880
 8890SOL    HW138129   1.062   1.332   0.384  1.9463 -2.9113  0.4858
 8890SOL    HW238130   1.147   1.354   0.502  2.1039 -3.4271 -1.2515
 8891SOL     OW38131   4.330   2.959   5.438  0.1191  0.6767  0.2181
 8891SOL    HW138132   4.315   2.934   5.529  0.7791  0.8570  0.3751
 8891SOL    HW238133   4.241   2.961   5.404  0.4721 -1.7986 -0.8105
 8892SOL     OW38134   1.339   0.012   2.236 -0.0822  0.5254 -0.0360
 8892SOL    HW138135   1.321   0.096   2.195  1.2242 -0.7347 -3.1471
 8892SOL    HW238136   1.400   0.035   2.306  1.3618  0.3876 -1.2715
 8893SOL     OW38137   0.939   1.697   7.930 -1.1070  0.3919 -0.4280
 8893SOL    HW138138   0.948   1.606   7.960  0.5014  0.5315 -0.4486
 8893SOL    HW238139   0.959   1.748   8.008  1.0947  1.3435 -1.6037
 8894SOL     OW38140   1.514   0.079  15.352  0.2879  0.0627 -0.0529
 8894SOL    HW138141   1.422   0.100  15.366  1.0196  2.6318  0.9463
 8894SOL    HW238142   1.524   0.080  15.256  1.3503  0.2354  0.0649
 8895SOL     OW38143   2.383   3.205   9.118 -0.7132 -0.6380 -0.2968
 8895SOL    HW138144   2.398   3.293   9.155 -3.1381  0.3208 -1.5909
 8895SOL    HW238145   2.451   3.150   9.156  0.3433 -0.3022 -1.7213
 8896SOL     OW38146   0.521   2.838   1.805  0.2071 -0.2940  0.2964
 8896SOL    HW138147   0.507   2.933   1.811 -0.1866 -0.2990 -0.5184
 8896SOL    HW238148   0.465   2.817   1.730  1.8366  3.9856 -2.0974
 8897SOL     OW38149   1.935   2.440   3.000  0.3383  0.3414 -0.8231
 8897SOL    HW138150   1.866   2.489   3.045 -0.9366 -0.6841 -1.6503
 8897SOL    HW238151   1.902   2.352   3.019 -0.3562  0.4082 -1.6998
 8898SOL     OW38152   0.646   1.021   9.842 -0.1486 -0.3060  0.1026
 8898SOL    HW138153   0.688   1.104   9.863 -0.9244  0.2962 -0.7039
 8898SOL    HW238154   0.691   0.952   9.890 -2.9562 -2.0946  0.1690
 8899SOL     OW38155   4.659   3.065   3.684  0.3574  0.7837  0.1926
 8899SOL    HW138156   4.616   3.016   3.613  0.2958  1.2251 -0.0760
 8899SOL    HW238157   4.629   3.156   3.675  0.8686  0.7467 -1.9445
 8900SOL     OW38158   1.172   0.293  16.301 -0.4085  0.5619  0.2675
 8900SOL    HW138159   1.139   0.205  16.286 -0.1551  0.9151 -2.3996
 8900SOL    HW238160   1.142   0.342  16.224  0.1686  0.6829  0.1211
 8901SOL     OW38161   0.587   3.034   2.659 -0.2213  0.2588 -0.4637
 8901SOL    HW138162   0.563   2.971   2.592 -0.3658  1.4882 -1.5755
 8901SOL    HW238163   0.682   3.030   2.649 -0.5364 -3.0214 -2.1555
 8902SOL     OW38164   0.479   3.968   4.921  0.0129  0.5321 -0.0090
 8902SOL    HW138165   0.395   3.949   4.964 -1.2498  1.6243 -2.0100
 8902SOL    HW238166   0.522   4.027   4.982  1.8036 -0.6010 -0.1682
 8903SOL     OW38167   3.569   0.346   2.386  0.2102  0.0988  0.4742
 8903SOL    HW138168   3.623   0.353   2.308  0.7758  2.6195  1.1011
 8903SOL    HW238169   3.562   0.251   2.397 -2.7606  0.3256  0.6727
 8904SOL     OW38170   3.989   3.335   9.175  0.3036  0.9121  0.1237
 8904SOL    HW138171   4.074   3.362   9.140  0.5338 -3.2727 -2.5702
 8904SOL    HW238172   4.016   3.248   9.204  0.2302  0.9643  0.3474
 8905SOL     OW38173   1.101   1.440   6.684  0.2712  0.2124 -0.1903
 8905SOL    HW138174   1.196   1.430   6.691  0.0216 -1.3986  0.8815
 8905SOL    HW238175   1.098   1.534   6.666  0.9288  0.5615  1.5238
 8906SOL     OW38176   3.974   1.781   4.996 -0.2781  0.1444 -0.0886
 8906SOL    HW138177   3.987   1.704   5.052  4.1204  0.3316 -0.8301
 8906SOL    HW238178   3.881   1.769   4.976 -0.2864 -1.6113  1.0758
 8907SOL     OW38179   3.122   0.112   1.819 -0.0837  0.2364  0.8242
 8907SOL    HW138180   3.111   0.018   1.831  0.2323  0.0984  0.0778
 8907SOL    HW238181   3.216   0.124   1.827 -0.2951  2.7608 -0.3975
 8908SOL     OW38182   4.263   2.301   4.719  0.5253 -0.3051 -1.2526
 8908SOL    HW138183   4.187   2.311   4.776  0.2391 -1.2158 -1.4681
 8908SOL    HW238184   4.261   2.210   4.689  0.4657 -0.5791 -0.4308
 8909SOL     OW38185   2.972   2.561  15.507 -0.0502  0.0293  0.3246
 8909SOL    HW138186   2.898   2.585  15.451  1.1531  2.8456 -0.0872
 8909SOL    HW238187   3.042   2.589  15.448 -0.1365 -1.6142 -0.5574
 8910SOL     OW38188   2.852   2.293   1.271 -0.8085 -0.5062  0.5013
 8910SOL    HW138189   2.829   2.341   1.351 -1.4681 -0.4013  0.2442
 8910SOL    HW238190   2.895   2.366   1.225 -0.4181 -1.3666 -0.4879
 8911SOL     OW38191   0.379   3.847   8.247  0.2085  0.3895  0.0548
 8911SOL    HW138192   0.357   3.762   8.210  1.7238 -0.4008  0.9822
 8911SOL    HW238193   0.320   3.904   8.198  1.2766 -0.7191 -2.5478
 8912SOL     OW38194   0.275   3.770   7.508  0.2040  0.0232  0.3846
 8912SOL    HW138195   0.360   3.791   7.470  0.9962 -1.8600  1.1491
 8912SOL    HW238196   0.219   3.821   7.449  0.5778  1.4152  1.2214
 8913SOL     OW38197   4.562   1.382   7.645 -0.2384 -0.1982 -0.2388
 8913SOL    HW138198   4.502   1.340   7.583 -0.6301  1.9529 -1.3297
 8913SOL    HW238199   4.516   1.461   7.672  0.9145 -0.3255  2.0966
 8914SOL     OW38200   1.930   2.822  14.529 -0.4119  0.2870 -0.4780
 8914SOL    HW138201   1.975   2.867  14.458  0.0215  0.1687 -0.2740
 8914SOL    HW238202   1.883   2.759  14.475  1.1266 -2.4736  1.4449
 8915SOL     OW38203   2.958   3.089   8.163 -0.5286  0.1952 -0.1725
 8915SOL    HW138204   2.940   3.153   8.232 -0.3418  0.9541 -0.8271
 8915SOL    HW238205   2.871   3.081   8.123  0.0439  0.9720 -1.5790
 8916SOL     OW38206   3.892   1.052  14.189  0.0568  0.1192  0.5563
 8916SOL    HW138207   3.941   1.090  14.116 -2.8321 -0.0246 -1.4486
 8916SOL    HW238208   3.808   1.019  14.159  0.2436 -0.2264  0.4112
 8917SOL     OW38209   1.468   1.342  10.915  0.1269  0.7851 -0.1228
 8917SOL    HW138210   1.553   1.303  10.933 -0.7798 -0.5098  1.3878
 8917SOL    HW238211   1.478   1.437  10.914 -1.4264  0.9601  0.5250
 8918SOL     OW38212   0.079   1.758  14.903  0.3339  0.2338 -0.8864
 8918SOL    HW138213   0.055   1.732  14.992  0.8134 -1.2664 -1.1923
 8918SOL    HW238214   0.173   1.741  14.913 -0.2011 -1.4421  1.3009
 8919SOL     OW38215   1.699   0.941  13.883  0.3210 -0.0150 -0.1500
 8919SOL    HW138216   1.776   0.939  13.825  0.8581 -0.1931  0.5657
 8919SOL    HW238217   1.729   0.864  13.931 -1.7496 -0.3800  0.5341
 8920SOL     OW38218   1.892   0.549   8.240 -0.1748 -0.4443  0.1172
 8920SOL    HW138219   1.944   0.468   8.243 -0.9384 -0.8810  1.9919
 8920SOL    HW238220   1.842   0.538   8.321 -1.7594 -0.6720 -0.8930
 8921SOL     OW38221   3.744   4.504   4.090 -0.3456  0.1113  0.5960
 8921SOL    HW138222   3.825   4.454   4.090 -1.0353 -1.0007  2.2981
 8921SOL    HW238223   3.718   4.500   4.183  0.1430 -0.3797  0.7092
 8922SOL     OW38224   0.676   1.127   8.964  0.0210  0.3187  0.6331
 8922SOL    HW138225   0.677   1.035   8.988 -1.2460 -0.3270 -1.8280
 8922SOL    HW238226   0.617   1.128   8.889 -1.0385  2.9298  1.4910
 8923SOL     OW38227   3.445   1.605   6.053  0.1840 -0.2093  0.6271
 8923SOL    HW138228   3.502   1.563   6.118 -0.8778 -1.2778  0.8604
 8923SOL    HW238229   3.361   1.600   6.099  0.8525  0.8461  1.9692
 8924SOL     OW38230   3.256   2.064   4.355  0.0548 -0.7012  0.0106
 8924SOL    HW138231   3.239   1.997   4.421 -0.0883  0.6705  1.3649
 8924SOL    HW238232   3.344   2.050   4.318  0.6081  0.7936  0.7449
 8925SOL     OW38233   3.155   4.551   1.866  0.0160  0.2050  0.1260
 8925SOL    HW138234   3.161   4.457   1.884  0.3438  0.1745 -0.1512
 8925SOL    HW238235   3.244   4.567   1.834 -0.4269  1.0968 -0.6646
 8926SOL     OW38236   4.218   2.028   6.542 -0.0814 -0.1937 -0.0629
 8926SOL    HW138237   4.142   2.029   6.601 -1.1229 -0.1026 -1.4111
 8926SOL    HW238238   4.287   2.018   6.608  2.2906 -0.8702 -2.6700
 8927SOL     OW38239   4.387   0.043   3.425 -0.6616  0.0738  0.7480
 8927SOL    HW138240   4.464   4.721   3.389 -2.0370 -0.6422 -1.2506
 8927SOL    HW238241   4.364   4.716   3.503  1.8821 -0.2008  1.3268
 8928SOL     OW38242   2.925   0.395  15.664  0.3890 -0.1164 -0.2706
 8928SOL    HW138243   2.945   0.475  15.711 -2.4945  0.7759 -0.5277
 8928SOL    HW238244   2.968   0.344  15.733 -1.5440 -0.7194  0.4973
 8929SOL     OW38245   2.001   3.679   2.959 -0.3284 -0.2175  0.1414
 8929SOL    HW138246   2.025   3.751   3.016  0.2986  0.0850 -0.5008
 8929SOL    HW238247   2.071   3.691   2.894  0.9011  3.2348  2.1395
 8930SOL     OW38248   1.397   2.521   5.879  0.3610 -0.5571 -0.8264
 8930SOL    HW138249   1.315   2.555   5.843 -0.5757 -0.6002  1.2745
 8930SOL    HW238250   1.360   2.446   5.926  0.4667  0.3718  0.7073
 8931SOL     OW38251   2.509   0.337   4.763  0.3525  0.6369  0.5964
 8931SOL    HW138252   2.584   0.392   4.745  0.4228  1.5680  3.7442
 8931SOL    HW238253   2.440   0.386   4.718  0.6647  0.9629  0.4792
 8932SOL     OW38254   2.216   0.933  15.073 -0.1534  0.5717 -0.0461
 8932SOL    HW138255   2.211   0.949  15.167  2.3940  1.4112 -0.0494
 8932SOL    HW238256   2.307   0.905  15.064 -0.1566  0.5686 -0.0690
 8933SOL     OW38257   2.419   1.329   3.199  0.1356 -0.7925 -0.1431
 8933SOL    HW138258   2.510   1.356   3.214 -0.4713  0.0963  2.0055
 8933SOL    HW238259   2.426   1.235   3.183 -1.5070 -0.6970 -1.4123
 8934SOL     OW38260   4.466   1.034   4.460  0.3986  0.4395 -0.3511
 8934SOL    HW138261   4.487   0.949   4.499  0.2632 -0.0890 -1.4301
 8934SOL    HW238262   4.370   1.033   4.453  0.3576 -1.1995  0.6359
 8935SOL     OW38263   3.491   3.655  14.282 -0.5251 -0.2625  0.1909
 8935SOL    HW138264   3.544   3.671  14.361  2.5082 -1.9559 -1.4862
 8935SOL    HW238265   3.569   3.648  14.226  1.3169 -2.2396  2.9802
 8936SOL     OW38266   1.538   4.305   7.338  0.2506  0.3536 -0.1769
 8936SOL    HW138267   1.623   4.347   7.322  0.7800 -0.3425  0.7528
 8936SOL    HW238268   1.531   4.327   7.431 -3.0213  1.7720 -0.7680
 8937SOL     OW38269   2.100   3.388   9.298 -0.0053  0.0684 -0.0557
 8937SOL    HW138270   2.027   3.434   9.255  0.2500  1.6620  1.2006
 8937SOL    HW238271   2.051   3.320   9.344  1.4127 -0.0119  1.3024
 8938SOL     OW38272   3.195   3.100  12.450  0.3157 -0.6126  0.2561
 8938SOL    HW138273   3.203   3.192  12.477  2.5180 -0.8219  0.2685
 8938SOL    HW238274   3.242   3.054  12.519 -0.2125 -1.6131 -0.0594
 8939SOL     OW38275   4.309   3.199   3.765 -0.7769 -0.0777 -0.2411
 8939SOL    HW138276   4.288   3.175   3.674 -0.8428  0.1169 -0.2758
 8939SOL    HW238277   4.316   3.293   3.751 -0.3804  0.0742  1.0350
 8940SOL     OW38278   0.009   1.135   5.890 -0.9130 -0.0144 -0.0795
 8940SOL    HW138279   4.677   1.195   5.840 -0.1572  1.6863  1.0945
 8940SOL    HW238280   0.097   1.167   5.869 -0.4695 -0.7254  0.6849
 8941SOL     OW38281   2.318   2.910   3.762  0.0130 -0.3411 -0.1585
 8941SOL    HW138282   2.360   2.905   3.676  0.3549 -2.0679  0.1128
 8941SOL    HW238283   2.252   2.978   3.747 -0.1733 -0.0125  2.0613
 8942SOL     OW38284   1.467   2.804   7.497  0.2954 -0.0959  0.5588
 8942SOL    HW138285   1.444   2.738   7.562 -1.2911  0.6389  0.7324
 8942SOL    HW238286   1.534   2.852   7.546  0.0392  0.4823  0.3391
 8943SOL     OW38287   4.253   1.935   7.564 -0.0429  0.1465 -0.0139
 8943SOL    HW138288   4.229   2.026   7.549 -1.4417 -0.0868  0.7552
 8943SOL    HW238289   4.235   1.906   7.474  0.1204  0.1276 -0.0402
 8944SOL     OW38290   3.385   1.191   1.775 -0.7675  0.3576  1.1576
 8944SOL    HW138291   3.461   1.216   1.827  0.3919  1.0985 -0.8847
 8944SOL    HW238292   3.362   1.104   1.806  0.0592 -0.1066  0.4768
 8945SOL     OW38293   2.675   4.663   8.847 -0.1339  0.4778 -0.0924
 8945SOL    HW138294   2.750   4.697   8.896  0.7718  0.3859 -1.3949
 8945SOL    HW238295   2.649   0.016   8.796  1.4541  0.5992 -0.7245
 8946SOL     OW38296   4.120   0.079  11.258  0.2781 -0.2624  0.1745
 8946SOL    HW138297   4.207   0.111  11.235  0.5666 -2.5012 -1.7287
 8946SOL    HW238298   4.133   0.045  11.347 -1.5676 -0.0299  0.5441
 8947SOL     OW38299   2.947   3.250   6.857  0.1011  0.4559  0.3666
 8947SOL    HW138300   2.921   3.302   6.933 -1.2837  1.1575 -0.5786
 8947SOL    HW238301   2.863   3.206   6.842  0.0611 -0.4583  3.3185
 8948SOL     OW38302   3.672   0.213   9.848 -0.2786 -0.2952 -0.3301
 8948SOL    HW138303   3.745   0.171   9.804 -0.4996 -0.2405 -0.7465
 8948SOL    HW238304   3.599   0.155   9.825  0.4878 -2.0273  1.5802
 8949SOL     OW38305   2.697   3.165   3.155  0.0934 -0.0883  0.2641
 8949SOL    HW138306   2.691   3.103   3.082 -1.3178 -0.4496  0.6844
 8949SOL    HW238307   2.792   3.177   3.151  0.0725  0.6100  2.0657
 8950SOL     OW38308   3.963   4.375  11.111 -0.3915  0.2535  0.5681
 8950SOL    HW138309   4.034   4.412  11.163  0.4051  0.1524 -0.4493
 8950SOL    HW238310   3.933   4.295  11.156 -0.3703 -0.0189  0.0954
 8951SOL     OW38311   1.633   1.052   8.785  0.0904  0.1937 -0.6940
 8951SOL    HW138312   1.669   1.125   8.835  0.2849 -1.1573  1.1545
 8951SOL    HW238313   1.597   0.986   8.845  1.6298 -0.3977 -0.4301
 8952SOL     OW38314   3.498   3.778   5.386 -0.1364  0.1411  0.7462
 8952SOL    HW138315   3.576   3.830   5.405  0.1670 -0.1592  0.3301
 8952SOL    HW238316   3.530   3.689   5.404 -0.7391 -0.7058 -2.4629
 8953SOL     OW38317   0.532   0.710  13.945  0.2393  0.3808  0.1579
 8953SOL    HW138318   0.444   0.693  13.911 -0.0949  0.3301  1.0530
 8953SOL    HW238319   0.572   0.627  13.919 -1.2128 -0.1254 -0.4856
 8954SOL     OW38320   0.423   4.555   2.211 -0.4814 -0.0342 -0.2281
 8954SOL    HW138321   0.509   4.523   2.237 -0.5873 -0.3595 -0.2801
 8954SOL    HW238322   0.419   4.547   2.116  0.7510  0.6080 -0.3379
 8955SOL     OW38323   2.545   2.511   2.429 -0.0705  0.3608  0.0542
 8955SOL    HW138324   2.489   2.503   2.352  1.0757  1.0957 -0.8594
 8955SOL    HW238325   2.572   2.421   2.450  1.0145  0.3341 -1.4135
 8956SOL     OW38326   3.461   1.235   1.260  0.6926  0.0877  0.9503
 8956SOL    HW138327   3.449   1.216   1.353  0.8031 -1.5163  0.6435
 8956SOL    HW238328   3.491   1.325   1.256  1.0108 -0.0191  0.9067
 8957SOL     OW38329   0.885   2.207   5.569  0.3678  0.7235  0.1033
 8957SOL    HW138330   0.899   2.203   5.474  0.0296  0.2281  0.0760
 8957SOL    HW238331   0.884   2.301   5.587  1.1891  0.6824  0.3795
 8958SOL     OW38332   3.272   1.301  14.863  0.4036 -0.3703 -0.2177
 8958SOL    HW138333   3.340   1.309  14.796  0.8101  0.8606  0.3260
 8958SOL    HW238334   3.214   1.254  14.804 -0.5586 -1.1350  1.3370
 8959SOL     OW38335   1.593   1.351  13.584  0.1108 -0.1663 -0.2269
 8959SOL    HW138336   1.670   1.311  13.545  0.2370 -1.7898  1.6499
 8959SOL    HW238337   1.598   1.440  13.549 -0.0318 -0.7581 -1.7648
 8960SOL     OW38338   2.472   0.186   3.970 -0.4461  0.2167  0.5385
 8960SOL    HW138339   2.480   0.281   3.962 -3.0032  0.3333 -0.5526
 8960SOL    HW238340   2.560   0.159   3.942 -1.7808 -0.6582 -2.8023
 8961SOL     OW38341   4.196   0.495   4.295 -0.2777 -0.1713  0.6983
 8961SOL    HW138342   4.271   0.483   4.353 -1.3858 -0.7597  2.0100
 8961SOL    HW238343   4.207   0.426   4.230 -0.0319 -1.0658  1.6867
 8962SOL     OW38344   1.965   0.155   4.768 -0.4812  0.2787  1.3676
 8962SOL    HW138345   1.987   0.075   4.719  5.0619  2.2707  0.5263
 8962SOL    HW238346   1.971   0.219   4.697  0.8099  0.1654  1.3660
 8963SOL     OW38347   1.438   0.403   4.103  0.5301 -0.0189  0.6969
 8963SOL    HW138348   1.445   0.494   4.132 -0.0554 -0.4969  2.3228
 8963SOL    HW238349   1.483   0.402   4.019  1.8598  0.9090  1.3869
 8964SOL     OW38350   0.648   1.031   8.001 -0.3377  0.1527 -0.5802
 8964SOL    HW138351   0.628   1.001   7.913 -1.6014  0.5579 -0.4399
 8964SOL    HW238352   0.739   1.003   8.001 -0.2694  0.3713 -0.4049
 8965SOL     OW38353   3.016   4.178  12.996  0.0804 -0.5864 -0.6172
 8965SOL    HW138354   3.007   4.185  12.901 -0.7109  0.7762 -0.4313
 8965SOL    HW238355   3.086   4.116  13.018  1.4885  0.7191 -1.4161
 8966SOL     OW38356   3.657   3.938   2.596  0.4745 -0.1857 -0.0236
 8966SOL    HW138357   3.702   3.855   2.611  0.3980 -0.0455  0.9706
 8966SOL    HW238358   3.571   3.905   2.621  0.3471 -0.1465 -0.4050
 8967SOL     OW38359   3.475   3.383  15.467  0.3360  0.6974  0.1438
 8967SOL    HW138360   3.555   3.332  15.483 -0.4386 -0.4717  0.3086
 8967SOL    HW238361   3.423   3.364  15.545 -1.0227  0.5798 -0.7963
 8968SOL     OW38362   1.780   4.339   8.413  0.2190 -0.5346  0.5127
 8968SOL    HW138363   1.752   4.265   8.467 -0.1114 -0.7852  0.0039
 8968SOL    HW238364   1.695   4.371   8.381  0.5640  0.4605  0.5966
 8969SOL     OW38365   1.506   4.672   6.849 -0.7775 -0.0504  0.1573
 8969SOL    HW138366   1.555   0.030   6.847 -2.9214  1.1572 -3.5820
 8969SOL    HW238367   1.505   4.646   6.941  1.7695 -0.7813 -0.0367
 8970SOL     OW38368   4.685   4.691   9.272 -0.0445  0.0076  0.1798
 8970SOL    HW138369   4.652   4.601   9.263 -0.6487  0.1525  0.9904
 8970SOL    HW238370   4.672   4.704   9.365  1.6118  0.5168  0.3461
 8971SOL     OW38371   4.113   4.521   4.791  0.2019 -0.0688 -0.0239
 8971SOL    HW138372   4.064   4.447   4.756 -1.5547  1.5950 -1.0765
 8971SOL    HW238373   4.040   4.582   4.787  0.9205  0.6601 -1.9066
 8972SOL     OW38374   4.329   4.075  12.661 -0.2395 -0.4621 -0.3916
 8972SOL    HW138375   4.234   4.078  12.670 -0.2406 -1.8603  0.1086
 8972SOL    HW238376   4.362   4.021  12.733 -0.4776  0.9585  0.7842
 8973SOL     OW38377   3.102   2.176   8.833 -0.4212 -0.3809  0.3388
 8973SOL    HW138378   3.032   2.211   8.778  0.1379 -2.0692 -1.4439
 8973SOL    HW238379   3.156   2.135   8.766 -1.6159 -3.8236  1.4831
 8974SOL     OW38380   3.529   4.504  13.475 -0.4661 -0.5863 -0.7094
 8974SOL    HW138381   3.438   4.486  13.451 -0.6265  1.0742 -1.3675
 8974SOL    HW238382   3.561   4.414  13.473 -0.7926 -0.7642  1.9598
 8975SOL     OW38383   3.202   3.752  12.824  0.1232  0.2180 -0.0599
 8975SOL    HW138384   3.284   3.707  12.804 -0.2693 -0.3176 -0.4672
 8975SOL    HW238385   3.188   3.799  12.742 -1.7536  0.8012  0.6180
 8976SOL     OW38386   3.046   3.286  10.725  0.4268  0.0197  0.0252
 8976SOL    HW138387   3.124   3.336  10.750 -0.4142  1.3917 -0.1164
 8976SOL    HW238388   3.042   3.212  10.785  0.0752 -1.0661 -1.3391
 8977SOL     OW38389   3.942   2.264   8.790  0.1584  0.4199  0.0572
 8977SOL    HW138390   4.003   2.208   8.740 -0.7272 -0.8779  0.4469
 8977SOL    HW238391   3.994   2.281   8.869 -1.7627  0.0876  1.3663
 8978SOL     OW38392   1.358   3.499   3.050  0.0578  0.4039 -0.7116
 8978SOL    HW138393   1.318   3.442   3.115 -0.9514  0.5042 -1.2557
 8978SOL    HW238394   1.315   3.468   2.971 -3.4112  0.5577  1.1143
 8979SOL     OW38395   4.113   3.622  14.900  0.3263  0.0904  0.0556
 8979SOL    HW138396   4.193   3.626  14.952 -1.0869 -0.9387  2.2882
 8979SOL    HW238397   4.136   3.604  14.809  2.0307  0.0407  0.4909
 8980SOL     OW38398   1.629   4.639   0.634 -0.0544 -0.2665 -0.2753
 8980SOL    HW138399   1.703   4.632   0.575 -0.0523 -0.1951 -0.2819
 8980SOL    HW238400   1.676   4.665   0.713 -0.0085  0.8672 -0.6705
 8981SOL     OW38401   2.360   2.251   3.389 -0.8408 -0.0347 -0.8410
 8981SOL    HW138402   2.396   2.338   3.369 -0.2482 -0.1637 -0.3601
 8981SOL    HW238403   2.293   2.237   3.322  0.5531  1.1982 -2.4975
 8982SOL     OW38404   2.393   1.487   8.963  0.4420 -0.4126 -0.5891
 8982SOL    HW138405   2.375   1.478   9.056  0.9726  1.9825 -0.2334
 8982SOL    HW238406   2.311   1.462   8.922  1.0122 -1.7932 -0.8752
 8983SOL     OW38407   0.658   2.275  12.963 -0.0088 -0.4158 -0.1615
 8983SOL    HW138408   0.623   2.341  13.022  0.7110  0.7995 -1.0805
 8983SOL    HW238409   0.700   2.215  13.025  0.3399 -0.7595 -0.7317
 8984SOL     OW38410   4.186   3.821   9.713 -0.2269  0.2079 -0.3167
 8984SOL    HW138411   4.132   3.742   9.714 -0.4372  0.3578  0.1390
 8984SOL    HW238412   4.147   3.850   9.631  0.7640 -2.6922 -1.8395
 8985SOL     OW38413   3.763   1.420  12.979  0.4034  0.6064  0.0065
 8985SOL    HW138414   3.698   1.452  13.042  1.4226  1.2590  0.7256
 8985SOL    HW238415   3.707   1.424  12.902  1.0244 -0.5243 -0.4956
 8986SOL     OW38416   1.349   0.437   6.433  0.0728 -0.3603 -0.6042
 8986SOL    HW138417   1.338   0.498   6.360  1.0182 -0.1873 -0.6001
 8986SOL    HW238418   1.258   0.420   6.457  0.3251  0.7082  1.0910
 8987SOL     OW38419   1.552   3.663   8.044  0.4449  0.7462 -0.2366
 8987SOL    HW138420   1.625   3.718   8.016  1.6155 -0.7172 -0.0595
 8987SOL    HW238421   1.530   3.616   7.964 -0.5982  0.9315 -0.0654
 8988SOL     OW38422   3.744   1.935   2.645  0.5405  0.1928 -0.0452
 8988SOL    HW138423   3.676   1.979   2.696  1.1455  0.8915  0.1594
 8988SOL    HW238424   3.696   1.889   2.575 -0.1585  3.6622 -1.8551
 8989SOL     OW38425   3.688   0.851  14.101 -0.6995 -0.5905  0.3316
 8989SOL    HW138426   3.619   0.913  14.077  1.1951  1.4759  0.2669
 8989SOL    HW238427   3.629   0.779  14.122  0.3451 -1.6266 -0.2805
 8990SOL     OW38428   0.864   2.364   1.909 -0.5390  0.1752  0.1536
 8990SOL    HW138429   0.865   2.317   1.826  1.5118 -1.1221  0.9181
 8990SOL    HW238430   0.957   2.360   1.933  0.1530  1.0802 -2.4008
 8991SOL     OW38431   0.660   0.415   2.757  0.0575 -0.4530  0.5477
 8991SOL    HW138432   0.576   0.433   2.714 -0.2901  0.4722  1.6102
 8991SOL    HW238433   0.655   0.455   2.843  0.2855 -1.4941  1.0512
 8992SOL     OW38434   4.657   0.129   2.933  0.2145  0.5740 -0.0667
 8992SOL    HW138435   4.572   0.160   2.903  0.5598  1.5987  0.0191
 8992SOL    HW238436   4.690   0.077   2.860  0.8110 -0.4558  0.9320
 8993SOL     OW38437   0.655   0.850   3.916 -0.3888  0.5631 -0.2972
 8993SOL    HW138438   0.617   0.782   3.972  1.4759 -0.6362 -0.5020
 8993SOL    HW238439   0.580   0.909   3.905 -0.4438  0.5078 -0.2243
 8994SOL     OW38440   3.215   4.694  16.635  0.0113 -0.3927 -0.1459
 8994SOL    HW138441   3.122   4.713  16.644  0.1231  0.2644 -0.3387
 8994SOL    HW238442   3.229   4.634  16.708  0.5318  0.9124  0.8299
 8995SOL     OW38443   2.379   2.275   3.668 -0.2051 -0.2329  0.0365
 8995SOL    HW138444   2.293   2.307   3.695  0.2808 -0.1407  1.4799
 8995SOL    HW238445   2.369   2.294   3.575 -0.0049 -0.6162 -0.0605
 8996SOL     OW38446   1.850   4.019   8.112 -0.1965 -0.5329  0.0279
 8996SOL    HW138447   1.785   3.992   8.178 -0.5524 -1.3065 -0.6470
 8996SOL    HW238448   1.923   4.043   8.169 -0.7555  0.1937  0.4279
 8997SOL     OW38449   0.226   2.489   9.441 -0.0112  0.1917  0.0905
 8997SOL    HW138450   0.198   2.576   9.413  1.3859  0.0633 -1.6948
 8997SOL    HW238451   0.282   2.514   9.515 -0.1307 -0.3705  0.3699
 8998SOL     OW38452   0.114   1.738   8.550  0.0059  0.1467  0.2444
 8998SOL    HW138453   0.185   1.691   8.594  0.3878 -0.8847 -1.4645
 8998SOL    HW238454   0.131   1.822   8.593  0.7963 -0.7076  1.6284
 8999SOL     OW38455   3.141   2.091   1.194 -0.0572  0.9903  0.6456
 8999SOL    HW138456   3.150   2.004   1.155 -0.5782  1.5016 -0.6493
 8999SOL    HW238457   3.132   2.151   1.119 -2.5247 -0.3523 -0.1368
 9000SOL     OW38458   2.084   0.300  16.770  0.1957 -0.3064  0.0121
 9000SOL    HW138459   2.064   0.362  16.700  1.2108 -0.1259 -0.1100
 9000SOL    HW238460   2.139   0.354  16.827 -0.4232 -0.4453  0.7419
 9001SOL     OW38461   1.133   1.344  10.628 -1.0471  0.0340  0.2649
 9001SOL    HW138462   1.105   1.261  10.666 -0.4803 -0.0033  0.5876
 9001SOL    HW238463   1.057   1.402  10.618  0.7877  2.4412  0.4995
 9002SOL     OW38464   0.408   2.433   4.453  0.5419  0.6825  0.2953
 9002SOL    HW138465   0.417   2.401   4.542 -3.2836 -0.8204  0.1705
 9002SOL    HW238466   0.319   2.469   4.457 -1.6524 -4.6441 -0.3738
 9003SOL     OW38467   4.684   2.994   6.820 -0.4062 -0.1952  0.7687
 9003SOL    HW138468   4.673   2.905   6.855 -1.1255  0.7986  3.0607
 9003SOL    HW238469   4.703   2.977   6.728  3.8403  0.6850  1.4489
 9004SOL     OW38470   2.815   4.074   2.497  0.2675 -0.5822  0.2922
 9004SOL    HW138471   2.890   4.080   2.438  0.1964  3.2602  0.6024
 9004SOL    HW238472   2.864   4.078   2.579 -0.5566  0.6662  0.7250
 9005SOL     OW38473   1.840   4.612   0.448  0.3305 -0.0987  0.3026
 9005SOL    HW138474   1.803   4.537   0.403 -2.3010  1.0130  0.5664
 9005SOL    HW238475   1.929   4.578   0.454  0.6978  0.5324 -1.4281
 9006SOL     OW38476   2.369   0.934  12.808 -0.1134 -0.4119  0.5139
 9006SOL    HW138477   2.332   0.973  12.729  2.7029  1.2154  0.0113
 9006SOL    HW238478   2.394   1.017  12.849  3.1136 -1.1930  0.1355
 9007SOL     OW38479   3.366   0.047   4.995  0.0331  0.3297 -0.1185
 9007SOL    HW138480   3.388   0.004   5.077  0.0505  1.5874  0.5412
 9007SOL    HW238481   3.283   0.088   5.020 -0.1768  0.0195 -0.3107
 9008SOL     OW38482   0.458   3.696   2.883  0.3894 -0.6418 -0.2954
 9008SOL    HW138483   0.546   3.673   2.851  0.4458 -2.0021  0.8513
 9008SOL    HW238484   0.426   3.732   2.800 -0.5976 -2.1036 -0.5293
 9009SOL     OW38485   3.790   0.441   6.637 -0.2236 -0.0395  0.0336
 9009SOL    HW138486   3.862   0.384   6.610  0.4907  1.2038 -0.6666
 9009SOL    HW238487   3.732   0.364   6.630  0.0059 -0.2506  0.5072
 9010SOL     OW38488   1.229   1.215  14.754 -0.4380 -0.0664  0.5890
 9010SOL    HW138489   1.221   1.307  14.730 -0.9850  0.6399  3.5684
 9010SOL    HW238490   1.323   1.215  14.772 -0.3287 -0.5913  0.0522
 9011SOL     OW38491   2.073   4.547  15.502 -0.1473  0.2213  0.1266
 9011SOL    HW138492   2.050   4.523  15.591  0.1512 -0.4273  0.0279
 9011SOL    HW238493   2.154   4.591  15.527  0.8923 -0.1675 -2.4981
 9012SOL     OW38494   2.868   2.311   2.226  0.7013  0.2696 -0.5341
 9012SOL    HW138495   2.820   2.317   2.309  0.5692  0.0058 -0.5908
 9012SOL    HW238496   2.800   2.305   2.160  0.1713 -1.3351  0.1772
 9013SOL     OW38497   3.907   3.246   7.501 -0.4277 -0.1830 -0.1233
 9013SOL    HW138498   3.851   3.205   7.435  1.5417 -3.5548  0.3007
 9013SOL    HW238499   3.904   3.178   7.569 -0.2464 -0.7158 -0.6429
 9014SOL     OW38500   0.916   3.317   1.241 -0.1459 -0.2370  0.8041
 9014SOL    HW138501   0.902   3.229   1.208 -0.5043  0.8819 -2.0507
 9014SOL    HW238502   0.847   3.324   1.307  0.5000 -0.5187  1.4970
 9015SOL     OW38503   3.947   2.030  12.560 -0.0220  0.3137  0.0586
 9015SOL    HW138504   3.906   2.082  12.491  1.2697 -1.6515 -2.2360
 9015SOL    HW238505   3.919   1.942  12.532 -2.0349  0.4694  1.6558
 9016SOL     OW38506   0.215   4.164  11.959  0.5089 -0.3049  0.0512
 9016SOL    HW138507   0.257   4.098  12.015  0.1297  0.0182  0.7159
 9016SOL    HW238508   0.286   4.228  11.961 -0.6477  1.0009 -0.6316
 9017SOL     OW38509   0.510   3.530   0.488  0.3217  0.2860  0.6874
 9017SOL    HW138510   0.474   3.484   0.412  1.5939  1.0317 -0.3563
 9017SOL    HW238511   0.582   3.574   0.442  0.7181 -1.8355 -0.7354
 9018SOL     OW38512   2.671   4.016  16.092  0.6159  0.3410  0.1006
 9018SOL    HW138513   2.698   4.084  16.030  1.3328  0.3850  0.4503
 9018SOL    HW238514   2.747   4.006  16.150  0.4412  1.2639  0.4897
 9019SOL     OW38515   0.992   1.717   3.025 -0.4641 -0.1294  0.4494
 9019SOL    HW138516   1.032   1.663   2.956 -0.8691 -1.3227  1.1487
 9019SOL    HW238517   0.926   1.767   2.975 -1.5787 -1.9261  0.1182
 9020SOL     OW38518   1.714   2.916   4.027  0.7397  0.0908 -1.1635
 9020SOL    HW138519   1.649   2.846   4.018 -0.2141  0.5685  1.7711
 9020SOL    HW238520   1.726   2.936   3.935  2.6086 -0.5624 -1.0525
 9021SOL     OW38521   3.644   2.797   8.850  0.1711  0.5137  0.8164
 9021SOL    HW138522   3.638   2.872   8.909 -1.7721  0.1842  1.0162
 9021SOL    HW238523   3.726   2.805   8.801  0.7010 -0.7220  1.5035
 9022SOL     OW38524   0.630   1.732   2.625 -0.3981 -0.2693  0.1227
 9022SOL    HW138525   0.600   1.773   2.543  0.8968  0.4250 -0.0231
 9022SOL    HW238526   0.613   1.642   2.600  3.6941 -1.1779  0.5342
 9023SOL     OW38527   4.560   0.269   5.066  0.1253  0.3166  0.3421
 9023SOL    HW138528   4.643   0.260   5.018  0.2134  1.1422  0.3383
 9023SOL    HW238529   4.522   0.330   5.002  1.1976  0.8513  0.2106
 9024SOL     OW38530   1.738   0.064   5.857  0.6673  0.1037  0.3440
 9024SOL    HW138531   1.725   4.695   5.879 -1.1196 -0.0416 -1.3285
 9024SOL    HW238532   1.647   0.087   5.838  0.1268 -1.7046  0.7438
 9025SOL     OW38533   2.085   4.621   5.631  0.0973 -0.2006  0.1235
 9025SOL    HW138534   2.129   4.696   5.593  1.5684 -2.0896 -1.8875
 9025SOL    HW238535   2.122   4.619   5.719 -0.0334  1.0546  0.2012
 9026SOL     OW38536   1.070   2.889   5.371 -0.3065 -0.4701  0.2365
 9026SOL    HW138537   1.021   2.970   5.384  0.9473  0.3556 -0.1769
 9026SOL    HW238538   1.158   2.921   5.349 -1.1165  1.4666 -0.1680
 9027SOL     OW38539   2.328   2.951   7.016 -0.3889 -0.1147  0.0136
 9027SOL    HW138540   2.345   2.870   7.065 -2.6038 -0.1095  0.7755
 9027SOL    HW238541   2.234   2.960   7.031 -0.9517  0.0426 -3.6469
 9028SOL     OW38542   3.550   3.768   7.537 -0.1990  1.1457  0.1220
 9028SOL    HW138543   3.564   3.678   7.507  0.4183  2.2297 -2.7738
 9028SOL    HW238544   3.498   3.737   7.612  0.8176 -2.5937 -0.7110
 9029SOL     OW38545   4.388   4.264  10.850  0.1646 -0.2506  0.4959
 9029SOL    HW138546   4.429   4.253  10.764 -0.7541  1.8335 -0.2001
 9029SOL    HW238547   4.341   4.344  10.829  1.5163  0.7682  1.3244
 9030SOL     OW38548   1.650   0.238   1.686 -0.3485  0.0955  0.0943
 9030SOL    HW138549   1.724   0.241   1.624 -1.4246 -0.8512 -1.2224
 9030SOL    HW238550   1.590   0.187   1.632 -0.6416 -1.3610  1.8062
 9031SOL     OW38551   2.595   0.693   6.672 -0.2090 -0.4366  0.8403
 9031SOL    HW138552   2.523   0.730   6.620 -0.0216 -1.0559  0.1430
 9031SOL    HW238553   2.547   0.669   6.751  0.3128  1.4649  1.7396
 9032SOL     OW38554   4.514   0.676   8.660 -0.3858  0.1850  0.1599
 9032SOL    HW138555   4.550   0.641   8.579 -0.7394 -0.8626  0.4666
 9032SOL    HW238556   4.583   0.740   8.682  0.7217 -0.9865  0.1048
 9033SOL     OW38557   0.874   2.973  17.601  0.2296  0.3578  0.1224
 9033SOL    HW138558   0.945   2.972  17.666  0.0424  0.9006  0.3286
 9033SOL    HW238559   0.886   3.062  17.569  0.6219 -0.1548 -1.1500
 9034SOL     OW38560   2.164   2.701   5.088 -0.4445 -0.5446  0.8356
 9034SOL    HW138561   2.260   2.707   5.088 -0.4533 -0.3998  0.1200
 9034SOL    HW238562   2.133   2.731   5.173 -0.3863  2.8077 -0.3206
 9035SOL     OW38563   4.441   0.452  12.259  0.2183 -0.1165  0.4908
 9035SOL    HW138564   4.429   0.443  12.164 -3.0828  0.6997  0.8561
 9035SOL    HW238565   4.506   0.521  12.245  0.3832 -0.1356  1.1884
 9036SOL     OW38566   3.722   2.180  14.722 -0.0237  0.2583  0.6316
 9036SOL    HW138567   3.719   2.275  14.711  0.5172  0.3799  1.5525
 9036SOL    HW238568   3.637   2.152  14.689 -0.2355  0.2889  1.1511
 9037SOL     OW38569   4.271   4.293  10.004 -0.2464  0.3515  0.4900
 9037SOL    HW138570   4.214   4.237  10.057 -0.0369  0.7572  1.1391
 9037SOL    HW238571   4.208   4.332   9.943  0.7040 -0.4422 -1.0186
 9038SOL     OW38572   3.675   4.373  15.361  0.0179  0.7503 -0.0884
 9038SOL    HW138573   3.585   4.378  15.393  0.7733  0.6149  2.0797
 9038SOL    HW238574   3.699   4.290  15.403 -0.6822  0.2874 -0.6175
 9039SOL     OW38575   3.043   1.812   9.987  0.4151  0.3396 -0.0366
 9039SOL    HW138576   3.003   1.800   9.901 -0.7992 -0.0565  0.5920
 9039SOL    HW238577   3.085   1.727   9.996 -1.3435 -0.4419  0.8039
 9040SOL     OW38578   2.383   1.454  15.127  0.1649  0.2427 -0.1080
 9040SOL    HW138579   2.337   1.442  15.044 -1.2583 -1.2157  0.9107
 9040SOL    HW238580   2.411   1.546  15.132  2.6375 -0.4949 -0.3341
 9041SOL     OW38581   4.706   0.359  11.632 -0.2840  0.1305  0.7250
 9041SOL    HW138582   4.718   0.270  11.666 -0.7392  0.0188  0.5906
 9041SOL    HW238583   4.678   0.330  11.545  1.2223 -0.0079  0.2767
 9042SOL     OW38584   0.595   4.174   6.738 -0.6683  0.1943 -0.8333
 9042SOL    HW138585   0.687   4.147   6.736 -1.1657 -1.5547 -0.4921
 9042SOL    HW238586   0.566   4.112   6.671 -1.0196 -1.3203  0.7066
 9043SOL     OW38587   0.493   3.147   8.247 -0.3996  0.4863 -0.6299
 9043SOL    HW138588   0.488   3.170   8.154  0.0144 -2.2453 -1.3281
 9043SOL    HW238589   0.506   3.234   8.284  0.0165 -0.4933  1.5093
 9044SOL     OW38590   4.128   3.142   1.738 -0.8789  0.8614 -0.0866
 9044SOL    HW138591   4.097   3.167   1.825  0.1112  3.8312 -0.5580
 9044SOL    HW238592   4.124   3.221   1.684 -1.1282  2.1588  1.7982
 9045SOL     OW38593   0.967   1.732   9.174 -0.1794  0.1510 -0.8005
 9045SOL    HW138594   0.985   1.733   9.080 -0.9420  0.6338 -0.9382
 9045SOL    HW238595   0.896   1.670   9.190 -0.3173  0.3980 -0.4733
 9046SOL     OW38596   3.897   0.265   9.676  0.1257  0.3714  0.2438
 9046SOL    HW138597   3.852   0.316   9.743  0.2244  0.6574  0.0947
 9046SOL    HW238598   3.982   0.306   9.659 -1.7425  4.3115  0.2766
 9047SOL     OW38599   4.438   3.824   0.023 -0.1139  0.2906  0.1951
 9047SOL    HW138600   4.494   3.820  17.641 -0.4995 -1.7776  0.0252
 9047SOL    HW238601   4.400   3.737   0.013 -0.2101  0.0842  2.5845
 9048SOL     OW38602   0.084   1.214  15.576  0.1777 -0.2300  0.3714
 9048SOL    HW138603   0.040   1.293  15.544 -0.9020 -1.4941 -1.3006
 9048SOL    HW238604   0.005   1.159  15.572 -1.2506  1.9125 -0.7558
 9049SOL     OW38605   3.760   2.690   6.639 -0.1670  0.2385 -0.0123
 9049SOL    HW138606   3.835   2.748   6.651  0.3360 -0.3098 -0.5159
 9049SOL    HW238607   3.692   2.749   6.672 -1.4706 -0.5884 -1.1864
 9050SOL     OW38608   0.937   0.627   7.482  0.1387  0.2098 -0.3290
 9050SOL    HW138609   0.918   0.596   7.394  3.2642 -0.5578 -0.7417
 9050SOL    HW238610   1.028   0.654   7.467  0.7494 -1.6654 -0.0079
 9051SOL     OW38611   2.409   3.313  13.701  0.1924  0.2600 -0.2168
 9051SOL    HW138612   2.465   3.269  13.636  0.9080 -0.6568  0.9981
 9051SOL    HW238613   2.472   3.372  13.743  0.5157 -1.3812  1.6025
 9052SOL     OW38614   3.771   3.203   7.979 -0.3500 -0.7825  0.7939
 9052SOL    HW138615   3.676   3.196   7.987 -0.7882 -0.4097 -3.9057
 9052SOL    HW238616   3.787   3.286   8.023  1.0524  0.8956 -2.9517
 9053SOL     OW38617   4.112   0.836   1.957  0.3835 -0.1625 -0.1151
 9053SOL    HW138618   4.024   0.865   1.980 -0.1560 -2.0928  0.2223
 9053SOL    HW238619   4.157   0.921   1.948 -0.7216  0.3862 -0.4277
 9054SOL     OW38620   0.379   1.241  17.570 -0.3539  0.3851 -0.0140
 9054SOL    HW138621   0.366   1.315  17.512 -3.4949  0.0917  0.2987
 9054SOL    HW238622   0.310   1.175  17.561  1.9523 -1.7719 -1.6863
 9055SOL     OW38623   3.390   4.499   4.703 -0.1827 -0.4596  0.0047
 9055SOL    HW138624   3.364   4.591   4.714 -0.4067 -0.8490  2.6314
 9055SOL    HW238625   3.395   4.463   4.791 -0.0899  3.2490  1.5285
 9056SOL     OW38626   2.452   2.168   4.147  0.0958 -0.1280 -0.1021
 9056SOL    HW138627   2.399   2.224   4.203  0.1181  0.1714 -0.3776
 9056SOL    HW238628   2.384   2.106   4.121 -0.9720  2.2603 -3.0337
 9057SOL     OW38629   0.485   0.340   7.515  0.1462 -1.1086  0.1786
 9057SOL    HW138630   0.418   0.282   7.552 -0.5566  1.3056  2.7020
 9057SOL    HW238631   0.514   0.382   7.596 -0.5509 -0.5600  0.1455
 9058SOL     OW38632   0.604   3.069   4.643  0.6933  0.0066  0.2885
 9058SOL    HW138633   0.551   3.054   4.565 -2.2197 -0.3276  2.3484
 9058SOL    HW238634   0.554   3.143   4.678 -1.5400 -1.5966  0.3997
 9059SOL     OW38635   0.581   3.046  14.461  0.4329  0.1411 -0.2667
 9059SOL    HW138636   0.492   3.081  14.453  0.0812 -0.8869 -0.7424
 9059SOL    HW238637   0.627   3.107  14.403  0.6947 -0.8431 -1.0889
 9060SOL     OW38638   2.463   0.524   9.447 -0.1553 -0.0244  0.1330
 9060SOL    HW138639   2.543   0.514   9.497 -0.9945 -1.4345  1.1560
 9060SOL    HW238640   2.447   0.619   9.441 -2.2110 -0.4191 -0.5966
 9061SOL     OW38641   4.349   4.053   5.888 -0.1321 -0.0809 -0.0986
 9061SOL    HW138642   4.335   4.106   5.967 -1.4826 -0.6914  0.0874
 9061SOL    HW238643   4.338   3.964   5.921 -0.6698 -0.3130 -0.9068
 9062SOL     OW38644   4.646   3.701  15.725  0.1125  0.6733  0.0696
 9062SOL    HW138645   4.652   3.797  15.727  2.4202  0.5291  0.3807
 9062SOL    HW238646   4.565   3.694  15.675 -0.4703  2.7984  0.7026
 9063SOL     OW38647   3.566   4.124   1.901  0.0325  0.0215 -0.0179
 9063SOL    HW138648   3.489   4.115   1.845 -0.2776 -0.6815  0.5325
 9063SOL    HW238649   3.613   4.041   1.886 -0.4982 -0.1751 -0.6126
 9064SOL     OW38650   2.223   3.264  11.115  0.3523  0.4293 -0.2560
 9064SOL    HW138651   2.254   3.177  11.141  1.7702  1.5495  1.8183
 9064SOL    HW238652   2.280   3.287  11.041  0.4418  0.4860 -0.1698
 9065SOL     OW38653   4.226   0.527   7.290  0.0369  0.0424  0.0221
 9065SOL    HW138654   4.160   0.507   7.223  0.5878  1.4302 -0.9238
 9065SOL    HW238655   4.292   0.561   7.230 -0.3025  0.9366  0.1560
 9066SOL     OW38656   1.280   2.219   9.455 -0.3573 -0.0261  0.2582
 9066SOL    HW138657   1.348   2.191   9.394 -0.1226 -1.5749  1.2395
 9066SOL    HW238658   1.221   2.145   9.467  0.4497 -0.4552  1.6463
 9067SOL     OW38659   0.375   0.152   7.288  0.3017  0.3006 -0.6450
 9067SOL    HW138660   0.465   0.133   7.314  0.7706 -0.2786 -2.7077
 9067SOL    HW238661   0.332   0.086   7.342 -0.3167  1.5643  0.4273
 9068SOL     OW38662   4.029   1.843  13.639  0.3809 -0.6265  0.5860
 9068SOL    HW138663   4.122   1.862  13.655  0.4416  1.0621 -1.8540
 9068SOL    HW238664   4.033   1.869  13.548  1.1819 -0.5984  0.6261
 9069SOL     OW38665   4.653   0.328   8.447  0.7882  0.0327 -0.0448
 9069SOL    HW138666   4.687   0.416   8.459 -0.8998  0.4292  1.8830
 9069SOL    HW238667   4.660   0.312   8.353  0.5029 -1.3508  0.1592
 9070SOL     OW38668   0.042   2.542   4.102  0.5863 -0.8234  0.0568
 9070SOL    HW138669   4.680   2.504   4.081  0.9672 -1.2581 -0.7360
 9070SOL    HW238670   0.087   2.469   4.058  1.5076 -0.1164 -0.1623
 9071SOL     OW38671   3.892   2.484  16.106 -0.8475  0.1019 -0.0958
 9071SOL    HW138672   3.847   2.558  16.147  0.7929  0.3530  1.2314
 9071SOL    HW238673   3.980   2.512  16.133 -1.5741  0.3056  2.0348
 9072SOL     OW38674   4.429   1.872   7.840 -0.5710 -0.0623  0.4693
 9072SOL    HW138675   4.457   1.894   7.929  2.5051 -3.1304  0.2174
 9072SOL    HW238676   4.334   1.862   7.844 -0.8350  1.6150 -1.3780
 9073SOL     OW38677   1.079   3.784   1.354 -0.3584  0.7479  0.0122
 9073SOL    HW138678   1.158   3.821   1.315 -1.4443  1.7116 -1.2595
 9073SOL    HW238679   1.024   3.773   1.277 -0.0577  0.5704 -0.1782
 9074SOL     OW38680   4.012   3.505   6.418  0.1163  0.5781 -0.2114
 9074SOL    HW138681   3.948   3.510   6.347 -0.7863  0.3196  0.5841
 9074SOL    HW238682   3.985   3.587   6.459 -0.1670  0.6134 -0.4692
 9075SOL     OW38683   2.072   3.881   8.983  0.2985  0.2463  0.1639
 9075SOL    HW138684   2.069   3.863   9.077  0.8165 -0.2786  0.0856
 9075SOL    HW238685   2.127   3.959   8.979  0.2110  0.2541 -0.8167
 9076SOL     OW38686   3.471   2.189   8.413 -0.7137  0.1459 -0.4793
 9076SOL    HW138687   3.384   2.224   8.431 -0.7139  0.4762 -1.1083
 9076SOL    HW238688   3.496   2.240   8.336 -0.3084 -1.4940 -1.4210
 9077SOL     OW38689   0.585   3.962   7.363 -0.3697 -0.1581 -0.1836
 9077SOL    HW138690   0.532   4.013   7.424 -2.4201 -0.8853 -1.3698
 9077SOL    HW238691   0.671   3.991   7.393 -0.1734 -1.2464  0.3084
 9078SOL     OW38692   1.009   0.914   8.778  0.2558 -0.4709  0.0419
 9078SOL    HW138693   1.016   0.854   8.852  0.9397  0.5932  0.8460
 9078SOL    HW238694   1.066   0.982   8.813 -0.5296  0.3287 -0.2200
 9079SOL     OW38695   0.531   1.437   7.180 -0.0724 -0.0477 -0.4614
 9079SOL    HW138696   0.469   1.446   7.252 -0.9160  0.9318 -1.3045
 9079SOL    HW238697   0.522   1.523   7.140  1.2409  0.6016  0.6532
 9080SOL     OW38698   3.704   1.575   8.544 -0.1751  0.1194 -0.4436
 9080SOL    HW138699   3.776   1.533   8.496 -0.1693  0.2410 -0.5391
 9080SOL    HW238700   3.695   1.645   8.480  1.2157  0.0109 -0.7738
 9081SOL     OW38701   1.773   0.749   8.982 -0.1311  0.4618  0.2332
 9081SOL    HW138702   1.865   0.766   9.005 -0.6333  1.2234  1.6392
 9081SOL    HW238703   1.733   0.806   9.048  1.1400  1.0261  0.5223
 9082SOL     OW38704   1.880   2.256   6.849  0.1624 -0.3265 -0.6062
 9082SOL    HW138705   1.885   2.280   6.757  1.8095 -0.1192 -0.4736
 9082SOL    HW238706   1.859   2.339   6.892  0.2779 -0.3814 -0.4427
 9083SOL     OW38707   3.677   4.535  14.394  0.0434 -0.2954 -0.0698
 9083SOL    HW138708   3.664   4.442  14.408 -1.7508  0.1308  0.9927
 9083SOL    HW238709   3.608   4.556  14.331  0.3225  1.7151  0.2879
 9084SOL     OW38710   2.914   1.293   6.952  0.7024  0.0978  0.3649
 9084SOL    HW138711   2.898   1.250   7.036  0.0611 -3.1331 -1.4006
 9084SOL    HW238712   2.978   1.233   6.914  0.8039  0.0764  0.5696
 9085SOL     OW38713   2.927   3.681   7.204  0.7851 -0.0593 -0.8668
 9085SOL    HW138714   2.980   3.728   7.139 -0.8374 -1.2850 -3.0614
 9085SOL    HW238715   2.950   3.722   7.288 -1.1138  0.2211 -0.4808
 9086SOL     OW38716   3.260   0.893   8.052  0.5348 -0.1236  0.2503
 9086SOL    HW138717   3.167   0.895   8.030  0.6570 -1.3043 -0.4205
 9086SOL    HW238718   3.262   0.816   8.110  0.1410  0.0089  0.4400
 9087SOL     OW38719   0.262   3.814  10.507 -0.1069 -0.3858  0.4053
 9087SOL    HW138720   0.173   3.830  10.537  0.7295  3.8486  0.7017
 9087SOL    HW238721   0.279   3.739  10.563  1.1413 -0.1141  0.3916
 9088SOL     OW38722   1.622   1.202   8.328 -0.2404 -0.0095 -0.5223
 9088SOL    HW138723   1.580   1.219   8.244 -2.0688 -0.6658  0.2465
 9088SOL    HW238724   1.558   1.221   8.397  0.4826 -1.7275  0.6253
 9089SOL     OW38725   2.938   4.066   2.743  0.9457  0.2107  0.2650
 9089SOL    HW138726   2.963   3.977   2.717 -1.3887 -0.4147  0.1006
 9089SOL    HW238727   2.909   4.061   2.834  2.2716  1.0588  0.7275
 9090SOL     OW38728   2.259   3.648   4.268  0.2632  0.5263 -0.3261
 9090SOL    HW138729   2.163   3.643   4.275  0.3190  1.1524  0.8481
 9090SOL    HW238730   2.273   3.587   4.195 -1.1046 -0.0257 -0.1407
 9091SOL     OW38731   2.447   0.212   3.262  0.4488 -0.1511  0.2416
 9091SOL    HW138732   2.456   0.141   3.325 -0.5948  0.2846  0.8813
 9091SOL    HW238733   2.444   0.169   3.177 -0.9408  0.0017  0.2195
 9092SOL     OW38734   4.424   2.290   1.134  0.2359  0.1980  0.0189
 9092SOL    HW138735   4.357   2.356   1.152  0.7510  1.1579 -1.5448
 9092SOL    HW238736   4.450   2.255   1.219 -2.8242 -0.0571  0.8395
 9093SOL     OW38737   4.632   3.840   5.626 -0.0930 -0.5999 -0.2135
 9093SOL    HW138738   4.614   3.811   5.537 -0.0913 -2.5305  0.4084
 9093SOL    HW238739   4.549   3.803   5.657  0.4915  0.5063  2.6991
 9094SOL     OW38740   2.117   2.012  10.739 -0.2477  0.0735 -0.3508
 9094SOL    HW138741   2.073   2.054  10.813  3.0444  2.3003  0.3462
 9094SOL    HW238742   2.206   2.044  10.750 -0.6705  1.0667  0.2348
 9095SOL     OW38743   3.970   3.406  15.887  0.1411 -0.3546 -0.0149
 9095SOL    HW138744   3.967   3.471  15.816  0.1868 -3.1598 -2.5893
 9095SOL    HW238745   4.031   3.448  15.948  1.9836 -1.3776 -1.1645
 9096SOL     OW38746   2.905   2.585   4.390  0.0628  0.2262  0.0408
 9096SOL    HW138747   2.954   2.657   4.430  0.2165  0.2422 -0.1798
 9096SOL    HW238748   2.873   2.627   4.310  1.1864  0.1305 -0.4539
 9097SOL     OW38749   0.219   4.016   8.041 -0.0989  0.7377 -0.2706
 9097SOL    HW138750   0.275   4.088   8.011  0.5599 -0.2778 -1.5135
 9097SOL    HW238751   0.204   3.980   7.953  1.0432  1.6595 -0.8405
 9098SOL     OW38752   0.514   2.879  14.703 -0.5609 -0.2353  0.8620
 9098SOL    HW138753   0.579   2.906  14.638 -0.0612  0.1404  1.5311
 9098SOL    HW238754   0.480   2.962  14.735 -0.5156 -0.7565  2.2328
 9099SOL     OW38755   2.988   2.321   9.791 -0.7370  0.1818 -0.0396
 9099SOL    HW138756   2.985   2.228   9.814 -3.2320  0.4772  0.8672
 9099SOL    HW238757   2.991   2.329   9.696 -2.7216 -0.6105 -0.1633
 9100SOL     OW38758   1.257   4.476   9.694 -0.0710  0.4670 -0.6038
 9100SOL    HW138759   1.350   4.455   9.697  0.3127  2.5930  3.7652
 9100SOL    HW238760   1.233   4.469   9.602  2.4210 -0.6004 -1.1805
 9101SOL     OW38761   4.355   0.953  14.318 -0.5272 -0.2273 -0.3763
 9101SOL    HW138762   4.355   0.862  14.287 -0.9484 -0.5330  0.5358
 9101SOL    HW238763   4.408   0.956  14.398 -0.7677 -2.9841 -0.1184
 9102SOL     OW38764   4.530   3.633   6.083  0.0481 -0.4227 -0.1830
 9102SOL    HW138765   4.595   3.617   6.151  1.9233 -0.7869 -2.0806
 9102SOL    HW238766   4.509   3.724   6.101  1.0226 -0.0421 -0.9661
 9103SOL     OW38767   2.622   4.661   6.197 -0.6566 -0.2899  0.1620
 9103SOL    HW138768   2.576   4.675   6.280 -0.7297  0.5670 -0.0225
 9103SOL    HW238769   2.710   4.681   6.228 -0.4441 -2.2506  0.7952
 9104SOL     OW38770   3.342   1.918  12.208 -0.1932 -0.1491 -0.5188
 9104SOL    HW138771   3.410   1.965  12.255  1.2667 -1.6783 -1.1220
 9104SOL    HW238772   3.289   1.990  12.174 -0.2506  0.9714  1.9134
 9105SOL     OW38773   3.000   3.140   7.620  0.1899  0.4189 -0.5689
 9105SOL    HW138774   2.972   3.231   7.610 -0.2262  0.1484 -1.8523
 9105SOL    HW238775   3.028   3.145   7.711  0.2470 -1.5959 -0.4707
 9106SOL     OW38776   3.361   4.355   1.332  0.2741  0.2684  0.1015
 9106SOL    HW138777   3.424   4.287   1.308  1.4430  1.2372  0.4044
 9106SOL    HW238778   3.383   4.428   1.274 -2.3932  0.6036 -0.4519
 9107SOL     OW38779   1.146   3.102  15.622 -0.6622  0.1736  0.3996
 9107SOL    HW138780   1.061   3.072  15.654 -0.7915  0.1789  0.0546
 9107SOL    HW238781   1.192   3.110  15.706 -0.0680  1.2692 -0.0334
 9108SOL     OW38782   4.405   2.626   2.657  0.2642  0.0526 -0.8617
 9108SOL    HW138783   4.311   2.622   2.673  0.6680 -1.1093  1.0764
 9108SOL    HW238784   4.415   2.594   2.567 -1.5165 -1.3500 -0.5521
 9109SOL     OW38785   4.402   2.100   8.026 -0.3709 -0.1390 -0.3166
 9109SOL    HW138786   4.376   2.157   7.954 -1.9245 -0.8195 -0.3056
 9109SOL    HW238787   4.356   2.145   8.097 -3.1076 -0.8001 -1.6667
 9110SOL     OW38788   1.329   2.565   2.477  0.0750 -0.0459  0.3361
 9110SOL    HW138789   1.256   2.516   2.514  1.2535 -0.4445  2.1062
 9110SOL    HW238790   1.324   2.549   2.382 -2.1206  0.1222  0.4233
 9111SOL     OW38791   3.341   1.470   4.472 -0.2708 -0.2325  0.1412
 9111SOL    HW138792   3.343   1.380   4.502  0.7382 -0.2869 -0.1054
 9111SOL    HW238793   3.403   1.515   4.529 -0.3465 -1.0127  0.8315
 9112SOL     OW38794   1.407   1.094   5.901 -0.4504  0.2572 -0.2883
 9112SOL    HW138795   1.357   1.013   5.894  0.3196 -0.4666  2.3582
 9112SOL    HW238796   1.355   1.139   5.968 -0.1531  1.1356 -0.6415
 9113SOL     OW38797   3.273   0.494   1.698  0.0840 -0.0582  0.2834
 9113SOL    HW138798   3.183   0.482   1.670  0.1932 -1.7733  0.6378
 9113SOL    HW238799   3.316   0.527   1.620  2.9681 -2.8134  0.6807
 9114SOL     OW38800   1.148   0.328   5.540 -0.7876  0.2168 -0.4953
 9114SOL    HW138801   1.196   0.292   5.615  0.0156  1.7541 -0.2671
 9114SOL    HW238802   1.169   0.269   5.468 -3.3609 -0.8019 -0.4028
 9115SOL     OW38803   1.694   0.856   4.356  0.4592  0.3150  0.7159
 9115SOL    HW138804   1.695   0.814   4.270 -2.0987  1.9498 -0.1324
 9115SOL    HW238805   1.608   0.899   4.353  0.1840 -0.3157 -0.6496
 9116SOL     OW38806   3.714   4.213   2.598 -0.2654  0.0460  0.4729
 9116SOL    HW138807   3.736   4.214   2.505  0.1604  0.4573  0.5797
 9116SOL    HW238808   3.685   4.123   2.612  0.1245 -0.0770  0.4968
 9117SOL     OW38809   4.398   3.609  15.598  0.1123  0.3709  0.0750
 9117SOL    HW138810   4.332   3.672  15.569  0.0587  0.0741 -0.4366
 9117SOL    HW238811   4.452   3.598  15.521  3.9146  0.7525  2.7078
 9118SOL     OW38812   4.621   3.410   7.417 -0.3233  0.0522  0.1403
 9118SOL    HW138813   4.531   3.385   7.436 -0.5657  1.4440  0.8557
 9118SOL    HW238814   4.620   3.500   7.450  3.7259 -0.4054  1.4437
 9119SOL     OW38815   2.287   0.046  13.370 -0.0552  0.2696 -0.1769
 9119SOL    HW138816   2.359   0.037  13.432  0.2097  0.7273 -0.4183
 9119SOL    HW238817   2.255   0.134  13.391  0.2249  0.3938 -0.2673
 9120SOL     OW38818   1.632   1.562   8.333 -0.0284  0.0057 -0.2816
 9120SOL    HW138819   1.617   1.475   8.371 -0.0518 -0.1321 -0.6118
 9120SOL    HW238820   1.667   1.585   8.419  0.1456  0.2945 -0.4318
 9121SOL     OW38821   4.121   4.387   2.562 -0.1168 -0.6960  0.3505
 9121SOL    HW138822   4.118   4.480   2.586 -1.6741 -0.9034  0.9561
 9121SOL    HW238823   4.043   4.355   2.607 -0.1217 -2.0087 -0.6015
 9122SOL     OW38824   0.396   1.236   7.348 -0.0510  0.0847  0.3433
 9122SOL    HW138825   0.490   1.247   7.357  0.2622 -2.3092  0.0630
 9122SOL    HW238826   0.397   1.143   7.325 -0.0954  0.0759  0.3765
 9123SOL     OW38827   2.594   0.196  16.922 -0.0635 -0.6951 -0.0839
 9123SOL    HW138828   2.590   0.206  16.827 -3.3259  1.9103  0.3062
 9123SOL    HW238829   2.532   0.124  16.935  0.1750 -1.1187 -1.3057
 9124SOL     OW38830   3.264   0.675   7.050  0.1931 -0.3235 -0.3969
 9124SOL    HW138831   3.203   0.706   6.983  0.8998 -1.1797 -1.4399
 9124SOL    HW238832   3.235   0.719   7.130  1.6423  2.5797 -1.4842
 9125SOL     OW38833   3.695   0.063   0.411  0.5285 -0.6538  0.2228
 9125SOL    HW138834   3.621   0.102   0.363 -0.0356 -0.7070  1.0449
 9125SOL    HW238835   3.735   0.012   0.341 -0.6000 -0.8622 -0.2689
 9126SOL     OW38836   1.497   0.990  15.095  0.2853 -0.1254 -0.1754
 9126SOL    HW138837   1.582   0.968  15.057  0.4905 -0.2985  0.3817
 9126SOL    HW238838   1.471   1.075  15.058  0.6479  0.2078  0.3257
 9127SOL     OW38839   3.423   2.030  15.930 -0.0176 -0.3202  0.2507
 9127SOL    HW138840   3.458   2.008  15.844 -1.2488 -0.6969 -0.1417
 9127SOL    HW238841   3.374   2.108  15.907  1.1716 -0.2914 -2.1572
 9128SOL     OW38842   3.019   4.462  15.986  0.1661  0.0681  0.5837
 9128SOL    HW138843   2.991   4.552  16.004  0.2945  0.1394  0.4223
 9128SOL    HW238844   3.061   4.444  16.070 -0.0791 -1.1193  0.4546
 9129SOL     OW38845   1.089   4.638   4.525  0.5193  0.0485 -0.5032
 9129SOL    HW138846   1.063   4.553   4.562  0.7559 -0.8579 -2.4119
 9129SOL    HW238847   1.064   4.635   4.433 -0.2543 -1.6340 -0.2454
 9130SOL     OW38848   1.093   4.189   7.023  0.4118  0.0448 -0.4620
 9130SOL    HW138849   1.135   4.120   6.972 -0.2173 -0.7537  0.0943
 9130SOL    HW238850   1.160   4.226   7.081 -0.8102  1.6151 -0.0557
 9131SOL     OW38851   1.563   3.536   1.866  0.3409  0.3322  0.5553
 9131SOL    HW138852   1.486   3.567   1.916  0.4881 -0.0675  1.0322
 9131SOL    HW238853   1.625   3.544   1.939  1.4271  3.1829 -0.6549
 9132SOL     OW38854   0.123   3.635   2.561  0.5022  0.2210  0.3778
 9132SOL    HW138855   0.031   3.636   2.534  0.9981  1.5684 -1.2994
 9132SOL    HW238856   0.136   3.729   2.575  0.6980  0.1811  0.4671
 9133SOL     OW38857   3.721   3.354   2.893 -0.3207  0.2823  0.5182
 9133SOL    HW138858   3.637   3.329   2.856 -0.0213  0.6734 -0.4157
 9133SOL    HW238859   3.738   3.427   2.834 -0.1757 -0.1381  0.0356
 9134SOL     OW38860   4.220   3.770   6.846  0.1796 -0.1823  0.7229
 9134SOL    HW138861   4.194   3.693   6.898  0.6585 -1.9356 -1.6260
 9134SOL    HW238862   4.215   3.832   6.919 -0.3455 -3.2598  3.3299
 9135SOL     OW38863   0.229   2.528   5.037 -0.2596  0.6392 -0.4017
 9135SOL    HW138864   0.227   2.509   4.943  0.5520  1.6143 -0.6238
 9135SOL    HW238865   0.319   2.557   5.051 -0.1630  0.8314 -1.3994
 9136SOL     OW38866   1.955   3.062   3.492  0.1067 -0.2944 -0.7241
 9136SOL    HW138867   1.892   3.107   3.435  2.0763  3.0744 -0.2481
 9136SOL    HW238868   2.036   3.104   3.462 -1.4422  2.9367 -0.4372
 9137SOL     OW38869   0.606   2.252   1.951  0.6419 -0.3748  0.2374
 9137SOL    HW138870   0.579   2.234   1.861  0.7305 -0.3757  0.2109
 9137SOL    HW238871   0.689   2.298   1.937  0.9121 -1.5548 -2.0291
 9138SOL     OW38872   4.497   3.425   1.773  0.1169 -0.0725  0.2024
 9138SOL    HW138873   4.588   3.435   1.743  0.3881 -0.9308  0.7471
 9138SOL    HW238874   4.453   3.385   1.698 -0.5852 -0.2794  0.7283
 9139SOL     OW38875   3.854   0.298   1.312 -0.1780 -0.2052  0.2929
 9139SOL    HW138876   3.793   0.343   1.253  1.1246  1.0070 -0.1412
 9139SOL    HW238877   3.864   0.216   1.264 -1.9849  0.5143 -1.3155
 9140SOL     OW38878   0.467   2.160  11.105 -0.3471 -0.1289 -0.2822
 9140SOL    HW138879   0.372   2.160  11.115 -0.0614 -0.9486  2.5586
 9140SOL    HW238880   0.491   2.090  11.166  3.0004  1.4746  0.2339
 9141SOL     OW38881   4.555   1.479   8.570 -0.5132  0.2536 -0.1304
 9141SOL    HW138882   4.606   1.560   8.574  1.3775 -0.8930 -1.3388
 9141SOL    HW238883   4.477   1.508   8.617 -0.0689  0.9071  0.2040
 9142SOL     OW38884   4.673   3.509   1.359  0.1500  0.3801  0.1387
 9142SOL    HW138885   4.647   3.420   1.383 -0.4827  0.0764 -1.6984
 9142SOL    HW238886   4.614   3.532   1.287  0.5509 -0.3529 -0.4244
 9143SOL     OW38887   2.648   2.176   6.712  0.3480 -0.0974  0.1101
 9143SOL    HW138888   2.710   2.164   6.784  0.4409  0.1130  0.0642
 9143SOL    HW238889   2.569   2.197   6.761  0.1022  2.1191 -1.2510
 9144SOL     OW38890   0.499   1.689   6.465 -0.1699  0.2254 -0.0621
 9144SOL    HW138891   0.550   1.687   6.384 -2.2340 -0.4460 -1.3230
 9144SOL    HW238892   0.476   1.780   6.481  2.8247  1.2371 -1.4529
 9145SOL     OW38893   2.287   0.837   2.595  0.4340  0.3219 -0.5553
 9145SOL    HW138894   2.311   0.821   2.503  0.4379  0.9727 -0.6635
 9145SOL    HW238895   2.202   0.794   2.601  0.3706  0.7292  1.3926
 9146SOL     OW38896   0.694   1.658   2.318 -0.7840 -0.0823  0.0198
 9146SOL    HW138897   0.642   1.599   2.372 -0.2845 -0.3352  0.2237
 9146SOL    HW238898   0.653   1.742   2.339  1.8557  1.7246 -2.0810
 9147SOL     OW38899   1.961   2.896   2.012 -0.3375  0.3018  0.1221
 9147SOL    HW138900   1.957   2.813   2.059 -0.0577  0.2196 -0.0042
 9147SOL    HW238901   2.045   2.882   1.968 -0.8112  1.3375 -1.1116
 9148SOL     OW38902   3.273   3.136   2.492  0.0338  0.3073 -0.1926
 9148SOL    HW138903   3.191   3.181   2.473  0.4528  0.5922 -1.3480
 9148SOL    HW238904   3.274   3.065   2.427 -1.5810  0.2101 -0.1055
 9149SOL     OW38905   0.928   2.757   5.577 -0.7372  0.2096  0.1370
 9149SOL    HW138906   0.847   2.806   5.566 -1.2363 -0.6412  0.0660
 9149SOL    HW238907   0.987   2.821   5.537  1.1581 -0.7921  1.3386
 9150SOL     OW38908   4.206   1.217   6.937  0.5898  0.3956 -0.3139
 9150SOL    HW138909   4.283   1.162   6.944 -0.7125 -1.1124  2.0460
 9150SOL    HW238910   4.219   1.254   6.850 -1.5412 -2.4439 -1.8373
 9151SOL     OW38911   2.668   4.307  12.193  0.6077  0.5401 -0.2619
 9151SOL    HW138912   2.610   4.381  12.212  1.2918  0.7292  1.0686
 9151SOL    HW238913   2.621   4.272  12.117  0.1611  2.4250 -0.8703
 9152SOL     OW38914   0.028   3.951  12.226 -0.0100  0.0949  0.4414
 9152SOL    HW138915   0.115   3.938  12.264 -0.4467 -3.0863  0.3224
 9152SOL    HW238916   4.707   4.009  12.287 -0.2730  1.2840 -0.8869
 9153SOL     OW38917   3.976   0.690   7.436  0.2808 -0.3101  0.5459
 9153SOL    HW138918   3.979   0.721   7.345  0.7775 -0.2067  0.5959
 9153SOL    HW238919   4.067   0.660   7.442  0.3461 -0.8518 -3.1111
 9154SOL     OW38920   4.384   0.904  15.568  0.4968  0.4364 -0.3734
 9154SOL    HW138921   4.348   0.861  15.646  0.9128  3.1557  1.3295
 9154SOL    HW238922   4.312   0.967  15.570  1.1914  1.2099  0.2575
 9155SOL     OW38923   4.024   4.587   8.877 -0.1846  0.4880  0.0044
 9155SOL    HW138924   4.089   4.614   8.813 -0.2630 -1.7291 -1.0277
 9155SOL    HW238925   4.024   4.491   8.867  0.4534  0.3451  1.3018
 9156SOL     OW38926   0.649   4.496   5.504  0.8320 -0.2742 -0.6061
 9156SOL    HW138927   0.558   4.476   5.480  0.7026  0.9506 -1.1186
 9156SOL    HW238928   0.670   4.543   5.423  0.2111  1.1406  0.0611
 9157SOL     OW38929   0.164   1.479  16.024  0.3171 -0.2747 -0.8259
 9157SOL    HW138930   0.174   1.525  15.941  0.3541  2.6380  0.8107
 9157SOL    HW238931   0.118   1.402  15.991  0.6883  0.1901 -2.4140
 9158SOL     OW38932   3.247   2.684   2.675 -0.6881 -0.0542 -0.1945
 9158SOL    HW138933   3.304   2.609   2.693  0.5800  0.9612 -0.0237
 9158SOL    HW238934   3.191   2.638   2.612 -1.4047  1.4365 -0.6324
 9159SOL     OW38935   3.284   0.946  11.224 -0.4169  0.1776 -0.0340
 9159SOL    HW138936   3.360   1.000  11.247 -0.5907  0.4842 -0.1833
 9159SOL    HW238937   3.332   0.865  11.239 -0.4203 -0.1019 -1.4759
 9160SOL     OW38938   3.054   1.902   3.265 -0.5973 -0.2576 -0.2002
 9160SOL    HW138939   2.968   1.897   3.223 -0.9657 -3.6532  0.9672
 9160SOL    HW238940   3.041   1.868   3.353  0.3560 -1.4143 -0.5044
 9161SOL     OW38941   2.555   3.665   2.162 -0.0394 -0.5979 -0.0696
 9161SOL    HW138942   2.604   3.664   2.244  2.8479  0.5908 -1.7787
 9161SOL    HW238943   2.464   3.670   2.191 -0.8655 -0.5723 -2.6245
 9162SOL     OW38944   4.143   1.654   4.494 -0.4603 -0.4329 -0.2711
 9162SOL    HW138945   4.069   1.695   4.539 -0.6826 -1.9346  0.7367
 9162SOL    HW238946   4.177   1.593   4.560  1.1978 -0.7271 -1.3836
 9163SOL     OW38947   1.271   3.737   2.729  0.1146  0.5607  0.0333
 9163SOL    HW138948   1.321   3.818   2.720  0.4153  0.4605  0.8664
 9163SOL    HW238949   1.244   3.738   2.821 -0.6341 -1.4929 -0.1588
 9164SOL     OW38950   1.493   4.018  11.419 -0.1848  0.2084 -0.3051
 9164SOL    HW138951   1.522   4.032  11.509  1.4905  0.9857 -0.9550
 9164SOL    HW238952   1.564   4.056  11.367 -0.9829  3.6738  1.1101
 9165SOL     OW38953   3.961   0.958   3.777  0.3733  0.0430 -0.5498
 9165SOL    HW138954   4.031   0.896   3.756 -0.0023 -0.5094 -0.1949
 9165SOL    HW238955   3.885   0.901   3.770 -0.1162  0.9026 -2.2384
 9166SOL     OW38956   3.401   4.549   9.433 -0.1939  0.4839  0.2699
 9166SOL    HW138957   3.357   4.524   9.514 -1.5815  1.9166 -0.0411
 9166SOL    HW238958   3.396   4.461   9.398  1.3018 -0.4576  2.4317
 9167SOL     OW38959   1.199   2.130  14.621 -0.3864 -0.2417 -0.2633
 9167SOL    HW138960   1.188   2.195  14.552 -1.2044  1.7376  1.7284
 9167SOL    HW238961   1.177   2.044  14.585 -0.5348 -1.2040  2.0818
 9168SOL     OW38962   0.037   4.162  11.028 -0.1444 -0.2290  0.2606
 9168SOL    HW138963   0.058   4.079  10.986  1.6071  0.0011  0.6940
 9168SOL    HW238964   0.015   4.128  11.114 -2.1765  2.3060  0.7545
 9169SOL     OW38965   3.005   0.296   5.525  0.3627 -0.3887 -0.6012
 9169SOL    HW138966   2.926   0.259   5.483  1.4970 -3.3851 -0.0616
 9169SOL    HW238967   3.033   0.227   5.584 -1.8488  0.6363  1.6327
 9170SOL     OW38968   3.037   4.095  10.995  1.4224  0.7564  0.4691
 9170SOL    HW138969   3.014   4.168  11.052 -2.2535 -0.3767  0.4637
 9170SOL    HW238970   3.095   4.133  10.929 -1.3799  1.8833 -1.3472
 9171SOL     OW38971   3.712   3.252  15.555  0.2200  0.2247  0.2148
 9171SOL    HW138972   3.800   3.288  15.540 -0.0827  0.8164 -0.1292
 9171SOL    HW238973   3.722   3.194  15.631 -1.4698  1.6255  1.5240
 9172SOL     OW38974   4.715   3.823   7.949 -0.5105 -0.1353 -0.3036
 9172SOL    HW138975   0.036   3.880   8.011  0.5834 -0.0166 -1.2018
 9172SOL    HW238976   4.719   3.736   7.990 -0.7627 -0.1497 -0.3068
 9173SOL     OW38977   0.531   1.799   7.644 -0.5181  0.0145  0.2719
 9173SOL    HW138978   0.620   1.768   7.624  0.3139  1.3136  1.9846
 9173SOL    HW238979   0.512   1.742   7.719  0.7848 -1.7748 -0.7605
 9174SOL     OW38980   4.012   3.707   1.684 -0.0434  0.2674  0.3687
 9174SOL    HW138981   4.059   3.629   1.655 -2.5800 -0.8370 -0.7763
 9174SOL    HW238982   4.078   3.739   1.746  0.2324 -1.3555  0.9027
 9175SOL     OW38983   0.878   0.257   2.999 -1.0723  0.5498 -0.3618
 9175SOL    HW138984   0.843   0.204   2.928  1.1624 -0.5964 -0.5735
 9175SOL    HW238985   0.803   0.310   3.027 -1.9895 -0.1633 -1.4601
 9176SOL     OW38986   4.396   0.628  11.192 -0.2156 -0.7851 -0.1220
 9176SOL    HW138987   4.453   0.696  11.156 -0.8481 -0.2606 -0.1266
 9176SOL    HW238988   4.311   0.666  11.211 -0.4864  0.3899 -3.5811
 9177SOL     OW38989   0.682   0.550  16.428 -0.2428  0.3685 -0.4790
 9177SOL    HW138990   0.642   0.587  16.348  0.1388 -0.9544 -1.2819
 9177SOL    HW238991   0.626   0.591  16.493 -0.0093  1.5346 -1.0024
 9178SOL     OW38992   0.687   1.961   3.153  0.4963 -0.1118  0.9299
 9178SOL    HW138993   0.649   2.008   3.228 -0.3731 -1.1745  1.1578
 9178SOL    HW238994   0.770   1.934   3.192  0.7100 -0.5201  0.1935
 9179SOL     OW38995   4.642   0.390   9.289 -0.1101 -0.1918  0.8305
 9179SOL    HW138996   4.655   0.389   9.384  0.6870 -0.8720  0.7196
 9179SOL    HW238997   4.712   0.335   9.254 -1.5550 -1.1578 -0.5659
 9180SOL     OW38998   3.689   4.009   2.980  0.4074  0.0540  0.0281
 9180SOL    HW138999   3.669   3.926   2.936 -0.5585  0.3063 -0.0176
 9180SOL    HW239000   3.670   3.997   3.073 -0.5154  2.1168  0.0976
 9181SOL     OW39001   4.406   1.885   6.388  0.2680 -0.6815  0.2457
 9181SOL    HW139002   4.354   1.946   6.441 -2.3828 -1.7616 -1.0884
 9181SOL    HW239003   4.378   1.904   6.298 -0.7168  3.6976  1.4863
 9182SOL     OW39004   1.506   2.302   1.960  0.3082 -0.3253  0.7638
 9182SOL    HW139005   1.600   2.287   1.960  0.2272 -0.8237  0.9977
 9182SOL    HW239006   1.496   2.396   1.945 -1.3825 -0.6661 -0.2657
 9183SOL     OW39007   0.511   0.379  11.567  0.1938  0.0862  0.5503
 9183SOL    HW139008   0.571   0.437  11.614  0.8655 -0.3954  0.2689
 9183SOL    HW239009   0.484   0.313  11.632 -0.9839  0.9773  0.9756
 9184SOL     OW39010   4.464   3.166  11.065 -0.1510  0.6191 -0.4805
 9184SOL    HW139011   4.404   3.143  11.136  2.6385  0.7441  1.8759
 9184SOL    HW239012   4.540   3.184  11.119 -0.6386 -0.1105  0.4538
 9185SOL     OW39013   1.064   0.579   7.034  0.3264 -0.6672 -0.3930
 9185SOL    HW139014   1.106   0.519   7.096 -0.4727 -0.8674 -0.0463
 9185SOL    HW239015   0.992   0.522   7.008  0.9774 -0.9735 -1.5472
 9186SOL     OW39016   1.447   2.424   7.310 -0.3534  0.2113  0.1051
 9186SOL    HW139017   1.525   2.376   7.282 -0.7949 -0.0304 -0.7154
 9186SOL    HW239018   1.460   2.512   7.276 -1.8161  0.7287  0.9074
 9187SOL     OW39019   0.652   2.774  13.328 -0.2260 -0.1176  0.4734
 9187SOL    HW139020   0.735   2.727  13.320  1.2623  2.8065 -1.2869
 9187SOL    HW239021   0.636   2.771  13.422 -0.4823 -0.9424  0.3980
 9188SOL     OW39022   2.176   3.456   6.727  0.2365 -0.3898 -0.0129
 9188SOL    HW139023   2.127   3.462   6.644 -3.3537  1.4064  2.2266
 9188SOL    HW239024   2.254   3.497   6.690 -0.0304 -0.1180 -0.2764
 9189SOL     OW39025   2.486   4.047   3.049 -0.4558  0.1814  0.3514
 9189SOL    HW139026   2.548   4.099   2.999 -0.2447 -0.4270 -0.0283
 9189SOL    HW239027   2.536   3.965   3.055 -1.2591 -0.3305  0.1745
 9190SOL     OW39028   0.220   1.563   4.708  0.5506  0.5316  0.4639
 9190SOL    HW139029   0.289   1.585   4.770  0.4707 -1.0567  1.1275
 9190SOL    HW239030   0.245   1.476   4.676 -1.1755 -0.1079  0.8777
 9191SOL     OW39031   2.829   2.809   5.373  0.3016 -0.2759  0.1317
 9191SOL    HW139032   2.738   2.812   5.343  0.0379  0.3243  0.9672
 9191SOL    HW239033   2.824   2.891   5.422 -0.7310  1.0767 -2.2111
 9192SOL     OW39034   4.458   3.970  16.945 -0.5034 -0.1796  0.3906
 9192SOL    HW139035   4.553   3.983  16.935 -0.8061  0.5405 -1.4871
 9192SOL    HW239036   4.424   4.010  16.865 -0.2833  0.4312  0.6001
 9193SOL     OW39037   3.607   2.902   8.422  0.5216 -0.4028 -0.0472
 9193SOL    HW139038   3.654   2.975   8.462 -0.0777  0.1382 -0.3171
 9193SOL    HW239039   3.574   2.941   8.341  0.5128 -0.9670 -0.3188
 9194SOL     OW39040   3.568   4.236  13.492  0.2054 -0.5333  0.5946
 9194SOL    HW139041   3.579   4.165  13.428 -0.9469  0.4095 -0.6420
 9194SOL    HW239042   3.627   4.210  13.563  0.9921 -1.4472 -0.3813
 9195SOL     OW39043   3.183   3.775   7.095 -0.4535 -0.3987 -0.2516
 9195SOL    HW139044   3.201   3.686   7.066  1.1612  0.1973 -1.1034
 9195SOL    HW239045   3.257   3.818   7.052  0.1267 -1.2386 -0.0967
 9196SOL     OW39046   4.252   3.611   9.513 -0.4188 -0.0063  0.0132
 9196SOL    HW139047   4.219   3.522   9.499  0.1473 -0.1381 -0.4662
 9196SOL    HW239048   4.195   3.629   9.587  1.3900  2.1229  0.8790
 9197SOL     OW39049   4.561   0.653   3.208  0.0592  0.1506  0.1298
 9197SOL    HW139050   4.501   0.687   3.142  0.0280 -1.0421 -0.4594
 9197SOL    HW239051   4.638   0.653   3.151 -0.6313  0.3442 -0.7992
 9198SOL     OW39052   2.038   1.064   5.126 -0.2451  0.5030 -0.1053
 9198SOL    HW139053   2.078   1.096   5.045  1.6556 -0.2144  0.5409
 9198SOL    HW239054   1.947   1.053   5.097  0.0802  2.1775 -1.7290
 9199SOL     OW39055   0.964   3.778   3.212 -0.1600  0.1277  0.1187
 9199SOL    HW139056   0.966   3.863   3.256 -0.0678  0.7243 -1.0434
 9199SOL    HW239057   1.048   3.740   3.238  1.3375 -0.2351 -5.1725
 9200SOL     OW39058   4.035   2.042   9.131 -0.0029  0.2434  0.6072
 9200SOL    HW139059   4.069   2.011   9.215  0.7867 -0.8899 -0.1355
 9200SOL    HW239060   3.939   2.039   9.142 -0.0419 -2.8373 -0.4624
 9201SOL     OW39061   4.004   2.126   7.759 -0.1372  0.2437  0.0068
 9201SOL    HW139062   4.070   2.107   7.826  0.9296 -0.5940 -1.2649
 9201SOL    HW239063   3.958   2.042   7.761  2.5978 -1.2822 -0.1078
 9202SOL     OW39064   1.499   2.470  14.352  0.0808 -0.6398 -0.1940
 9202SOL    HW139065   1.473   2.459  14.261 -0.4213  0.7739 -0.2285
 9202SOL    HW239066   1.590   2.496  14.342  0.0044  0.4883  2.0520
 9203SOL     OW39067   3.046   3.917   7.505  0.1691 -0.7671 -0.6861
 9203SOL    HW139068   2.976   3.980   7.521  1.0065  0.3242 -1.3430
 9203SOL    HW239069   3.098   3.950   7.579  1.3597 -0.7136 -1.5312
 9204SOL     OW39070   1.207   3.080  10.573 -0.4981 -0.1146 -0.2875
 9204SOL    HW139071   1.162   3.164  10.587 -0.0834  0.0217  0.2657
 9204SOL    HW239072   1.297   3.095  10.601 -0.9444  0.2936  0.9527
 9205SOL     OW39073   1.556   3.985  16.185  0.4636  0.0637  0.2132
 9205SOL    HW139074   1.640   4.003  16.227  0.2025 -0.0468  0.7803
 9205SOL    HW239075   1.537   3.903  16.231 -0.0108 -0.2725 -0.5851
 9206SOL     OW39076   4.574   1.387   0.819 -0.1560 -0.1470 -0.1243
 9206SOL    HW139077   4.562   1.314   0.759  0.6785  0.1766 -0.6815
 9206SOL    HW239078   4.586   1.464   0.763 -4.7119  1.5042  1.0832
 9207SOL     OW39079   0.833   2.376  10.789  0.0065  0.3420 -0.3963
 9207SOL    HW139080   0.790   2.461  10.781 -0.2830  0.3743  1.5247
 9207SOL    HW239081   0.775   2.333  10.851  1.4114 -1.8303 -0.5913
 9208SOL     OW39082   4.351   1.111   5.399 -0.0199  0.1093  0.1600
 9208SOL    HW139083   4.319   1.182   5.455  0.2419 -0.3417  0.8788
 9208SOL    HW239084   4.444   1.124   5.416 -0.2384  3.3348 -1.2846
 9209SOL     OW39085   2.797   0.862   7.592 -0.0738  0.5620 -0.0616
 9209SOL    HW139086   2.862   0.794   7.576  0.1116  0.7051  0.0877
 9209SOL    HW239087   2.722   0.839   7.537 -1.2530  0.4525  1.5700
 9210SOL     OW39088   4.198   4.402  11.271  0.3316 -0.4109 -0.8380
 9210SOL    HW139089   4.263   4.332  11.270  0.4787 -0.2909 -0.0062
 9210SOL    HW239090   4.222   4.440  11.187 -2.1367  2.5681 -0.1756
 9211SOL     OW39091   0.951   3.836   1.080  0.2485  0.2696  0.5819
 9211SOL    HW139092   0.871   3.786   1.062  0.0274  0.8889 -0.1356
 9211SOL    HW239093   1.016   3.791   1.027 -0.3678  0.4540 -0.3190
 9212SOL     OW39094   4.708   1.916   3.747 -0.8919 -0.0726 -0.0473
 9212SOL    HW139095   4.627   1.905   3.797  0.0505  0.1961  1.5451
 9212SOL    HW239096   4.694   2.002   3.707 -0.5526  1.2301  2.6655
 9213SOL     OW39097   3.771   1.276   0.126 -0.5690 -0.3736 -0.3072
 9213SOL    HW139098   3.678   1.271   0.103 -0.3515 -0.3558 -1.2011
 9213SOL    HW239099   3.803   1.342   0.064 -0.3069  0.1024  0.3410
 9214SOL     OW39100   4.076   1.961   1.116  0.2009 -0.1403 -0.2218
 9214SOL    HW139101   4.001   1.958   1.057  0.5268  0.7458 -0.6764
 9214SOL    HW239102   4.068   2.055   1.131 -1.5660 -0.5559  1.4609
 9215SOL     OW39103   1.146   0.455  14.248  0.3237  0.3897  0.2412
 9215SOL    HW139104   1.074   0.465  14.185  1.7276  1.2427 -1.2142
 9215SOL    HW239105   1.102   0.499  14.321  0.2119  1.6967 -0.6143
 9216SOL     OW39106   3.069   2.128   7.630 -0.3108  0.4699  0.1218
 9216SOL    HW139107   3.138   2.140   7.565  0.7552  1.0894  1.3691
 9216SOL    HW239108   3.114   2.129   7.715  0.8018 -0.6418 -0.4630
 9217SOL     OW39109   4.598   1.928   2.623  0.0655  0.1353 -0.1738
 9217SOL    HW139110   4.563   1.996   2.681  0.3662 -0.6650  0.9391
 9217SOL    HW239111   4.612   1.980   2.543  1.9272 -0.1042 -0.0118
 9218SOL     OW39112   3.347   4.712   4.258 -0.9278  0.1088 -0.1410
 9218SOL    HW139113   3.422   0.045   4.238  1.1233 -2.3342  0.6605
 9218SOL    HW239114   3.384   4.626   4.242 -0.4368  0.3615 -0.3446
 9219SOL     OW39115   2.951   2.170   1.626  0.0423  0.1295 -0.0779
 9219SOL    HW139116   3.027   2.126   1.589  0.2659  1.1523 -0.8286
 9219SOL    HW239117   2.875   2.118   1.600  0.4114  0.0831 -1.0783
 9220SOL     OW39118   4.355   3.781   2.929 -0.3309  0.4485 -0.2125
 9220SOL    HW139119   4.286   3.824   2.979 -2.0558 -1.0649 -1.2536
 9220SOL    HW239120   4.317   3.693   2.931 -0.8880  0.7067  0.4586
 9221SOL     OW39121   2.170   0.138   6.346  0.6721  0.1196 -0.9368
 9221SOL    HW139122   2.253   0.166   6.385  0.4173  0.6007 -0.7283
 9221SOL    HW239123   2.197   0.047   6.333  1.4678  0.6012 -2.6916
 9222SOL     OW39124   0.743   3.007   3.541  0.0629  0.4214  0.0718
 9222SOL    HW139125   0.809   3.019   3.473 -0.1044  0.3379 -0.1029
 9222SOL    HW239126   0.667   3.043   3.496  0.6508 -0.8291 -1.8925
 9223SOL     OW39127   4.407   3.925   1.585 -0.1442 -0.6725 -0.1503
 9223SOL    HW139128   4.362   4.004   1.614 -1.0159 -0.7475 -1.3133
 9223SOL    HW239129   4.364   3.851   1.627  2.1063 -0.6830  2.1564
 9224SOL     OW39130   2.938   0.096   8.521  0.3840 -0.3892  0.4653
 9224SOL    HW139131   2.924   0.183   8.559 -0.7679  0.2633 -1.4494
 9224SOL    HW239132   3.033   0.087   8.529  0.5903 -0.0886 -1.6021
 9225SOL     OW39133   4.119   1.863  11.650 -0.0431 -0.1823  0.3973
 9225SOL    HW139134   4.125   1.923  11.724 -0.3647  0.7630 -0.3484
 9225SOL    HW239135   4.029   1.881  11.621 -0.2571 -1.0687  0.5128
 9226SOL     OW39136   2.958   0.062   0.702  0.0629 -1.0276 -0.0546
 9226SOL    HW139137   2.915   0.091   0.622 -1.0785 -1.1084  0.5293
 9226SOL    HW239138   2.976   0.143   0.749 -1.3321 -1.9253  2.0304
 9227SOL     OW39139   1.858   0.876   2.807 -0.1457 -0.0503 -0.3088
 9227SOL    HW139140   1.812   0.800   2.843  1.4964 -1.3793 -1.0012
 9227SOL    HW239141   1.933   0.836   2.763  0.0900 -0.1948  0.2225
 9228SOL     OW39142   0.903   3.108   5.420  0.8284  0.2128 -0.3125
 9228SOL    HW139143   0.888   3.163   5.343 -1.8179  0.3697  0.2855
 9228SOL    HW239144   0.925   3.165   5.494  0.4799 -0.8074  0.5848
 9229SOL     OW39145   3.819   1.105   6.710 -0.0141  0.3414 -0.0202
 9229SOL    HW139146   3.878   1.162   6.661 -1.8094  1.1147 -1.2603
 9229SOL    HW239147   3.881   1.032   6.710 -0.2679  0.1227  0.5179
 9230SOL     OW39148   0.810   4.266  12.352  0.3973  0.0260  0.0512
 9230SOL    HW139149   0.859   4.314  12.419  1.1687 -1.7134  0.7486
 9230SOL    HW239150   0.879   4.215  12.310  1.2209 -0.3436  1.8232
 9231SOL     OW39151   0.020   1.902   9.928  0.3214 -0.3434  0.4133
 9231SOL    HW139152   4.716   1.810   9.927  3.3261 -1.2040 -1.8644
 9231SOL    HW239153   0.064   1.924  10.010  1.9531  0.9933 -0.8094
 9232SOL     OW39154   2.885   3.512  12.224  0.1669 -0.0964  0.0645
 9232SOL    HW139155   2.861   3.527  12.316 -1.0739  2.1904 -0.6318
 9232SOL    HW239156   2.794   3.504  12.195  0.0946 -2.8611  1.0895
 9233SOL     OW39157   4.397   4.536   6.883  0.2755 -0.1136  0.6785
 9233SOL    HW139158   4.463   4.477   6.919  0.3564 -0.6554 -0.3734
 9233SOL    HW239159   4.326   4.520   6.945  0.4327  1.6239  1.3264
 9234SOL     OW39160   1.380   2.400  11.184  0.5201  0.4377 -0.1885
 9234SOL    HW139161   1.462   2.411  11.232  0.3090  1.3681 -0.0555
 9234SOL    HW239162   1.388   2.442  11.099  0.3912 -0.4506 -0.6466
 9235SOL     OW39163   2.412   2.753  15.167 -0.2466  0.0499 -0.3123
 9235SOL    HW139164   2.363   2.713  15.239  0.6974 -2.7153 -1.2108
 9235SOL    HW239165   2.495   2.756  15.215 -0.5005 -0.7690  0.1885
 9236SOL     OW39166   0.016   4.226   5.687 -0.2685  0.5319 -0.3321
 9236SOL    HW139167   4.694   4.286   5.628 -0.0800 -2.0824 -3.1039
 9236SOL    HW239168   4.683   4.213   5.763  0.3339  0.3058  0.0858
 9237SOL     OW39169   0.235   2.797   5.361 -0.6179  0.0347 -0.0121
 9237SOL    HW139170   0.177   2.734   5.319 -1.8162  0.0048  1.7003
 9237SOL    HW239171   0.180   2.849   5.420 -0.7745  0.0512 -0.1721
 9238SOL     OW39172   3.719   4.635  14.651  0.0594  0.9164  0.9738
 9238SOL    HW139173   3.703   4.616  14.558 -0.2800  0.3743  1.1450
 9238SOL    HW239174   3.734   4.547  14.686  1.7106  0.7960  0.0012
 9239SOL     OW39175   3.825   0.013   9.568  0.2847 -0.2781 -0.1127
 9239SOL    HW139176   3.854   0.102   9.589  0.3586 -0.6471  1.3646
 9239SOL    HW239177   3.734   0.030   9.545 -0.5290 -1.8219  1.8984
 9240SOL     OW39178   0.171   1.246   4.002  0.0812  0.1676  0.3023
 9240SOL    HW139179   0.117   1.195   3.942  1.7552  0.5340 -1.4935
 9240SOL    HW239180   0.097   1.290   4.044 -1.8689 -1.7405 -1.1646
 9241SOL     OW39181   0.946   1.850   3.258 -1.3589 -0.7235 -0.4627
 9241SOL    HW139182   1.006   1.913   3.218  1.9792 -2.3303  1.9877
 9241SOL    HW239183   0.949   1.781   3.191 -1.1257 -0.4231 -0.7630
 9242SOL     OW39184   1.331   0.741   6.924 -0.0671 -0.4670 -0.4611
 9242SOL    HW139185   1.262   0.675   6.918 -0.0599 -0.6197  1.3238
 9242SOL    HW239186   1.319   0.757   7.017  0.3634 -2.0049 -0.1474
 9243SOL     OW39187   0.377   0.326   8.321 -0.0570  0.8603 -0.3459
 9243SOL    HW139188   0.470   0.324   8.345 -1.3436 -2.8202  4.2241
 9243SOL    HW239189   0.357   0.419   8.330 -1.1145  0.7785 -1.7324
 9244SOL     OW39190   1.959   0.535   6.437  0.1857 -0.3328  0.2249
 9244SOL    HW139191   2.019   0.507   6.506  1.3942  1.6256 -0.0144
 9244SOL    HW239192   1.987   0.627   6.437 -1.2919  0.1136 -0.7004
 9245SOL     OW39193   1.414   2.395   6.203 -0.4661  0.3966  0.1100
 9245SOL    HW139194   1.391   2.337   6.131  3.0478 -2.2830  1.1443
 9245SOL    HW239195   1.486   2.445   6.166 -2.5426  2.3228 -1.3747
 9246SOL     OW39196   3.985   3.345   7.080  0.0887  0.3802 -0.3018
 9246SOL    HW139197   4.050   3.304   7.138 -0.1041  1.3079  0.5635
 9246SOL    HW239198   3.943   3.265   7.048  0.2310  0.6429 -1.1557
 9247SOL     OW39199   2.978   0.468  10.728 -0.4057 -0.7084 -0.1949
 9247SOL    HW139200   3.039   0.458  10.655 -1.9165 -3.1593 -1.1419
 9247SOL    HW239201   2.926   0.546  10.709  0.8064 -0.1591 -1.1921
 9248SOL     OW39202   0.400   0.062   7.902 -0.3712 -0.5389 -0.1244
 9248SOL    HW139203   0.493   0.081   7.886 -0.4845 -1.0166 -1.3215
 9248SOL    HW239204   0.413   4.691   7.908  1.9961 -0.3075 -1.4294
 9249SOL     OW39205   4.005   3.185   1.964  0.1589  0.2460  0.1907
 9249SOL    HW139206   3.917   3.193   1.999  0.2370  2.8691 -0.2076
 9249SOL    HW239207   4.025   3.102   2.006 -0.6076 -2.0914 -4.0639
 9250SOL     OW39208   1.844   1.071   2.251 -0.1154  0.1849  0.0291
 9250SOL    HW139209   1.939   1.062   2.250 -0.2494 -1.2223  1.0972
 9250SOL    HW239210   1.844   1.162   2.283 -1.3120 -0.1523  0.9993
 9251SOL     OW39211   3.914   4.283   9.533  0.5102  0.2661  0.5273
 9251SOL    HW139212   3.832   4.234   9.521  0.5006  0.5156 -0.5167
 9251SOL    HW239213   3.867   4.366   9.543 -2.1290 -0.9630 -1.4496
 9252SOL     OW39214   1.194   2.283  15.635 -0.0109  0.0142 -0.1675
 9252SOL    HW139215   1.216   2.254  15.724  0.9125  1.0373 -0.0644
 9252SOL    HW239216   1.101   2.282  15.657  0.3841  1.2871  1.6647
 9253SOL     OW39217   4.650   1.533   4.311 -0.2141  0.3862  0.4734
 9253SOL    HW139218   4.627   1.615   4.355 -0.7200  0.5709 -0.1349
 9253SOL    HW239219   4.678   1.489   4.391  1.5567 -3.0549 -2.0629
 9254SOL     OW39220   1.276   0.877   5.898  0.2956 -0.1084  0.2850
 9254SOL    HW139221   1.254   0.808   5.961 -2.6799 -0.8691 -1.5898
 9254SOL    HW239222   1.257   0.833   5.815 -0.0307 -0.7188  0.6736
 9255SOL     OW39223   1.633   3.490  17.468  0.5467  0.3159  0.4636
 9255SOL    HW139224   1.564   3.464  17.407  0.3257  2.5815 -0.2329
 9255SOL    HW239225   1.683   3.409  17.462  1.6068  1.0300 -0.2776
 9256SOL     OW39226   1.621   4.073   4.950  0.5625 -0.1725 -0.1976
 9256SOL    HW139227   1.545   4.021   4.975  0.0349  0.6368 -0.0945
 9256SOL    HW239228   1.589   4.099   4.863  0.5560  0.3124 -0.0525
 9257SOL     OW39229   3.970   1.324   5.023 -0.1619 -0.1294 -0.2352
 9257SOL    HW139230   4.015   1.239   5.025  2.2105  1.0846 -1.6100
 9257SOL    HW239231   4.041   1.383   5.047 -0.1969 -0.8796  1.6742
 9258SOL     OW39232   3.813   1.663   5.636  0.0982 -0.0558 -0.3113
 9258SOL    HW139233   3.719   1.647   5.622 -0.1525  0.3541  0.8333
 9258SOL    HW239234   3.850   1.576   5.621 -0.9025 -0.6256  0.4620
 9259SOL     OW39235   1.579   2.491  10.974  0.0712 -0.1414 -0.3741
 9259SOL    HW139236   1.512   2.545  10.934 -1.2871 -1.1051  0.6052
 9259SOL    HW239237   1.629   2.567  11.004  0.0928 -0.3215  0.0467
 9260SOL     OW39238   3.029   3.283  11.136 -0.1141  0.1695  0.3804
 9260SOL    HW139239   3.006   3.246  11.221  0.0995 -1.6001 -0.3283
 9260SOL    HW239240   2.960   3.242  11.084 -1.5399  0.6655  1.9033
 9261SOL     OW39241   1.153   3.832   8.542  0.2985  0.2808 -0.3847
 9261SOL    HW139242   1.071   3.858   8.500 -0.5242 -1.1289  0.3615
 9261SOL    HW239243   1.212   3.877   8.481 -0.6314 -1.3405 -2.4360
 9262SOL     OW39244   0.043   3.797  12.484  0.1030 -0.3544 -0.0521
 9262SOL    HW139245   4.710   3.749  12.424 -0.2111  0.4880 -0.4292
 9262SOL    HW239246   0.122   3.779  12.434  1.5152  0.4354  1.8899
 9263SOL     OW39247   3.399   2.405   4.514  0.3780 -0.0629 -0.1309
 9263SOL    HW139248   3.409   2.475   4.578 -1.2460  0.0353  0.0080
 9263SOL    HW239249   3.407   2.335   4.578 -0.1046  0.3469  0.3727
 9264SOL     OW39250   3.094   3.288   6.645  0.1838  0.0946  0.5490
 9264SOL    HW139251   3.175   3.317   6.687  0.4417  1.3160 -0.7702
 9264SOL    HW239252   3.038   3.269   6.720 -0.7031 -2.4386 -0.7627
 9265SOL     OW39253   3.025   2.092   3.938 -0.3662 -0.0728  0.1761
 9265SOL    HW139254   3.094   2.042   3.895 -2.0346 -2.3811  0.1453
 9265SOL    HW239255   2.960   2.025   3.960 -0.4251  0.0189  0.2833
 9266SOL     OW39256   3.072   0.385   4.182 -0.2286  0.0193 -0.5007
 9266SOL    HW139257   3.029   0.349   4.260  1.2990 -0.3696  0.1472
 9266SOL    HW239258   3.049   0.478   4.186  0.5271  0.1708  0.0943
 9267SOL     OW39259   3.416   3.801   5.727  0.0096 -0.4172  0.5416
 9267SOL    HW139260   3.361   3.863   5.775  0.8093  0.5053  0.2823
 9267SOL    HW239261   3.495   3.855   5.719 -1.0218  1.0925  0.4483
 9268SOL     OW39262   1.462   0.080   3.371  0.1888 -0.2068 -0.1198
 9268SOL    HW139263   1.471   4.710   3.352  1.1680 -0.1252 -0.0300
 9268SOL    HW239264   1.415   0.100   3.290  1.1695  1.0441 -0.3719
 9269SOL     OW39265   2.721   4.618   9.476 -0.0494  0.7345 -0.1655
 9269SOL    HW139266   2.691   4.598   9.565  0.1161  0.1618 -0.2357
 9269SOL    HW239267   2.720   4.714   9.476 -1.5106  0.7340  0.5804
 9270SOL     OW39268   0.110   3.844   2.102  0.0960  0.3296 -0.0657
 9270SOL    HW139269   0.135   3.919   2.048 -2.2959  0.6231 -0.7607
 9270SOL    HW239270   0.067   3.895   2.171 -0.1829 -0.3057  0.2270
 9271SOL     OW39271   4.232   4.604  11.070 -0.2229  0.1064 -0.2182
 9271SOL    HW139272   4.175   4.662  11.120 -0.3073  1.2361 -1.6232
 9271SOL    HW239273   4.310   4.659  11.064 -1.5834  1.8705 -1.4743
 9272SOL     OW39274   3.120   2.402   8.191 -0.0152 -0.3766  0.3617
 9272SOL    HW139275   3.030   2.430   8.173  0.2741  0.6254  0.4535
 9272SOL    HW239276   3.112   2.341   8.264 -0.1856  0.2349  0.8524
 9273SOL     OW39277   2.713   4.580   2.921  0.5237 -0.1333  0.3994
 9273SOL    HW139278   2.672   4.649   2.972  2.7210  0.6760  1.0328
 9273SOL    HW239279   2.802   4.591   2.953  0.5680 -0.3576  0.3520
 9274SOL     OW39280   2.201   3.904   1.983  0.4965  0.3533  0.0044
 9274SOL    HW139281   2.294   3.888   1.972  0.3869  0.6860 -1.4692
 9274SOL    HW239282   2.168   3.820   1.951  0.2534  0.7612 -0.8173
 9275SOL     OW39283   2.597   1.387   8.655  0.1937 -0.3980  0.3776
 9275SOL    HW139284   2.679   1.372   8.607 -0.6668  0.8704 -1.4724
 9275SOL    HW239285   2.540   1.316   8.624  1.3037 -1.9570  1.8963
 9276SOL     OW39286   2.947   4.446   3.462  0.0630  0.4870  0.2165
 9276SOL    HW139287   2.933   4.352   3.471  3.3834  0.1938  2.3174
 9276SOL    HW239288   2.962   4.454   3.367  1.4720 -0.3754  0.3587
 9277SOL     OW39289   2.188   3.612  14.140 -0.2046  0.2759 -0.0038
 9277SOL    HW139290   2.239   3.617  14.059  0.3287  2.3429  0.4460
 9277SOL    HW239291   2.119   3.676  14.121 -1.5182 -1.0584  0.3384
 9278SOL     OW39292   2.027   2.290   6.336 -0.0306 -0.7758  0.3346
 9278SOL    HW139293   2.109   2.340   6.340  0.2821 -1.3420  1.0095
 9278SOL    HW239294   1.985   2.340   6.266  0.9732 -1.4976 -0.7842
 9279SOL     OW39295   2.754   4.376  11.902  0.3775 -0.1138  0.3474
 9279SOL    HW139296   2.803   4.371  11.984  0.5514  1.4000  0.3477
 9279SOL    HW239297   2.703   4.295  11.909  1.5223 -0.5542  3.4232
 9280SOL     OW39298   1.360   0.546   5.955 -0.0192 -0.1554  0.3254
 9280SOL    HW139299   1.432   0.507   6.004 -1.5753 -1.4293  1.6059
 9280SOL    HW239300   1.407   0.595   5.887 -0.2270  1.0809  1.0667
 9281SOL     OW39301   1.502   0.560  11.040 -0.0393 -0.1755  0.6064
 9281SOL    HW139302   1.443   0.611  11.094  1.4858  0.5802  1.5539
 9281SOL    HW239303   1.455   0.477  11.034 -0.2855  0.0910 -1.1956
 9282SOL     OW39304   2.101   3.305  13.372 -0.3502  0.2655  0.0230
 9282SOL    HW139305   2.064   3.387  13.406  1.3774  0.6866  0.8873
 9282SOL    HW239306   2.141   3.278  13.455 -0.4448 -0.0399 -0.0296
 9283SOL     OW39307   0.421   1.847   6.060 -0.1236 -0.1463 -0.1587
 9283SOL    HW139308   0.455   1.935   6.042 -3.3546  1.1401  0.0128
 9283SOL    HW239309   0.496   1.811   6.108  0.9794  1.5925 -0.5417
 9284SOL     OW39310   2.387   1.092   4.415 -0.4525  0.0908  0.7595
 9284SOL    HW139311   2.296   1.082   4.387 -0.7485  2.0602  1.0021
 9284SOL    HW239312   2.365   1.095   4.508  1.3267  1.9646  1.1322
 9285SOL     OW39313   0.805   0.121   4.620  0.2462  0.9796 -0.2050
 9285SOL    HW139314   0.754   0.135   4.540  0.4515  2.3221 -0.1003
 9285SOL    HW239315   0.887   0.162   4.592  1.6633 -1.1734  0.8537
 9286SOL     OW39316   4.075   2.274   1.064 -0.2008  0.6889 -0.1822
 9286SOL    HW139317   4.129   2.348   1.090 -0.1532  0.5891  0.0029
 9286SOL    HW239318   4.099   2.263   0.972 -0.7034  0.6996 -0.3131
 9287SOL     OW39319   0.178   2.164   5.991  0.0004  0.5677  0.8031
 9287SOL    HW139320   0.084   2.173   6.007 -0.0855  0.4538  0.3488
 9287SOL    HW239321   0.184   2.216   5.912  1.0197 -2.3267 -1.0127
 9288SOL     OW39322   4.392   3.291   2.004  0.5431 -0.4805 -0.0852
 9288SOL    HW139323   4.428   3.202   2.003 -0.8453 -1.0389 -0.2944
 9288SOL    HW239324   4.471   3.337   1.975  0.2229 -1.4875 -2.5832
 9289SOL     OW39325   0.765   3.469   7.974 -0.1922  0.2167 -0.4914
 9289SOL    HW139326   0.845   3.521   7.985  0.8165 -1.3763 -0.2194
 9289SOL    HW239327   0.805   3.388   7.942 -0.7523 -0.1688 -0.2072
 9290SOL     OW39328   4.474   4.273  10.587 -0.0916 -0.2539 -0.3489
 9290SOL    HW139329   4.494   4.225  10.507  0.2743  0.5730 -0.7623
 9290SOL    HW239330   4.557   4.321  10.596  1.3283 -2.7954  0.2189
 9291SOL     OW39331   0.103   1.398  11.123 -0.0919 -0.0272  0.2853
 9291SOL    HW139332   0.093   1.409  11.029  1.0909  0.4972  0.2356
 9291SOL    HW239333   0.141   1.482  11.146 -0.3363 -0.1972  1.3549
 9292SOL     OW39334   4.302   4.537   9.388  0.0578  0.2365  0.4113
 9292SOL    HW139335   4.271   4.524   9.478 -0.7233 -3.2622 -0.3626
 9292SOL    HW239336   4.244   4.474   9.345  1.9633 -0.8516 -0.5857
 9293SOL     OW39337   0.168   4.681   3.437  0.5945 -0.3789 -0.0498
 9293SOL    HW139338   0.235   4.716   3.496  1.4781 -1.1509 -0.5857
 9293SOL    HW239339   0.218   4.677   3.355 -1.2068  0.5783 -1.2044
 9294SOL     OW39340   0.614   4.641   7.713  0.0621 -0.1554 -0.0562
 9294SOL    HW139341   0.648   0.005   7.730 -1.0575  0.5593 -1.4394
 9294SOL    HW239342   0.559   4.650   7.635 -0.7576 -1.5147  0.3669
 9295SOL     OW39343   1.287   3.200   3.743  0.1298  0.1331  0.6104
 9295SOL    HW139344   1.336   3.282   3.754  1.3484 -0.6038  0.7079
 9295SOL    HW239345   1.358   3.141   3.717  0.5497  0.1677  1.6668
 9296SOL     OW39346   2.154   0.551   4.360  0.1542 -0.0455 -0.1261
 9296SOL    HW139347   2.174   0.547   4.454  1.8936 -0.2446 -0.4932
 9296SOL    HW239348   2.162   0.465   4.319 -0.0108  0.2876 -0.8430
 9297SOL     OW39349   0.916   3.057  16.365  0.1650 -1.1935  0.5732
 9297SOL    HW139350   0.990   3.017  16.410 -0.3904 -2.0796  0.6919
 9297SOL    HW239351   0.894   3.131  16.421  0.7377 -3.0686  3.2792
 9298SOL     OW39352   0.353   0.926   3.909 -0.0356  0.4422  0.3256
 9298SOL    HW139353   0.397   0.982   3.845  0.8371 -0.3846  0.2006
 9298SOL    HW239354   0.349   0.842   3.864  1.0695 -1.2725  3.3844
 9299SOL     OW39355   0.600   3.584   3.392  0.0061 -0.2029  0.0206
 9299SOL    HW139356   0.511   3.562   3.363  0.4944 -1.6127 -0.4315
 9299SOL    HW239357   0.628   3.624   3.310  1.9248 -0.7487  0.4152
 9300SOL     OW39358   1.292   4.093  14.911  0.1237 -0.0847  0.0649
 9300SOL    HW139359   1.227   4.070  14.978 -0.2896  1.8582  0.3237
 9300SOL    HW239360   1.239   4.151  14.857  0.4373 -0.4450 -0.6340
 9301SOL     OW39361   3.984   2.175   7.094 -0.0494  0.1847 -0.1502
 9301SOL    HW139362   3.984   2.121   7.173 -1.4230  0.6898  0.2000
 9301SOL    HW239363   3.910   2.227   7.126 -1.2532  0.5014 -3.4786
 9302SOL     OW39364   4.270   4.533  12.608 -0.5583  0.8205  0.1402
 9302SOL    HW139365   4.314   4.604  12.654 -1.8015 -0.9428  4.0363
 9302SOL    HW239366   4.319   4.542  12.526 -0.8399 -3.3821 -0.4924
 9303SOL     OW39367   4.705   0.508   3.680  0.3258 -0.3399 -0.6257
 9303SOL    HW139368   4.617   0.483   3.707  1.0757  1.1075  3.1550
 9303SOL    HW239369   0.028   0.449   3.740 -0.1317  1.0707  1.1075
 9304SOL     OW39370   1.717   1.994   1.330  0.2512 -0.4393  0.0593
 9304SOL    HW139371   1.717   1.900   1.349 -0.2617 -0.3850  0.3318
 9304SOL    HW239372   1.623   2.007   1.314  0.2515  0.5251  0.8648
 9305SOL     OW39373   0.961   3.807   4.034 -0.0324  0.6098  0.3525
 9305SOL    HW139374   1.038   3.833   4.085  0.0016  2.4770 -0.6783
 9305SOL    HW239375   0.975   3.712   4.027 -1.4421  0.2980  1.6490
 9306SOL     OW39376   4.217   4.201   4.564  0.2657  0.1513 -0.3938
 9306SOL    HW139377   4.255   4.149   4.634  0.0350 -0.9208 -1.0724
 9306SOL    HW239378   4.294   4.250   4.536 -0.6138  1.7082 -0.1501
 9307SOL     OW39379   3.311   3.802   6.745  0.3777 -0.2422  0.1801
 9307SOL    HW139380   3.223   3.838   6.756 -0.0720 -0.6127 -2.1176
 9307SOL    HW239381   3.346   3.813   6.833 -0.1077  0.4591  0.2857
 9308SOL     OW39382   1.576   2.542   8.507  0.3155 -0.0329  0.0549
 9308SOL    HW139383   1.578   2.579   8.419 -1.3900  0.2777  0.1495
 9308SOL    HW239384   1.613   2.459   8.476 -0.2715 -0.3271  0.1441
 9309SOL     OW39385   2.076   2.183   4.684  0.3749 -0.0820 -0.3033
 9309SOL    HW139386   2.086   2.149   4.774  3.7738  1.4858 -0.1068
 9309SOL    HW239387   2.140   2.131   4.636 -0.1260 -0.3611 -0.6587
 9310SOL     OW39388   4.382   0.665  14.272  0.0640 -0.2124 -0.3396
 9310SOL    HW139389   4.363   0.629  14.358  1.1184 -2.3469 -1.0121
 9310SOL    HW239390   4.328   0.614  14.212  1.1240  0.4598 -1.8733
 9311SOL     OW39391   4.305   4.124   2.662  0.3025  0.9443  0.3442
 9311SOL    HW139392   4.299   4.208   2.707 -2.2157  1.2496 -0.5719
 9311SOL    HW239393   4.215   4.099   2.679  0.7172 -1.5337 -1.0169
 9312SOL     OW39394   0.719   3.789   0.935 -0.1093  0.0781  0.0104
 9312SOL    HW139395   0.703   3.827   1.021 -0.1147  1.0281 -0.4122
 9312SOL    HW239396   0.689   3.854   0.872 -0.5749  1.2477  1.4622
 9313SOL     OW39397   0.290   4.427   9.980 -0.2872  0.3182  0.1970
 9313SOL    HW139398   0.343   4.459   9.906 -0.0135  0.5510  0.4944
 9313SOL    HW239399   0.360   4.397  10.038  0.2707  0.1726 -0.5488
 9314SOL     OW39400   3.074   3.709   4.514  0.0332  0.3523 -0.5624
 9314SOL    HW139401   3.048   3.745   4.599 -0.9335  0.8306 -1.0509
 9314SOL    HW239402   3.158   3.663   4.514  0.2382  0.7310  2.3555
 9315SOL     OW39403   4.284   1.609   7.172  0.2760  0.5929 -0.3905
 9315SOL    HW139404   4.375   1.582   7.157  0.9380  2.1154  0.9099
 9315SOL    HW239405   4.289   1.631   7.265  1.9810  0.5676 -0.4785
 9316SOL     OW39406   4.289   1.889  13.589 -0.4152 -0.2178 -0.0127
 9316SOL    HW139407   4.305   1.961  13.528  1.0267  0.1769  0.8377
 9316SOL    HW239408   4.365   1.832  13.581 -1.9294 -2.0002 -1.8589
 9317SOL     OW39409   1.813   3.267  13.342 -0.4699 -0.0210 -0.1008
 9317SOL    HW139410   1.795   3.285  13.435 -0.6172  0.9628 -0.3174
 9317SOL    HW239411   1.731   3.235  13.304 -1.5839 -0.1811  2.3967
 9318SOL     OW39412   0.378   3.600  16.177  0.1027 -0.3339 -0.1934
 9318SOL    HW139413   0.448   3.563  16.124  0.6460  1.8891 -1.0498
 9318SOL    HW239414   0.316   3.632  16.112  2.1999  1.2830 -1.3912
 9319SOL     OW39415   1.037   4.226   7.328 -0.0133 -0.0388  0.6246
 9319SOL    HW139416   1.094   4.240   7.252 -0.3618 -1.0848  0.1797
 9319SOL    HW239417   1.015   4.317   7.346 -1.3284  0.0727 -1.5172
 9320SOL     OW39418   3.183   1.179   6.913  0.0495  0.2157  0.0021
 9320SOL    HW139419   3.168   1.257   6.859  1.4377  1.4248  1.3690
 9320SOL    HW239420   3.257   1.203   6.969 -1.2269  0.2858  1.6653
 9321SOL     OW39421   1.781   2.940  16.010 -0.5665  0.2382 -0.5549
 9321SOL    HW139422   1.855   2.889  15.975 -1.1804 -0.2685 -1.1171
 9321SOL    HW239423   1.836   3.014  16.034  2.1390 -1.7177 -0.6804
 9322SOL     OW39424   2.490   4.411   2.983  0.0152 -0.0465 -0.0044
 9322SOL    HW139425   2.557   4.471   2.951 -0.3266  0.1279 -0.3858
 9322SOL    HW239426   2.421   4.469   3.016 -1.7072 -1.3914 -1.2339
 9323SOL     OW39427   2.356   1.688   7.707  0.2780 -0.5716  0.0038
 9323SOL    HW139428   2.324   1.777   7.724  1.3832 -0.1874  0.0869
 9323SOL    HW239429   2.321   1.641   7.782  0.3657  0.3830  0.6444
 9324SOL     OW39430   4.012   1.053   7.053  0.5315 -0.5832  0.0231
 9324SOL    HW139431   3.926   1.090   7.033 -0.6959 -2.2076  2.2066
 9324SOL    HW239432   4.080   1.115   7.028  0.8267 -0.8902  0.0624
 9325SOL     OW39433   0.644   2.763   4.327  0.0662  0.3865  0.7628
 9325SOL    HW139434   0.597   2.845   4.338 -0.2972  0.3233 -0.3098
 9325SOL    HW239435   0.679   2.777   4.239 -1.1430  0.4542  0.2884
 9326SOL     OW39436   4.441   1.266   8.777  0.3209 -0.1362 -0.1515
 9326SOL    HW139437   4.365   1.320   8.754 -0.1274  0.3437  2.5182
 9326SOL    HW239438   4.440   1.276   8.872  1.1950 -1.9439  0.0384
 9327SOL     OW39439   1.818   1.903   3.732 -0.0565  0.0280  0.7858
 9327SOL    HW139440   1.763   1.891   3.655 -1.3156  0.8880  1.5465
 9327SOL    HW239441   1.894   1.938   3.686 -0.0199 -1.4762 -0.2849
 9328SOL     OW39442   0.488   3.989  14.309 -0.3606  0.1831  0.1216
 9328SOL    HW139443   0.496   4.066  14.365  0.6035  0.2623 -0.1219
 9328SOL    HW239444   0.560   4.003  14.247 -0.5576  0.9428  0.0669
 9329SOL     OW39445   2.008   4.609   6.193  0.0216 -0.0434  0.0565
 9329SOL    HW139446   2.095   4.639   6.221  0.2082 -0.5962  0.0661
 9329SOL    HW239447   1.951   4.641   6.263 -0.6995 -0.6572 -0.2537
 9330SOL     OW39448   4.166   0.130  10.404  0.4895 -0.3773 -0.4241
 9330SOL    HW139449   4.087   0.147  10.354  0.0601  4.0770  1.8008
 9330SOL    HW239450   4.219   0.203  10.371 -1.4410  2.6868  3.2464
 9331SOL     OW39451   0.471   2.321  12.772 -0.0634 -0.1869 -0.6271
 9331SOL    HW139452   0.564   2.308  12.789 -0.4141  1.3500  2.4220
 9331SOL    HW239453   0.427   2.302  12.856  1.8997 -0.4733  0.3305
 9332SOL     OW39454   0.150   0.799   5.531 -0.2942  0.1627 -0.8621
 9332SOL    HW139455   0.175   0.713   5.498 -0.4086  0.5120 -1.8580
 9332SOL    HW239456   0.199   0.805   5.613 -1.9607 -2.3988  0.3367
 9333SOL     OW39457   3.964   3.566   2.095 -0.0173 -1.1300  0.4034
 9333SOL    HW139458   3.998   3.655   2.108 -2.7931 -0.2596  1.6004
 9333SOL    HW239459   4.038   3.517   2.060  1.3337  1.1010  0.1130
 9334SOL     OW39460   3.195   3.941   9.681  0.4849  0.2445  0.3109
 9334SOL    HW139461   3.127   3.875   9.670  0.0460  0.7136  0.1835
 9334SOL    HW239462   3.250   3.926   9.604  0.2098  1.4051 -0.1216
 9335SOL     OW39463   3.760   2.783  14.050  0.7808  0.6455 -0.9643
 9335SOL    HW139464   3.847   2.820  14.033  0.7994  1.6955  1.3661
 9335SOL    HW239465   3.708   2.793  13.971 -0.2411  1.2636 -0.2170
 9336SOL     OW39466   2.462   3.528   7.721 -0.4928  0.6856 -0.1477
 9336SOL    HW139467   2.459   3.513   7.627  1.3416  0.5413 -0.1848
 9336SOL    HW239468   2.410   3.461   7.766 -0.0281  0.4579  0.0608
 9337SOL     OW39469   1.160   2.602  17.313  0.2580  0.0238  0.0346
 9337SOL    HW139470   1.138   2.617  17.405  1.4508 -0.2514  0.3637
 9337SOL    HW239471   1.153   2.506  17.311 -0.9847  0.1194 -0.3841
 9338SOL     OW39472   2.483   4.621   8.383 -0.1762  0.2613  0.0511
 9338SOL    HW139473   2.565   4.621   8.432  0.9845 -2.4584 -1.8726
 9338SOL    HW239474   2.423   4.664   8.443 -1.9118  0.1023 -1.5724
 9339SOL     OW39475   1.066   3.975   5.953  0.7719  0.4216  0.8328
 9339SOL    HW139476   1.034   4.032   5.883  2.2963  0.5919  0.2657
 9339SOL    HW239477   1.074   3.896   5.899  0.0106  1.2218 -0.4442
 9340SOL     OW39478   0.311   0.745   7.739  0.0631  0.0582  0.2804
 9340SOL    HW139479   0.331   0.779   7.652 -1.3639  0.0161 -0.0643
 9340SOL    HW239480   0.388   0.772   7.789  0.0209 -1.1671  1.0238
 9341SOL     OW39481   0.648   4.192   5.856 -0.3698  0.2137  0.2300
 9341SOL    HW139482   0.630   4.173   5.764 -0.3237 -4.4087  1.1661
 9341SOL    HW239483   0.664   4.285   5.844  2.3206 -0.3752 -0.7477
 9342SOL     OW39484   2.245   0.371   9.359  0.4042 -0.3221  0.4842
 9342SOL    HW139485   2.283   0.450   9.398 -0.0209 -0.4189  1.0980
 9342SOL    HW239486   2.168   0.418   9.325  1.1101  0.0011 -0.6540
 9343SOL     OW39487   0.785   0.639   2.440 -0.1758  0.0224  0.8025
 9343SOL    HW139488   0.749   0.552   2.423 -1.6838  0.0386  3.8651
 9343SOL    HW239489   0.778   0.682   2.355  0.3353 -1.4326  0.0245
 9344SOL     OW39490   3.580   3.473   4.245  0.4591  0.3658 -0.6153
 9344SOL    HW139491   3.537   3.399   4.202  0.3640  0.4251 -0.6233
 9344SOL    HW239492   3.662   3.433   4.273 -0.7515 -1.1625  0.7247
 9345SOL     OW39493   4.706   1.862   8.950  0.0071 -0.1706 -0.4396
 9345SOL    HW139494   0.012   1.907   9.029  0.2424 -1.6048  0.2977
 9345SOL    HW239495   4.617   1.898   8.952 -0.0399 -0.3054 -0.0249
 9346SOL     OW39496   3.836   4.377  10.693 -0.4241  0.4844  0.1969
 9346SOL    HW139497   3.904   4.435  10.660  1.4661 -1.7939  0.1517
 9346SOL    HW239498   3.858   4.288  10.667 -2.3170 -0.0886  0.5445
 9347SOL     OW39499   1.085   2.641  14.946 -0.5057 -0.2175  0.4120
 9347SOL    HW139500   1.140   2.663  14.871  1.5711  0.6626  2.1831
 9347SOL    HW239501   0.999   2.663  14.911 -0.8853  0.5230  1.8131
 9348SOL     OW39502   0.665   0.207   9.757 -0.0198 -0.5980  0.3811
 9348SOL    HW139503   0.634   0.157   9.832  0.8879 -0.1873  1.0199
 9348SOL    HW239504   0.584   0.255   9.738 -0.9326 -2.2273  0.1301
 9349SOL     OW39505   0.131   2.076   3.001  0.3562 -0.2818 -0.4321
 9349SOL    HW139506   0.074   2.109   2.931  1.8527  0.1733 -1.4508
 9349SOL    HW239507   0.129   2.152   3.059 -3.5489  0.8427 -2.0576
 9350SOL     OW39508   0.073   1.912  11.811 -0.1972  0.4796 -0.2819
 9350SOL    HW139509   0.080   1.973  11.739  2.0541  2.1184  1.3232
 9350SOL    HW239510   4.703   1.892  11.814  0.2470 -1.7884 -1.5484
 9351SOL     OW39511   0.732   0.981   6.001  0.1556  0.9495  0.4394
 9351SOL    HW139512   0.811   1.008   6.047  0.7346 -1.1316  0.6723
 9351SOL    HW239513   0.771   0.968   5.915 -0.4065  0.1979  0.3033
 9352SOL     OW39514   3.586   4.515  13.777 -0.4444  0.1348 -0.0526
 9352SOL    HW139515   3.551   4.430  13.805  1.5384 -0.5478  0.3299
 9352SOL    HW239516   3.617   4.490  13.690  0.1608 -0.1523  0.2415
 9353SOL     OW39517   4.128   2.928   8.715  0.3792  0.2358 -0.0222
 9353SOL    HW139518   4.117   2.941   8.621  0.1487 -0.1056 -0.0438
 9353SOL    HW239519   4.145   3.018   8.742  2.2075 -0.6025  1.6749
 9354SOL     OW39520   3.037   2.616   2.949  0.0630 -0.1055 -0.2392
 9354SOL    HW139521   3.057   2.700   2.908  0.1701 -0.3580 -0.7068
 9354SOL    HW239522   3.085   2.555   2.893 -1.3980  0.2326 -1.8548
 9355SOL     OW39523   1.126   3.684  11.674  0.0293 -0.2010 -0.6449
 9355SOL    HW139524   1.167   3.645  11.750 -1.7980 -0.8157  0.0388
 9355SOL    HW239525   1.146   3.619  11.606 -0.3585 -1.3751  0.3594
 9356SOL     OW39526   3.988   0.306   6.536  0.2691  0.0660 -0.0020
 9356SOL    HW139527   4.073   0.263   6.530 -0.4429 -1.6343  1.9253
 9356SOL    HW239528   3.973   0.350   6.452 -0.5697 -0.8852 -0.3530
 9357SOL     OW39529   3.850   1.747   6.061 -0.3176 -0.2277 -0.4367
 9357SOL    HW139530   3.857   1.790   5.975 -0.8387 -1.0174 -0.8735
 9357SOL    HW239531   3.802   1.817   6.104 -1.4025 -2.1278  1.4726
 9358SOL     OW39532   1.499   2.903  12.531  0.4587 -0.2052 -0.0324
 9358SOL    HW139533   1.564   2.949  12.478 -0.2538  0.7281 -0.0898
 9358SOL    HW239534   1.465   2.962  12.598 -0.4841  0.7177 -1.3294
 9359SOL     OW39535   0.991   2.886  10.606 -0.3464 -0.5284 -0.9935
 9359SOL    HW139536   1.029   2.919  10.687  2.6275  2.3090 -3.5102
 9359SOL    HW239537   1.069   2.858  10.556 -0.8031 -2.7313 -0.4697
 9360SOL     OW39538   1.818   3.635  15.709  0.1127  0.1630 -0.1405
 9360SOL    HW139539   1.835   3.600  15.796 -1.8761  1.5242  0.7718
 9360SOL    HW239540   1.776   3.559  15.668 -0.5342 -1.4278  3.5340
 9361SOL     OW39541   3.244   2.865  16.678  0.2744 -0.2506  0.4965
 9361SOL    HW139542   3.174   2.860  16.612  0.0061 -0.2567  0.7847
 9361SOL    HW239543   3.279   2.779  16.654  1.8844 -0.2512  2.8827
 9362SOL     OW39544   4.642   0.786   6.549  0.4227  0.0530  0.4084
 9362SOL    HW139545   4.670   0.867   6.506 -1.8265  0.2535 -0.6924
 9362SOL    HW239546   4.706   0.781   6.620  0.3871 -1.2720  0.3326
 9363SOL     OW39547   4.509   1.350  12.859 -0.5795 -0.0152  0.1911
 9363SOL    HW139548   4.424   1.393  12.848 -0.4716  0.0666 -0.3477
 9363SOL    HW239549   4.546   1.368  12.773 -1.5138 -2.5153 -0.7215
 9364SOL     OW39550   2.082   0.177   8.640 -0.1214  0.5497  0.4036
 9364SOL    HW139551   2.007   0.119   8.626  0.3514  0.4565 -1.6881
 9364SOL    HW239552   2.062   0.260   8.597  0.3486  0.0469 -0.7858
 9365SOL     OW39553   3.271   1.651   6.823 -0.2396  0.0617  0.9673
 9365SOL    HW139554   3.212   1.676   6.895  1.0221  0.0946  1.9830
 9365SOL    HW239555   3.357   1.673   6.859  0.5154  0.1476 -0.9215
 9366SOL     OW39556   4.615   2.031  17.230  0.2667 -0.2996  0.6327
 9366SOL    HW139557   4.543   2.066  17.178 -1.1640 -1.5866  1.7202
 9366SOL    HW239558   4.576   2.029  17.318  2.4984 -0.8614  1.6164
 9367SOL     OW39559   0.596   4.281   2.825  0.4845 -0.0234 -0.3072
 9367SOL    HW139560   0.596   4.349   2.758 -1.2945 -1.7009 -1.9988
 9367SOL    HW239561   0.685   4.249   2.813  0.1745 -0.7562 -0.6711
 9368SOL     OW39562   2.163   2.087   2.426  0.4684 -0.0523 -0.1353
 9368SOL    HW139563   2.102   2.144   2.474  1.3685  0.4298  0.4488
 9368SOL    HW239564   2.189   2.147   2.356 -0.8095 -1.3345 -1.6812
 9369SOL     OW39565   4.106   4.545  11.969 -0.1058  0.0802 -0.1297
 9369SOL    HW139566   4.063   4.627  11.942 -0.0333  0.1681  0.0195
 9369SOL    HW239567   4.080   4.488  11.898 -0.8473 -0.1067  0.2910
 9370SOL     OW39568   3.889   0.454   3.533  0.2452  0.2643 -0.1099
 9370SOL    HW139569   3.898   0.389   3.462  0.2800  1.0059 -0.7816
 9370SOL    HW239570   3.825   0.417   3.593  0.3764 -0.7795 -0.6012
 9371SOL     OW39571   0.596   1.677  16.228  0.5609  0.4491  0.0337
 9371SOL    HW139572   0.639   1.712  16.306 -0.1128 -1.8315  1.4327
 9371SOL    HW239573   0.603   1.585  16.253 -1.7742  0.1428 -0.3953
 9372SOL     OW39574   1.487   1.424   9.674 -0.2308 -0.3702 -0.5073
 9372SOL    HW139575   1.408   1.377   9.647  0.5506 -2.9839  1.7146
 9372SOL    HW239576   1.547   1.352   9.691 -0.1525 -0.1714  0.0610
 9373SOL     OW39577   1.101   4.257   2.644  0.4325  0.0698  0.0404
 9373SOL    HW139578   1.079   4.206   2.566 -0.9213  0.2094  0.3293
 9373SOL    HW239579   1.196   4.270   2.640 -0.0016  2.8994 -0.9688
 9374SOL     OW39580   4.045   2.092   7.447 -0.2321 -0.1678 -0.4827
 9374SOL    HW139581   3.971   2.099   7.507 -1.4415  0.1495 -2.0031
 9374SOL    HW239582   4.036   2.001   7.418  2.2623 -0.8750  1.0247
 9375SOL     OW39583   0.821   1.315   7.013 -0.1089 -0.0307  0.8924
 9375SOL    HW139584   0.747   1.375   7.019 -0.5453 -0.5169  0.2496
 9375SOL    HW239585   0.794   1.244   7.071 -0.3711 -0.2170  0.5331
 9376SOL     OW39586   4.513   1.674   2.622 -0.0080  0.3795 -0.3656
 9376SOL    HW139587   4.537   1.764   2.601 -0.6085  0.3395 -1.1673
 9376SOL    HW239588   4.579   1.659   2.690  0.4709 -1.6513 -1.2894
 9377SOL     OW39589   2.597   0.485   8.116  0.6257  0.4896  0.3269
 9377SOL    HW139590   2.599   0.571   8.157 -0.4963  1.6114 -1.9862
 9377SOL    HW239591   2.543   0.439   8.180  1.1010  0.3199  0.6066
 9378SOL     OW39592   2.392   2.164   4.911  1.1766  0.9436  0.0913
 9378SOL    HW139593   2.451   2.096   4.943  0.7680  1.8442  2.7077
 9378SOL    HW239594   2.315   2.110   4.897  2.1060 -0.8880  2.1221
 9379SOL     OW39595   2.976   1.335   6.427  0.2814  0.2006 -0.1946
 9379SOL    HW139596   2.919   1.339   6.503  0.7858  0.0949  0.1919
 9379SOL    HW239597   3.047   1.281   6.462  2.4585  0.7940 -3.6095
 9380SOL     OW39598   4.080   2.346   6.675  0.5556 -0.0647  0.3962
 9380SOL    HW139599   3.994   2.306   6.669  1.6209 -2.1601 -1.0566
 9380SOL    HW239600   4.065   2.398   6.754  0.2544  0.1078  0.2254
 9381SOL     OW39601   4.024   4.529  10.553 -0.5880  0.2409 -0.0210
 9381SOL    HW139602   4.033   4.594  10.623 -3.7940  0.1401  0.4799
 9381SOL    HW239603   4.003   4.579  10.475  1.8136 -0.5636 -1.1638
 9382SOL     OW39604   4.290   1.213   3.630  0.1463  0.5764 -0.0074
 9382SOL    HW139605   4.285   1.119   3.614 -0.1926  0.8604 -1.5733
 9382SOL    HW239606   4.276   1.219   3.724  0.3081  0.6527  0.0116
 9383SOL     OW39607   2.934   0.668   4.300  0.3870  0.0766  0.2066
 9383SOL    HW139608   2.867   0.728   4.334  1.6859  0.1828  2.6449
 9383SOL    HW239609   2.995   0.669   4.373  1.2320  1.3692 -0.5252
 9384SOL     OW39610   1.472   3.565  10.552  0.3398  0.1108 -0.4374
 9384SOL    HW139611   1.425   3.540  10.631  0.8511 -1.3017 -0.5767
 9384SOL    HW239612   1.472   3.660  10.566 -1.9538 -0.1528  1.1750
 9385SOL     OW39613   3.907   0.444   9.406 -0.4411  0.7664  0.5710
 9385SOL    HW139614   3.958   0.390   9.466  1.4263  0.0457 -1.6870
 9385SOL    HW239615   3.913   0.523   9.460  0.3772  1.5192 -0.6302
 9386SOL     OW39616   3.647   3.910   2.295  0.1422  0.1517 -0.4973
 9386SOL    HW139617   3.670   3.984   2.351  2.0553 -1.2478  0.5395
 9386SOL    HW239618   3.723   3.854   2.312  0.7125  1.0263 -0.1537
 9387SOL     OW39619   4.353   4.190   3.100  0.0542 -0.1096  0.1725
 9387SOL    HW139620   4.354   4.115   3.161 -2.1221 -0.0759  0.2726
 9387SOL    HW239621   4.329   4.262   3.159  0.3026 -1.3392  1.7921
 9388SOL     OW39622   3.251   1.335   8.735  0.1723  0.5240 -0.4275
 9388SOL    HW139623   3.210   1.264   8.784  3.5682 -2.7590 -2.4310
 9388SOL    HW239624   3.285   1.287   8.659 -1.7662 -0.6078 -0.6036
 9389SOL     OW39625   1.486   1.641   8.136  0.4356 -0.7296 -0.3539
 9389SOL    HW139626   1.397   1.642   8.172  1.5332  0.8052  2.2644
 9389SOL    HW239627   1.532   1.610   8.214  1.4498  1.4233 -0.0980
 9390SOL     OW39628   3.801   3.844   4.353  0.4171  0.0989  0.3995
 9390SOL    HW139629   3.889   3.855   4.319 -0.8607 -0.9765 -3.2056
 9390SOL    HW239630   3.823   3.786   4.426  0.5428 -0.0589  0.2349
 9391SOL     OW39631   1.664   2.357  11.296  0.0139 -0.5031  0.7275
 9391SOL    HW139632   1.621   2.341  11.380  0.2947  1.5272  1.2432
 9391SOL    HW239633   1.681   2.264  11.280 -0.4099 -0.3975 -0.3566
 9392SOL     OW39634   1.541   4.482   9.618 -0.1273 -0.0189  0.5749
 9392SOL    HW139635   1.597   4.551   9.654  0.2233 -0.9943  1.8966
 9392SOL    HW239636   1.601   4.408   9.622  0.3721  0.2988 -0.8471
 9393SOL     OW39637   2.580   0.567   5.582 -0.3271 -0.1368  0.4557
 9393SOL    HW139638   2.618   0.622   5.651 -1.4472 -0.5567  1.4172
 9393SOL    HW239639   2.605   0.480   5.611  1.1486  0.1717  0.0892
 9394SOL     OW39640   0.556   4.443   4.114  0.0030 -0.0646  0.1447
 9394SOL    HW139641   0.645   4.447   4.149 -0.2992 -0.3467  0.9432
 9394SOL    HW239642   0.525   4.357   4.143 -1.5367  1.0758  1.8554
 9395SOL     OW39643   0.108   1.469   7.978  0.0659 -0.6068 -0.1726
 9395SOL    HW139644   0.081   1.553   7.940  0.4532  0.1437  1.2237
 9395SOL    HW239645   0.200   1.473   7.953 -0.6216  0.6708 -2.5212
 9396SOL     OW39646   1.799   1.637  17.268 -0.1900 -0.1557  0.9666
 9396SOL    HW139647   1.788   1.688  17.348  0.3129 -0.5885  1.3126
 9396SOL    HW239648   1.724   1.578  17.279  0.2826 -1.3748 -2.2823
 9397SOL     OW39649   1.582   2.657   7.881  0.3648 -0.0038  0.9110
 9397SOL    HW139650   1.666   2.687   7.845  0.3444  0.8461  1.5842
 9397SOL    HW239651   1.603   2.581   7.935 -0.5840 -1.4328 -0.7424
 9398SOL     OW39652   2.715   1.242   6.349 -0.1895 -0.3243  0.1179
 9398SOL    HW139653   2.731   1.215   6.259 -1.2931  1.3525 -0.5836
 9398SOL    HW239654   2.803   1.267   6.378 -0.8162  0.7761  1.0898
 9399SOL     OW39655   0.026   3.469   3.936  0.4271  0.0814  0.4579
 9399SOL    HW139656   4.702   3.539   3.892  1.1269  0.7518  0.7605
 9399SOL    HW239657   0.093   3.446   3.871 -1.3809  0.0221 -1.3839
 9400SOL     OW39658   2.972   2.222   2.852 -0.1536 -0.4971  0.2629
 9400SOL    HW139659   2.953   2.200   2.943  2.1606  0.0122  0.8493
 9400SOL    HW239660   3.045   2.283   2.858  0.6612 -1.3856 -0.4566
 9401SOL     OW39661   2.195   3.869   5.028  0.0502  0.3207  0.1965
 9401SOL    HW139662   2.270   3.900   4.979 -0.2773 -0.3693 -0.7332
 9401SOL    HW239663   2.175   3.786   4.985 -1.2276  0.6140  0.2084
 9402SOL     OW39664   2.339   0.723  12.091 -0.1129 -0.1606  0.4894
 9402SOL    HW139665   2.295   0.802  12.056 -0.2319  0.2074  1.4810
 9402SOL    HW239666   2.392   0.751  12.165  2.5518  0.4257 -1.6409
 9403SOL     OW39667   0.162   4.634   6.533 -0.3905  0.1685 -0.0928
 9403SOL    HW139668   0.164   4.716   6.581 -1.6611 -1.1533  2.2132
 9403SOL    HW239669   0.220   4.657   6.460  1.0065 -0.4846  0.8110
 9404SOL     OW39670   3.752   3.798   1.222 -0.4198  0.2081 -0.3613
 9404SOL    HW139671   3.711   3.851   1.154 -1.4418 -0.8258 -0.5389
 9404SOL    HW239672   3.686   3.808   1.290  0.1042 -1.6868  0.4262
 9405SOL     OW39673   1.982   4.115  12.369 -0.2212 -0.0356 -0.0752
 9405SOL    HW139674   1.931   4.187  12.406 -1.9721 -1.0638 -0.4999
 9405SOL    HW239675   2.072   4.124  12.400 -0.3787  0.2655  0.2974
 9406SOL     OW39676   1.531   1.265   3.854  0.1476  0.0274  0.0623
 9406SOL    HW139677   1.494   1.341   3.809  2.1169  1.3151  0.6210
 9406SOL    HW239678   1.618   1.303   3.865  0.1705 -0.6071  2.0716
 9407SOL     OW39679   3.110   3.118   2.176 -0.3022  0.5995 -0.0740
 9407SOL    HW139680   3.173   3.047   2.166 -0.8891  0.2059 -1.0060
 9407SOL    HW239681   3.163   3.194   2.151  0.6063  0.9197  2.8491
 9408SOL     OW39682   2.032   2.525  17.249  0.2672 -0.0519 -0.2002
 9408SOL    HW139683   2.019   2.607  17.296 -0.8156 -1.0208  1.1730
 9408SOL    HW239684   1.967   2.535  17.180 -1.1548 -2.3127  0.8333
 9409SOL     OW39685   2.683   3.112   9.529  0.1430 -0.3918 -0.0202
 9409SOL    HW139686   2.761   3.126   9.583  0.4807 -0.0884 -0.5896
 9409SOL    HW239687   2.630   3.064   9.592 -0.6521 -0.0325 -0.4226
 9410SOL     OW39688   0.195   3.670   6.680 -0.2519 -0.0916  1.0190
 9410SOL    HW139689   0.159   3.581   6.680 -1.6507  0.4878 -3.0028
 9410SOL    HW239690   0.114   3.721   6.681 -0.3946 -0.3141  0.5842
 9411SOL     OW39691   1.364   4.286  15.498 -0.1706  0.4014 -0.1949
 9411SOL    HW139692   1.318   4.356  15.545  1.5495  1.4149 -0.0072
 9411SOL    HW239693   1.407   4.333  15.427 -0.5373 -0.5770 -1.0638
 9412SOL     OW39694   2.800   3.423   4.576 -0.1339 -0.3172 -0.0045
 9412SOL    HW139695   2.727   3.404   4.635 -1.0566  1.3517 -0.5770
 9412SOL    HW239696   2.759   3.468   4.501  1.5334 -2.2366 -2.0776
 9413SOL     OW39697   2.189   0.487   3.332  0.3676  0.0971  0.5819
 9413SOL    HW139698   2.232   0.524   3.409  1.0984  0.2862  0.0848
 9413SOL    HW239699   2.193   0.561   3.271 -1.4942  0.4473  0.8796
 9414SOL     OW39700   2.111   0.708  13.264 -0.2641  0.1425 -0.3598
 9414SOL    HW139701   2.156   0.727  13.182  1.2804 -0.5749  0.3193
 9414SOL    HW239702   2.029   0.757  13.256 -0.5041 -0.4967 -1.7786
 9415SOL     OW39703   3.564   2.360   9.320  0.1488  0.1460 -0.4558
 9415SOL    HW139704   3.508   2.415   9.375  0.5894 -0.1007  0.2496
 9415SOL    HW239705   3.547   2.403   9.236  1.1304  1.5199  0.0438
 9416SOL     OW39706   0.300   3.697   5.327 -0.3249  0.3936 -0.1498
 9416SOL    HW139707   0.308   3.710   5.422 -0.1038  1.0448 -0.2566
 9416SOL    HW239708   0.205   3.692   5.320 -0.3053  0.4163 -0.4122
 9417SOL     OW39709   0.713   3.886   6.766  0.5726 -0.2132  0.2877
 9417SOL    HW139710   0.620   3.890   6.787  0.3096  2.7797 -1.4401
 9417SOL    HW239711   0.708   3.857   6.675  2.3982 -0.9467  0.4288
 9418SOL     OW39712   1.319   3.718   6.096  0.5309 -0.3405 -0.7033
 9418SOL    HW139713   1.290   3.704   6.006  2.6758  0.8054 -1.5932
 9418SOL    HW239714   1.403   3.673   6.094 -0.9688 -3.1481  0.7205
 9419SOL     OW39715   0.166   2.285   1.042 -0.3285  0.3276 -0.3681
 9419SOL    HW139716   0.218   2.227   1.098  2.5248 -0.6638 -3.9806
 9419SOL    HW239717   0.147   2.229   0.966 -3.3932  0.3394  0.4232
 9420SOL     OW39718   0.467   0.575  12.445 -0.1775  0.1153 -0.8598
 9420SOL    HW139719   0.407   0.569  12.519  1.4159  0.8421  0.4748
 9420SOL    HW239720   0.544   0.623  12.474 -0.3016  0.1035 -0.5109
 9421SOL     OW39721   3.429   1.540   9.571  0.1980  0.3581  0.1579
 9421SOL    HW139722   3.496   1.597   9.534  1.1055  0.5333  2.0695
 9421SOL    HW239723   3.479   1.459   9.559 -0.3340 -0.0832  0.8753
 9422SOL     OW39724   3.040   3.515   2.187  0.3915  0.3547 -0.2318
 9422SOL    HW139725   3.029   3.610   2.189 -1.7506  0.0963  0.5612
 9422SOL    HW239726   2.980   3.486   2.257  2.1676  0.0174  1.1583
 9423SOL     OW39727   0.102   2.861  10.708 -0.1691 -0.2911  0.0627
 9423SOL    HW139728   0.069   2.947  10.735 -0.5082 -1.1766  2.4177
 9423SOL    HW239729   0.024   2.832  10.661  0.4662  1.5021 -2.0846
 9424SOL     OW39730   0.669   0.787   8.298  0.0206  0.0251 -0.2715
 9424SOL    HW139731   0.621   0.787   8.216  2.2228  0.3919 -1.5451
 9424SOL    HW239732   0.756   0.810   8.266 -0.1656 -2.0570 -2.2732
 9425SOL     OW39733   2.510   3.706   9.451 -0.2558 -0.2586  0.1987
 9425SOL    HW139734   2.448   3.645   9.410  1.4745 -1.9657  0.0815
 9425SOL    HW239735   2.558   3.720   9.369 -0.7293  1.2443  0.1740
 9426SOL     OW39736   2.887   3.995   6.992 -0.6194 -0.4354 -0.2100
 9426SOL    HW139737   2.804   4.041   6.985 -2.0327 -3.0273 -0.1884
 9426SOL    HW239738   2.916   4.007   7.082 -0.4084  4.9837 -0.9593
 9427SOL     OW39739   4.591   3.538   2.489  0.0206 -0.3360  0.4557
 9427SOL    HW139740   4.509   3.508   2.528 -0.5512 -1.3887 -1.5450
 9427SOL    HW239741   4.636   3.459   2.458 -0.1032 -1.7773  3.9911
 9428SOL     OW39742   0.982   1.229   3.377 -0.0123 -0.1872 -0.1426
 9428SOL    HW139743   0.906   1.210   3.432 -1.2669 -1.9976 -2.5029
 9428SOL    HW239744   1.047   1.176   3.424  0.3596  1.3579  1.0715
 9429SOL     OW39745   1.542   3.628   1.586 -0.1774  0.2066 -0.1142
 9429SOL    HW139746   1.580   3.612   1.672  1.8467 -0.0306 -1.0749
 9429SOL    HW239747   1.468   3.568   1.594 -1.1908  1.5986  0.9714
 9430SOL     OW39748   0.811   3.737   7.005 -0.1001 -0.0907  0.1588
 9430SOL    HW139749   0.813   3.788   6.923  0.0558 -1.6237 -0.7870
 9430SOL    HW239750   0.740   3.785   7.048 -1.6413 -0.8970 -1.4695
 9431SOL     OW39751   2.454   2.713   5.060  0.2628 -0.0788 -0.4627
 9431SOL    HW139752   2.487   2.795   5.023 -0.1066 -0.5909 -1.9207
 9431SOL    HW239753   2.527   2.655   5.038 -0.9007 -1.2228 -1.3054
 9432SOL     OW39754   3.744   1.629  15.960  0.1643  0.1073  0.4661
 9432SOL    HW139755   3.652   1.654  15.972 -0.7955 -3.0367 -0.1253
 9432SOL    HW239756   3.782   1.714  15.937 -0.5107  0.2557 -0.1062
 9433SOL     OW39757   0.130   2.513   3.156  0.0527  0.0389  0.3980
 9433SOL    HW139758   0.221   2.506   3.126  0.6282 -0.6325  2.2842
 9433SOL    HW239759   0.087   2.435   3.122 -1.8771  1.9394 -1.4946
 9434SOL     OW39760   3.450   3.144   4.954  0.3181  0.1449 -0.1432
 9434SOL    HW139761   3.423   3.107   4.870  1.2767  1.9146 -1.2065
 9434SOL    HW239762   3.390   3.219   4.952  0.2490  0.0632 -1.0369
 9435SOL     OW39763   1.615   2.521   6.088 -0.2282 -0.2884  0.3264
 9435SOL    HW139764   1.639   2.500   5.998  0.7339  3.0089 -0.1887
 9435SOL    HW239765   1.638   2.612   6.106  4.3677 -1.5765  0.9175
 9436SOL     OW39766   3.165   0.828   9.265 -0.4271 -0.0554  0.0175
 9436SOL    HW139767   3.116   0.855   9.342 -0.6244 -0.9264  0.2009
 9436SOL    HW239768   3.236   0.774   9.301 -0.6826 -0.2442  0.2391
 9437SOL     OW39769   0.408   4.537  12.968 -0.4905  0.4032  0.5260
 9437SOL    HW139770   0.444   4.620  12.999  0.9418  0.9877 -2.5996
 9437SOL    HW239771   0.337   4.568  12.912 -0.9692 -1.0970  0.3078
 9438SOL     OW39772   0.596   3.046   5.184  0.1631  0.3665 -0.2149
 9438SOL    HW139773   0.502   3.044   5.162 -0.0881 -0.1966  0.8831
 9438SOL    HW239774   0.581   3.117   5.247  1.6792  0.5640 -0.0846
 9439SOL     OW39775   1.017   4.598   3.806  0.4335 -0.0128 -0.2873
 9439SOL    HW139776   1.001   4.519   3.858 -0.8182 -0.2971 -1.1274
 9439SOL    HW239777   1.084   4.640   3.861  2.7552 -2.1311 -1.4960
 9440SOL     OW39778   3.585   4.512   3.728  0.0649 -0.0741 -0.1559
 9440SOL    HW139779   3.514   4.529   3.791  0.2830  2.0593 -0.4849
 9440SOL    HW239780   3.543   4.476   3.650  1.2319  1.2437 -1.3874
 9441SOL     OW39781   2.379   3.336   5.696 -0.2641 -0.1910  0.1618
 9441SOL    HW139782   2.388   3.423   5.657  0.4159 -1.9786 -3.6501
 9441SOL    HW239783   2.323   3.346   5.773  0.8604  0.3320  0.9221
 9442SOL     OW39784   0.119   4.388   2.185  0.0710 -0.7786  0.2181
 9442SOL    HW139785   0.171   4.316   2.153 -1.4637 -0.6459 -2.5656
 9442SOL    HW239786   0.120   4.442   2.106 -1.6641 -0.8812  0.1211
 9443SOL     OW39787   0.853   3.018   2.647  0.0141 -0.2879 -0.6314
 9443SOL    HW139788   0.875   2.927   2.670  0.3716 -0.4717 -1.6956
 9443SOL    HW239789   0.882   3.010   2.556 -0.5229 -2.3601 -0.6218
 9444SOL     OW39790   0.586   0.469   6.408 -0.4148  0.0614 -0.1021
 9444SOL    HW139791   0.626   0.382   6.403 -1.6604 -0.3684 -2.2514
 9444SOL    HW239792   0.517   0.442   6.468 -0.4313 -1.3454 -0.7597
 9445SOL     OW39793   3.628   1.818   3.358  0.3418  0.0350 -0.1099
 9445SOL    HW139794   3.586   1.732   3.346  2.3001 -1.0031  0.4172
 9445SOL    HW239795   3.650   1.822   3.451  0.9299  0.8077 -0.2825
 9446SOL     OW39796   2.596   2.747   7.200 -0.6343  0.3376  0.6129
 9446SOL    HW139797   2.565   2.686   7.134 -0.8381  0.3909  0.6596
 9446SOL    HW239798   2.520   2.781   7.247 -0.3280  2.3471 -0.3806
 9447SOL     OW39799   1.092   3.243  11.042  0.4038  0.1426  0.4444
 9447SOL    HW139800   1.129   3.214  10.959  1.4187  0.2258  0.8645
 9447SOL    HW239801   1.136   3.195  11.112  1.3643 -1.3134 -1.1703
 9448SOL     OW39802   4.611   3.761   8.976  0.0488 -0.2224 -0.1618
 9448SOL    HW139803   4.623   3.755   9.071  1.3227 -3.7789 -0.5526
 9448SOL    HW239804   4.700   3.747   8.946  0.0394 -2.3224  0.8323
 9449SOL     OW39805   3.906   3.641  12.638  0.3272 -0.0030  0.0904
 9449SOL    HW139806   3.979   3.685  12.682  0.9486  1.2711 -2.1510
 9449SOL    HW239807   3.958   3.570  12.601  0.4888 -0.3908  1.0777
 9450SOL     OW39808   1.703   1.185   1.744  0.0816  0.0218  0.4134
 9450SOL    HW139809   1.776   1.137   1.781  0.3385 -0.0674 -0.2248
 9450SOL    HW239810   1.737   1.275   1.743 -3.1289  1.2854  0.8382
 9451SOL     OW39811   1.687   3.296   6.061 -0.2941  0.2008  0.1562
 9451SOL    HW139812   1.669   3.233   5.992 -0.6486  1.0111 -0.4965
 9451SOL    HW239813   1.724   3.237   6.126 -0.3718  0.6676  0.6237
 9452SOL     OW39814   0.261   0.655   8.129  0.2588  0.0957 -0.2343
 9452SOL    HW139815   0.166   0.668   8.127  0.4058  1.8793  3.8305
 9452SOL    HW239816   0.282   0.737   8.085  2.5514 -0.0361  0.6371
 9453SOL     OW39817   3.748   3.113   3.686 -0.6988 -0.1223 -0.0485
 9453SOL    HW139818   3.706   3.031   3.713  1.1621 -1.1897 -0.4086
 9453SOL    HW239819   3.829   3.097   3.734 -0.2866  1.9363 -0.0681
 9454SOL     OW39820   1.358   2.786   3.804 -0.5219  0.1693  0.3476
 9454SOL    HW139821   1.410   2.732   3.745  0.4837  0.5148  0.9206
 9454SOL    HW239822   1.354   2.866   3.751  1.2698 -0.2627 -0.4299
 9455SOL     OW39823   2.754   0.691  14.781  0.5361 -0.0159 -0.6204
 9455SOL    HW139824   2.801   0.715  14.861 -0.8170  0.1621  0.1263
 9455SOL    HW239825   2.812   0.733  14.718 -0.1080 -0.8886 -1.8013
 9456SOL     OW39826   2.437   4.455   6.183  0.2142 -0.2288 -0.2695
 9456SOL    HW139827   2.516   4.507   6.196  0.9763 -1.6657  0.8387
 9456SOL    HW239828   2.480   4.373   6.162  1.3516 -0.3651  2.5622
 9457SOL     OW39829   3.421   0.342   3.942  0.5631  0.0024 -0.2014
 9457SOL    HW139830   3.401   0.250   3.923 -0.5540  0.2698 -0.2979
 9457SOL    HW239831   3.516   0.338   3.929  0.2828 -0.3817 -2.2511
 9458SOL     OW39832   3.891   2.566   8.916 -0.0381 -0.6102 -0.1024
 9458SOL    HW139833   3.911   2.635   8.853  0.7861  0.6582  1.5500
 9458SOL    HW239834   3.917   2.483   8.876 -1.0314 -2.4238  3.0160
 9459SOL     OW39835   4.330   1.432   3.494  0.3158  0.4089  0.0164
 9459SOL    HW139836   4.411   1.404   3.452  0.0001 -0.0925 -0.2539
 9459SOL    HW239837   4.304   1.349   3.535 -2.9718 -0.2999 -3.5789
 9460SOL     OW39838   2.830   3.463  17.148  0.6412 -0.0308 -0.1096
 9460SOL    HW139839   2.867   3.471  17.236  0.7552 -1.4380 -0.0341
 9460SOL    HW239840   2.797   3.551  17.131 -1.4878 -0.3472  2.3908
 9461SOL     OW39841   3.563   1.017   6.983 -0.6320  0.2300  0.0370
 9461SOL    HW139842   3.520   1.062   7.056 -0.7365  0.7793 -0.3644
 9461SOL    HW239843   3.514   0.935   6.981  2.8117 -1.8016 -1.6239
 9462SOL     OW39844   4.134   0.902   1.293  0.5138  0.1474 -0.0771
 9462SOL    HW139845   4.198   0.923   1.362 -2.3733  0.7499  2.4002
 9462SOL    HW239846   4.184   0.862   1.222  0.0192  1.1448 -0.9897
 9463SOL     OW39847   3.820   4.650   0.184  0.5614 -0.1319  0.5243
 9463SOL    HW139848   3.833   4.611   0.271  1.3111 -2.0327 -0.4318
 9463SOL    HW239849   3.897   4.615   0.138 -0.5518 -0.3315 -1.1929
 9464SOL     OW39850   3.364   1.798   8.106 -0.0180 -0.4070  0.9028
 9464SOL    HW139851   3.279   1.769   8.073  0.7895 -0.5958 -0.9801
 9464SOL    HW239852   3.427   1.728   8.088 -1.6540 -1.7527  0.4221
 9465SOL     OW39853   4.196   1.200   2.340  0.3932  0.1705 -0.4275
 9465SOL    HW139854   4.262   1.144   2.380  0.2180 -0.6542 -1.2802
 9465SOL    HW239855   4.118   1.169   2.386 -1.4328  2.0793 -2.1756
 9466SOL     OW39856   3.110   0.346   0.589  0.2920  0.4885  0.4810
 9466SOL    HW139857   3.082   0.326   0.678 -0.5613 -2.0749 -0.3655
 9466SOL    HW239858   3.041   0.317   0.530  1.1064 -2.2561  0.8455
 9467SOL     OW39859   3.603   1.261   1.932  0.2069  0.0482 -0.0779
 9467SOL    HW139860   3.561   1.292   2.012 -1.2262  0.4156 -0.9729
 9467SOL    HW239861   3.630   1.347   1.901  0.4280 -0.2188 -0.6329
 9468SOL     OW39862   1.574   0.790   3.296 -0.1131  0.1398  0.1220
 9468SOL    HW139863   1.670   0.792   3.299 -0.1338  0.9378  0.3117
 9468SOL    HW239864   1.555   0.880   3.324  2.0260  0.3418  0.9120
 9469SOL     OW39865   3.603   4.040   4.188  0.1040 -0.0593 -0.0079
 9469SOL    HW139866   3.693   4.013   4.207  0.4511  1.4958  0.5565
 9469SOL    HW239867   3.601   4.055   4.093  1.5867 -0.6499 -0.1278
 9470SOL     OW39868   4.430   4.453   9.825 -0.0973 -0.0647 -0.1648
 9470SOL    HW139869   4.467   4.365   9.835  1.9735  0.9144  0.7828
 9470SOL    HW239870   4.389   4.461   9.912 -0.0152  0.7450 -0.2017
 9471SOL     OW39871   4.653   2.781  13.935  0.7232  0.1885 -0.1185
 9471SOL    HW139872   4.697   2.717  13.991 -0.5555 -0.8826 -0.3296
 9471SOL    HW239873   4.593   2.824  13.996  0.3462 -1.9585  1.0257
 9472SOL     OW39874   0.292   0.313  10.193 -0.4884  0.5362  0.8937
 9472SOL    HW139875   0.339   0.371  10.133  2.7189 -3.3409 -0.3098
 9472SOL    HW239876   0.336   0.328  10.277  0.5841 -2.1256  0.7974
 9473SOL     OW39877   3.788   3.370  12.465  0.5000  0.2407  0.2002
 9473SOL    HW139878   3.796   3.275  12.477  0.9589 -0.1039 -2.7450
 9473SOL    HW239879   3.877   3.403  12.461  0.1564  1.1196 -0.3413
 9474SOL     OW39880   0.325   3.585   1.819  0.3693  0.6517  0.1432
 9474SOL    HW139881   0.416   3.560   1.801 -0.3987 -0.8048 -1.7306
 9474SOL    HW239882   0.298   3.599   1.728 -2.4577  2.7627  1.3181
 9475SOL     OW39883   2.475   2.421   7.939 -0.3959 -0.5737 -0.0584
 9475SOL    HW139884   2.458   2.477   7.864  1.2368  0.7321  0.5537
 9475SOL    HW239885   2.399   2.456   7.987 -0.9093 -0.8047 -0.7088
 9476SOL     OW39886   4.393   4.531   4.784 -0.0099  0.0528  0.3373
 9476SOL    HW139887   4.369   4.623   4.781  0.9227  0.2778 -0.1676
 9476SOL    HW239888   4.308   4.487   4.792  0.9038 -2.1438 -1.6869
 9477SOL     OW39889   2.385   4.204   2.722  0.2644  0.0551  0.1621
 9477SOL    HW139890   2.370   4.126   2.776 -0.2604  0.2640  0.3112
 9477SOL    HW239891   2.478   4.208   2.700 -0.0049  0.7813 -0.8377
 9478SOL     OW39892   2.730   4.676   5.599 -0.0520  0.0577 -0.2380
 9478SOL    HW139893   2.669   4.688   5.525  0.4457  1.0202 -0.4939
 9478SOL    HW239894   2.769   4.590   5.585  2.1580  1.1355 -0.6934
 9479SOL     OW39895   1.568   2.138   8.735 -0.6692  0.1039  0.3620
 9479SOL    HW139896   1.605   2.109   8.819  0.1604  0.1625  0.0118
 9479SOL    HW239897   1.533   2.224   8.759  0.1144  0.2756  0.9095
 9480SOL     OW39898   0.744   2.226   7.480 -0.3018  0.6393 -0.5686
 9480SOL    HW139899   0.678   2.200   7.415  0.6531  1.7070 -1.9812
 9480SOL    HW239900   0.712   2.312   7.508 -0.1428  0.8536 -1.0470
 9481SOL     OW39901   3.919   3.124   6.925 -0.2401  0.0918 -0.2894
 9481SOL    HW139902   3.977   3.050   6.942 -1.6686 -1.7349 -3.3585
 9481SOL    HW239903   3.901   3.122   6.831  0.0193 -0.7800 -0.3183
 9482SOL     OW39904   1.763   0.590   4.558  0.2261 -0.2476 -0.1459
 9482SOL    HW139905   1.690   0.574   4.618  0.2369 -0.8967 -0.2986
 9482SOL    HW239906   1.759   0.685   4.558 -1.6824 -0.3254  1.2496
 9483SOL     OW39907   1.234   0.246   4.047  0.1607 -0.0757  0.3557
 9483SOL    HW139908   1.308   0.301   4.073  0.3103  0.3633 -0.9788
 9483SOL    HW239909   1.184   0.303   3.989 -1.4280 -0.1162  1.6870
 9484SOL     OW39910   0.029   1.491   3.878 -1.1268 -0.0651  0.5297
 9484SOL    HW139911   4.669   1.510   3.835 -0.8864 -0.8961 -0.3029
 9484SOL    HW239912   4.716   1.453   3.958 -2.1449 -2.4188 -1.0376
 9485SOL     OW39913   0.363   3.247   9.718 -0.6428 -0.5622 -0.2651
 9485SOL    HW139914   0.348   3.166   9.766 -2.0270 -0.3197 -0.2975
 9485SOL    HW239915   0.363   3.311   9.790 -1.1391 -0.9724  0.0958
 9486SOL     OW39916   3.345   0.019   7.887  0.4580  0.5140  0.3370
 9486SOL    HW139917   3.336   4.695   7.969  1.5235 -0.9290 -0.3867
 9486SOL    HW239918   3.440   0.028   7.879  0.4107 -0.4351 -1.4058
 9487SOL     OW39919   0.051   3.570  14.848  0.4155  0.0910 -0.0275
 9487SOL    HW139920   0.052   3.480  14.814  0.9609  0.9223 -2.2006
 9487SOL    HW239921   0.111   3.609  14.785  1.4265  1.5211  1.8282
 9488SOL     OW39922   0.584   3.008   9.755  0.3921  0.1857 -0.1151
 9488SOL    HW139923   0.644   3.050   9.817  0.7696 -0.7910  0.1737
 9488SOL    HW239924   0.503   3.010   9.805  0.1251  0.9812 -0.5789
 9489SOL     OW39925   1.752   1.799  17.481  0.0813  0.2563  0.3921
 9489SOL    HW139926   1.788   1.887  17.495  1.0647 -0.0875  0.0539
 9489SOL    HW239927   1.659   1.816  17.492 -0.3113 -1.2041 -0.6715
 9490SOL     OW39928   1.785   0.399   7.979 -0.2903  0.3897 -0.2229
 9490SOL    HW139929   1.763   0.329   8.040  0.1378  1.1005  0.7272
 9490SOL    HW239930   1.879   0.384   7.968 -0.4088  0.5837 -1.5798
 9491SOL     OW39931   1.446   3.249   2.180  0.2848 -0.2075  0.1570
 9491SOL    HW139932   1.423   3.157   2.170 -0.8901  0.2499 -1.2407
 9491SOL    HW239933   1.538   3.243   2.208 -0.0387 -1.8075  0.8910
 9492SOL     OW39934   1.212   1.576   6.321  0.0277  0.0896  0.3588
 9492SOL    HW139935   1.277   1.568   6.390  0.3886 -0.2681 -0.0278
 9492SOL    HW239936   1.257   1.641   6.267  0.4298 -0.3691  0.1447
 9493SOL     OW39937   1.402   3.984   2.812  0.2521 -0.1966 -0.1968
 9493SOL    HW139938   1.380   3.975   2.904 -2.1543  0.9559 -0.6710
 9493SOL    HW239939   1.496   3.995   2.828  0.0697 -0.7639  1.2741
 9494SOL     OW39940   1.774   4.015  16.328 -0.2974 -0.6684  0.0109
 9494SOL    HW139941   1.818   4.093  16.362 -1.5212 -0.0041  0.0556
 9494SOL    HW239942   1.856   3.965  16.321  0.7967  0.8465  1.9221
 9495SOL     OW39943   2.047   0.417   7.439 -0.3843  0.0478 -0.0681
 9495SOL    HW139944   2.127   0.465   7.458 -0.0720 -0.2739 -0.5662
 9495SOL    HW239945   2.066   0.363   7.362  0.5318  0.7993 -0.3575
 9496SOL     OW39946   2.767   2.582   8.685 -0.7126  0.2391  0.1389
 9496SOL    HW139947   2.701   2.513   8.682  0.5638 -0.9111 -1.7546
 9496SOL    HW239948   2.711   2.658   8.676 -0.7094  0.4694  1.9834
 9497SOL     OW39949   0.563   2.135   6.449 -0.4941  0.1601  0.1770
 9497SOL    HW139950   0.631   2.170   6.392 -1.7712  0.4005 -1.1902
 9497SOL    HW239951   0.523   2.213   6.486  0.4077  0.9214 -0.4285
 9498SOL     OW39952   2.847   3.163   2.768  0.3249 -0.4063 -0.3004
 9498SOL    HW139953   2.814   3.106   2.837  0.1319 -0.2569 -0.2695
 9498SOL    HW239954   2.920   3.106   2.744  0.0409 -0.0038 -2.1001
 9499SOL     OW39955   3.104   0.109   5.041  0.0732  0.2728  0.0056
 9499SOL    HW139956   3.030   0.167   5.021 -0.5077 -0.1508  0.8631
 9499SOL    HW239957   3.070   0.024   5.013 -1.2191 -0.1225  2.7696
 9500SOL     OW39958   1.899   3.012   2.256  0.3062  0.0287 -0.0656
 9500SOL    HW139959   1.930   2.927   2.288  0.5465 -0.3824 -1.3834
 9500SOL    HW239960   1.894   2.990   2.163 -1.2275 -0.2180  0.0687
 9501SOL     OW39961   0.206   0.446   6.505  0.2498  0.1060  0.0283
 9501SOL    HW139962   0.209   0.532   6.463  2.7623 -0.1917 -0.4186
 9501SOL    HW239963   0.269   0.459   6.576  1.4737 -2.6152 -0.5342
 9502SOL     OW39964   3.987   1.660  16.275  0.4142 -0.1971  0.2919
 9502SOL    HW139965   3.964   1.742  16.320 -2.0952 -0.3401 -0.7551
 9502SOL    HW239966   4.065   1.678  16.223  2.0415 -0.6465  2.5421
 9503SOL     OW39967   1.225   1.447  15.553  0.0733  0.5918  0.0805
 9503SOL    HW139968   1.199   1.375  15.495 -0.3359  0.9094 -0.1249
 9503SOL    HW239969   1.151   1.467  15.610 -0.3180  2.3911 -1.0669
 9504SOL     OW39970   1.849   3.855   4.629  0.3254  0.2126  0.0507
 9504SOL    HW139971   1.877   3.861   4.720 -1.6076 -0.3303  0.6850
 9504SOL    HW239972   1.813   3.941   4.609  0.1765  0.1958  0.2451
 9505SOL     OW39973   4.029   2.851  13.970  0.1321  0.1340 -0.3772
 9505SOL    HW139974   4.070   2.776  14.013 -1.6697 -0.7451 -0.1860
 9505SOL    HW239975   4.045   2.918  14.037 -0.1136  0.5637 -0.7463
 9506SOL     OW39976   2.359   4.517   7.089 -0.1770  0.4158  0.2222
 9506SOL    HW139977   2.319   4.501   7.175 -0.7758 -0.1131 -0.1534
 9506SOL    HW239978   2.325   4.605   7.073  0.6947  0.8471  0.7584
 9507SOL     OW39979   4.045   3.205   3.988 -0.3446 -0.1577 -0.1160
 9507SOL    HW139980   4.028   3.144   3.917  0.4961 -1.7681  1.0724
 9507SOL    HW239981   4.132   3.170   4.006  0.2191  0.7890 -1.0058
 9508SOL     OW39982   2.153   3.455   5.834  0.3363  0.3296  0.0994
 9508SOL    HW139983   2.156   3.486   5.924 -4.5162 -1.3523  0.8384
 9508SOL    HW239984   2.077   3.504   5.803  1.2386  1.0019 -1.0596
 9509SOL     OW39985   0.608   1.120   6.791  0.6444  0.2056  0.2510
 9509SOL    HW139986   0.699   1.101   6.767 -0.1413  0.1663 -2.7052
 9509SOL    HW239987   0.606   1.095   6.883 -0.8882  1.8436  0.6650
 9510SOL     OW39988   2.377   1.522  15.757 -0.0198  0.1262 -0.6175
 9510SOL    HW139989   2.415   1.460  15.695 -0.2287  0.0240 -0.6412
 9510SOL    HW239990   2.287   1.494  15.739  0.3771 -1.6070  0.1518
 9511SOL     OW39991   3.337   3.165  17.312  0.1850  0.0882  0.3352
 9511SOL    HW139992   3.307   3.175  17.222 -0.0747  1.2874  0.5470
 9511SOL    HW239993   3.357   3.259  17.319 -0.6664  0.2659  0.3132
 9512SOL     OW39994   1.469   4.322   2.840  0.1099 -0.0257 -0.0379
 9512SOL    HW139995   1.544   4.374   2.813  0.6564 -2.6815 -3.5803
 9512SOL    HW239996   1.462   4.259   2.767  0.2587  1.0889 -1.0134
 9513SOL     OW39997   0.512   1.251   8.771 -0.5135 -0.2089 -0.8160
 9513SOL    HW139998   0.431   1.230   8.818  1.4068 -0.6806  2.2382
 9513SOL    HW239999   0.524   1.340   8.803 -2.5931  0.4505 -1.8928
 9514SOL     OW40000   2.664   1.543   5.179 -0.8840  0.0495  0.3005
 9514SOL    HW140001   2.636   1.579   5.095  0.0041  0.6848  0.2849
 9514SOL    HW240002   2.635   1.619   5.229  1.4811  1.2564 -0.1574
 9515SOL     OW40003   0.915   3.918   8.446  0.0624 -0.0419 -0.4485
 9515SOL    HW140004   0.894   3.930   8.353  0.8143 -0.0674 -0.6214
 9515SOL    HW240005   0.828   3.901   8.482  0.0954 -1.0825 -0.8647
 9516SOL     OW40006   3.277   4.615   5.874  0.4599 -0.0912 -0.1396
 9516SOL    HW140007   3.214   4.616   5.946 -1.5906 -0.9801 -1.9196
 9516SOL    HW240008   3.305   4.706   5.880 -3.7469  1.2432 -0.6691
 9517SOL     OW40009   4.468   3.817   3.183  0.0499 -0.4224  0.0896
 9517SOL    HW140010   4.378   3.850   3.183  0.2060 -0.0030  0.2470
 9517SOL    HW240011   4.503   3.857   3.104  1.5552  0.1812  1.0661
 9518SOL     OW40012   2.956   0.181   8.822  0.0496  0.2764  0.1104
 9518SOL    HW140013   2.876   0.168   8.873 -0.4255 -0.5276 -0.8455
 9518SOL    HW240014   2.971   0.270   8.854 -3.0883  0.3847  1.2353
 9519SOL     OW40015   1.650   1.555   6.974 -0.1765 -0.4296 -0.1799
 9519SOL    HW140016   1.741   1.586   6.972 -0.0177 -0.8115  1.3317
 9519SOL    HW240017   1.650   1.508   6.890  0.6141  2.1390 -1.6016
 9520SOL     OW40018   1.829   0.901   9.288  0.4656 -0.0494 -0.1697
 9520SOL    HW140019   1.923   0.885   9.291  0.5921  0.6340 -0.5894
 9520SOL    HW240020   1.816   0.914   9.382 -1.2163  0.5022 -0.4806
 9521SOL     OW40021   3.915   2.490   8.587  0.1887 -0.1114  0.0284
 9521SOL    HW140022   3.940   2.486   8.495 -1.2254 -0.7199 -0.3291
 9521SOL    HW240023   3.923   2.398   8.611 -0.5397  0.2269  1.6174
 9522SOL     OW40024   0.437   4.188   4.165 -0.0925  0.6762 -0.3475
 9522SOL    HW140025   0.351   4.193   4.208  0.6078  0.6626  1.0605
 9522SOL    HW240026   0.418   4.128   4.094  2.8064 -0.3042 -0.2930
 9523SOL     OW40027   0.767   3.344   4.929 -0.0888 -0.4663 -0.1904
 9523SOL    HW140028   0.724   3.260   4.946  0.8632 -0.9412 -0.1328
 9523SOL    HW240029   0.709   3.402   4.979 -1.0442 -2.4115  0.9523
 9524SOL     OW40030   0.436   4.679   7.522 -0.5120 -0.5212 -0.2784
 9524SOL    HW140031   0.358   4.678   7.579 -1.3101 -2.3315 -1.4204
 9524SOL    HW240032   0.417   4.610   7.459  0.4853 -0.0247 -1.1156
 9525SOL     OW40033   2.690   0.009  13.408 -0.4031  0.9626 -0.2857
 9525SOL    HW140034   2.732   4.674  13.345 -3.4361 -2.0564  0.4489
 9525SOL    HW240035   2.626   4.673  13.447 -0.0553  1.6396  1.3173
 9526SOL     OW40036   3.883   0.059   1.192  0.0417  0.1896 -0.3524
 9526SOL    HW140037   3.845   0.012   1.117 -0.9904  1.5462 -0.6717
 9526SOL    HW240038   3.947   4.718   1.221  0.1961  0.0477 -1.0157
 9527SOL     OW40039   1.095   0.706   9.001 -0.1679  0.1935  0.3466
 9527SOL    HW140040   1.126   0.736   9.087 -2.1767  2.9688  0.1361
 9527SOL    HW240041   1.022   0.651   9.030  1.0138 -0.3648  2.2761
 9528SOL     OW40042   1.859   1.273  10.675 -0.4712 -0.1179 -0.2179
 9528SOL    HW140043   1.933   1.333  10.669 -0.9418  0.6504  1.6137
 9528SOL    HW240044   1.896   1.193  10.638  0.4951 -0.1769  0.9047
 9529SOL     OW40045   4.486   1.318   9.083 -0.4294 -0.2989  0.0121
 9529SOL    HW140046   4.571   1.363   9.086 -1.8753  2.4794 -0.1284
 9529SOL    HW240047   4.509   1.226   9.097 -2.0047 -0.5499  0.9188
 9530SOL     OW40048   4.534   1.801  11.801 -0.2742  0.1994 -0.8156
 9530SOL    HW140049   4.526   1.744  11.725  1.3162 -1.6495  0.3756
 9530SOL    HW240050   4.503   1.741  11.869  0.6973  0.5943 -0.0230
 9531SOL     OW40051   4.221   3.304   3.306 -0.0495  0.1177 -0.1529
 9531SOL    HW140052   4.202   3.379   3.249  1.0314  1.0628  0.7215
 9531SOL    HW240053   4.265   3.249   3.241 -1.6231 -3.2847  1.6424
 9532SOL     OW40054   0.443   1.602  15.971  0.3033  0.0208  0.2236
 9532SOL    HW140055   0.483   1.617  16.056 -1.6068  1.6046  0.8700
 9532SOL    HW240056   0.398   1.680  15.937 -0.1636 -0.7594 -0.9674
 9533SOL     OW40057   2.743   2.430   0.260  0.5430  0.1950 -0.0505
 9533SOL    HW140058   2.652   2.460   0.255  0.9751  1.5744  0.1862
 9533SOL    HW240059   2.782   2.496   0.318  1.2065 -0.8472  0.6693
 9534SOL     OW40060   3.083   2.706   5.494  1.0862  0.4662  0.6260
 9534SOL    HW140061   3.052   2.753   5.571  2.0290  0.4956  0.9888
 9534SOL    HW240062   3.009   2.728   5.437 -0.6393 -1.5856  2.1136
 9535SOL     OW40063   3.807   3.938  17.510  0.0258 -0.4730 -0.2792
 9535SOL    HW140064   3.784   3.865  17.452 -3.4714  0.4607 -0.0474
 9535SOL    HW240065   3.850   3.997  17.449  0.1131 -1.5636 -1.2782
 9536SOL     OW40066   3.068   4.657   9.084  0.2737  0.1178 -0.6341
 9536SOL    HW140067   3.140   4.687   9.140  0.1424 -0.2136 -0.2882
 9536SOL    HW240068   2.984   4.659   9.129 -0.1532 -1.5967 -1.3468
 9537SOL     OW40069   1.231   1.181   6.707 -0.0548 -0.0748 -0.2882
 9537SOL    HW140070   1.187   1.102   6.676 -2.4576  0.2169  2.3703
 9537SOL    HW240071   1.165   1.250   6.702 -0.5390 -0.6311 -1.5969
 9538SOL     OW40072   4.717   2.050   9.152 -0.2805 -0.1217  0.0699
 9538SOL    HW140073   0.003   2.143   9.173  0.4302  0.1486 -1.4835
 9538SOL    HW240074   4.634   2.032   9.197 -0.1239  1.8431  1.1375
 9539SOL     OW40075   0.543   2.796   7.383  0.1693 -0.6268 -0.3679
 9539SOL    HW140076   0.517   2.876   7.337 -0.1216 -0.5322 -0.0378
 9539SOL    HW240077   0.556   2.826   7.473 -0.3251  0.2688 -0.5991
 9540SOL     OW40078   3.760   0.977   5.687 -0.0309 -0.3891  0.4627
 9540SOL    HW140079   3.853   0.991   5.673 -0.0579  0.3282  1.0115
 9540SOL    HW240080   3.745   1.056   5.740 -2.1472 -0.8354  0.5235
 9541SOL     OW40081   4.543   2.639  14.787 -0.7175 -0.1725 -0.1245
 9541SOL    HW140082   4.590   2.675  14.712  1.1829 -0.4333  0.9474
 9541SOL    HW240083   4.573   2.549  14.793 -0.4373 -0.1012 -0.4668
 9542SOL     OW40084   1.916   0.579   3.432 -0.2411  0.3359  0.1599
 9542SOL    HW140085   1.998   0.561   3.385 -0.8545  0.8719 -1.1240
 9542SOL    HW240086   1.858   0.517   3.389 -0.0976  0.7280 -0.5998
 9543SOL     OW40087   1.288   1.836   2.441  0.2914 -0.2242  0.1941
 9543SOL    HW140088   1.200   1.844   2.403  0.9522 -2.6554 -1.8436
 9543SOL    HW240089   1.290   1.757   2.494  0.3660 -0.9570 -0.9003
 9544SOL     OW40090   3.729   2.032   1.981  0.2986  0.1526  0.2873
 9544SOL    HW140091   3.790   2.103   1.961  0.9482 -0.4602  0.0949
 9544SOL    HW240092   3.778   1.979   2.043  2.0679  1.0101 -0.3813
 9545SOL     OW40093   1.011   0.166  11.380  0.1361 -0.4071  0.6936
 9545SOL    HW140094   0.952   0.163  11.455  1.2279  2.6908  1.6972
 9545SOL    HW240095   1.097   0.165  11.423  0.2242  0.5959  0.5420
 9546SOL     OW40096   0.083   0.314   6.891  0.0565  0.5331 -0.0169
 9546SOL    HW140097   0.023   0.255   6.937 -1.0089  1.0784 -0.7047
 9546SOL    HW240098   0.130   0.359   6.961  1.7750 -0.1185 -0.7452
 9547SOL     OW40099   0.357   3.326  13.840 -0.4586 -0.1663 -0.1066
 9547SOL    HW140100   0.282   3.331  13.900  0.3399 -0.8394  0.9629
 9547SOL    HW240101   0.425   3.335  13.908 -0.6465 -0.9204  0.1808
 9548SOL     OW40102   3.313   3.528   5.828 -0.1518  0.0944  0.1693
 9548SOL    HW140103   3.343   3.445   5.793  0.8417  0.1584  0.8811
 9548SOL    HW240104   3.312   3.590   5.754 -1.3012  1.4624  1.3281
 9549SOL     OW40105   3.595   4.553   6.095  0.4320 -0.0514  0.0945
 9549SOL    HW140106   3.521   4.560   6.156  0.8599 -0.9164  0.7039
 9549SOL    HW240107   3.552   4.502   6.026  0.2935 -0.0820  0.2036
 9550SOL     OW40108   4.445   1.948   8.944 -0.2801  0.1288 -0.6434
 9550SOL    HW140109   4.355   1.919   8.929 -0.0817 -1.5614  1.5764
 9550SOL    HW240110   4.440   2.040   8.972  0.1932 -0.7253  2.2321
 9551SOL     OW40111   2.701   3.988  17.637  0.2877  0.0117 -0.1718
 9551SOL    HW140112   2.734   3.950  17.556 -1.1113 -1.5166 -0.0245
 9551SOL    HW240113   2.731   4.077  17.620  3.0601 -0.3767  2.5807
 9552SOL     OW40114   1.623   1.763   6.201  0.4416 -0.3925  0.0435
 9552SOL    HW140115   1.693   1.771   6.265  0.4470 -0.5092  0.0523
 9552SOL    HW240116   1.644   1.842   6.150  0.5721 -1.2503 -1.2402
 9553SOL     OW40117   1.396   2.394   9.019 -0.1934  0.3726 -0.0716
 9553SOL    HW140118   1.426   2.375   9.108 -2.3885 -0.4959  0.4755
 9553SOL    HW240119   1.442   2.476   9.003 -1.4754  0.7417 -1.8888
 9554SOL     OW40120   0.950   0.795   7.148 -0.4321 -0.1885  0.0382
 9554SOL    HW140121   0.929   0.833   7.062 -0.6647  3.7087  1.8160
 9554SOL    HW240122   0.996   0.722   7.107  0.2629  0.2854 -0.0324
 9555SOL     OW40123   1.868   1.937   6.566  0.7586 -0.2151 -0.3858
 9555SOL    HW140124   1.901   2.014   6.519 -0.6422 -0.0551 -1.1140
 9555SOL    HW240125   1.886   1.866   6.505 -1.1502  0.4878 -1.7519
 9556SOL     OW40126   0.092   0.008   2.732 -0.3289  0.1381  0.5605
 9556SOL    HW140127   0.003   4.710   2.704  0.7206 -1.3023 -1.6252
 9556SOL    HW240128   0.117   0.075   2.668 -0.2863  1.2933  1.7913
 9557SOL     OW40129   1.303   1.160   9.899 -0.2201  0.7931 -0.1736
 9557SOL    HW140130   1.275   1.250   9.916 -2.0125  0.3777 -0.9169
 9557SOL    HW240131   1.345   1.137   9.982 -1.4403 -1.9452 -0.3367
 9558SOL     OW40132   4.386   0.033   5.448  0.1325 -0.3395  0.8337
 9558SOL    HW140133   4.416   0.034   5.357 -2.7668  2.0579 -0.0823
 9558SOL    HW240134   4.333   0.112   5.455 -0.3474 -0.3519 -2.7291
 9559SOL     OW40135   0.458   3.586   1.166  0.2590  0.7777 -0.1146
 9559SOL    HW140136   0.373   3.555   1.133  1.8448 -3.5695 -0.0452
 9559SOL    HW240137   0.464   3.665   1.112  0.3132  1.6586  1.1647
 9560SOL     OW40138   0.830   0.095   5.371  0.3147 -0.5949 -0.0806
 9560SOL    HW140139   0.738   0.103   5.398  1.5495  2.5472  3.2831
 9560SOL    HW240140   0.858   0.025   5.429  1.3750 -1.1925 -1.3126
 9561SOL     OW40141   3.288   1.263   4.233  0.4659  0.3853 -0.2160
 9561SOL    HW140142   3.271   1.226   4.146 -0.6851  0.1952  0.0984
 9561SOL    HW240143   3.222   1.332   4.234 -2.3562 -2.3574  2.2946
 9562SOL     OW40144   2.300   3.028  11.184 -0.7449 -0.1680 -0.1700
 9562SOL    HW140145   2.305   2.936  11.208 -0.1034 -0.6086 -2.0077
 9562SOL    HW240146   2.342   3.058  11.265  0.4024  0.1402 -0.8760
 9563SOL     OW40147   0.194   4.433   6.089 -0.3591 -0.6485  0.1317
 9563SOL    HW140148   0.189   4.344   6.056 -2.7580 -0.8723  1.0597
 9563SOL    HW240149   0.171   4.415   6.180  0.6582  0.6300  0.6366
 9564SOL     OW40150   4.484   2.748   6.249  0.0474  0.7185  0.3939
 9564SOL    HW140151   4.554   2.701   6.294 -0.6294 -2.1589 -1.5050
 9564SOL    HW240152   4.412   2.707   6.296  0.7666 -2.0046 -0.8748
 9565SOL     OW40153   3.934   0.130   5.949  0.0429 -0.4262 -0.3865
 9565SOL    HW140154   4.017   0.086   5.930  1.4037  1.0563  2.0071
 9565SOL    HW240155   3.947   0.216   5.909  2.4948 -0.5364  0.1616
   4.72358   4.72358  17.69608
