Membrane in water
40155
    1TCq1    O1    1   3.879   2.236  11.005  0.4723 -0.4890  0.5498
    1TCq1    C1    2   3.954   2.330  11.083 -0.0330 -0.1697  0.2220
    1TCq1    O2    3   4.071   2.373  11.068  0.0704 -0.1390 -1.0736
    1TCq1    C2    4   3.868   2.365  11.197  0.3889  0.4601  0.5641
    1TCq1    C3    5   3.868   2.503  11.238  0.5712  0.2446 -0.0675
    1TCq1    C4    6   3.775   2.534  11.328 -0.1978  0.0149  0.4857
    1TCq1    C5    7   3.684   2.445  11.371 -0.5924 -0.6027  0.5773
    1TCq1    C6    8   3.694   2.315  11.325  0.6702 -0.1119 -0.2058
    1TCq1    C7    9   3.779   2.269  11.237  0.3928 -0.5837  0.4236
    1TCq1    C8   10   3.576   2.234  11.361  0.0827 -0.1576 -0.5174
    1TCq1    O4   11   3.501   2.261  11.455 -0.1579 -0.4538  0.8241
    1TCq1    C9   12   3.773   2.660  11.382 -0.2614 -0.3020  0.2325
    1TCq1    O5   13   3.837   2.751  11.317  0.4846  0.0569  0.3630
    1TCq1    O6   14   3.727   2.677  11.497 -0.6401  0.3693 -0.1798
    1TCq1    H1   15   3.783   2.246  11.018  0.5718 -0.5425  1.3574
    1TCq1    H2   16   3.948   2.569  11.209  1.1596 -0.2377  0.4612
    1TCq1    H3   17   3.616   2.471  11.452 -0.5678 -2.9375  1.3363
    1TCq1    H4   18   3.796   2.164  11.213  0.6298 -0.1163 -1.4598
    2MPD2     C   19   3.284   1.818  11.220 -0.1690  0.3053 -0.1146
    2MPD2    C1   20   3.272   1.903  11.326  1.1431  0.2207  0.2104
    2MPD2    C2   21   3.356   2.012  11.335 -0.0972 -0.7669  0.4879
    2MPD2    C3   22   3.453   2.038  11.241  0.4895 -0.1559 -0.1077
    2MPD2    C4   23   3.470   1.945  11.132  0.6406 -0.0259  0.0651
    2MPD2    C5   24   3.382   1.833  11.126 -0.6654  0.0267  0.2007
    2MPD2     H   25   3.336   2.095  11.402  0.1834  0.0221 -0.3991
    2MPD2    H1   26   3.553   1.955  11.063  2.3217 -3.4010  1.6092
    2MPD2    H2   27   3.217   1.733  11.213 -1.3955  1.3199 -0.6056
    2MPD2    H3   28   3.385   1.767  11.040 -0.0124  1.8284 -1.1584
    2MPD2     N   29   3.552   2.143  11.253  0.0929  0.1386  0.9740
    2MPD2    H5   30   3.608   2.156  11.170  0.2601  2.7086  1.4974
    2MPD2    N1   31   3.164   1.890  11.420  0.0433  0.0238 -0.7240
    2MPD2    H7   32   3.140   1.973  11.474 -2.1072 -1.8831  1.2334
    3TCq1    O1   33   2.911   4.028  11.350 -0.7032 -0.6115 -0.2465
    3TCq1    C1   34   2.788   4.057  11.304 -0.9609 -0.2361 -0.1922
    3TCq1    O2   35   2.766   4.111  11.202 -1.0368  0.5783 -0.2792
    3TCq1    C2   36   2.701   3.944  11.351 -0.1841  0.4728 -0.0351
    3TCq1    C3   37   2.612   3.900  11.255 -0.3235 -0.4302 -0.4345
    3TCq1    C4   38   2.511   3.819  11.296 -0.8755  0.4357 -0.3259
    3TCq1    C5   39   2.500   3.786  11.432 -0.4245  0.6744 -0.0577
    3TCq1    C6   40   2.583   3.836  11.525 -1.0280  0.2030 -0.4777
    3TCq1    C7   41   2.678   3.925  11.478 -0.9325 -0.2769 -0.2032
    3TCq1    C8   42   2.544   3.850  11.665  0.4344 -0.5475 -0.4352
    3TCq1    O4   43   2.622   3.896  11.749  0.0916  0.4224  0.2618
    3TCq1    C9   44   2.425   3.760  11.199  0.3253 -0.5306 -0.2439
    3TCq1    O5   45   2.445   3.785  11.081  0.2896  0.3711 -0.2364
    3TCq1    O6   46   2.322   3.699  11.243  0.4033 -0.8049 -0.8225
    3TCq1    H1   47   2.911   3.963  11.423  2.0939 -0.0985  0.2213
    3TCq1    H2   48   2.617   3.946  11.157 -2.0314  0.1291 -0.2514
    3TCq1    H3   49   2.428   3.709  11.459 -0.8143  1.4582  1.1276
    3TCq1    H4   50   2.748   3.964  11.551 -0.4797 -1.9359  0.2393
    4MPD2     C   51   2.182   3.857  12.032 -0.9390 -0.3010 -0.4230
    4MPD2    C1   52   2.135   3.794  11.916  0.5121 -0.1312 -0.0256
    4MPD2    C2   53   2.210   3.789  11.806 -0.1593  0.4060  0.3741
    4MPD2    C3   54   2.339   3.833  11.801  1.4704  0.5841  0.1561
    4MPD2    C4   55   2.396   3.885  11.918  0.0754  0.3998  0.9937
    4MPD2    C5   56   2.317   3.880  12.030 -0.8718 -0.0720 -0.5671
    4MPD2     H   57   2.171   3.742  11.717 -1.0336  2.1559 -0.1560
    4MPD2    H1   58   2.496   3.927  11.928  1.6778 -3.0875 -0.2412
    4MPD2    H2   59   2.134   3.874  12.128  0.2223  1.2516 -0.1297
    4MPD2    H3   60   2.361   3.923  12.120  1.1731  0.4380 -1.8083
    4MPD2     N   61   2.412   3.817  11.679 -0.6152 -0.0986  0.0293
    4MPD2    H5   62   2.358   3.802  11.594 -0.2814  0.8131 -0.3504
    4MPD2    N1   63   2.003   3.755  11.909 -0.3603 -0.8785 -0.1757
    4MPD2    H7   64   1.980   3.702  11.826  0.9966  4.1074 -3.7532
    5TCq1    O1   65   3.331   0.010  12.209  0.3463  0.8151 -0.1670
    5TCq1    C1   66   3.403   0.045  12.099 -0.5744  0.7422  0.5477
    5TCq1    O2   67   3.499   4.701  12.058  0.3474  0.3942 -0.1666
    5TCq1    C2   68   3.304   0.097  12.003  0.4151 -0.1689  0.2030
    5TCq1    C3   69   3.219   0.191  12.051 -0.7742  0.7498  0.0452
    5TCq1    C4   70   3.104   0.227  11.986 -0.2449 -0.7343 -0.5604
    5TCq1    C5   71   3.076   0.159  11.871 -1.0862  0.0518  0.1663
    5TCq1    C6   72   3.163   0.070  11.825  0.1485 -0.2685  0.7218
    5TCq1    C7   73   3.281   0.034  11.887  0.4389 -0.0053 -0.1286
    5TCq1    C8   74   3.150   4.721  11.698  1.6917 -0.2833 -0.5407
    5TCq1    O4   75   3.217   4.618  11.681  1.2624 -0.2528  0.2569
    5TCq1    C9   76   3.008   0.320  12.041  0.6255 -0.3404  0.4339
    5TCq1    O5   77   2.905   0.348  11.970  1.0387  0.4036  0.3799
    5TCq1    O6   78   3.049   0.396  12.134 -0.0845 -0.2543  0.1432
    5TCq1    H1   79   3.244   0.056  12.213  0.3594  0.6789  1.6126
    5TCq1    H2   80   3.232   0.242  12.146  1.2418  0.4648 -0.0707
    5TCq1    H3   81   2.990   0.200  11.819 -1.3507  0.5107  0.9521
    5TCq1    H4   82   3.350   4.685  11.849 -0.5486 -1.6503  1.2654
    6MPD2     C   83   2.976   0.101  11.384  0.2457  0.6603  0.0198
    6MPD2    C1   84   3.041   0.019  11.472  0.5023  0.6158  0.5190
    6MPD2    C2   85   3.080   4.622  11.429 -0.1074  1.0094  0.1613
    6MPD2    C3   86   3.058   4.579  11.296  0.3885 -0.6496  0.0839
    6MPD2    C4   87   2.991   4.667  11.213 -0.6107  0.1547  0.2127
    6MPD2    C5   88   2.949   0.060  11.259  0.0067  0.4602 -0.2011
    6MPD2     H   89   3.129   4.552  11.496 -1.0312  1.9252  1.7986
    6MPD2    H1   90   2.963   4.632  11.115 -1.5147 -1.3453  1.0025
    6MPD2    H2   91   2.941   0.198  11.417  2.3440  1.8937 -1.4149
    6MPD2    H3   92   2.895   0.131  11.196  1.8443  1.8977 -0.1782
    6MPD2     N   93   3.110   4.451  11.263  0.7314  0.2865 -0.1352
    6MPD2    H5   94   3.164   4.397  11.329  2.0710 -1.9108 -3.0051
    6MPD2    N1   95   3.064   0.058  11.605 -0.2763 -0.3617 -0.0824
    6MPD2    H7   96   3.043   0.156  11.622  1.2002 -0.0515 -0.0433
    7TCq1    O1   97   4.551   0.110  13.165 -0.3901  0.8431  0.7372
    7TCq1    C1   98   4.649   0.061  13.248 -0.5922  0.3806  0.0547
    7TCq1    O2   99   4.665   0.098  13.363 -0.0101  0.1713 -0.0131
    7TCq1    C2  100   4.665   4.644  13.214 -0.5563 -0.4853  0.2446
    7TCq1    C3  101   4.590   4.585  13.117 -0.0584  0.0032  0.6277
    7TCq1    C4  102   4.614   4.452  13.098  0.7387  0.1652  0.5295
    7TCq1    C5  103   4.698   4.378  13.177  0.4967  0.0238 -0.5263
    7TCq1    C6  104   0.048   4.442  13.267 -0.1550  0.5381 -0.9548
    7TCq1    C7  105   0.036   4.577  13.287 -0.7410 -0.1453 -0.3002
    7TCq1    C8  106   0.152   4.371  13.345  0.5105  0.4978 -0.0754
    7TCq1    O4  107   0.174   4.256  13.318  0.0656 -0.2888  0.2645
    7TCq1    C9  108   4.551   4.383  12.995 -0.2754  0.1086  0.3974
    7TCq1    O5  109   4.520   4.460  12.898 -0.1414  0.6390 -0.0725
    7TCq1    O6  110   4.557   4.256  12.993 -0.6920  0.0578 -0.2430
    7TCq1    H1  111   4.525   0.064  13.082  2.0637  0.2362  0.3046
    7TCq1    H2  112   4.512   4.633  13.059 -0.0473 -1.5582 -0.6887
    7TCq1    H3  113   4.719   4.275  13.152 -0.7362 -0.5355  0.7760
    7TCq1    H4  114   0.084   4.637  13.363 -1.0444  1.5435 -1.4298
    8MPD2     C  115   0.528   4.366  13.703 -0.1222 -0.3134 -0.6218
    8MPD2    C1  116   0.508   4.291  13.592  0.6844  0.1893  0.2197
    8MPD2    C2  117   0.400   4.308  13.502 -0.5029  0.4619 -0.7217
    8MPD2    C3  118   0.313   4.411  13.531 -0.1360 -0.4455 -0.6596
    8MPD2    C4  119   0.330   4.486  13.644 -0.6502 -0.1438 -0.7118
    8MPD2    C5  120   0.440   4.466  13.731 -0.7735  0.1468 -0.3698
    8MPD2     H  121   0.386   4.238  13.420  0.4810 -0.6190  0.0223
    8MPD2    H1  122   0.270   4.574  13.666  0.0253 -0.2092  1.3415
    8MPD2    H2  123   0.615   4.349  13.766  0.7881  0.8518 -1.5581
    8MPD2    H3  124   0.455   4.530  13.817 -1.2042 -0.0793 -0.1228
    8MPD2     N  125   0.212   4.449  13.445 -0.4147  0.4339  0.8110
    8MPD2    H5  126   0.157   4.527  13.479 -0.9122 -0.9379  3.1666
    8MPD2    N1  127   0.582   4.171  13.588  0.6429 -0.0113  0.0224
    8MPD2    H7  128   0.660   4.169  13.652  0.9938 -0.1484 -0.4105
    9TCq1    O1  129   2.909   2.343  10.845  0.5232  0.0174  0.1341
    9TCq1    C1  130   2.981   2.300  10.740  0.1222 -0.3873 -0.0022
    9TCq1    O2  131   2.968   2.194  10.685 -0.4534 -0.5221  0.0885
    9TCq1    C2  132   3.110   2.374  10.755  0.1737 -0.3399  0.0999
    9TCq1    C3  133   3.219   2.317  10.692 -0.7829  0.0279 -0.0326
    9TCq1    C4  134   3.330   2.387  10.672 -0.7235 -0.2579 -0.1280
    9TCq1    C5  135   3.347   2.510  10.730  0.0027 -0.1496  0.2148
    9TCq1    C6  136   3.240   2.572  10.785  0.7638  0.3652 -0.2150
    9TCq1    C7  137   3.114   2.508  10.797  0.4153 -0.3644 -0.2151
    9TCq1    C8  138   3.263   2.691  10.857  0.0356  0.0783  0.5153
    9TCq1    O4  139   3.373   2.751  10.850 -0.2257  0.1477  0.0453
    9TCq1    C9  140   3.451   2.333  10.620  0.0670  0.0444  0.1269
    9TCq1    O5  141   3.462   2.209  10.613 -0.1043 -0.4533 -0.0615
    9TCq1    O6  142   3.556   2.403  10.604  0.0499  0.0789  0.1241
    9TCq1    H1  143   2.929   2.430  10.886 -0.8811  0.4299 -0.0655
    9TCq1    H2  144   3.216   2.218  10.648  2.1209 -0.2637  0.4099
    9TCq1    H3  145   3.438   2.565  10.711 -0.0660 -1.2613 -3.3938
    9TCq1    H4  146   3.024   2.555  10.835  2.1252  1.3706  1.6839
   10MPD2     C  147   3.212   2.940  11.003  0.9949  0.6549 -0.0135
   10MPD2    C1  148   3.161   2.817  11.048 -0.1000  0.0561  0.2776
   10MPD2    C2  149   3.087   2.818  11.165  0.8577  0.2716 -0.3863
   10MPD2    C3  150   3.067   2.934  11.239 -0.1316 -0.3477  0.3236
   10MPD2    C4  151   3.127   3.050  11.191 -0.0274  0.1799  0.0167
   10MPD2    C5  152   3.197   3.055  11.080 -0.1061 -0.3456 -0.5323
   10MPD2     H  153   3.039   2.726  11.198  2.5317  0.3701  2.3411
   10MPD2    H1  154   3.127   3.149  11.236 -0.7907  0.2707 -0.1736
   10MPD2    H2  155   3.278   2.945  10.918 -0.8409  0.5469 -1.4470
   10MPD2    H3  156   3.242   3.152  11.064 -2.2779  0.6572 -0.5492
   10MPD2     N  157   2.989   2.947  11.359  0.6183 -0.0352  0.5670
   10MPD2    H5  158   2.978   3.044  11.388  1.7222 -0.2442  1.6678
   10MPD2    N1  159   3.170   2.705  10.963 -0.0445  0.5423  0.2077
   10MPD2    H7  160   3.094   2.640  10.974  1.0335 -0.4005  2.0314
   11TCq1    O1  161   4.219   3.147  14.203 -0.1587  0.4503  0.0435
   11TCq1    C1  162   4.092   3.171  14.164 -0.4023 -0.3826  0.4847
   11TCq1    O2  163   4.025   3.273  14.168  0.1285  0.1600 -0.2322
   11TCq1    C2  164   4.025   3.044  14.145 -0.0419 -0.1788 -0.5761
   11TCq1    C3  165   4.111   2.954  14.090 -0.5246  0.4569 -0.1897
   11TCq1    C4  166   4.070   2.820  14.099  0.5972 -0.6258  0.1442
   11TCq1    C5  167   3.944   2.787  14.154 -0.6769 -0.5293  0.0112
   11TCq1    C6  168   3.872   2.889  14.209 -0.5562 -0.2028  0.2767
   11TCq1    C7  169   3.914   3.021  14.218 -0.2894  0.0703  0.2572
   11TCq1    C8  170   3.734   2.874  14.248 -0.3952  0.1355 -0.3893
   11TCq1    O4  171   3.680   2.963  14.311  0.0495 -0.0024 -0.6561
   11TCq1    C9  172   4.134   2.722  14.009  0.2177 -0.1110  0.4788
   11TCq1    O5  173   4.087   2.609  13.992  0.8402 -0.1071 -0.1470
   11TCq1    O6  174   4.224   2.770  13.940  0.4025  0.0956  0.0729
   11TCq1    H1  175   4.240   3.052  14.218 -1.3460  0.0813 -0.6572
   11TCq1    H2  176   4.194   2.978  14.025 -0.2201 -0.4897 -0.1530
   11TCq1    H3  177   3.895   2.692  14.138 -0.5889 -0.1920 -2.2551
   11TCq1    H4  178   3.851   3.097  14.262 -2.2916 -1.0395 -0.6829
   12MPD2     C  179   3.466   2.781  14.323 -0.1111  0.6015  0.2946
   12MPD2    C1  180   3.544   2.726  14.229  0.2979  0.1310  0.7996
   12MPD2    C2  181   3.498   2.610  14.167 -0.0292  0.4632  0.1490
   12MPD2    C3  182   3.381   2.553  14.194  0.0336 -0.0435 -0.4770
   12MPD2    C4  183   3.292   2.609  14.287 -0.6122  0.0032  0.1306
   12MPD2    C5  184   3.348   2.717  14.353 -0.1064 -0.3889 -0.3390
   12MPD2     H  185   3.555   2.568  14.085 -1.5396 -2.1904  0.4845
   12MPD2    H1  186   3.193   2.573  14.312 -0.3653 -0.7340  0.0676
   12MPD2    H2  187   3.503   2.867  14.378  0.2989 -0.5387  1.7986
   12MPD2    H3  188   3.292   2.771  14.429 -0.9458  0.6535 -1.6984
   12MPD2     N  189   3.327   2.439  14.126  0.1962  0.2971 -0.0615
   12MPD2    H5  190   3.226   2.424  14.129  0.2805 -0.6268 -1.9778
   12MPD2    N1  191   3.674   2.771  14.194  0.9986  0.0143  0.1664
   12MPD2    H7  192   3.714   2.718  14.117 -2.1081 -2.3438  0.1501
   13TCq1    O1  193   3.476   2.806  11.095  0.1242  0.2692 -0.3641
   13TCq1    C1  194   3.433   2.718  11.194 -0.3896  0.2731 -0.5610
   13TCq1    O2  195   3.416   2.734  11.313 -0.5517  0.4815  0.2525
   13TCq1    C2  196   3.413   2.591  11.137  0.1619  0.2202  0.3341
   13TCq1    C3  197   3.504   2.528  11.052 -0.0526  0.4566 -0.2774
   13TCq1    C4  198   3.482   2.403  11.008  0.2175 -0.3150 -0.4637
   13TCq1    C5  199   3.371   2.333  11.055 -0.2371  0.1095 -0.4483
   13TCq1    C6  200   3.279   2.395  11.137 -0.7536 -0.4337  0.2034
   13TCq1    C7  201   3.301   2.525  11.183  0.0378  0.1389  0.1655
   13TCq1    C8  202   3.148   2.338  11.162  0.1071  0.6659 -0.3478
   13TCq1    O4  203   3.095   2.393  11.259 -0.2239 -0.4321  0.1267
   13TCq1    C9  204   3.603   2.337  10.949 -0.0587 -0.7245  0.1616
   13TCq1    O5  205   3.682   2.409  10.883 -0.1220  0.0992 -0.2447
   13TCq1    O6  206   3.623   2.219  10.985  0.3000 -0.6819  0.4086
   13TCq1    H1  207   3.464   2.768  11.005  0.5858 -2.7830  0.8831
   13TCq1    H2  208   3.604   2.570  11.056  1.5099 -3.3663  0.6923
   13TCq1    H3  209   3.354   2.231  11.023 -1.7112 -0.5651  2.4996
   13TCq1    H4  210   3.237   2.578  11.252  1.7734  0.9774  1.1412
   14MPD2     C  211   3.019   1.998  11.116 -0.5876 -0.1375 -0.6660
   14MPD2    C1  212   3.008   2.134  11.137 -0.0568 -0.4988  0.0134
   14MPD2    C2  213   2.905   2.183  11.213 -0.2098  0.7552 -0.0944
   14MPD2    C3  214   2.796   2.104  11.262 -0.3395  0.5275  0.5787
   14MPD2    C4  215   2.800   1.965  11.235  0.0024  0.3332 -0.2304
   14MPD2    C5  216   2.914   1.922  11.169  0.7144  0.1697  0.7778
   14MPD2     H  217   2.893   2.283  11.254 -0.5858 -0.6237  3.1596
   14MPD2    H1  218   2.717   1.902  11.263 -1.3528  1.4493 -1.7511
   14MPD2    H2  219   3.097   1.953  11.056 -0.1863 -0.4753  0.1021
   14MPD2    H3  220   2.922   1.814  11.157 -0.6904  0.1573 -0.1093
   14MPD2     N  221   2.693   2.162  11.335 -0.6018  0.0995 -0.1087
   14MPD2    H5  222   2.691   2.263  11.334  1.6327  0.1467  1.0826
   14MPD2    N1  223   3.119   2.216  11.101 -0.3812 -0.0277 -0.2717
   14MPD2    H7  224   3.180   2.184  11.025  0.0284 -0.0584  0.0687
   15TCq1    O1  225   4.366   2.122   1.656 -0.6356 -0.2893  0.0418
   15TCq1    C1  226   4.428   2.124   1.540 -0.2926  0.1606  0.7625
   15TCq1    O2  227   4.383   2.168   1.435  0.4196  0.2162  0.1615
   15TCq1    C2  228   4.572   2.085   1.565  0.6875 -0.0984  0.2637
   15TCq1    C3  229   4.647   2.133   1.673  0.1803 -0.6602 -0.1059
   15TCq1    C4  230   0.049   2.081   1.684  0.1580 -0.2264  0.2181
   15TCq1    C5  231   0.098   1.979   1.607  0.6128 -0.3102 -0.3315
   15TCq1    C6  232   0.026   1.953   1.490 -0.3470  0.3088 -0.4432
   15TCq1    C7  233   4.622   2.001   1.471  0.0985 -0.9610  1.0042
   15TCq1    C8  234   0.087   1.857   1.397  0.6740  0.3731 -0.6112
   15TCq1    O4  235   0.195   1.800   1.418 -0.5418  0.3627  0.1449
   15TCq1    C9  236   0.123   2.105   1.801  0.4173 -0.0782  0.1447
   15TCq1    O5  237   0.198   2.020   1.858 -0.1833 -0.0100 -0.0281
   15TCq1    O6  238   0.103   2.221   1.842  0.0364  0.2680 -0.1086
   15TCq1    H1  239   4.417   2.073   1.724  0.5666  0.2637 -0.4571
   15TCq1    H2  240   4.604   2.197   1.748 -0.2354 -0.3948 -0.5707
   15TCq1    H3  241   0.195   1.932   1.625 -0.7518 -2.8338  0.4871
   15TCq1    H4  242   4.556   1.979   1.388 -1.3859 -0.7273  2.1208
   16MPD2     C  243   4.678   1.793   1.050  0.5742 -0.6518 -0.1782
   16MPD2    C1  244   0.028   1.773   1.168  0.4709 -0.1734  0.1286
   16MPD2    C2  245   0.107   1.658   1.163  0.4397  1.1895 -0.1211
   16MPD2    C3  246   0.124   1.582   1.045 -0.3232 -0.3600 -0.1830
   16MPD2    C4  247   0.039   1.604   0.945 -0.3320 -0.0710  0.3390
   16MPD2    C5  248   4.676   1.703   0.949  0.2529 -0.4447  0.0268
   16MPD2     H  249   0.172   1.641   1.248  1.2410  1.1150 -0.7513
   16MPD2    H1  250   0.049   1.538   0.859 -0.4457 -1.0651  1.0922
   16MPD2    H2  251   4.612   1.879   1.042 -0.3349 -1.0289  3.2991
   16MPD2    H3  252   4.611   1.723   0.865 -1.0284 -3.1214  0.4061
   16MPD2     N  253   0.223   1.481   1.049  0.6286  0.0265 -0.0650
   16MPD2    H5  254   0.283   1.487   1.130  0.3265 -1.5634  0.2777
   16MPD2    N1  255   0.017   1.862   1.280  0.2856  0.4616  0.4334
   16MPD2    H7  256   4.664   1.925   1.264  0.1480 -0.0602 -0.9841
   17TCq1    O1  257   2.937   1.118  10.190  0.2086 -0.4900  0.2959
   17TCq1    C1  258   2.875   1.212  10.255 -0.9799  0.4304  0.1540
   17TCq1    O2  259   2.804   1.189  10.355 -0.1224 -0.3121 -0.0611
   17TCq1    C2  260   2.976   1.315  10.247  0.7018  0.0648  0.2125
   17TCq1    C3  261   3.020   1.355  10.119  0.5732  0.0011 -0.5371
   17TCq1    C4  262   3.131   1.433  10.109  0.4330 -0.1246  0.1202
   17TCq1    C5  263   3.190   1.482  10.222  0.4362  0.1537  0.2688
   17TCq1    C6  264   3.151   1.433  10.346  0.2857 -0.7528 -0.4430
   17TCq1    C7  265   3.042   1.352  10.361 -0.2489 -0.1348  0.1483
   17TCq1    C8  266   3.217   1.469  10.469 -0.3581 -0.1334  0.3482
   17TCq1    O4  267   3.137   1.487  10.563  0.7220  0.0927  0.1413
   17TCq1    C9  268   3.193   1.450   9.986 -0.8103  0.4605 -0.3076
   17TCq1    O5  269   3.135   1.398   9.887 -0.0126 -0.3389 -0.7636
   17TCq1    O6  270   3.311   1.499   9.988 -0.4144 -0.0906  0.0343
   17TCq1    H1  271   2.994   1.164  10.125  0.2809 -1.9763 -0.7005
   17TCq1    H2  272   2.972   1.319  10.029  1.4728  1.7124 -1.6914
   17TCq1    H3  273   3.270   1.555  10.213  0.4547  0.0202 -0.6334
   17TCq1    H4  274   3.013   1.314  10.458  1.3653 -0.9265  0.3172
   18MPD2     C  275   3.413   1.565  10.673  0.3322  0.1910 -0.3386
   18MPD2    C1  276   3.448   1.528  10.543  0.1963  0.0443  0.3288
   18MPD2    C2  277   3.580   1.529  10.504 -0.2402  0.5582 -0.5182
   18MPD2    C3  278   3.682   1.570  10.589  0.0458  0.3236  0.2027
   18MPD2    C4  279   3.641   1.611  10.714  0.1007 -0.8521  0.1054
   18MPD2    C5  280   3.514   1.605  10.755  0.5863 -0.3285  0.0235
   18MPD2     H  281   3.596   1.489  10.404 -0.8924 -0.0888 -0.3647
   18MPD2    H1  282   3.713   1.645  10.787 -0.0144  1.4610 -0.8458
   18MPD2    H2  283   3.311   1.588  10.701  0.5300  1.1104 -0.3831
   18MPD2    H3  284   3.489   1.655  10.848 -1.5506  0.5126 -1.0041
   18MPD2     N  285   3.824   1.584  10.559 -0.1326  0.6862  0.2129
   18MPD2    H5  286   3.883   1.624  10.632  1.2895 -1.1395  0.0810
   18MPD2    N1  287   3.351   1.487  10.449  0.3945 -0.6031 -0.0447
   18MPD2    H7  288   3.388   1.459  10.359 -0.5788  1.3549 -1.0285
   19TMC2    C1  289   0.055   2.240  13.563  0.6772  0.5920 -0.9243
   19TMC2    C2  290   0.110   2.201  13.442  0.6034 -0.4110  0.1922
   19TMC2    C3  291   0.031   2.121  13.364  0.0096  0.2482  0.6567
   19TMC2    C4  292   4.657   2.205  13.603 -0.5407 -0.3537 -0.3845
   19TMC2    C5  293   4.592   2.108  13.526  0.2293  0.7872 -0.1970
   19TMC2    C6  294   4.636   2.074  13.404  0.8340 -0.2707 -0.1126
   19TMC2     C  295   0.131   2.342  13.640 -1.0751  0.1809  0.4393
   19TMC2     O  296   0.219   2.405  13.575 -0.0433 -0.3302  0.0906
   19TMC2     H  297   0.212   2.232  13.425  0.8875 -1.5650 -0.2004
   19TMC2    H1  298   4.619   2.227  13.702  1.6363 -3.2904  1.1164
   19TMC2    H2  299   4.571   2.015  13.342 -1.2169  0.0106  1.7563
   19TMC2    C7  300   4.481   2.030  13.588 -0.1476  0.4356 -0.8297
   19TMC2    C8  301   0.090   2.056  13.252 -0.2486 -1.1125 -0.4119
   19TMC2    O1  302   4.479   1.909  13.571 -0.2048 -0.4504 -0.2070
   19TMC2    O2  303   0.037   1.953  13.208 -0.2121 -0.1817 -0.6560
   19TMC2    O5  304   0.226   2.081  13.230 -0.5607  0.0795  0.0415
   19TMC2    H5  305   0.249   2.175  13.248  0.4755 -0.6798  2.7694
   20MPD2     C  306   0.227   2.552  13.842  0.3655  0.3314  0.3680
   20MPD2    C1  307   0.152   2.442  13.873 -1.1284  0.1312  0.1978
   20MPD2    C2  308   0.115   2.424  14.009 -0.4824  0.9609 -0.5759
   20MPD2    C3  309   0.155   2.519  14.104  0.3067  0.5427  0.2333
   20MPD2    C4  310   0.239   2.623  14.070  0.3106  0.3538 -0.0834
   20MPD2    C5  311   0.273   2.641  13.939  0.4490  0.3079  0.0764
   20MPD2     H  312   0.054   2.337  14.032 -0.0883  1.6901  3.2140
   20MPD2    H1  313   0.270   2.694  14.147 -1.9906  0.9614  0.2905
   20MPD2    H2  314   0.261   2.560  13.739  2.0703 -3.1374  0.6700
   20MPD2    H3  315   0.335   2.727  13.913 -0.0370  0.9801  1.1655
   20MPD2     N  316   0.108   2.502  14.235  0.4718  0.0748  0.2208
   20MPD2    H5  317   0.154   2.569  14.296 -2.3078  1.6218  0.5976
   20MPD2    N1  318   0.110   2.346  13.776  0.2242  0.2476 -0.0142
   20MPD2    H7  319   0.053   2.266  13.802 -0.3203  0.1339 -1.5655
   21MPD2     C  320   2.075   3.004  14.746 -0.2480  0.8514  0.3508
   21MPD2    C1  321   2.074   2.871  14.802 -0.0484 -0.4157 -0.5432
   21MPD2    C2  322   1.955   2.806  14.828  0.0418 -0.2244 -0.6719
   21MPD2    C3  323   1.836   2.879  14.826  0.4127 -0.1996  0.0295
   21MPD2    C4  324   1.833   3.006  14.769  0.0381 -0.3196  0.0987
   21MPD2    C5  325   1.955   3.067  14.729  0.0076  0.5621 -0.1481
   21MPD2     H  326   1.965   2.703  14.861 -0.3519  0.3892  1.3918
   21MPD2    H1  327   1.739   3.058  14.758  0.4441  0.5448  0.6103
   21MPD2    H2  328   2.162   3.061  14.714  0.6476 -0.3988  0.5867
   21MPD2    H3  329   1.956   3.160  14.674  1.9210  0.0263 -1.0275
   21MPD2     N  330   1.719   2.835  14.886 -0.0954  0.1813 -0.3447
   21MPD2    H5  331   1.634   2.891  14.880  2.0452  3.9735  4.8055
   21MPD2    N1  332   2.189   2.794  14.821 -0.1427 -0.4199  0.4126
   21MPD2    H7  333   2.179   2.697  14.850 -0.8679 -0.5336 -0.2248
   22TCq2    C1  334   1.704   2.718  14.957 -0.2311  0.3564 -0.2620
   22TCq2    O2  335   1.792   2.634  14.990 -0.3014 -0.3423 -0.3040
   22TCq2    C2  336   1.580   2.685  15.003  0.5252 -0.2360 -0.3850
   22TCq2    C3  337   1.577   2.612  15.123 -0.1141 -0.2220 -0.5941
   22TCq2    C4  338   1.458   2.579  15.165  0.5792  0.2513  0.2614
   22TCq2    C5  339   1.340   2.603  15.097 -0.0404  0.1982 -0.6546
   22TCq2    C6  340   1.343   2.676  14.976 -0.7316  0.3907 -0.3131
   22TCq2    C7  341   1.467   2.718  14.930 -0.0138  0.3349 -1.2676
   22TCq2    C8  342   1.230   2.670  14.892 -0.1376  0.6078 -0.0994
   22TCq2    O4  343   1.151   2.576  14.902 -0.4218  0.1085 -1.0958
   22TCq2    C9  344   1.446   2.528  15.305 -0.1913  0.3561  0.1089
   22TCq2    O5  345   1.334   2.530  15.362 -0.4631 -0.6474  0.0299
   22TCq2    O6  346   1.550   2.484  15.359  0.2474  0.1337 -0.4502
   22TCq2    H2  347   1.672   2.594  15.173  0.4728 -0.2193 -1.7246
   22TCq2    H3  348   1.249   2.551  15.124  0.2500  0.0113 -0.0205
   22TCq2    H4  349   1.486   2.760  14.832 -0.9387  0.6714 -1.3010
   23MPD2     C  350   3.161   3.776  15.270 -0.0104 -0.1824 -0.7214
   23MPD2    C1  351   3.273   3.719  15.210  0.2223 -0.3718 -0.0264
   23MPD2    C2  352   3.267   3.630  15.098  0.0382 -0.1829  0.6757
   23MPD2    C3  353   3.142   3.615  15.029 -0.6873  0.0241  0.5229
   23MPD2    C4  354   3.035   3.679  15.084 -0.5624  0.9346  0.3308
   23MPD2    C5  355   3.040   3.753  15.199 -0.5936  0.2109  0.8870
   23MPD2     H  356   3.360   3.583  15.071 -0.0544  1.1042 -1.9432
   23MPD2    H1  357   2.942   3.658  15.033  0.5039 -0.1803 -1.1372
   23MPD2    H2  358   3.168   3.818  15.370  2.5365  0.0784 -1.0206
   23MPD2    H3  359   2.941   3.784  15.231 -1.0852  0.8132 -1.1795
   23MPD2     N  360   3.128   3.536  14.919  0.4251 -0.5657  0.0838
   23MPD2    H5  361   3.036   3.528  14.877  1.1146 -1.3813 -1.2691
   23MPD2    N1  362   3.399   3.723  15.275 -0.1711  0.2593 -0.1030
   23MPD2    H7  363   3.467   3.658  15.237  0.6348 -0.5471  2.7040
   24TCq2    C1  364   3.230   3.490  14.842  0.1544 -0.1287  0.4817
   24TCq2    O2  365   3.350   3.516  14.846  0.1435  0.4637  0.1987
   24TCq2    C2  366   3.170   3.427  14.729 -0.5322 -0.5436  0.2105
   24TCq2    C3  367   3.226   3.464  14.607 -0.3539  0.6194  0.0559
   24TCq2    C4  368   3.141   3.458  14.492 -0.9221 -0.2990  0.0173
   24TCq2    C5  369   3.016   3.404  14.500  0.0620 -0.0099 -0.1481
   24TCq2    C6  370   2.963   3.374  14.619  0.1740  0.2697 -0.3755
   24TCq2    C7  371   3.037   3.389  14.735  0.0493  0.7387 -0.0055
   24TCq2    C8  372   2.833   3.309  14.637 -1.1881  0.5054 -0.1774
   24TCq2    O4  373   2.810   3.252  14.747 -0.4086 -0.1681 -0.0771
   24TCq2    C9  374   3.191   3.519  14.370  0.0055  0.0202 -0.0461
   24TCq2    O5  375   3.309   3.558  14.367 -0.1502 -0.1593  0.8309
   24TCq2    O6  376   3.105   3.552  14.291 -0.6139 -0.1626 -0.1682
   24TCq2    H2  377   3.322   3.513  14.604 -1.1802  2.0958 -2.1904
   24TCq2    H3  378   2.962   3.382  14.409 -1.2194  0.6887  0.4422
   24TCq2    H4  379   2.994   3.358  14.829  0.8379  0.6118  0.3086
   25TMC2    C1  380   2.517   1.276  11.247 -0.5140  0.3784 -0.2363
   25TMC2    C2  381   2.645   1.327  11.265  0.1763 -0.6396 -0.3937
   25TMC2    C3  382   2.678   1.374  11.393  0.2664 -0.3077  0.4502
   25TMC2    C4  383   2.421   1.269  11.351 -0.0753  0.0321 -0.4163
   25TMC2    C5  384   2.462   1.334  11.456 -0.3092  0.0623 -0.4457
   25TMC2    C6  385   2.584   1.385  11.492  0.0506 -0.2018  0.2943
   25TMC2     C  386   2.481   1.247  11.108 -0.1599  0.6926 -0.5585
   25TMC2     O  387   2.551   1.283  11.016  0.0225 -0.3769  0.2785
   25TMC2     H  388   2.712   1.332  11.180  0.9084  1.1604  0.3006
   25TMC2    H1  389   2.325   1.228  11.321  1.6756 -1.0987 -4.3896
   25TMC2    H2  390   2.610   1.425  11.589  0.2628  1.5913 -0.4997
   25TMC2    C7  391   2.384   1.311  11.574  0.9763 -0.1418  0.2267
   25TMC2    C8  392   2.816   1.406  11.425 -0.1919  0.8192 -1.1943
   25TMC2    O1  393   2.402   1.381  11.670  0.0287  0.6677  0.3815
   25TMC2    O2  394   2.916   1.358  11.374 -0.1126 -0.0963 -0.3053
   25TMC2    O5  395   2.816   1.531  11.485  0.1263 -0.2324 -0.0249
   25TMC2    H5  396   2.727   1.567  11.504  0.4114  0.9104 -0.9020
   26MPD2     C  397   2.146   1.048  10.783  0.4740  0.2733  0.5497
   26MPD2    C1  398   2.124   0.995  10.904  0.3759  0.0865  0.5513
   26MPD2    C2  399   2.213   1.012  11.001  0.3822 -0.6148  0.0003
   26MPD2    C3  400   2.317   1.105  10.993 -0.6720  0.1239  0.0929
   26MPD2    C4  401   2.325   1.183  10.879 -0.5365 -0.0707  0.4199
   26MPD2    C5  402   2.236   1.153  10.778 -0.2386  0.2729 -0.3559
   26MPD2     H  403   2.208   0.963  11.098 -1.7081 -0.2739  0.0657
   26MPD2    H1  404   2.400   1.256  10.852  0.0885 -0.4352  1.1513
   26MPD2    H2  405   2.084   1.022  10.698 -1.2538 -0.2526  1.9608
   26MPD2    H3  406   2.251   1.204  10.684 -1.9101  2.8515  0.7708
   26MPD2     N  407   2.386   1.145  11.105 -0.6601 -0.2291  0.0714
   26MPD2    H5  408   2.380   1.087  11.188 -1.7674 -1.5276 -0.9217
   26MPD2    N1  409   2.024   0.895  10.907 -0.8390  0.2466 -0.2887
   26MPD2    H7  410   1.968   0.877  10.824 -0.4560  0.9428 -0.6922
   27TMC2    C1  411   1.000   2.627  11.971 -0.2192 -0.2712 -0.6588
   27TMC2    C2  412   0.903   2.533  11.960 -0.3867  0.9486  0.0066
   27TMC2    C3  413   0.773   2.568  11.935  0.0188 -0.5111 -0.3563
   27TMC2    C4  414   0.966   2.754  11.943  0.0385 -0.5787  0.3491
   27TMC2    C5  415   0.834   2.784  11.907 -0.0867 -0.3816 -0.7365
   27TMC2    C6  416   0.741   2.690  11.897  0.2013 -0.3853 -0.8529
   27TMC2     C  417   1.055   2.618  12.107 -0.4426 -0.0627 -0.3805
   27TMC2     O  418   1.130   2.526  12.134  0.3399  0.0675  0.0706
   27TMC2     H  419   0.935   2.430  11.973  0.2476  1.0689 -0.5426
   27TMC2    H1  420   1.033   2.839  11.948 -1.5177  0.8195 -2.5798
   27TMC2    H2  421   0.641   2.721  11.872 -0.7133 -1.0300  2.0662
   27TMC2    C7  422   0.793   2.905  11.968 -0.4599  0.2711  0.4172
   27TMC2    C8  423   0.696   2.460  11.877 -0.7630 -0.2580  0.5732
   27TMC2    O1  424   0.751   2.904  12.083 -0.5710 -0.5329 -0.1273
   27TMC2    O2  425   0.577   2.434  11.900  0.0667  0.6162  0.3661
   27TMC2    O5  426   0.772   2.385  11.794  0.4382 -0.0597  0.6802
   27TMC2    H5  427   0.861   2.421  11.775  0.2796  0.8308  1.6206
   28MPD2     C  428   0.970   2.733  12.601  0.8262  0.0067 -0.7996
   28MPD2    C1  429   0.912   2.833  12.525 -0.5660 -0.1082  0.3124
   28MPD2    C2  430   0.936   2.829  12.385 -0.9915  0.4840 -0.1799
   28MPD2    C3  431   1.005   2.728  12.324 -0.2359 -0.3402 -0.2852
   28MPD2    C4  432   1.060   2.633  12.408  0.3341  0.7209 -0.9666
   28MPD2    C5  433   1.038   2.633  12.544  0.0495 -0.0863 -0.2269
   28MPD2     H  434   0.880   2.900  12.325 -1.3758 -0.4608 -0.9230
   28MPD2    H1  435   1.108   2.544  12.369 -0.0572  0.6902 -1.3764
   28MPD2    H2  436   0.956   2.725  12.709 -0.1120  2.4802 -0.7334
   28MPD2    H3  437   1.087   2.557  12.604  1.0006 -0.3460 -1.3322
   28MPD2     N  438   1.004   2.724  12.182 -0.2998  0.4848 -0.1114
   28MPD2    H5  439   0.945   2.789  12.130 -0.1720  0.0712 -0.7771
   28MPD2    N1  440   0.818   2.927  12.590 -0.7217 -0.0482  0.1068
   28MPD2    H7  441   0.819   2.917  12.691  0.4537  2.2608  0.3324
   29MPD2     C  442   0.661   0.792  14.291 -0.1845 -0.0711  0.2047
   29MPD2    C1  443   0.794   0.769  14.307 -0.0243  0.2953 -0.4050
   29MPD2    C2  444   0.878   0.881  14.322 -0.0623  0.4763  0.2446
   29MPD2    C3  445   0.827   1.003  14.329 -0.2521  0.4441 -0.4262
   29MPD2    C4  446   0.691   1.022  14.311  0.2153 -0.3276 -0.3480
   29MPD2    C5  447   0.612   0.918  14.301  0.3644  0.2444  0.3317
   29MPD2     H  448   0.984   0.866  14.341 -0.1731 -1.5199 -0.7312
   29MPD2    H1  449   0.643   1.117  14.330  1.0813 -0.0811  0.5799
   29MPD2    H2  450   0.591   0.710  14.281  0.5370 -1.0551  3.4112
   29MPD2    H3  451   0.508   0.949  14.291  0.0764 -1.0703 -0.7242
   29MPD2     N  452   0.913   1.114  14.359 -0.2710  0.3332  0.0896
   29MPD2    H5  453   0.870   1.201  14.389 -0.5592 -0.3408  1.6263
   29MPD2    N1  454   0.861   0.649  14.305  0.0721 -0.2591 -0.4899
   29MPD2    H7  455   0.961   0.643  14.320 -0.0966 -1.3353  0.2076
   30TCq2    C1  456   1.045   1.125  14.325 -0.1197 -0.0556 -0.3088
   30TCq2    O2  457   1.125   1.043  14.279 -0.3199  0.4849  0.5354
   30TCq2    C2  458   1.093   1.262  14.343 -0.7575  0.0157 -0.0318
   30TCq2    C3  459   1.047   1.348  14.440  0.2030  0.1417 -0.5377
   30TCq2    C4  460   1.086   1.480  14.439  0.4623 -0.3823  0.7589
   30TCq2    C5  461   1.168   1.531  14.347 -0.0228  0.4439  0.3449
   30TCq2    C6  462   1.214   1.443  14.251  0.1421  0.2559 -0.5316
   30TCq2    C7  463   1.175   1.312  14.248 -0.5859  0.2225 -0.0535
   30TCq2    C8  464   1.310   1.476  14.142  0.1341  0.1717  0.8466
   30TCq2    O4  465   1.318   1.402  14.044  0.0818  0.3276 -0.4273
   30TCq2    C9  466   1.019   1.571  14.531 -0.0108  0.0581  0.8856
   30TCq2    O5  467   1.044   1.696  14.519  0.0406  0.4194 -0.2631
   30TCq2    O6  468   0.914   1.523  14.588 -0.7555 -0.2029 -0.6011
   30TCq2    H2  469   0.983   1.319  14.523  1.6309  1.8087  1.1458
   30TCq2    H3  470   1.196   1.636  14.344 -2.7192  1.1367 -0.6128
   30TCq2    H4  471   1.207   1.239  14.174 -2.2624 -1.3596  0.7593
   31MPD2     C  472   3.717   4.551  15.335  0.4613  0.1085  0.1064
   31MPD2    C1  473   3.599   4.601  15.290 -0.0457 -0.2031 -0.2047
   31MPD2    C2  474   3.477   4.552  15.344 -0.6025  0.8815  0.1046
   31MPD2    C3  475   3.482   4.457  15.446  1.0972 -0.5930  0.0532
   31MPD2    C4  476   3.605   4.397  15.475  0.1934 -0.5285 -0.7680
   31MPD2    C5  477   3.725   4.453  15.427  0.0925 -0.2236  1.0534
   31MPD2     H  478   3.384   4.607  15.339 -0.2414  1.4458 -0.2973
   31MPD2    H1  479   3.614   4.329  15.560 -0.3379  2.5027  1.6958
   31MPD2    H2  480   3.815   4.586  15.304 -0.0851  0.6982 -1.0023
   31MPD2    H3  481   3.818   4.413  15.464  0.2356 -2.4617 -1.6634
   31MPD2     N  482   3.377   4.426  15.535  0.3387 -0.4594  0.0541
   31MPD2    H5  483   3.398   4.367  15.615  0.8899 -0.8580 -0.3895
   31MPD2    N1  484   3.605   4.691  15.182 -0.0383 -0.3375  0.7818
   31MPD2    H7  485   3.698   4.704  15.146  0.0754  0.3900  1.3428
   32TCq2    C1  486   3.245   4.468  15.525 -0.1914 -0.4600  0.0987
   32TCq2    O2  487   3.189   4.540  15.440  0.1412  0.4087 -0.1870
   32TCq2    C2  488   3.179   4.471  15.652 -0.6595  1.2322 -1.0167
   32TCq2    C3  489   3.052   4.507  15.654  0.5264  0.7525  0.5926
   32TCq2    C4  490   2.986   4.525  15.770  0.0604  0.3473  0.1478
   32TCq2    C5  491   3.050   4.509  15.889  0.3775 -0.0750 -0.4238
   32TCq2    C6  492   3.185   4.473  15.889  0.5243  0.3893  0.6697
   32TCq2    C7  493   3.254   4.454  15.770  0.4522  0.9491 -0.2015
   32TCq2    C8  494   3.271   4.473  16.009 -0.6346 -0.0251  0.0879
   32TCq2    O4  495   3.384   4.420  16.003 -0.1377 -0.0364  0.2314
   32TCq2    C9  496   2.851   4.568  15.762 -0.2588 -0.3555 -0.2737
   32TCq2    O5  497   2.812   4.617  15.655 -0.5101 -0.4247 -0.6030
   32TCq2    O6  498   2.789   4.611  15.864  0.4456  0.2763 -0.0272
   32TCq2    H2  499   2.991   4.509  15.564  2.1286  1.8495 -0.4670
   32TCq2    H3  500   3.005   4.534  15.984 -3.2025 -0.0220 -2.1373
   32TCq2    H4  501   3.356   4.419  15.773 -0.4165 -1.5323  0.2601
   33MPD2     C  502   4.420   2.075  10.153  0.2518 -0.4877  0.1092
   33MPD2    C1  503   4.305   2.006  10.139 -0.7111  0.4072  0.2953
   33MPD2    C2  504   4.213   2.052  10.041 -0.2566 -0.2998  0.1357
   33MPD2    C3  505   4.232   2.168   9.970  0.2639 -1.2751 -0.7270
   33MPD2    C4  506   4.352   2.237   9.994  0.2166  0.1085  0.3944
   33MPD2    C5  507   4.451   2.184  10.071  0.0590  0.7582  0.7736
   33MPD2     H  508   4.121   1.995  10.031 -0.6908  0.6701 -1.3086
   33MPD2    H1  509   4.372   2.335   9.952 -0.5257 -0.0321 -0.2763
   33MPD2    H2  510   4.494   2.035  10.221  1.3779  0.6222 -0.4737
   33MPD2    H3  511   4.548   2.231  10.084  0.6441 -0.4228  0.6151
   33MPD2     N  512   4.138   2.227   9.882  0.1793 -0.0558  0.2595
   33MPD2    H5  513   4.163   2.319   9.848  1.5393  0.2990  2.2230
   33MPD2    N1  514   4.275   1.901  10.228 -0.2014 -0.2091 -0.3153
   33MPD2    H7  515   4.352   1.869  10.285  1.0135  2.6674 -0.3618
   34TCq2    C1  516   4.011   2.177   9.858  0.3819 -1.0317 -0.0927
   34TCq2    O2  517   3.950   2.089   9.909 -0.0944 -0.2431 -0.3490
   34TCq2    C2  518   3.948   2.257   9.748  0.6793  0.3787 -0.9537
   34TCq2    C3  519   3.819   2.215   9.728 -0.4415 -0.8157 -0.1335
   34TCq2    C4  520   3.756   2.254   9.614 -0.9886  0.0736 -1.0454
   34TCq2    C5  521   3.824   2.317   9.513  0.1906  0.0809  0.2316
   34TCq2    C6  522   3.957   2.346   9.529  0.0147  0.3320  0.0544
   34TCq2    C7  523   4.021   2.311   9.645 -0.2778  0.1662  0.0075
   34TCq2    C8  524   4.042   2.391   9.415  0.8308 -0.3347 -0.0623
   34TCq2    O4  525   4.161   2.374   9.429  0.7029 -0.5971 -0.1280
   34TCq2    C9  526   3.613   2.228   9.606  0.3037  0.2018 -0.2451
   34TCq2    O5  527   3.553   2.296   9.521 -0.3246  0.6411 -0.3876
   34TCq2    O6  528   3.563   2.147   9.691  0.3039 -0.2285 -0.2227
   34TCq2    H2  529   3.762   2.155   9.798 -1.5208  3.0935  2.3949
   34TCq2    H3  530   3.767   2.347   9.426 -0.9500 -1.9103  0.2906
   34TCq2    H4  531   4.129   2.307   9.645 -0.2727 -0.4648 -4.3736
   35MPD2     C  532   0.438   3.557  11.705 -0.1743  0.2742 -1.3054
   35MPD2    C1  533   0.414   3.429  11.743  0.1040  0.2289 -0.1412
   35MPD2    C2  534   0.287   3.377  11.721 -0.2873 -0.1959 -0.2399
   35MPD2    C3  535   0.197   3.444  11.648  0.4591  0.3060 -0.3642
   35MPD2    C4  536   0.226   3.564  11.594  0.0045 -0.6643  0.0031
   35MPD2    C5  537   0.348   3.616  11.625  0.7905 -0.1233 -0.3483
   35MPD2     H  538   0.260   3.280  11.760 -0.5493 -0.6721 -1.5843
   35MPD2    H1  539   0.154   3.623  11.539 -0.6353  1.0636  2.6662
   35MPD2    H2  540   0.537   3.601  11.715 -0.5360  1.1280 -1.5140
   35MPD2    H3  541   0.371   3.714  11.586  0.2177  1.8400  4.1719
   35MPD2     N  542   0.070   3.379  11.635  0.3367 -0.5098  0.3774
   35MPD2    H5  543   0.060   3.285  11.672 -1.6071  0.4175  2.2351
   35MPD2    N1  544   0.507   3.361  11.825 -0.4653 -0.2008  0.1010
   35MPD2    H7  545   0.591   3.411  11.853 -0.6541  1.2227 -1.8765
   36TCq2    C1  546   4.695   3.417  11.545  0.3072  0.2033  0.2366
   36TCq2    O2  547   4.695   3.511  11.463 -0.1672  0.0839 -0.3928
   36TCq2    C2  548   4.563   3.381  11.598  0.5170 -0.2114 -0.1373
   36TCq2    C3  549   4.453   3.433  11.530  0.2349 -0.6393  1.0387
   36TCq2    C4  550   4.327   3.433  11.593 -0.2272  0.8473 -0.6239
   36TCq2    C5  551   4.313   3.363  11.710 -0.1533 -0.0980 -0.4044
   36TCq2    C6  552   4.426   3.314  11.767  0.4761  0.3717  0.3937
   36TCq2    C7  553   4.556   3.318  11.721  0.1404 -0.0291 -0.6622
   36TCq2    C8  554   4.408   3.220  11.872 -0.8789  0.0861  0.0205
   36TCq2    O4  555   4.496   3.143  11.890 -0.2454  0.0775  0.7300
   36TCq2    C9  556   4.221   3.527  11.554 -0.0646 -0.2921  1.2923
   36TCq2    O5  557   4.140   3.564  11.641  0.0829 -0.2327 -0.3972
   36TCq2    O6  558   4.247   3.593  11.453 -0.5790 -0.7845  0.4864
   36TCq2    H2  559   4.472   3.487  11.438  0.3160 -1.2198  0.7104
   36TCq2    H3  560   4.216   3.377  11.757  0.8114  1.6376  1.0476
   36TCq2    H4  561   4.637   3.286  11.786 -0.2143  2.0457  0.8099
   37TMC2    C1  562   1.984   4.404  11.676  0.1558 -0.2269 -0.1813
   37TMC2    C2  563   1.959   4.445  11.546 -0.4183  0.1886 -0.4219
   37TMC2    C3  564   2.056   4.422  11.452 -0.3862  0.5233 -0.3565
   37TMC2    C4  565   2.110   4.352  11.711  0.4120 -0.2861  0.5822
   37TMC2    C5  566   2.203   4.327  11.608 -0.0957  0.3047 -0.0678
   37TMC2    C6  567   2.183   4.370  11.478  0.0355 -0.3676 -0.0965
   37TMC2     C  568   1.879   4.389  11.768 -0.6954  0.2513 -0.1933
   37TMC2     O  569   1.773   4.445  11.736  0.6048 -0.4768  0.4086
   37TMC2     H  570   1.862   4.488  11.523  0.0619  0.8268 -1.2663
   37TMC2    H1  571   2.146   4.331  11.811  2.9839 -0.9181 -0.4742
   37TMC2    H2  572   2.249   4.352  11.394  1.1782  1.9227  0.3074
   37TMC2    C7  573   2.331   4.274  11.648  0.9743 -0.1316  0.8018
   37TMC2    C8  574   2.025   4.434  11.312  0.1884 -0.2435  0.1555
   37TMC2    O1  575   2.351   4.212  11.752 -0.4550  0.2928 -0.2057
   37TMC2    O2  576   2.110   4.426  11.220 -0.6257  0.3576 -0.6650
   37TMC2    O5  577   1.896   4.390  11.290 -0.0238  0.5967 -0.1913
   37TMC2    H5  578   1.851   4.370  11.375  1.2950 -1.1285  0.1031
   38MPD2     C  579   1.627   4.180  12.166 -0.0143 -0.2164 -0.5158
   38MPD2    C1  580   1.745   4.114  12.154 -0.2219  0.2153  0.0965
   38MPD2    C2  581   1.839   4.148  12.055 -0.0065 -0.2215 -0.1386
   38MPD2    C3  582   1.806   4.250  11.974  0.4401  0.5333 -0.6537
   38MPD2    C4  583   1.686   4.317  11.986  0.1262  0.1342 -0.4749
   38MPD2    C5  584   1.596   4.282  12.084 -0.5675 -0.2782  0.3324
   38MPD2     H  585   1.934   4.095  12.050 -0.2553 -0.8006  1.1006
   38MPD2    H1  586   1.666   4.407  11.929 -1.1567  0.2507  0.1724
   38MPD2    H2  587   1.564   4.159  12.251 -0.2782 -1.3437 -0.9862
   38MPD2    H3  588   1.502   4.335  12.096 -0.6699 -0.4871  0.4479
   38MPD2     N  589   1.899   4.293  11.869  0.0391  0.4704 -0.3164
   38MPD2    H5  590   1.990   4.248  11.878  1.1420  2.7010 -0.1569
   38MPD2    N1  591   1.772   3.998  12.236  0.6733  0.4055 -0.7548
   38MPD2    H7  592   1.863   3.954  12.234  0.0067 -1.0253  0.5745
   39MPD2     C  593   0.915   0.785   1.171  0.4262 -0.0719  0.4648
   39MPD2    C1  594   0.844   0.844   1.281  0.7249  0.7746  0.2978
   39MPD2    C2  595   0.711   0.889   1.274  0.6751  0.9378 -0.0536
   39MPD2    C3  596   0.648   0.885   1.148  0.3849  0.3110  0.0567
   39MPD2    C4  597   0.713   0.828   1.041 -0.1932  0.0855  0.1168
   39MPD2    C5  598   0.851   0.786   1.051  0.0752  0.2505  0.6536
   39MPD2     H  599   0.656   0.931   1.358  1.2929  0.0447  0.8019
   39MPD2    H1  600   0.661   0.835   0.946 -1.2231 -1.4537  0.5780
   39MPD2    H2  601   1.012   0.738   1.169  0.6469  0.4656 -1.3262
   39MPD2    H3  602   0.904   0.751   0.964  0.4218  1.0021  0.5604
   39MPD2     N  603   0.512   0.914   1.129  0.7390 -0.7346 -0.3270
   39MPD2    H5  604   0.468   0.884   1.043 -1.3185 -1.8547  1.1196
   39MPD2    N1  605   0.910   0.838   1.407  0.3885  0.4389  0.0400
   39MPD2    H7  606   1.002   0.794   1.406  0.1930  0.0399 -1.0239
   40TCq2    C1  607   0.868   0.894   1.526 -0.4771  0.4150 -0.4311
   40TCq2    O2  608   0.767   0.960   1.554 -0.1744  0.0974 -0.1654
   40TCq2    C2  609   0.958   0.856   1.633  0.4584 -0.5461 -0.7844
   40TCq2    C3  610   0.956   0.946   1.740  0.6019 -0.5674  0.2347
   40TCq2    C4  611   1.067   0.943   1.831  0.0906  0.8738  0.2058
   40TCq2    C5  612   1.170   0.857   1.809 -0.6726  0.7231  0.7830
   40TCq2    C6  613   1.157   0.758   1.714 -0.1362  0.7619 -0.3700
   40TCq2    C7  614   1.052   0.758   1.623 -0.3881 -0.4766 -0.3397
   40TCq2    C8  615   1.271   0.680   1.675  0.2612  0.0044 -0.4588
   40TCq2    O4  616   1.262   0.579   1.605  0.2914  0.3330 -0.3699
   40TCq2    C9  617   1.063   1.026   1.950  0.1812 -0.6749  0.5435
   40TCq2    O5  618   1.148   1.004   2.039 -0.5225 -0.4910  0.3176
   40TCq2    O6  619   0.963   1.097   1.968  0.2204  0.5933  0.1265
   40TCq2    H2  620   0.876   1.019   1.748  1.0857  0.2784 -2.5345
   40TCq2    H3  621   1.244   0.860   1.889  0.0866 -0.5248  0.1301
   40TCq2    H4  622   1.041   0.682   1.546  1.1972 -0.1951 -0.8419
   41TMC2    C1  623   4.045   4.399  14.156  0.1091 -0.3969  0.7891
   41TMC2    C2  624   4.025   4.285  14.233 -0.1898  0.4640  0.5573
   41TMC2    C3  625   3.977   4.178  14.161  0.3792 -0.0622 -0.1361
   41TMC2    C4  626   4.017   4.406  14.019 -0.3792  0.2119 -0.2708
   41TMC2    C5  627   3.984   4.284  13.956  0.5987  0.3271  0.1201
   41TMC2    C6  628   3.958   4.170  14.028 -0.2056  0.2532 -0.5069
   41TMC2     C  629   4.094   4.515  14.229 -0.1751 -0.5205 -0.4313
   41TMC2     O  630   4.094   4.618  14.164 -0.3894 -0.5044  0.5923
   41TMC2     H  631   4.048   4.270  14.338 -1.0800 -1.8888  0.4158
   41TMC2    H1  632   4.037   4.491  13.955  0.3958 -0.0050 -0.3161
   41TMC2    H2  633   3.916   4.082  13.979  1.6662 -1.5164  1.0613
   41TMC2    C7  634   3.969   4.283  13.814  0.4133  0.3843  0.3572
   41TMC2    C8  635   3.943   4.059  14.238  0.1954  0.3373  0.4093
   41TMC2    O1  636   3.937   4.390  13.763 -0.5422  0.5738  0.4050
   41TMC2    O2  637   3.926   4.058  14.358 -0.1049  0.5126  0.3012
   41TMC2    O5  638   4.002   3.955  14.174  0.3461 -0.3702 -0.4723
   41TMC2    H5  639   4.045   3.988  14.093  1.9890 -0.0738  0.5408
   42MPD2     C  640   4.170   0.001  14.431  0.0526 -0.1799 -0.1193
   42MPD2    C1  641   4.156   4.598  14.465 -0.3018  0.0563  0.3305
   42MPD2    C2  642   4.187   4.562  14.592  0.0037 -0.4142 -0.8956
   42MPD2    C3  643   4.220   4.659  14.691  0.5774 -0.2126 -0.0539
   42MPD2    C4  644   4.237   0.066  14.653 -0.1783 -0.0951 -0.2989
   42MPD2    C5  645   4.212   0.094  14.519  0.5216  0.2804  0.3983
   42MPD2     H  646   4.181   4.458  14.624 -0.8527 -0.5015 -1.3577
   42MPD2    H1  647   4.251   0.153  14.716  0.2874 -0.6031  0.3000
   42MPD2    H2  648   4.140   0.040  14.334 -0.2144 -0.8732 -0.3164
   42MPD2    H3  649   4.221   0.195  14.481 -0.4768 -0.7991 -2.7539
   42MPD2     N  650   4.251   4.628  14.827  0.7122 -0.5344 -0.0375
   42MPD2    H5  651   4.307   4.690  14.884 -1.9067  1.2117  0.6716
   42MPD2    N1  652   4.111   4.501  14.367 -0.0401  0.0009  0.0667
   42MPD2    H7  653   4.091   4.414  14.414 -0.2346  0.3721  0.6765
   43MPD2     C  654   1.090   1.922   0.484  0.9668 -0.3764 -0.5529
   43MPD2    C1  655   1.165   1.851   0.571  0.5423  0.6107 -0.3649
   43MPD2    C2  656   1.164   1.895   0.706  0.5900 -0.1016 -1.1239
   43MPD2    C3  657   1.086   1.997   0.758  0.0909 -0.2519 -0.1676
   43MPD2    C4  658   1.009   2.063   0.666 -0.6823  0.2144 -0.5867
   43MPD2    C5  659   1.008   2.022   0.531  0.0809 -0.1551 -0.1173
   43MPD2     H  660   1.223   1.837   0.777 -0.5923  0.9666  0.7230
   43MPD2    H1  661   0.940   2.143   0.687 -0.7546 -0.2086  0.8341
   43MPD2    H2  662   1.092   1.895   0.379 -0.0058 -0.8145 -0.4553
   43MPD2    H3  663   0.943   2.079   0.466 -2.4816 -0.9277  1.7820
   43MPD2     N  664   1.075   2.040   0.890  0.7988 -0.0960 -0.5079
   43MPD2    H5  665   1.032   2.131   0.902 -3.1311 -1.9994 -0.0049
   43MPD2    N1  666   1.246   1.744   0.537  0.2359 -0.4273 -0.0673
   43MPD2    H7  667   1.294   1.701   0.615  0.9481  2.6683  1.1816
   44TCq2    C1  668   1.133   2.386   1.231 -0.4208  0.2229  0.5233
   44TCq2    O2  669   1.184   2.435   1.132 -0.6814 -0.0591  0.5778
   44TCq2    C2  670   1.101   2.245   1.239 -0.0829  0.0344  0.5748
   44TCq2    C3  671   1.095   2.185   1.366 -0.7826 -0.1202 -0.1723
   44TCq2    C4  672   1.080   2.043   1.362 -0.1484 -0.0195  1.0130
   44TCq2    C5  673   1.087   1.970   1.244  0.5589 -0.8371  0.0415
   44TCq2    C6  674   1.109   2.044   1.129  0.5404  0.0236 -0.0728
   44TCq2    C7  675   1.110   2.184   1.128  0.6737 -0.2051  0.1686
   44TCq2    C8  676   1.126   1.977   0.999  0.4391 -0.1691 -0.6835
   44TCq2    O4  677   1.176   1.866   1.005 -0.0815 -0.6293 -0.2355
   44TCq2    C9  678   1.077   1.969   1.482 -0.4506  0.3488  0.2793
   44TCq2    O5  679   1.110   2.036   1.583 -0.0729  0.2410 -0.1589
   44TCq2    O6  680   1.077   1.841   1.487 -0.1017 -0.2643 -0.3379
   44TCq2    H2  681   1.082   2.238   1.459 -1.2907 -0.8221  0.1677
   44TCq2    H3  682   1.076   1.862   1.242  1.4324 -1.0019  3.4874
   44TCq2    H4  683   1.129   2.238   1.036  0.3624  1.5236  1.1301
   45TMC2    C1  684   1.656   3.320   9.807 -0.6671  0.3690 -0.4730
   45TMC2    C2  685   1.751   3.325   9.907  0.0327  1.0516  0.5585
   45TMC2    C3  686   1.752   3.437   9.980  1.0988  0.1655 -0.4657
   45TMC2    C4  687   1.563   3.423   9.784 -0.2452  0.3702  0.6790
   45TMC2    C5  688   1.574   3.538   9.864 -0.5907  0.1937  0.6353
   45TMC2    C6  689   1.678   3.550   9.958 -0.0262 -0.0126  0.2962
   45TMC2     C  690   1.644   3.193   9.738  0.7135  0.6603 -0.3479
   45TMC2     O  691   1.713   3.098   9.764 -0.2332 -0.4407  0.4030
   45TMC2     H  692   1.805   3.237   9.940 -1.5464 -0.3375 -0.5658
   45TMC2    H1  693   1.480   3.417   9.715  0.4165 -0.3288 -0.0719
   45TMC2    H2  694   1.687   3.629  10.032  3.0037 -0.9815  0.9732
   45TMC2    C7  695   1.457   3.622   9.864 -0.2979 -0.5615 -0.5908
   45TMC2    C8  696   1.823   3.426  10.107 -0.2121 -0.0366  0.2435
   45TMC2    O1  697   1.355   3.584   9.803  0.8709 -0.1965  0.4645
   45TMC2    O2  698   1.783   3.492  10.204 -0.1704 -1.1121  0.1842
   45TMC2    O5  699   1.951   3.417  10.080 -0.4257 -0.0536 -0.1323
   45TMC2    H5  700   1.982   3.376   9.997 -0.3027  1.1331 -0.6635
   46MPD2     C  701   1.537   2.981   9.558  1.3638 -0.3308 -0.0811
   46MPD2    C1  702   1.506   3.120   9.551 -0.3680  0.3727 -0.0427
   46MPD2    C2  703   1.417   3.157   9.452 -0.4131  0.8730 -0.4448
   46MPD2    C3  704   1.332   3.065   9.388  0.3429 -0.3081  0.0316
   46MPD2    C4  705   1.348   2.929   9.409 -0.1051  0.2326 -0.6395
   46MPD2    C5  706   1.455   2.890   9.484  0.7549 -0.4258  0.7845
   46MPD2     H  707   1.408   3.262   9.429  0.9028  1.0565 -0.1047
   46MPD2    H1  708   1.283   2.851   9.373 -0.3509  0.3755 -0.5033
   46MPD2    H2  709   1.615   2.942   9.622  1.5791 -1.2952 -0.9303
   46MPD2    H3  710   1.457   2.784   9.508 -3.3084 -0.2279  1.9677
   46MPD2     N  711   1.231   3.130   9.312  0.1579  0.3741 -0.2398
   46MPD2    H5  712   1.224   3.231   9.303  1.3563  0.5879  1.2778
   46MPD2    N1  713   1.557   3.213   9.639 -0.5738  0.4188  0.2732
   46MPD2    H7  714   1.527   3.308   9.619  1.9261  1.5969  2.0444
   47TMC2    C1  715   4.299   4.523   9.256 -0.0026 -0.8038 -0.0633
   47TMC2    C2  716   4.301   4.460   9.138 -0.0961 -0.1785  0.0850
   47TMC2    C3  717   4.231   4.513   9.036  0.0112  0.7069 -0.2526
   47TMC2    C4  718   4.244   4.652   9.267 -0.3337 -0.4297 -0.1859
   47TMC2    C5  719   4.188   4.706   9.155 -0.5060 -0.1674  0.0432
   47TMC2    C6  720   4.182   4.641   9.038 -0.1004  0.8338 -0.3151
   47TMC2     C  721   4.378   4.472   9.364 -0.4841 -0.4514  0.1607
   47TMC2     O  722   4.404   4.556   9.450  0.0765  0.1029  0.0412
   47TMC2     H  723   4.343   4.360   9.131 -0.8161 -0.4898  0.0942
   47TMC2    H1  724   4.268   4.704   9.359  1.3722  1.0355 -1.4755
   47TMC2    H2  725   4.141   4.686   8.948  0.1031  2.0242  0.1928
   47TMC2    C7  726   4.113   0.096   9.176  1.4732 -0.4475 -0.3981
   47TMC2    C8  727   4.252   4.461   8.905 -0.1173 -0.8575  0.3728
   47TMC2    O1  728   4.078   0.165   9.080 -0.2448  0.0530  0.4213
   47TMC2    O2  729   4.253   4.536   8.809  0.1212  0.0833  1.0569
   47TMC2    O5  730   4.259   4.326   8.911 -0.2121  0.4540  0.1834
   47TMC2    H5  731   4.206   4.287   8.984 -0.2541  0.2595  0.0486
   48MPD2     C  732   4.503   4.312   9.584 -0.5670  0.3250 -0.1545
   48MPD2    C1  733   4.454   4.253   9.467 -0.0439 -0.0779 -0.3891
   48MPD2    C2  734   4.481   4.118   9.445 -0.3535  0.0420  0.4324
   48MPD2    C3  735   4.543   4.041   9.537 -0.3550 -0.1647  0.2237
   48MPD2    C4  736   4.592   4.102   9.655 -0.2219  0.3645  0.0651
   48MPD2    C5  737   4.575   4.240   9.669  0.2806 -0.4687 -0.0084
   48MPD2     H  738   4.453   4.080   9.348  1.5869 -0.8986  0.2373
   48MPD2    H1  739   4.664   4.058   9.724 -0.5313 -1.5611 -0.8336
   48MPD2    H2  740   4.485   4.417   9.603  1.1865  0.5657  0.1620
   48MPD2    H3  741   4.609   4.288   9.760 -0.8014 -3.3636  1.9056
   48MPD2     N  742   4.562   3.907   9.503 -0.2608 -0.2345 -0.6587
   48MPD2    H5  743   4.520   3.867   9.420 -0.0475 -3.3104  0.7244
   48MPD2    N1  744   4.390   4.331   9.362 -0.1040 -0.0592  0.7382
   48MPD2    H7  745   4.345   4.288   9.282 -1.7942  0.0542  1.6183
   49MPD2     C  746   2.826   1.642  10.183 -0.2203 -0.5679 -0.1981
   49MPD2    C1  747   2.715   1.571  10.233 -0.0252 -0.2644  0.8688
   49MPD2    C2  748   2.688   1.588  10.370  0.5476  0.2569  0.2503
   49MPD2    C3  749   2.774   1.662  10.461  0.3845  0.3210 -0.3712
   49MPD2    C4  750   2.890   1.720  10.406 -0.1229  0.1909 -0.7540
   49MPD2    C5  751   2.912   1.706  10.267  0.3752  0.8330 -0.0689
   49MPD2     H  752   2.596   1.539  10.402  0.1449  0.4600 -0.5920
   49MPD2    H1  753   2.967   1.773  10.460  2.5698 -2.7681 -1.6343
   49MPD2    H2  754   2.859   1.637  10.080 -1.5988  0.9916 -0.7074
   49MPD2    H3  755   3.004   1.753  10.234  1.0506 -1.4035 -1.3982
   49MPD2     N  756   2.745   1.684  10.599 -0.3418 -0.4459 -1.0324
   49MPD2    H5  757   2.812   1.739  10.651 -3.0484  1.1787  0.7157
   49MPD2    N1  758   2.619   1.508  10.153 -0.3825  0.1297 -0.2852
   49MPD2    H7  759   2.536   1.477  10.203 -0.1613 -1.9406 -1.2127
   50TCq2    C1  760   2.637   1.469  10.021  0.1822  0.6914  0.2643
   50TCq2    O2  761   2.721   1.507   9.944  0.7747 -0.7052  0.2053
   50TCq2    C2  762   2.529   1.393   9.965 -0.8773 -0.3746  0.4275
   50TCq2    C3  763   2.404   1.416  10.003 -0.3693 -0.1053 -0.6234
   50TCq2    C4  764   2.299   1.358   9.942 -0.2246  0.2275  0.8957
   50TCq2    C5  765   2.313   1.284   9.829  0.5072  0.3649  0.3153
   50TCq2    C6  766   2.447   1.269   9.791  0.0628  0.6927 -0.3344
   50TCq2    C7  767   2.559   1.324   9.853 -0.4244 -0.0545 -0.3097
   50TCq2    C8  768   2.485   1.202   9.667 -0.2208  0.2956  0.2529
   50TCq2    O4  769   2.606   1.188   9.649  0.0568  0.3147 -0.7923
   50TCq2    C9  770   2.168   1.374   9.996 -0.8255  0.3495 -0.1124
   50TCq2    O5  771   2.145   1.474  10.067 -0.0667 -0.2040 -0.2684
   50TCq2    O6  772   2.080   1.308   9.938  0.3327  0.0467 -0.3032
   50TCq2    H2  773   2.380   1.464  10.098 -1.5726 -0.4547 -0.7547
   50TCq2    H3  774   2.228   1.230   9.788  0.3344  2.9653 -2.7896
   50TCq2    H4  775   2.660   1.290   9.835 -0.3526  0.0129 -0.0407
   51MPD2     C  776   2.714   0.196   1.280 -0.1718 -0.7100  0.0716
   51MPD2    C1  777   2.833   0.193   1.215  0.1582 -0.5683 -0.2357
   51MPD2    C2  778   2.947   0.250   1.275 -0.4151  0.4211  0.0846
   51MPD2    C3  779   2.947   0.291   1.410 -0.0190  0.5295 -0.6471
   51MPD2    C4  780   2.822   0.291   1.465  0.0028  0.4606 -0.1893
   51MPD2    C5  781   2.706   0.242   1.407 -0.1371  0.7814 -0.1882
   51MPD2     H  782   3.042   0.263   1.224  1.0004 -1.1134  2.3625
   51MPD2    H1  783   2.799   0.329   1.564 -1.1023 -0.9347  0.0985
   51MPD2    H2  784   2.637   0.131   1.240  2.3299 -2.7061 -1.4712
   51MPD2    H3  785   2.611   0.233   1.457  0.6482 -2.0232  0.8406
   51MPD2     N  786   3.047   0.356   1.486 -0.1513  0.7021 -0.2373
   51MPD2    H5  787   3.023   0.400   1.575 -1.4371 -0.4868  0.0040
   51MPD2    N1  788   2.857   0.145   1.090  0.5015 -0.5327 -0.2282
   51MPD2    H7  789   2.949   0.159   1.050 -0.2895  2.7130 -0.8905
   52TCq2    C1  790   3.178   0.345   1.460  0.1716  0.2064 -1.1303
   52TCq2    O2  791   3.230   0.283   1.371  0.2304  0.4072 -0.2682
   52TCq2    C2  792   3.263   0.427   1.546  0.6440 -0.3175 -0.1374
   52TCq2    C3  793   3.388   0.385   1.564 -0.3533  0.2602  0.4891
   52TCq2    C4  794   3.475   0.460   1.641 -0.4458  0.1226 -0.7110
   52TCq2    C5  795   3.426   0.568   1.714  0.2102 -0.5700  0.0060
   52TCq2    C6  796   3.293   0.606   1.695 -0.5062 -0.2515  0.4930
   52TCq2    C7  797   3.209   0.546   1.601  0.2240 -0.1869 -0.5973
   52TCq2    C8  798   3.248   0.728   1.760 -1.0274 -0.1963  0.0384
   52TCq2    O4  799   3.341   0.792   1.812  0.7300 -0.3056  0.0845
   52TCq2    C9  800   3.601   0.406   1.677 -0.6214  0.5765 -0.0432
   52TCq2    O5  801   3.614   0.279   1.666  0.2612 -0.3166 -0.2975
   52TCq2    O6  802   3.680   0.491   1.727 -0.1198 -0.5757  0.0435
   52TCq2    H2  803   3.421   0.294   1.514  2.2506  2.2930 -1.4594
   52TCq2    H3  804   3.488   0.604   1.796 -0.9827 -0.8051  1.0003
   52TCq2    H4  805   3.111   0.584   1.576 -0.0762 -0.2944  0.4121
   53TMC2    C1  806   2.994   4.022  11.855  0.7295 -0.4167  0.0446
   53TMC2    C2  807   3.112   3.952  11.847 -0.4711  0.2532 -0.5078
   53TMC2    C3  808   3.166   3.909  11.965 -0.5708 -0.3738 -0.2003
   53TMC2    C4  809   2.928   4.045  11.971 -1.0876  0.2729  0.5015
   53TMC2    C5  810   2.990   4.003  12.087  0.0285 -0.8489 -0.3412
   53TMC2    C6  811   3.097   3.918  12.086  0.2028 -0.1082  1.3342
   53TMC2     C  812   2.956   4.098  11.740  0.4299  0.3654  0.6961
   53TMC2     O  813   3.041   4.134  11.662  0.2336  0.5213  0.1761
   53TMC2     H  814   3.165   3.931  11.755  1.9216 -1.4045  1.2531
   53TMC2    H1  815   2.846   4.114  11.979 -1.8220 -0.7647  1.7722
   53TMC2    H2  816   3.159   3.882  12.167  0.9807 -2.7975 -0.4495
   53TMC2    C7  817   2.941   4.054  12.210  0.4718  0.5472  0.0606
   53TMC2    C8  818   3.274   3.811  11.968  0.3911 -0.5576  0.4886
   53TMC2    O1  819   2.850   4.132  12.197  0.5066 -0.8700 -0.0141
   53TMC2    O2  820   3.357   3.837  12.054  0.1195  0.2934 -0.2673
   53TMC2    O5  821   3.207   3.692  11.966 -0.3219 -0.0938 -0.8356
   53TMC2    H5  822   3.140   3.701  11.894 -0.2518 -1.2022 -1.0463
   54MPD2     C  823   2.838   4.307  11.567  0.0580  0.1497  0.0111
   54MPD2    C1  824   2.767   4.230  11.650 -0.4350 -0.6326  0.4073
   54MPD2    C2  825   2.629   4.239  11.661  0.2420 -0.6272 -0.6672
   54MPD2    C3  826   2.562   4.329  11.579 -0.0170  0.2050  0.6584
   54MPD2    C4  827   2.636   4.402  11.489  0.0325 -0.0875  1.0560
   54MPD2    C5  828   2.775   4.386  11.482  0.1065 -0.7801  0.5475
   54MPD2     H  829   2.570   4.183  11.733  0.4634  2.0447  1.6258
   54MPD2    H1  830   2.584   4.474  11.427  1.7758  0.8018  0.6296
   54MPD2    H2  831   2.944   4.292  11.554  0.4900  2.8741  0.2832
   54MPD2    H3  832   2.829   4.444  11.408  1.6600 -1.1882  1.3598
   54MPD2     N  833   2.422   4.342  11.568 -0.0474  0.0366 -0.7612
   54MPD2    H5  834   2.383   4.398  11.493 -0.5013  0.7931  0.0420
   54MPD2    N1  835   2.824   4.138  11.738 -0.1272  0.3633  0.0936
   54MPD2    H7  836   2.762   4.094  11.805 -0.0266 -0.9806 -0.6905
   55MPD2     C  837   3.986   1.601   0.476  0.4240  0.5256 -1.2285
   55MPD2    C1  838   3.876   1.534   0.524 -0.3748 -0.0349  0.3707
   55MPD2    C2  839   3.756   1.583   0.500  0.1213  0.5554  0.2404
   55MPD2    C3  840   3.736   1.708   0.446 -0.2452 -0.3291 -0.4067
   55MPD2    C4  841   3.844   1.780   0.402 -0.0713  0.0983  0.8372
   55MPD2    C5  842   3.968   1.727   0.417 -0.2147  0.3713  0.1288
   55MPD2     H  843   3.667   1.527   0.522  0.4804 -0.2334 -0.3148
   55MPD2    H1  844   3.841   1.876   0.352  0.7507  0.1007  0.7932
   55MPD2    H2  845   4.087   1.562   0.482  0.4289  0.8940  1.3226
   55MPD2    H3  846   4.046   1.787   0.370  0.2415  1.0569  1.7424
   55MPD2     N  847   3.609   1.760   0.435  0.5194  0.1307  0.1238
   55MPD2    H5  848   3.536   1.697   0.467  0.4143  0.1357 -0.1036
   55MPD2    N1  849   3.894   1.411   0.593 -0.1467 -0.0933 -0.0061
   55MPD2    H7  850   3.988   1.374   0.602 -0.1851  0.1459  1.4277
   56TCq2    C1  851   3.795   1.315   0.620 -0.5833 -0.1191  0.0474
   56TCq2    O2  852   3.674   1.335   0.625  0.4107 -0.1652 -0.1043
   56TCq2    C2  853   3.851   1.189   0.657 -0.6286 -0.1067 -0.2887
   56TCq2    C3  854   3.960   1.156   0.592  0.2767  0.5338 -0.1382
   56TCq2    C4  855   3.986   1.027   0.575  0.0295  0.7208  0.7175
   56TCq2    C5  856   3.910   0.930   0.633  0.1110 -0.1957 -0.8968
   56TCq2    C6  857   3.797   0.968   0.696  0.4197  0.0852 -0.0780
   56TCq2    C7  858   3.765   1.105   0.715  0.0940 -0.3412  0.4395
   56TCq2    C8  859   3.689   0.869   0.702 -0.5736  0.5148  0.2426
   56TCq2    O4  860   3.700   0.764   0.638  0.4420  0.4167 -0.1496
   56TCq2    C9  861   4.100   0.985   0.497  0.0445 -0.1237 -0.2329
   56TCq2    O5  862   4.095   0.870   0.448 -0.1754  0.0503  0.1382
   56TCq2    O6  863   4.186   1.074   0.465  0.3684 -0.2743 -0.0382
   56TCq2    H2  864   4.021   1.223   0.533  2.1760 -1.4124 -0.3648
   56TCq2    H3  865   3.941   0.826   0.624 -0.3695 -0.6087  2.3570
   56TCq2    H4  866   3.675   1.144   0.760  0.4669 -1.1338  1.8668
   57TMC2    C1  867   2.683   2.740  13.816  0.2546  0.1712  0.1973
   57TMC2    C2  868   2.740   2.642  13.892 -0.3781  0.2738  0.3817
   57TMC2    C3  869   2.861   2.601  13.858 -0.3155 -0.5629  0.3352
   57TMC2    C4  870   2.751   2.785  13.698  0.4145 -0.8961 -0.5079
   57TMC2    C5  871   2.868   2.724  13.661  0.0521 -0.0280 -0.2743
   57TMC2    C6  872   2.931   2.637  13.751  0.0454 -0.0876 -0.1554
   57TMC2     C  873   2.567   2.813  13.866  0.0061  0.2036 -0.1289
   57TMC2     O  874   2.532   2.921  13.816 -0.0822 -0.3777 -0.1205
   57TMC2     H  875   2.705   2.596  13.984 -1.4816 -1.1109 -0.7394
   57TMC2    H1  876   2.705   2.861  13.637  1.1687  2.3165  2.9076
   57TMC2    H2  877   3.038   2.638  13.736  0.1714 -1.1916  0.6590
   57TMC2    C7  878   2.928   2.768  13.532 -0.1068 -0.6887  0.7022
   57TMC2    C8  879   2.928   2.514  13.953 -0.4586 -0.5181  0.0731
   57TMC2    O1  880   2.877   2.869  13.477 -0.4185  0.2519  0.8185
   57TMC2    O2  881   2.901   2.506  14.071 -0.2756  0.5523  0.4516
   57TMC2    O5  882   3.031   2.453  13.888 -0.4780 -0.2325 -0.4860
   57TMC2    H5  883   3.025   2.459  13.791  1.5316 -1.9280 -0.7316
   58MPD2     C  884   2.153   2.807  14.168  0.1194  0.0192 -0.2227
   58MPD2    C1  885   2.180   2.893  14.061 -0.1637  1.0655 -0.0079
   58MPD2    C2  886   2.304   2.877  14.010 -1.3719  0.9878  0.0511
   58MPD2    C3  887   2.391   2.774  14.051  0.0025  0.5316  0.0146
   58MPD2    C4  888   2.362   2.692  14.159  0.5863  0.4235  0.0974
   58MPD2    C5  889   2.242   2.714  14.219 -0.0370 -0.6246  0.2259
   58MPD2     H  890   2.318   2.926  13.914 -3.7719  0.1108 -0.7261
   58MPD2    H1  891   2.430   2.623  14.206  0.5016 -1.3944 -2.4303
   58MPD2    H2  892   2.058   2.824  14.218  0.2832 -0.4041  0.2318
   58MPD2    H3  893   2.217   2.650  14.302 -1.5724  0.1633  0.3743
   58MPD2     N  894   2.516   2.763  13.984 -0.4429  0.1853  0.5655
   58MPD2    H5  895   2.572   2.687  14.022 -1.6122 -0.5711  0.7799
   58MPD2    N1  896   2.085   2.976  13.995  0.3288  0.0724  0.3390
   58MPD2    H7  897   2.107   3.024  13.909 -1.2022  1.2454  0.6073
   59MPD2     C  898   0.599   2.689  13.521 -0.4568  0.0043  0.1691
   59MPD2    C1  899   0.658   2.727  13.404 -0.1332  0.4375 -0.0979
   59MPD2    C2  900   0.767   2.813  13.407  0.9444 -0.2984  0.5161
   59MPD2    C3  901   0.819   2.858  13.531  0.5130  0.7201  0.0194
   59MPD2    C4  902   0.763   2.798  13.641  0.0429  0.3448 -0.4663
   59MPD2    C5  903   0.653   2.720  13.639 -0.4966  0.3494  0.1606
   59MPD2     H  904   0.805   2.858  13.316  0.6723  0.7264  0.8992
   59MPD2    H1  905   0.790   2.833  13.740  2.9146 -1.4783 -0.6019
   59MPD2    H2  906   0.512   2.625  13.518 -1.3787  1.3878 -2.2610
   59MPD2    H3  907   0.606   2.688  13.731  0.0545 -0.4577  0.1569
   59MPD2     N  908   0.912   2.966  13.553 -0.3175 -0.2759  0.4280
   59MPD2    H5  909   0.931   2.993  13.649  2.9498 -0.1132 -0.2887
   59MPD2    N1  910   0.599   2.674  13.281 -0.1928  0.1549 -0.5007
   59MPD2    H7  911   0.521   2.612  13.298 -1.1662  1.4970 -0.0526
   60TCq2    C1  912   0.622   2.713  13.152 -0.0602 -0.3771  0.0244
   60TCq2    O2  913   0.707   2.787  13.104  0.1182 -0.3967 -0.0802
   60TCq2    C2  914   0.532   2.647  13.056  0.1363 -0.0957 -0.1017
   60TCq2    C3  915   0.456   2.542  13.107  0.0149  0.4680  0.7168
   60TCq2    C4  916   0.413   2.440  13.029 -0.2292  0.1278  0.1560
   60TCq2    C5  917   0.462   2.428  12.901 -0.0738  0.6247 -0.4343
   60TCq2    C6  918   0.536   2.537  12.849  0.0404 -0.2104  0.5729
   60TCq2    C7  919   0.577   2.645  12.925 -0.3653  0.0501 -1.0297
   60TCq2    C8  920   0.573   2.517  12.709 -1.0495 -0.3136  0.0560
   60TCq2    O4  921   0.593   2.402  12.677 -0.1522  0.0534 -0.0846
   60TCq2    C9  922   0.327   2.336  13.077  0.1165  0.1486 -0.3913
   60TCq2    O5  923   0.304   2.332  13.205 -0.2678 -0.0138 -0.4587
   60TCq2    O6  924   0.274   2.264  12.987 -0.0044  0.1151  0.5628
   60TCq2    H2  925   0.410   2.536  13.204  1.6737 -0.4041  1.4456
   60TCq2    H3  926   0.422   2.353  12.834 -1.2559 -0.3662  1.3612
   60TCq2    H4  927   0.618   2.736  12.882 -1.1295  0.1522 -1.5426
   61MPD2     C  928   4.635   0.012  14.805 -0.2692 -0.4111 -0.5590
   61MPD2    C1  929   0.022   0.070  14.857  0.0639  0.5844 -0.3287
   61MPD2    C2  930   0.071   0.187  14.808  0.2093 -0.7537  0.5406
   61MPD2    C3  931   0.011   0.252  14.708  0.3746 -0.2327  0.5878
   61MPD2    C4  932   4.627   0.190  14.645 -0.1106  0.5800 -0.0143
   61MPD2    C5  933   4.580   0.073  14.701 -0.5825 -0.3089  0.6499
   61MPD2     H  934   0.155   0.225  14.865  1.9463 -1.2502 -1.7145
   61MPD2    H1  935   4.574   0.219  14.555  0.8718  1.5776 -0.2787
   61MPD2    H2  936   4.589   4.647  14.845 -0.3052 -0.0240  0.2625
   61MPD2    H3  937   4.498   0.027  14.647 -1.2981  3.0442 -1.0875
   61MPD2     N  938   0.032   0.387  14.679 -0.1520 -0.1612 -0.0949
   61MPD2    H5  939   4.693   0.438  14.620  0.4360 -0.1040 -0.6914
   61MPD2    N1  940   0.086   0.022  14.971  0.2531 -0.9587  0.8172
   61MPD2    H7  941   0.158   0.085  15.003 -0.2759  0.1075 -0.0898
   62TCq2    C1  942   0.045   4.641  15.042 -0.1924 -0.5152 -0.0192
   62TCq2    O2  943   0.014   4.529  14.997 -0.5468 -0.1879  0.3138
   62TCq2    C2  944   0.096   4.645  15.177  0.0759  0.2933  0.2605
   62TCq2    C3  945   0.089   4.533  15.249  0.5261 -0.4487 -0.5192
   62TCq2    C4  946   0.100   4.541  15.386 -0.1852 -0.3344 -0.4029
   62TCq2    C5  947   0.127   4.661  15.447  0.3644 -0.2850 -0.2608
   62TCq2    C6  948   0.140   0.049  15.368  0.0525 -0.8927  0.1928
   62TCq2    C7  949   0.117   0.048  15.233 -0.3012 -0.4994 -0.2322
   62TCq2    C8  950   0.162   0.181  15.424  0.1266  0.7955 -0.5600
   62TCq2    O4  951   0.185   0.275  15.344 -0.7365 -0.4913 -0.3974
   62TCq2    C9  952   0.079   4.424  15.468 -0.0602 -0.5821  0.3652
   62TCq2    O5  953   0.045   4.318  15.411  0.1763  0.2806  0.2443
   62TCq2    O6  954   0.086   4.431  15.590 -0.2382  0.4047  0.8434
   62TCq2    H2  955   0.073   4.435  15.205  1.3435 -0.8480  0.0703
   62TCq2    H3  956   0.133   4.656  15.555 -1.1903  1.6639 -0.0791
   62TCq2    H4  957   0.118   0.141  15.179 -0.4502 -0.3766 -0.0264
   63TMC2    C1  958   4.262   3.960  10.949  0.6459  0.4708 -0.1021
   63TMC2    C2  959   4.359   3.989  11.046 -0.4155 -0.0864  0.4878
   63TMC2    C3  960   4.477   4.040  11.005  0.4356  0.1317  0.5023
   63TMC2    C4  961   4.276   3.990  10.815  0.2175  0.1647 -0.4292
   63TMC2    C5  962   4.391   4.056  10.779  0.1441  0.4942 -0.3434
   63TMC2    C6  963   4.493   4.088  10.877  0.3533 -0.5556  0.0160
   63TMC2     C  964   4.143   3.885  10.984  1.1297 -0.5858  0.0540
   63TMC2     O  965   4.101   3.870  11.101 -0.5576 -0.5800 -0.2810
   63TMC2     H  966   4.352   3.955  11.149 -3.3422  0.4938  0.4870
   63TMC2    H1  967   4.190   3.980  10.749 -0.9037  1.0581  0.8957
   63TMC2    H2  968   4.572   4.153  10.842 -0.5780  0.7349  0.3278
   63TMC2    C7  969   4.390   4.123  10.647  0.2848 -1.0146 -0.3628
   63TMC2    C8  970   4.558   4.097  11.106 -0.2746 -0.4912 -0.1588
   63TMC2    O1  971   4.283   4.107  10.586 -0.1756 -0.1490 -0.2903
   63TMC2    O2  972   4.524   4.081  11.220  0.1504 -0.1680  0.8933
   63TMC2    O5  973   4.683   4.111  11.054  0.2710 -0.0796  0.4326
   63TMC2    H5  974   0.028   4.094  11.121 -0.5862 -2.8359  0.6295
   64MPD2     C  975   3.785   3.552  10.851 -0.1633  0.6217 -0.1168
   64MPD2    C1  976   3.875   3.560  10.752 -0.2076 -0.2867  0.1662
   64MPD2    C2  977   3.981   3.643  10.761 -0.0150  0.0947  0.4882
   64MPD2    C3  978   3.994   3.722  10.874 -0.8279  0.2139  0.3035
   64MPD2    C4  979   3.894   3.723  10.973  0.4990 -0.4571 -0.1127
   64MPD2    C5  980   3.799   3.620  10.966 -0.1744 -0.7770 -0.1980
   64MPD2     H  981   4.046   3.653  10.675  1.3090  0.0293  1.4820
   64MPD2    H1  982   3.902   3.798  11.051 -1.2028  1.0923 -1.4208
   64MPD2    H2  983   3.705   3.479  10.843  1.1004 -0.8233  0.4785
   64MPD2    H3  984   3.723   3.613  11.044 -0.6930  0.7421 -0.5665
   64MPD2     N  985   4.109   3.800  10.881 -0.5603  0.3819  0.7556
   64MPD2    H5  986   4.156   3.793  10.791 -0.2512  3.4400  0.6709
   64MPD2    N1  987   3.884   3.470  10.641 -0.5379  0.1908  0.1732
   64MPD2    H7  988   3.974   3.467  10.593  0.1511  3.6692  1.2291
   65MPD2     C  989   0.509   4.086  16.041 -0.4700  1.0298  0.7549
   65MPD2    C1  990   0.569   4.057  15.917 -0.1850  0.2098  0.1657
   65MPD2    C2  991   0.541   3.938  15.848 -0.2914 -1.2111 -0.0613
   65MPD2    C3  992   0.457   3.841  15.900  0.2844 -0.5236  0.2203
   65MPD2    C4  993   0.402   3.863  16.027  0.3904 -0.3461 -0.4085
   65MPD2    C5  994   0.431   3.981  16.093  0.1279  0.2478 -0.0936
   65MPD2     H  995   0.591   3.931  15.753 -0.0041 -0.0792  0.0033
   65MPD2    H1  996   0.346   3.785  16.077  0.4386  0.0268  0.2211
   65MPD2    H2  997   0.524   4.181  16.091  0.5587  0.8370  0.8256
   65MPD2    H3  998   0.379   3.993  16.187  0.9698  1.1015  0.2567
   65MPD2     N  999   0.418   3.732  15.827  0.0536  0.5766 -0.4629
   65MPD2    H5 1000   0.334   3.680  15.851  0.1709 -0.2011 -1.6978
   65MPD2    N1 1001   0.659   4.148  15.853  0.1736 -0.4851 -0.3944
   65MPD2    H7 1002   0.693   4.130  15.759  0.3670  3.7041 -1.1152
   66TCq2    C1 1003   0.705   4.268  15.903 -0.2963 -0.3639 -0.0717
   66TCq2    O2 1004   0.661   4.330  15.997  0.1344  0.2860 -0.2088
   66TCq2    C2 1005   0.788   4.335  15.801 -0.5112  0.6756 -0.6491
   66TCq2    C3 1006   0.866   4.258  15.720  0.3996 -0.2185  0.0754
   66TCq2    C4 1007   0.949   4.322  15.624 -0.1505 -0.0889  0.1413
   66TCq2    C5 1008   0.967   4.457  15.626  0.5016  0.3450  0.4721
   66TCq2    C6 1009   0.898   4.526  15.724  0.7278 -0.6663  0.4778
   66TCq2    C7 1010   0.805   4.470  15.807  0.1300  0.1233 -0.0053
   66TCq2    C8 1011   0.904   4.671  15.715 -0.0213  0.5434 -0.4211
   66TCq2    O4 1012   0.982   4.717  15.626  0.2654 -0.5656  0.0916
   66TCq2    C9 1013   1.018   4.251  15.519 -0.5149 -0.2955 -0.2300
   66TCq2    O5 1014   0.980   4.135  15.500 -0.0475 -0.8917 -0.1425
   66TCq2    O6 1015   1.072   4.318  15.427 -0.4621  0.3776  0.1924
   66TCq2    H2 1016   0.872   4.151  15.740 -0.0539 -0.4763 -1.1372
   66TCq2    H3 1017   1.044   4.504  15.567  0.1920  0.3867  0.0981
   66TCq2    H4 1018   0.763   4.524  15.891 -2.6035 -3.3471  0.8786
   67MPD2     C 1019   0.487   3.413  14.249  0.2593  0.0876  0.1611
   67MPD2    C1 1020   0.401   3.464  14.343 -0.1994 -0.3105  0.3422
   67MPD2    C2 1021   0.268   3.490  14.302 -0.0492  0.2992 -0.2357
   67MPD2    C3 1022   0.225   3.464  14.171 -0.4002  0.1767  0.5580
   67MPD2    C4 1023   0.310   3.406  14.084 -0.6815 -0.5023  0.2786
   67MPD2    C5 1024   0.439   3.377  14.125 -0.2743 -0.4195  0.0097
   67MPD2     H 1025   0.190   3.519  14.371  1.3343  0.1818  1.3784
   67MPD2    H1 1026   0.278   3.372  13.986  0.0068 -1.4436  0.3785
   67MPD2    H2 1027   0.591   3.392  14.269  0.6557  2.4054  0.5946
   67MPD2    H3 1028   0.511   3.340  14.052  2.1562  0.2132  2.0965
   67MPD2     N 1029   0.097   3.502  14.121 -0.5535 -0.7333 -0.1258
   67MPD2    H5 1030   0.077   3.484  14.023  0.6003  1.4664 -0.7576
   67MPD2    N1 1031   0.439   3.483  14.486  0.2669  0.4251 -0.0768
   67MPD2    H7 1032   0.377   3.530  14.551 -0.2537 -0.6753  0.2244
   68TCq2    C1 1033   0.551   3.434  14.548 -1.0213 -0.5266 -0.5402
   68TCq2    O2 1034   0.639   3.352  14.513 -0.3772  0.0975  0.1022
   68TCq2    C2 1035   0.569   3.486  14.686  0.2583  0.2034  0.0705
   68TCq2    C3 1036   0.489   3.583  14.738  0.1388  0.1823  0.2278
   68TCq2    C4 1037   0.497   3.596  14.871 -0.3695 -0.1340 -1.0527
   68TCq2    C5 1038   0.587   3.526  14.950  0.6930 -0.6194  0.4873
   68TCq2    C6 1039   0.677   3.436  14.888  0.4711  0.2403 -0.5875
   68TCq2    C7 1040   0.661   3.413  14.757  0.2913  0.8877 -0.0264
   68TCq2    C8 1041   0.795   3.388  14.955  0.8283 -0.6989  0.1692
   68TCq2    O4 1042   0.867   3.305  14.894 -0.3906  0.4570  0.0626
   68TCq2    C9 1043   0.413   3.700  14.927  0.1069  0.3665  0.0489
   68TCq2    O5 1044   0.395   3.704  15.053  0.1400 -0.3595  0.0244
   68TCq2    O6 1045   0.382   3.797  14.854 -0.1813 -0.0897 -0.4318
   68TCq2    H2 1046   0.422   3.653  14.689 -1.5236 -1.6423 -0.1314
   68TCq2    H3 1047   0.581   3.548  15.056  2.3136  0.5731  0.3267
   68TCq2    H4 1048   0.725   3.336  14.714 -0.2953 -2.0774  4.3795
   69TMC2    C1 1049   2.482   0.161  12.501 -0.2017  0.8995 -0.1610
   69TMC2    C2 1050   2.368   0.141  12.427  0.4411  0.1661  0.5816
   69TMC2    C3 1051   2.372   0.129  12.296  0.8856 -0.0835  0.1356
   69TMC2    C4 1052   2.600   0.168  12.437 -0.1096 -0.2099  0.3084
   69TMC2    C5 1053   2.603   0.151  12.305 -0.2356 -0.1729  0.8327
   69TMC2    C6 1054   2.490   0.119  12.227  0.6968 -0.4949  0.2402
   69TMC2     C 1055   2.474   0.105  12.637  0.4093 -0.5571  0.4026
   69TMC2     O 1056   2.366   0.113  12.694 -0.2690  0.8927  0.7315
   69TMC2     H 1057   2.272   0.122  12.474 -0.0942  1.2114 -0.0865
   69TMC2    H1 1058   2.688   0.199  12.492 -0.2961  1.4370 -0.3372
   69TMC2    H2 1059   2.497   0.087  12.124 -2.3959  0.1476 -0.1407
   69TMC2    C7 1060   2.732   0.102  12.252 -0.5675 -0.2980 -0.5616
   69TMC2    C8 1061   2.251   0.163  12.225 -0.3709  0.5375  0.4207
   69TMC2    O1 1062   2.798   0.052  12.342  0.2877 -0.5733 -0.2110
   69TMC2    O2 1063   2.140   0.131  12.262  0.2238  0.0686  0.1437
   69TMC2    O5 1064   2.278   0.231  12.110  0.4664  0.0457  0.0605
   69TMC2    H5 1065   2.373   0.245  12.092  0.0389  1.5747 -0.9977
   70MPD2     C 1066   2.721   4.601  12.790  0.1563  0.0130 -0.5328
   70MPD2    C1 1067   2.600   4.668  12.778  0.0625  0.4684 -0.0372
   70MPD2    C2 1068   2.498   4.644  12.870 -0.1186  0.3960  0.3859
   70MPD2    C3 1069   2.523   4.562  12.979 -0.1573  0.2480 -0.3181
   70MPD2    C4 1070   2.650   4.513  13.001  0.4101 -0.6969  0.1429
   70MPD2    C5 1071   2.754   4.537  12.909 -0.0943  0.6002  0.9186
   70MPD2     H 1072   2.397   4.682  12.860 -0.4813 -0.8872 -0.7621
   70MPD2    H1 1073   2.661   4.454  13.091 -0.5472 -1.1185 -0.0218
   70MPD2    H2 1074   2.805   4.608  12.722  1.9233  0.0762  1.6307
   70MPD2    H3 1075   2.851   4.491  12.923 -0.0674  0.5032  0.4070
   70MPD2     N 1076   2.420   4.510  13.067  0.6086  0.4453 -0.7739
   70MPD2    H5 1077   2.441   4.442  13.139  1.8301  0.3316 -1.2197
   70MPD2    N1 1078   2.585   0.022  12.664  0.3743 -0.1304  0.0125
   70MPD2    H7 1079   2.660   0.015  12.596  1.7668 -3.0577  1.8366
   71TMC2    C1 1080   4.685   0.838   1.428  0.0886 -0.1599 -0.4476
   71TMC2    C2 1081   0.072   0.899   1.488 -0.2908 -0.7632  0.1173
   71TMC2    C3 1082   0.030   1.002   1.570 -0.0257  0.0969 -0.2791
   71TMC2    C4 1083   4.553   0.870   1.446  0.2662 -0.4463 -0.1478
   71TMC2    C5 1084   4.526   0.973   1.535  0.6183 -0.0838  0.5307
   71TMC2    C6 1085   4.625   1.040   1.592  0.0012  0.5573  0.0212
   71TMC2     C 1086   4.707   0.722   1.339  0.1343  0.3211 -0.0992
   71TMC2     O 1087   0.092   0.713   1.280  0.1460  0.4789 -0.1179
   71TMC2     H 1088   0.174   0.875   1.460 -0.6815 -0.7984 -1.2935
   71TMC2    H1 1089   4.469   0.824   1.397 -1.7640  2.1952  0.8555
   71TMC2    H2 1090   4.598   1.118   1.661  0.5807  1.3761 -0.6723
   71TMC2    C7 1091   4.392   1.022   1.567 -0.4733  0.2314 -0.8252
   71TMC2    C8 1092   0.132   1.083   1.624 -0.2409 -0.0208 -0.0607
   71TMC2    O1 1093   4.387   1.124   1.639 -0.7072  0.6180 -0.4565
   71TMC2    O2 1094   0.236   1.097   1.563  0.0832  0.1118 -0.4525
   71TMC2    O5 1095   0.087   1.142   1.733 -0.6589  0.0944  0.3640
   71TMC2    H5 1096   0.019   1.088   1.778 -0.4378  0.0152  0.6066
   72MPD2     C 1097   4.572   0.282   1.094  0.4531  0.2867  0.1772
   72MPD2    C1 1098   4.685   0.364   1.078  0.3327 -0.4048  0.0008
   72MPD2    C2 1099   4.699   0.473   1.161  0.3528  0.5851 -0.7577
   72MPD2    C3 1100   4.596   0.517   1.243 -0.0718 -0.0353  0.3935
   72MPD2    C4 1101   4.486   0.436   1.261 -0.1944  0.1507 -0.8979
   72MPD2    C5 1102   4.473   0.320   1.187 -0.1300  0.5904 -0.6426
   72MPD2     H 1103   0.062   0.534   1.145 -0.9418  2.4886 -0.6485
   72MPD2    H1 1104   4.395   0.465   1.313 -0.6423 -1.5093 -0.7827
   72MPD2    H2 1105   4.553   0.191   1.039  0.3962 -0.0957  0.8274
   72MPD2    H3 1106   4.378   0.268   1.195  0.3339 -0.1222  0.1572
   72MPD2     N 1107   4.595   0.641   1.316  0.4305 -0.2103  0.3660
   72MPD2    H5 1108   4.512   0.661   1.371 -0.9969  0.6441 -2.0963
   72MPD2    N1 1109   0.062   0.350   0.986  0.2627 -0.0740 -0.3913
   72MPD2    H7 1110   0.131   0.425   0.985 -0.9535  1.0522  0.7834
   73TMC2    C1 1111   4.664   1.918  13.989  0.6370  0.1746 -0.0800
   73TMC2    C2 1112   4.657   1.780  14.003  0.8561 -0.2991  0.2239
   73TMC2    C3 1113   4.679   1.732  14.134  0.4460 -0.0889 -0.3206
   73TMC2    C4 1114   4.670   2.001  14.098  0.7226 -0.4904 -0.5280
   73TMC2    C5 1115   4.681   1.950  14.226  0.4878  0.2669 -0.6647
   73TMC2    C6 1116   4.676   1.812  14.241 -0.2876 -0.4532  0.0726
   73TMC2     C 1117   0.012   1.967  13.878  0.3169  0.2382  0.2827
   73TMC2     O 1118   0.044   2.085  13.893 -0.1730  0.0404 -0.6883
   73TMC2     H 1119   4.645   1.706  13.926 -0.0595 -1.6801  1.6870
   73TMC2    H1 1120   4.653   2.108  14.084  1.6636 -0.2693 -0.0150
   73TMC2    H2 1121   4.701   1.769  14.337 -2.2288 -0.4885  0.5781
   73TMC2    C7 1122   0.059   2.019  14.296 -0.1193  1.6932  0.7288
   73TMC2    C8 1123   4.652   1.584  14.145  0.3013 -0.1754  0.3955
   73TMC2    O1 1124   0.070   1.991  14.414  0.0082 -0.0500  0.1277
   73TMC2    O2 1125   0.003   1.500  14.091  0.1039  0.0888  0.4927
   73TMC2    O5 1126   4.520   1.579  14.099 -0.2736 -0.0164 -0.1960
   73TMC2    H5 1127   4.465   1.656  14.123 -0.0249 -0.3037  1.3106
   74MPD2     C 1128   0.328   1.937  13.489  0.3458 -0.0900  0.3264
   74MPD2    C1 1129   0.333   2.019  13.595 -0.5287  0.2606 -0.3263
   74MPD2    C2 1130   0.239   2.005  13.694  0.6110 -0.2821  0.1215
   74MPD2    C3 1131   0.146   1.904  13.682 -0.0413 -0.2810 -0.2689
   74MPD2    C4 1132   0.145   1.820  13.577 -0.2290 -0.2872  0.0582
   74MPD2    C5 1133   0.236   1.828  13.482 -0.2797 -0.1402 -0.2327
   74MPD2     H 1134   0.249   2.059  13.788 -3.2238 -0.6022  0.6850
   74MPD2    H1 1135   0.073   1.739  13.581  2.3821 -2.6240 -0.3109
   74MPD2    H2 1136   0.401   1.932  13.409  0.7726  1.0049  0.6560
   74MPD2    H3 1137   0.241   1.752  13.405  0.0155  0.0231 -0.3743
   74MPD2     N 1138   0.054   1.883  13.784  0.1156  0.5005  0.4680
   74MPD2    H5 1139   0.007   1.793  13.774  3.2832 -1.2231  1.2367
   74MPD2    N1 1140   0.437   2.114  13.602 -0.1957 -0.6245 -0.1231
   74MPD2    H7 1141   0.496   2.117  13.519  1.6467  0.5142  1.2444
   75TCq2    C1 1142   4.707   3.539  14.196  0.2447  0.6144  0.1667
   75TCq2    O2 1143   4.709   3.568  14.313  0.0921 -0.6900 -0.4747
   75TCq2    C2 1144   4.584   3.548  14.123  0.1407  0.2056  0.2055
   75TCq2    C3 1145   4.473   3.575  14.195  0.7720  0.3374  0.4083
   75TCq2    C4 1146   4.352   3.541  14.143 -0.4636  0.3922  0.4029
   75TCq2    C5 1147   4.325   3.503  14.015  0.0089  0.3565 -0.6501
   75TCq2    C6 1148   4.442   3.492  13.942 -0.5784 -0.5131 -0.0178
   75TCq2    C7 1149   4.567   3.491  13.997  0.5854 -0.4868  0.1979
   75TCq2    C8 1150   4.427   3.465  13.799  0.1214 -0.2773  0.1422
   75TCq2    O4 1151   4.515   3.420  13.731  0.0481 -0.3456 -0.1112
   75TCq2    C9 1152   4.242   3.574  14.233 -0.3651  0.6927 -0.5065
   75TCq2    O5 1153   4.256   3.678  14.300 -0.2924 -0.0955 -0.3320
   75TCq2    O6 1154   4.131   3.533  14.193  0.0183 -0.2992  0.1656
   75TCq2    H2 1155   4.480   3.609  14.298 -0.8424 -1.8770  1.2601
   75TCq2    H3 1156   4.224   3.482  13.980 -0.0863  0.9386 -0.7277
   75TCq2    H4 1157   4.650   3.466  13.933  0.3773 -2.0338  0.5474
   76MPD2     C 1158   3.438   3.808  12.531 -0.1302  0.2430  0.3878
   76MPD2    C1 1159   3.494   3.856  12.418 -0.0209  0.9119 -0.4102
   76MPD2    C2 1160   3.626   3.821  12.398  0.2214  0.3476 -0.1039
   76MPD2    C3 1161   3.694   3.728  12.473 -0.3601  0.2333  0.1670
   76MPD2    C4 1162   3.625   3.665  12.574  0.3549 -0.0072 -0.6803
   76MPD2    C5 1163   3.494   3.692  12.587 -0.1945 -0.2577 -0.8414
   76MPD2     H 1164   3.670   3.873  12.313  1.8320  0.6944  0.9310
   76MPD2    H1 1165   3.680   3.588  12.627 -1.1765 -0.1112  0.7764
   76MPD2    H2 1166   3.337   3.838  12.559  0.2781  0.6296  1.4219
   76MPD2    H3 1167   3.446   3.640  12.669 -2.0810  0.3010 -1.5836
   76MPD2     N 1168   3.835   3.701  12.462 -0.8787 -0.1186 -0.0117
   76MPD2    H5 1169   3.870   3.618  12.509 -2.7735  0.1903  1.9665
   76MPD2    N1 1170   3.434   3.956  12.336 -0.0234 -0.1709 -0.0080
   76MPD2    H7 1171   3.501   3.983  12.265 -0.1628  0.0263 -0.0639
   77TCq2    C1 1172   3.914   3.760  12.364 -1.0497 -0.1019 -0.2939
   77TCq2    O2 1173   3.892   3.858  12.291  0.1525 -0.0142  0.2915
   77TCq2    C2 1174   4.033   3.676  12.333  0.6682  0.4712  0.2446
   77TCq2    C3 1175   4.073   3.667  12.203 -0.0803 -0.3708  0.5097
   77TCq2    C4 1176   4.176   3.586  12.164  0.0605  0.1582  0.4043
   77TCq2    C5 1177   4.231   3.504  12.247 -0.4084  0.2843  0.4359
   77TCq2    C6 1178   4.189   3.507  12.380 -0.2664 -0.1065  0.4096
   77TCq2    C7 1179   4.088   3.594  12.427 -0.0201 -0.0226  0.0618
   77TCq2    C8 1180   4.257   3.413  12.471  0.0732  0.6550 -0.1452
   77TCq2    O4 1181   4.299   3.312  12.412  0.3002  0.1551  0.4697
   77TCq2    C9 1182   4.208   3.589  12.019 -0.0038  1.5473 -0.2853
   77TCq2    O5 1183   4.197   3.485  11.951  0.1176  0.1082 -0.6240
   77TCq2    O6 1184   4.226   3.707  11.972 -0.2598 -0.0884 -0.4838
   77TCq2    H2 1185   4.031   3.736  12.130 -2.4098 -4.9082 -2.4407
   77TCq2    H3 1186   4.301   3.432  12.207  0.2736  0.5938  1.0485
   77TCq2    H4 1187   4.059   3.612  12.529 -0.1134  2.1378 -0.3364
   78MPD1     C 1188   0.093   1.001   2.033  0.0836 -0.0632  0.2668
   78MPD1    C1 1189   4.719   0.941   1.955 -0.4515 -0.2183  0.0654
   78MPD1    C2 1190   0.026   0.839   1.864  0.0036 -0.1800 -0.8487
   78MPD1    C3 1191   0.153   0.786   1.868 -0.1103  0.5059 -0.1422
   78MPD1    C4 1192   0.247   0.836   1.961  0.5733 -0.0766  0.1522
   78MPD1    C5 1193   0.213   0.939   2.048  0.3400  0.0428 -0.3850
   78MPD1     H 1194   4.672   0.796   1.804 -1.4292  1.5714 -0.2119
   78MPD1    H1 1195   0.351   0.804   1.962  1.5508  3.0753  1.9648
   78MPD1    H2 1196   0.078   1.092   2.088 -1.1714 -0.0069 -0.1554
   78MPD1    H3 1197   0.283   0.992   2.111 -0.4475  1.1257 -0.4136
   78MPD1     N 1198   0.201   0.678   1.788 -0.6784  0.4825  0.1581
   78MPD1    H5 1199   0.293   0.642   1.813 -0.6997  0.3691  0.0714
   78MPD1    N1 1200   4.605   1.017   1.934 -0.0196  1.0028  0.0989
   78MPD1    H6 1201   4.532   0.954   1.899  0.0813 -0.1353  1.9258
   78MPD1    H7 1202   4.570   1.081   2.005  0.0140  0.8294  0.2716
   79TCq2    C1 1203   0.125   0.614   1.691 -0.3834  0.1061 -0.1816
   79TCq2    O2 1204   0.002   0.621   1.671  0.0514 -0.4700  0.3640
   79TCq2    C2 1205   0.204   0.514   1.620  0.5974  0.3399  0.3379
   79TCq2    C3 1206   0.136   0.413   1.554 -0.5418  0.1512 -0.2526
   79TCq2    C4 1207   0.200   0.320   1.486  0.0975  0.0200 -0.1909
   79TCq2    C5 1208   0.340   0.333   1.476 -0.1341 -0.4366 -0.8207
   79TCq2    C6 1209   0.409   0.435   1.538 -0.3312 -0.1348  0.4101
   79TCq2    C7 1210   0.340   0.530   1.613  0.2491 -0.2832 -0.1234
   79TCq2    C8 1211   0.549   0.430   1.524  0.5932  0.7726 -0.0703
   79TCq2    O4 1212   0.595   0.352   1.441  0.0054  0.1612  0.3687
   79TCq2    C9 1213   0.134   0.206   1.424 -0.5916 -0.4619  0.6216
   79TCq2    O5 1214   0.213   0.146   1.339  0.1815 -0.2038 -0.2011
   79TCq2    O6 1215   0.019   0.174   1.471 -0.0627  0.3537 -0.2663
   79TCq2    H2 1216   0.028   0.407   1.560 -0.6788  0.2567 -2.4721
   79TCq2    H3 1217   0.392   0.259   1.418  0.0515  0.7938 -2.2194
   79TCq2    H4 1218   0.389   0.618   1.655 -1.3810  0.5274  0.0673
   80MPD2     C 1219   2.579   3.853  12.359 -0.4692  0.8183 -0.7726
   80MPD2    C1 1220   2.510   3.759  12.291 -0.1774 -0.6879 -0.0319
   80MPD2    C2 1221   2.374   3.736  12.324 -0.7015 -0.3290  0.6713
   80MPD2    C3 1222   2.313   3.819  12.422  0.0443  1.1353  0.3172
   80MPD2    C4 1223   2.385   3.920  12.480 -0.0537 -0.3516 -0.3651
   80MPD2    C5 1224   2.520   3.927  12.461 -0.2137 -0.2069  0.6505
   80MPD2     H 1225   2.325   3.650  12.281  2.6134 -0.7661 -2.1685
   80MPD2    H1 1226   2.330   3.981  12.551  0.3866 -1.0048  0.5477
   80MPD2    H2 1227   2.685   3.875  12.349 -0.3753  1.6398  2.0387
   80MPD2    H3 1228   2.582   4.004  12.504  1.3945 -1.7097  1.0559
   80MPD2     N 1229   2.180   3.809  12.462 -0.0395  0.2092  0.1001
   80MPD2    H5 1230   2.153   3.876  12.533 -0.9484  1.4447 -1.3987
   80MPD2    N1 1231   2.566   3.685  12.186 -0.2439 -0.0888  0.2982
   80MPD2    H7 1232   2.506   3.634  12.122  0.4788 -0.1136 -0.3641
   81TCq2    C1 1233   2.698   3.683  12.153  0.1164  0.9262  0.0995
   81TCq2    O2 1234   2.798   3.742  12.198  0.1550 -0.2649  0.1733
   81TCq2    C2 1235   2.708   3.609  12.027  0.4304 -0.1861 -0.0538
   81TCq2    C3 1236   2.804   3.649  11.947 -0.1991 -1.0670 -0.4025
   81TCq2    C4 1237   2.799   3.602  11.821  0.2832 -0.0017 -0.2456
   81TCq2    C5 1238   2.706   3.517  11.770  0.4517  0.0971 -0.3232
   81TCq2    C6 1239   2.623   3.466  11.861  0.4950 -0.7837 -0.0805
   81TCq2    C7 1240   2.622   3.512  11.986  0.4870  0.4841  0.4682
   81TCq2    C8 1241   2.519   3.373  11.817  0.1926 -0.7465  0.1133
   81TCq2    O4 1242   2.482   3.393  11.700 -0.2985 -0.1256 -0.6053
   81TCq2    C9 1243   2.905   3.636  11.739  0.8689  0.2183  0.4851
   81TCq2    O5 1244   3.014   3.680  11.787 -0.6117 -0.1613  0.4736
   81TCq2    O6 1245   2.895   3.588  11.623 -0.7050 -0.1421  0.5430
   81TCq2    H2 1246   2.871   3.724  11.986 -0.2483 -1.7162  0.9251
   81TCq2    H3 1247   2.700   3.485  11.667 -1.0646  1.8236 -0.7612
   81TCq2    H4 1248   2.556   3.458  12.053  0.3295 -0.6126 -0.5833
   82MPD2     C 1249   1.394   2.955  10.649  0.3967  0.1643 -0.3721
   82MPD2    C1 1250   1.331   2.834  10.658  0.0440 -0.7061  1.1938
   82MPD2    C2 1251   1.351   2.752  10.772  0.2167 -0.1254  0.6683
   82MPD2    C3 1252   1.446   2.787  10.869  0.6069 -0.2278 -0.1917
   82MPD2    C4 1253   1.517   2.906  10.850  0.2748 -0.0293  0.0506
   82MPD2    C5 1254   1.481   2.993  10.748  0.6377  0.0336  0.6662
   82MPD2     H 1255   1.291   2.662  10.775  2.0841 -1.4578 -2.1791
   82MPD2    H1 1256   1.598   2.948  10.909  0.8686 -1.6983  0.4039
   82MPD2    H2 1257   1.371   3.032  10.575  0.1286  0.1892 -0.2627
   82MPD2    H3 1258   1.539   3.085  10.745 -1.3266  1.2548  0.6312
   82MPD2     N 1259   1.441   2.727  10.998  0.4790 -0.2169  0.4683
   82MPD2    H5 1260   1.479   2.774  11.080 -3.4288  3.3836  0.2053
   82MPD2    N1 1261   1.251   2.809  10.546  0.0027  0.1814  0.4672
   82MPD2    H7 1262   1.199   2.891  10.515 -1.5206 -0.8257  0.3632
   83TCq2    C1 1263   1.383   2.605  11.022  0.6899  0.0411 -0.1398
   83TCq2    O2 1264   1.339   2.521  10.945 -0.4583 -0.0120  0.0248
   83TCq2    C2 1265   1.366   2.568  11.164 -0.9237 -0.3304  0.4642
   83TCq2    C3 1266   1.447   2.618  11.261  0.3888 -0.1907  0.2051
   83TCq2    C4 1267   1.437   2.570  11.392  0.0852  0.6274  0.1463
   83TCq2    C5 1268   1.337   2.483  11.424  0.0913 -0.2220  0.3304
   83TCq2    C6 1269   1.263   2.432  11.322  0.2872 -0.9826  0.1385
   83TCq2    C7 1270   1.285   2.460  11.194  0.1681  0.0783 -0.4443
   83TCq2    C8 1271   1.145   2.350  11.353  0.1054 -0.2488  0.5856
   83TCq2    O4 1272   1.094   2.341  11.468  0.2580 -0.6253  0.5434
   83TCq2    C9 1273   1.521   2.626  11.491 -0.2540 -0.0890  0.5003
   83TCq2    O5 1274   1.533   2.566  11.605 -0.2402 -0.5313  0.6807
   83TCq2    O6 1275   1.584   2.731  11.453  0.4907 -0.4568 -0.2997
   83TCq2    H2 1276   1.527   2.690  11.246 -1.1297  1.4047 -0.2967
   83TCq2    H3 1277   1.307   2.455  11.525  0.5232 -1.2104  0.1860
   83TCq2    H4 1278   1.220   2.434  11.111  0.1029 -0.2826 -0.2784
   84TCq2    C1 1279   2.635   1.639  10.667  0.0442 -0.6489  0.1668
   84TCq2    O2 1280   2.535   1.586  10.624 -0.8880  0.1429  0.2960
   84TCq2    C2 1281   2.661   1.644  10.811 -0.3417 -0.6824 -0.3020
   84TCq2    C3 1282   2.786   1.620  10.855 -0.6406  0.7411 -0.0692
   84TCq2    C4 1283   2.797   1.607  10.988 -0.7151 -0.0646  0.3547
   84TCq2    C5 1284   2.694   1.612  11.073 -0.0371 -0.2003  0.2004
   84TCq2    C6 1285   2.566   1.629  11.025  0.3282 -0.3381 -0.0908
   84TCq2    C7 1286   2.549   1.638  10.891 -0.9074  0.7909 -0.1980
   84TCq2    C8 1287   2.455   1.598  11.119  0.4823  0.1648 -0.2275
   84TCq2    O4 1288   2.479   1.631  11.238 -0.1346 -0.4873 -0.3484
   84TCq2    C9 1289   2.933   1.579  11.035  0.3981 -0.4968  0.1605
   84TCq2    O5 1290   3.032   1.585  10.955 -0.5243 -0.6395 -0.2059
   84TCq2    O6 1291   2.939   1.566  11.155  0.2607  0.1989  0.3192
   84TCq2    H2 1292   2.869   1.614  10.786 -0.9187  2.2583 -0.5498
   84TCq2    H3 1293   2.717   1.589  11.176  0.7093 -0.4578 -0.0236
   84TCq2    H4 1294   2.454   1.655  10.841 -0.9020 -2.2847 -1.2640
   85MPD2     C 1295   2.795   4.716  16.523  1.1642 -0.0049 -0.4943
   85MPD2    C1 1296   2.711   4.698  16.416  0.2068  0.8809 -0.7555
   85MPD2    C2 1297   2.741   0.041  16.300  0.6890  0.0245  0.1496
   85MPD2    C3 1298   2.837   0.143  16.293  0.8909  0.0685 -0.0859
   85MPD2    C4 1299   2.916   0.165  16.405 -1.3661 -0.7154  0.5600
   85MPD2    C5 1300   2.893   0.088  16.517  0.0130 -0.0448  0.8558
   85MPD2     H 1301   2.682   0.028  16.210  0.9330  1.2319 -0.1858
   85MPD2    H1 1302   2.989   0.245  16.399 -2.0060 -0.0128  2.0280
   85MPD2    H2 1303   2.783   4.665  16.618 -1.7614  1.5818 -0.0247
   85MPD2    H3 1304   2.942   0.123  16.608  1.0534 -0.9380  0.6495
   85MPD2     N 1305   2.853   0.219  16.172  0.5865  0.2139 -0.5438
   85MPD2    H5 1306   2.791   0.200  16.094 -1.7456 -0.6433  1.5368
   85MPD2    N1 1307   2.613   4.595  16.407 -0.1327 -0.3935  0.5264
   85MPD2    H7 1308   2.554   4.595  16.325 -0.9363  0.5888  1.1008
   86TCq2    C1 1309   2.961   0.306  16.143 -0.6770 -0.1518  0.8731
   86TCq2    O2 1310   3.074   0.323  16.190  0.2137  0.2877  0.1901
   86TCq2    C2 1311   2.942   0.367  16.010  0.5236  0.1067 -0.2668
   86TCq2    C3 1312   2.824   0.418  15.965  0.4608  0.3082 -0.3380
   86TCq2    C4 1313   2.820   0.504  15.858 -0.0213 -0.6517 -0.0318
   86TCq2    C5 1314   2.934   0.538  15.796 -0.3264  0.3762  0.7707
   86TCq2    C6 1315   3.053   0.495  15.846 -0.1224  0.2190  0.0167
   86TCq2    C7 1316   3.059   0.399  15.946 -0.9131  0.0074  0.8061
   86TCq2    C8 1317   3.179   0.517  15.773  0.2312 -0.2914 -0.1832
   86TCq2    O4 1318   3.263   0.431  15.783 -0.5059 -0.3452 -0.6531
   86TCq2    C9 1319   2.703   0.573  15.813 -0.3323  0.3519  0.2397
   86TCq2    O5 1320   2.714   0.701  15.793  0.0460 -0.7396 -0.7206
   86TCq2    O6 1321   2.595   0.512  15.843  0.9571  0.2586  0.0044
   86TCq2    H2 1322   2.727   0.402  16.011 -0.6316  0.4588 -2.6018
   86TCq2    H3 1323   2.925   0.615  15.720 -1.2185 -0.6001 -0.1203
   86TCq2    H4 1324   3.150   0.344  15.965  0.6970  2.7809  1.1635
   87MPD2     C 1325   0.226   3.338   1.515 -0.5405 -0.5436 -0.8822
   87MPD2    C1 1326   0.325   3.415   1.564  0.1525  0.3724 -0.0718
   87MPD2    C2 1327   0.299   3.551   1.577 -0.4825  0.2145  0.6252
   87MPD2    C3 1328   0.185   3.611   1.520  0.0847 -0.3789  0.3805
   87MPD2    C4 1329   0.083   3.532   1.471 -0.1527 -0.4315  0.1179
   87MPD2    C5 1330   0.105   3.396   1.473  0.3300  0.5821 -0.0855
   87MPD2     H 1331   0.383   3.617   1.595  1.4664 -1.2731 -2.9679
   87MPD2    H1 1332   4.712   3.564   1.434  0.6632  1.8810  0.0058
   87MPD2    H2 1333   0.236   3.230   1.511  1.1288 -0.3722 -1.2428
   87MPD2    H3 1334   0.021   3.342   1.430  0.0548 -0.2122  1.4760
   87MPD2     N 1335   0.175   3.753   1.506  0.4932 -0.9622 -0.1857
   87MPD2    H5 1336   0.091   3.787   1.460  0.5295 -0.5383  0.0591
   87MPD2    N1 1337   0.453   3.359   1.586  0.6085  0.6197  0.0296
   87MPD2    H7 1338   0.469   3.269   1.541 -0.1912  1.7340 -2.4269
   88TCq2    C1 1339   0.561   3.430   1.640  0.5193  0.4852 -0.1725
   88TCq2    O2 1340   0.547   3.506   1.739  0.2313 -0.1810 -0.3368
   88TCq2    C2 1341   0.692   3.395   1.591 -0.0261  0.0289  0.0465
   88TCq2    C3 1342   0.797   3.459   1.653 -0.7927 -0.1597 -0.2140
   88TCq2    C4 1343   0.913   3.470   1.591  0.0556  0.9630  0.5384
   88TCq2    C5 1344   0.928   3.430   1.460 -1.0889 -0.4068 -0.2438
   88TCq2    C6 1345   0.826   3.359   1.401  0.4987  0.1647  0.2144
   88TCq2    C7 1346   0.713   3.334   1.471 -0.3950 -0.2861  0.8512
   88TCq2    C8 1347   0.836   3.343   1.251  0.1934 -0.6744  0.3369
   88TCq2    O4 1348   0.941   3.369   1.194  0.1143  0.1015  0.6076
   88TCq2    C9 1349   1.003   3.559   1.652 -0.1957  0.5764  0.0407
   88TCq2    O5 1350   1.053   3.641   1.575 -0.1394  0.3876  0.3478
   88TCq2    O6 1351   1.023   3.553   1.780 -0.5318  0.2925 -0.6376
   88TCq2    H2 1352   0.781   3.514   1.745  3.1304 -1.2467  1.1168
   88TCq2    H3 1353   1.021   3.456   1.410 -0.4466 -0.6531  0.8198
   88TCq2    H4 1354   0.630   3.278   1.428 -0.7231  0.3434  0.6679
   89MPD2     C 1355   1.552   0.606   1.647  0.2422 -0.1570  0.5001
   89MPD2    C1 1356   1.506   0.732   1.651 -0.5160 -0.2336  0.0955
   89MPD2    C2 1357   1.592   0.846   1.632  0.5776  0.2472 -0.3881
   89MPD2    C3 1358   1.714   0.816   1.585 -0.0881  0.2182 -0.1068
   89MPD2    C4 1359   1.757   0.683   1.560  0.4353  0.9692  0.5332
   89MPD2    C5 1360   1.680   0.578   1.615  0.2211  0.0159 -0.4649
   89MPD2     H 1361   1.553   0.945   1.656 -0.7470 -0.4307  0.2581
   89MPD2    H1 1362   1.850   0.658   1.511  0.5456  0.5945  0.9393
   89MPD2    H2 1363   1.497   0.519   1.682 -0.6010  0.0384 -0.3315
   89MPD2    H3 1364   1.711   0.474   1.620  1.9200  0.5500 -0.1819
   89MPD2     N 1365   1.790   0.931   1.552 -0.1360 -0.7351 -0.4845
   89MPD2    H5 1366   1.753   1.020   1.582  0.4150 -0.1139 -1.6259
   89MPD2    N1 1367   1.377   0.758   1.700  0.0804 -0.1836  0.2888
   89MPD2    H7 1368   1.352   0.855   1.718 -0.6934 -0.6800  2.0072
   90TCq2    C1 1369   1.913   0.928   1.488 -0.1820 -0.0202  0.0060
   90TCq2    O2 1370   1.983   0.834   1.445 -0.7826 -0.0221  0.3785
   90TCq2    C2 1371   1.947   1.060   1.442 -1.0673  0.3831  1.0527
   90TCq2    C3 1372   1.853   1.136   1.383  0.1065  0.9379 -0.0630
   90TCq2    C4 1373   1.891   1.261   1.345 -0.3297  0.2447  0.3065
   90TCq2    C5 1374   2.026   1.303   1.357 -0.2117  0.3956  0.4803
   90TCq2    C6 1375   2.116   1.219   1.422 -0.4988  0.5685  0.4933
   90TCq2    C7 1376   2.078   1.093   1.451  0.6288  0.6184  0.4345
   90TCq2    C8 1377   2.244   1.265   1.470  0.0617  0.1605 -0.2877
   90TCq2    O4 1378   2.307   1.219   1.564 -0.6001  0.2595  0.0273
   90TCq2    C9 1379   1.796   1.360   1.298 -1.1759  0.2393 -0.4622
   90TCq2    O5 1380   1.677   1.330   1.287  0.0001 -0.1231 -0.0257
   90TCq2    O6 1381   1.833   1.476   1.301 -0.3310 -0.0807  0.0999
   90TCq2    H2 1382   1.748   1.110   1.375 -0.2940  2.5439  0.0314
   90TCq2    H3 1383   2.042   1.410   1.363  2.4162  0.0409 -0.2567
   90TCq2    H4 1384   2.138   1.034   1.520 -0.1553  0.7853  1.2536
   91TMC2    C1 1385   3.094   1.254  16.757 -0.1578 -0.0790 -0.2416
   91TMC2    C2 1386   3.150   1.350  16.835 -0.2065 -0.2952  0.3282
   91TMC2    C3 1387   3.069   1.451  16.892 -0.5012  0.1805  0.2779
   91TMC2    C4 1388   2.963   1.247  16.734  0.5705 -0.5695  1.1464
   91TMC2    C5 1389   2.893   1.349  16.789  0.1401  0.3571  0.9320
   91TMC2    C6 1390   2.931   1.448  16.875 -0.5879  0.5029  0.1235
   91TMC2     C 1391   3.175   1.154  16.702  0.2947 -0.4141 -0.2157
   91TMC2     O 1392   3.122   1.051  16.648 -0.2043  0.3719 -0.1026
   91TMC2     H 1393   3.251   1.350  16.875 -1.4600 -2.8566  3.4451
   91TMC2    H1 1394   2.919   1.154  16.700  0.1991  0.0477 -0.0611
   91TMC2    H2 1395   2.860   1.512  16.926  0.3578  1.2914  0.4668
   91TMC2    C7 1396   2.753   1.339  16.778 -0.1187 -0.2583 -0.5407
   91TMC2    C8 1397   3.099   1.500  17.023  0.5856  0.3606 -0.8322
   91TMC2    O1 1398   2.693   1.382  16.876 -0.2186  0.0925 -0.0348
   91TMC2    O2 1399   3.210   1.524  17.071  0.4687  0.0144  0.2652
   91TMC2    O5 1400   3.006   1.445  17.097 -0.0501  0.5438  0.3328
   91TMC2    H5 1401   2.939   1.387  17.054 -0.8396  1.8092 -0.1701
   92MPD2     C 1402   3.415   0.975  16.663  0.4025  0.0237  0.1547
   92MPD2    C1 1403   3.416   1.113  16.686  0.3411 -0.0732 -0.1779
   92MPD2    C2 1404   3.541   1.174  16.691  0.0680 -0.4285 -0.4746
   92MPD2    C3 1405   3.661   1.107  16.659  0.3712  0.1753 -0.3165
   92MPD2    C4 1406   3.654   0.968  16.633  0.7086 -0.2823 -0.2928
   92MPD2    C5 1407   3.534   0.909  16.640  0.0692 -0.3451 -0.7487
   92MPD2     H 1408   3.549   1.278  16.718 -1.3443  0.5755 -3.8857
   92MPD2    H1 1409   3.740   0.915  16.596  0.0995 -0.2266 -1.7772
   92MPD2    H2 1410   3.323   0.918  16.669  0.4779 -0.2981 -1.8126
   92MPD2    H3 1411   3.529   0.801  16.632  1.3849 -0.3708 -1.1520
   92MPD2     N 1412   3.784   1.179  16.655  0.1656 -0.8509  0.3261
   92MPD2    H5 1413   3.781   1.271  16.697  0.8510 -0.4335 -0.5483
   92MPD2    N1 1414   3.305   1.192  16.708  0.2561 -0.1357  0.0045
   92MPD2    H7 1415   3.327   1.283  16.747 -0.5093 -0.9461  2.3173
   93MPD2     C 1416   0.058   0.708  13.491  0.2300  0.8122 -0.1613
   93MPD2    C1 1417   0.001   0.755  13.604 -0.1467  0.1940 -0.0204
   93MPD2    C2 1418   4.594   0.796  13.607  0.3079  0.7413  0.4243
   93MPD2    C3 1419   4.528   0.813  13.484 -0.2187 -0.1122  0.6355
   93MPD2    C4 1420   4.595   0.767  13.365  0.0329  0.1967 -0.6766
   93MPD2    C5 1421   4.717   0.709  13.375 -0.3569 -0.5121 -0.0374
   93MPD2     H 1422   4.552   0.815  13.705  0.3029  0.2136  0.5214
   93MPD2    H1 1423   4.538   0.766  13.273 -2.0336 -2.4644  0.6237
   93MPD2    H2 1424   0.159   0.672  13.477 -0.3056 -0.1331 -1.5628
   93MPD2    H3 1425   0.044   0.669  13.288  0.0857  1.0708 -0.4976
   93MPD2     N 1426   4.393   0.853  13.468  0.7930  0.3500 -0.1927
   93MPD2    H5 1427   4.359   0.884  13.378 -1.8106  1.7214  1.2541
   93MPD2    N1 1428   0.078   0.759  13.722 -0.8723 -0.2396  0.1564
   93MPD2    H7 1429   0.019   0.782  13.800 -2.6965 -0.3766 -1.1848
   94TCq2    C1 1430   0.213   0.747  13.736 -0.5357 -0.0700 -0.0141
   94TCq2    O2 1431   0.303   0.733  13.650  0.3297  0.7500  0.1040
   94TCq2    C2 1432   0.251   0.766  13.874 -0.4863  0.0808 -0.1882
   94TCq2    C3 1433   0.186   0.866  13.940 -0.0601 -0.2831 -0.5528
   94TCq2    C4 1434   0.258   0.948  14.026 -0.0631  0.1879  0.7332
   94TCq2    C5 1435   0.394   0.946  14.026 -0.8691 -0.4232  0.6988
   94TCq2    C6 1436   0.457   0.853  13.944  1.1803 -0.6383  0.1922
   94TCq2    C7 1437   0.385   0.761  13.867  0.3024  0.0211  0.5275
   94TCq2    C8 1438   0.595   0.860  13.913  0.4902  0.2062  0.4127
   94TCq2    O4 1439   0.638   0.767  13.840  0.0703  0.0021  0.5861
   94TCq2    C9 1440   0.190   1.064  14.081 -0.3484  0.0225  0.1524
   94TCq2    O5 1441   0.069   1.065  14.060  0.5911  0.3434  0.5452
   94TCq2    O6 1442   0.262   1.169  14.097 -0.7145  0.2622 -0.3148
   94TCq2    H2 1443   0.079   0.871  13.952 -0.1140  1.7629 -1.8635
   94TCq2    H3 1444   0.446   1.024  14.080  0.7872 -0.7236 -0.4547
   94TCq2    H4 1445   0.431   0.672  13.826 -0.3224 -1.3562  2.8011
   95TMC2    C1 1446   4.548   3.025  16.247  0.3411 -0.4619  0.1797
   95TMC2    C2 1447   4.600   2.965  16.361 -0.0420  0.3484 -0.1068
   95TMC2    C3 1448   4.526   2.872  16.436 -0.6673 -0.5426  0.3361
   95TMC2    C4 1449   4.415   3.009  16.222 -0.6962  0.2611  0.5073
   95TMC2    C5 1450   4.340   2.953  16.324  0.1033  0.0795 -0.1369
   95TMC2    C6 1451   4.390   2.869  16.419 -0.3260  0.2954  0.4336
   95TMC2     C 1452   4.639   3.038  16.140 -0.0590  0.2764  0.2838
   95TMC2     O 1453   0.032   3.062  16.169 -0.0120 -0.0098  0.2263
   95TMC2     H 1454   4.703   2.982  16.390 -0.1774 -1.9920  1.7587
   95TMC2    H1 1455   4.373   3.026  16.124  0.1197  0.7513  0.2432
   95TMC2    H2 1456   4.320   2.813  16.480  0.2355 -0.6487  0.2212
   95TMC2    C7 1457   4.201   2.949  16.295  0.2266  0.1850 -0.4141
   95TMC2    C8 1458   4.587   2.821  16.553 -0.3077  0.8972 -0.1685
   95TMC2    O1 1459   4.137   2.852  16.335  0.4868 -0.2407  0.1063
   95TMC2    O2 1460   4.680   2.871  16.607 -0.0613 -0.3681  0.1619
   95TMC2    O5 1461   4.490   2.729  16.601 -0.1372 -0.1607  0.3901
   95TMC2    H5 1462   4.429   2.692  16.535 -1.1836  0.7925  0.8243
   96MPD2     C 1463   0.047   2.959  15.650 -0.1233  0.0376  0.0283
   96MPD2    C1 1464   0.083   3.059  15.744 -0.6295  0.0535  0.0929
   96MPD2    C2 1465   0.026   3.056  15.871 -0.1831 -0.5292  0.0159
   96MPD2    C3 1466   4.663   2.961  15.904 -0.0212 -0.2107  0.6669
   96MPD2    C4 1467   4.636   2.853  15.818  0.1864 -0.8335  0.5687
   96MPD2    C5 1468   4.687   2.860  15.689  0.4491 -0.2208 -0.5514
   96MPD2     H 1469   0.030   3.146  15.931  2.1892 -0.8138  0.2827
   96MPD2    H1 1470   4.575   2.767  15.845 -0.9451 -0.0286  0.5551
   96MPD2    H2 1471   0.093   2.946  15.553 -1.9698  4.0548 -1.3504
   96MPD2    H3 1472   4.674   2.781  15.617  0.2452 -0.9614  0.3074
   96MPD2     N 1473   4.596   2.966  16.029  0.0051  0.2535 -0.1111
   96MPD2    H5 1474   4.511   2.911  16.034 -0.0831  0.3771 -0.2562
   96MPD2    N1 1475   0.180   3.156  15.703  0.3955 -0.3091 -0.1387
   96MPD2    H7 1476   0.217   3.145  15.609 -0.1624 -0.4955 -0.3410
   97MPD2     C 1477   1.838   4.528   0.474 -0.0245  0.1151 -0.0579
   97MPD2    C1 1478   1.948   4.602   0.477  0.0612  0.0650  0.1456
   97MPD2    C2 1479   1.995   4.657   0.359 -0.2309  0.0919 -0.3556
   97MPD2    C3 1480   1.927   4.637   0.238 -0.0287  0.2445 -0.3751
   97MPD2    C4 1481   1.819   4.551   0.233 -0.2267 -0.0575 -0.2058
   97MPD2    C5 1482   1.779   4.497   0.353  0.5948 -0.1936 -0.2939
   97MPD2     H 1483   2.083   4.721   0.365 -0.2194  0.2165 -2.0100
   97MPD2    H1 1484   1.757   4.536   0.146 -1.6129  0.9407  0.6108
   97MPD2    H2 1485   1.789   4.505   0.568  0.1024  1.9071  0.4462
   97MPD2    H3 1486   1.693   4.431   0.360 -0.9597  1.8253 -0.6417
   97MPD2     N 1487   1.958   4.694   0.116  0.0160  0.8348  0.0236
   97MPD2    H5 1488   1.892   4.678   0.040 -1.8271 -0.4666  1.9106
   97MPD2    N1 1489   2.004   4.627   0.607  0.8766  0.6397 -0.4510
   97MPD2    H7 1490   1.961   4.568   0.677  0.6736 -1.7105 -2.5125
   98TCq2    C1 1491   2.066   0.048   0.080 -0.1546  0.1578 -0.4166
   98TCq2    O2 1492   2.160   0.084   0.151 -0.4412  0.6500 -0.2994
   98TCq2    C2 1493   2.051   0.119  17.656 -0.5884 -0.1055 -0.5839
   98TCq2    C3 1494   1.963   0.088  17.561  0.3313  0.4183  0.5452
   98TCq2    C4 1495   1.936   0.175  17.460 -0.3621 -0.0403  0.2827
   98TCq2    C5 1496   2.016   0.286  17.443  0.6912 -0.3627 -0.3597
   98TCq2    C6 1497   2.113   0.307  17.533  0.3268  0.1179  0.1990
   98TCq2    C7 1498   2.120   0.234  17.648 -0.8302 -0.2007  0.2629
   98TCq2    C8 1499   2.194   0.431  17.533 -0.2513  0.2450 -0.0888
   98TCq2    O4 1500   2.236   0.476  17.638  0.0440 -0.1144  0.2968
   98TCq2    C9 1501   1.828   0.144  17.367 -0.0868 -0.7894 -0.2663
   98TCq2    O5 1502   1.749   0.070  17.429 -0.0715 -0.0486  0.3158
   98TCq2    O6 1503   1.809   0.207  17.261 -0.1246 -0.5656 -0.0039
   98TCq2    H2 1504   1.921   4.713  17.558 -3.5953  2.0279  1.7105
   98TCq2    H3 1505   1.997   0.362  17.369  0.0030 -1.1637 -1.0088
   98TCq2    H4 1506   2.192   0.264   0.021 -1.4527  0.2699  0.6769
   99MPD2     C 1507   1.237   2.802   1.511  0.1847 -0.9547 -0.1341
   99MPD2    C1 1508   1.150   2.725   1.583  0.0190 -0.2368 -0.1909
   99MPD2    C2 1509   1.095   2.615   1.524 -0.2548  0.1516 -0.3903
   99MPD2    C3 1510   1.141   2.576   1.398 -0.8583  0.3865 -0.1176
   99MPD2    C4 1511   1.233   2.650   1.334 -0.9961 -0.3329  0.4371
   99MPD2    C5 1512   1.279   2.765   1.387 -0.0088 -0.0843 -0.4831
   99MPD2     H 1513   1.021   2.555   1.576 -1.4437  1.5205 -0.5320
   99MPD2    H1 1514   1.275   2.624   1.238 -0.2662 -0.2443  0.7299
   99MPD2    H2 1515   1.297   2.881   1.555  0.4785 -2.0568  1.4299
   99MPD2    H3 1516   1.354   2.819   1.331  0.2781 -1.0874 -1.0784
   99MPD2     N 1517   1.102   2.445   1.351 -0.2257 -0.6038  0.0075
   99MPD2    H5 1518   1.033   2.401   1.411  0.3543 -2.4445 -0.6667
   99MPD2    N1 1519   1.109   2.748   1.721  0.0756 -0.0937  0.2860
   99MPD2    H7 1520   1.055   2.670   1.757  1.1830 -1.0389 -0.0821
  100TCq2    C1 1521   1.146   2.849   1.806  0.8859  0.5569  0.1507
  100TCq2    O2 1522   1.208   2.952   1.773 -0.3582 -0.4693 -0.0485
  100TCq2    C2 1523   1.081   2.853   1.931 -0.0845  0.0721 -0.7658
  100TCq2    C3 1524   1.140   2.940   2.022 -0.9368  0.4182 -0.6136
  100TCq2    C4 1525   1.067   2.963   2.134 -0.3444  0.4290 -0.5094
  100TCq2    C5 1526   0.937   2.918   2.152  0.1043  0.8244  0.5595
  100TCq2    C6 1527   0.876   2.844   2.053 -0.0184 -0.1526  0.2229
  100TCq2    C7 1528   0.947   2.807   1.940 -0.4632  0.6159  0.4854
  100TCq2    C8 1529   0.733   2.809   2.070  0.0123 -0.0756 -0.7838
  100TCq2    O4 1530   0.685   2.854   2.175 -0.1132  0.2041 -0.3627
  100TCq2    C9 1531   1.123   3.046   2.234  0.5053 -0.0299  0.4021
  100TCq2    O5 1532   1.068   3.042   2.348  0.1673 -0.1210 -0.2762
  100TCq2    O6 1533   1.230   3.104   2.205  0.3314  0.0385  0.2265
  100TCq2    H2 1534   1.239   2.973   1.993 -1.0552  0.1340 -1.3404
  100TCq2    H3 1535   0.886   2.937   2.246 -2.9579  0.9784 -1.1414
  100TCq2    H4 1536   0.902   2.755   1.857  3.1390 -0.1699 -0.9482
  101MPD2     C 1537   1.652   3.399  13.061 -0.2852 -0.3904 -0.7745
  101MPD2    C1 1538   1.533   3.459  13.031 -0.2767  0.2305 -0.0205
  101MPD2    C2 1539   1.414   3.435  13.104 -0.3615 -0.1470 -0.4332
  101MPD2    C3 1540   1.423   3.352  13.216 -0.0740  0.5103  0.1697
  101MPD2    C4 1541   1.541   3.285  13.250  0.2057 -0.2358  0.4729
  101MPD2    C5 1542   1.653   3.310  13.170  0.0690  0.0097  0.3162
  101MPD2     H 1543   1.319   3.483  13.084 -0.6253  1.8145  5.6377
  101MPD2    H1 1544   1.556   3.229  13.341 -0.5883 -2.4108 -0.7506
  101MPD2    H2 1545   1.738   3.411  12.997  0.3407 -0.3961  0.0598
  101MPD2    H3 1546   1.747   3.258  13.188  1.3666  2.1015 -0.5003
  101MPD2     N 1547   1.315   3.336  13.298 -0.9055  0.3111  0.0598
  101MPD2    H5 1548   1.316   3.265  13.371 -0.1895  1.0988  0.8151
  101MPD2    N1 1549   1.545   3.557  12.928  0.0671  0.2351  0.0381
  101MPD2    H7 1550   1.635   3.568  12.883  1.1794 -1.4008  1.8460
  102TCq2    C1 1551   1.680   4.036  12.785  0.3506  0.8125  0.5439
  102TCq2    O2 1552   1.799   4.003  12.800  0.0075 -0.4986 -0.2652
  102TCq2    C2 1553   1.578   3.938  12.757 -0.3232  0.8383 -0.2059
  102TCq2    C3 1554   1.484   3.983  12.663 -0.1235  0.7107  0.4766
  102TCq2    C4 1555   1.388   3.894  12.632 -0.5267 -0.3610 -0.1597
  102TCq2    C5 1556   1.377   3.777  12.702  0.1955  0.1970  0.1964
  102TCq2    C6 1557   1.469   3.748  12.798  0.1724  0.3819 -0.6578
  102TCq2    C7 1558   1.572   3.829  12.829  0.2958  0.6913 -0.1556
  102TCq2    C8 1559   1.439   3.637  12.888 -0.3035 -0.4292 -0.6549
  102TCq2    O4 1560   1.319   3.626  12.920 -0.3888 -0.2133 -0.2950
  102TCq2    C9 1561   1.295   3.919  12.528  0.0465 -0.1079 -0.6324
  102TCq2    O5 1562   1.236   3.822  12.473  0.9562  0.4006  0.6044
  102TCq2    O6 1563   1.272   4.039  12.505 -0.0189 -0.0679  0.0824
  102TCq2    H2 1564   1.496   4.074  12.605  0.4038  0.2551 -0.1258
  102TCq2    H3 1565   1.295   3.712  12.674  0.4965  0.1288 -0.5225
  102TCq2    H4 1566   1.653   3.804  12.896  0.7738  0.3686 -0.8581
  103TMC2    C1 1567   4.486   3.661  13.207  0.1668  0.0202  0.3971
  103TMC2    C2 1568   4.597   3.599  13.262  0.5406 -0.4166 -0.9620
  103TMC2    C3 1569   4.634   3.637  13.389 -0.2465  0.7400 -0.2066
  103TMC2    C4 1570   4.414   3.753  13.282  0.2456  0.1059 -0.2415
  103TMC2    C5 1571   4.452   3.776  13.411  0.4174 -0.8886  0.0858
  103TMC2    C6 1572   4.553   3.714  13.466 -0.3285 -0.1463  0.1231
  103TMC2     C 1573   4.445   3.625  13.070 -0.5172  0.2503 -0.0753
  103TMC2     O 1574   4.375   3.705  13.010 -0.0811  0.4942  0.3177
  103TMC2     H 1575   4.660   3.530  13.207  0.4036 -0.1024 -1.5069
  103TMC2    H1 1576   4.330   3.801  13.234 -0.5821  0.4067  1.5157
  103TMC2    H2 1577   4.558   3.712  13.574 -1.3780  0.1764  0.1764
  103TMC2    C7 1578   4.384   3.884  13.489 -0.4500  0.6471  0.0415
  103TMC2    C8 1579   0.023   3.571  13.457 -0.1704 -0.0446 -0.0536
  103TMC2    O1 1580   4.386   3.869  13.611 -0.6378  0.6319  0.1189
  103TMC2    O2 1581   0.055   3.453  13.439 -0.1092  0.0443 -0.1036
  103TMC2    O5 1582   0.072   3.655  13.554  0.1868 -0.3799  0.4543
  103TMC2    H5 1583   0.057   3.749  13.532  0.3863 -0.5499 -0.4293
  104MPD2     C 1584   4.538   3.325  12.886 -0.5392 -0.8775  0.6471
  104MPD2    C1 1585   4.464   3.443  12.907 -0.1027 -0.1653  0.2179
  104MPD2    C2 1586   4.391   3.503  12.804 -0.3276  0.2316 -0.4771
  104MPD2    C3 1587   4.372   3.426  12.690 -1.5120  0.1218 -0.4817
  104MPD2    C4 1588   4.443   3.308  12.672  0.2036 -0.0438 -0.0670
  104MPD2    C5 1589   4.524   3.256  12.770  0.5828 -0.6317 -0.3887
  104MPD2     H 1590   4.333   3.591  12.827 -0.8943 -0.4316  0.6023
  104MPD2    H1 1591   4.440   3.253  12.579  3.2660  0.1394 -0.2901
  104MPD2    H2 1592   4.609   3.288  12.960  1.3665  1.3547 -0.0661
  104MPD2    H3 1593   4.581   3.165  12.763  0.5068 -0.6595 -0.6485
  104MPD2     N 1594   4.281   3.470  12.591 -0.3378  0.3116  0.3284
  104MPD2    H5 1595   4.242   3.562  12.607 -1.7006  0.0607 -1.5553
  104MPD2    N1 1596   4.490   3.505  13.028  0.0930 -0.1471 -0.2505
  104MPD2    H7 1597   4.547   3.451  13.093  0.9253  1.5290  0.4169
  105MPD2     C 1598   1.282   2.799  17.518  0.3000  0.1022  0.3515
  105MPD2    C1 1599   1.299   2.933  17.508 -0.1606 -0.0726  0.0816
  105MPD2    C2 1600   1.227   3.020  17.588  0.9793 -0.5554  0.3157
  105MPD2    C3 1601   1.148   2.965  17.689  0.0904 -0.3602 -0.6200
  105MPD2    C4 1602   1.128   2.828  17.688 -0.6485 -0.6255 -0.3258
  105MPD2    C5 1603   1.190   2.746  17.599  0.2342  0.2193  0.5505
  105MPD2     H 1604   1.231   3.128  17.577 -1.4629 -0.5061 -0.1669
  105MPD2    H1 1605   1.057   2.780   0.054 -1.6961  1.6604  0.2297
  105MPD2    H2 1606   1.327   2.724  17.455  1.2923  2.2243 -1.4913
  105MPD2    H3 1607   1.174   2.639  17.608  1.0432  0.0560  0.0278
  105MPD2     N 1608   1.107   3.051   0.087 -0.3092  0.4707  0.7701
  105MPD2    H5 1609   1.146   3.145   0.090  1.8216 -0.3436 -1.3187
  105MPD2    N1 1610   1.393   2.991  17.410  0.7431  0.4983 -0.0044
  105MPD2    H7 1611   1.392   3.092  17.408  1.1223  0.5408  1.8677
  106TCq2    C1 1612   1.023   3.017   0.199  0.3828  0.3335  0.1835
  106TCq2    O2 1613   0.950   2.919   0.205 -0.0072  0.1712 -0.5410
  106TCq2    C2 1614   1.012   3.121   0.301  0.5275 -1.0001 -0.4606
  106TCq2    C3 1615   1.083   3.235   0.285  0.0512 -0.2872 -0.3750
  106TCq2    C4 1616   1.054   3.336   0.370  0.0395  0.6264  0.6769
  106TCq2    C5 1617   0.962   3.328   0.472 -0.2785  0.5350 -0.6247
  106TCq2    C6 1618   0.897   3.209   0.489  0.0003 -0.2432 -0.7186
  106TCq2    C7 1619   0.912   3.105   0.396  0.3237  0.1985  0.6056
  106TCq2    C8 1620   0.791   3.198   0.588 -0.3226  0.4009  0.2615
  106TCq2    O4 1621   0.692   3.130   0.560 -0.4351 -0.2236  0.8228
  106TCq2    C9 1622   1.110   3.464   0.340 -0.6186 -0.9198  0.0458
  106TCq2    O5 1623   1.204   3.472   0.256 -0.3688 -0.2896 -0.0985
  106TCq2    O6 1624   1.042   3.563   0.382  0.2595 -0.5971 -0.5064
  106TCq2    H2 1625   1.151   3.255   0.203  0.3402  0.7479  0.1139
  106TCq2    H3 1626   0.944   3.412   0.538 -0.9046  0.7395 -1.0683
  106TCq2    H4 1627   0.849   3.017   0.395  1.9428 -0.9223 -1.4116
  107TMC2    C1 1628   1.890   1.714  11.792  0.4984 -0.0892 -0.1797
  107TMC2    C2 1629   2.005   1.715  11.867  0.8245 -0.7695  0.4567
  107TMC2    C3 1630   2.100   1.629  11.834 -0.0461 -0.6659  0.1844
  107TMC2    C4 1631   1.882   1.643  11.673  0.3938 -0.0599 -0.6367
  107TMC2    C5 1632   1.984   1.561  11.652  0.1576  0.2834  0.2793
  107TMC2    C6 1633   2.097   1.548  11.721  0.1396 -0.2834 -0.0619
  107TMC2     C 1634   1.788   1.816  11.827  0.3157 -0.4104 -1.1475
  107TMC2     O 1635   1.820   1.924  11.869 -0.2924  0.4001  0.5211
  107TMC2     H 1636   1.993   1.769  11.960  1.4855  0.5097 -0.1986
  107TMC2    H1 1637   1.798   1.655  11.605 -0.1703  0.7630  0.1940
  107TMC2    H2 1638   2.166   1.465  11.719 -0.1718 -0.5253 -1.0192
  107TMC2    C7 1639   1.977   1.493  11.527 -0.3483 -0.2863  0.1769
  107TMC2    C8 1640   2.214   1.633  11.914  0.5400 -0.3682  0.4314
  107TMC2    O1 1641   1.869   1.479  11.476 -0.3580  0.3863  0.8989
  107TMC2    O2 1642   2.201   1.685  12.026  0.1755  0.0802 -0.4076
  107TMC2    O5 1643   2.326   1.634  11.829  0.5423  0.1023 -0.1900
  107TMC2    H5 1644   2.288   1.629  11.739  2.7786 -0.6687 -1.0767
  108MPD2     C 1645   1.442   1.779  11.732  0.3488 -0.3463  0.4085
  108MPD2    C1 1646   1.539   1.838  11.798 -0.3160  1.2593 -0.0063
  108MPD2    C2 1647   1.524   1.948  11.879  1.2458 -0.1218 -0.1286
  108MPD2    C3 1648   1.393   1.988  11.914 -0.4842 -0.0640  0.2202
  108MPD2    C4 1649   1.293   1.908  11.866 -0.2275 -0.3071 -0.7331
  108MPD2    C5 1650   1.314   1.807  11.776 -0.6127  0.1285 -0.4504
  108MPD2     H 1651   1.610   1.988  11.933  0.5960 -0.6356  1.2876
  108MPD2    H1 1652   1.194   1.948  11.887 -0.0269  0.1735 -0.7127
  108MPD2    H2 1653   1.466   1.702  11.659  1.5434  1.1023 -0.7068
  108MPD2    H3 1654   1.237   1.754  11.722 -1.8641 -0.2438  1.7369
  108MPD2     N 1655   1.367   2.090  12.015  0.1169 -0.5348  0.5493
  108MPD2    H5 1656   1.270   2.099  12.045  0.1399 -1.1104  0.8092
  108MPD2    N1 1657   1.662   1.777  11.785  0.1520  0.4957  0.1684
  108MPD2    H7 1658   1.668   1.686  11.739 -1.0085 -0.1366  1.2924
  109MPD2     C 1659   1.599   0.250   1.970 -0.2358  0.6409  0.0721
  109MPD2    C1 1660   1.627   0.207   1.840 -0.3029 -0.9059 -0.1064
  109MPD2    C2 1661   1.752   0.138   1.812  0.7047 -0.7313 -0.0258
  109MPD2    C3 1662   1.829   0.083   1.911 -0.3496  0.2519 -0.5203
  109MPD2    C4 1663   1.794   0.124   2.039 -0.1970 -0.1577  0.4548
  109MPD2    C5 1664   1.684   0.205   2.063 -0.9933 -0.1974 -1.0385
  109MPD2     H 1665   1.762   0.096   1.712 -0.9629  0.2158 -0.5846
  109MPD2    H1 1666   1.837   0.086   2.131 -1.9590 -1.0302  0.9175
  109MPD2    H2 1667   1.524   0.324   1.999  0.5024  1.2820  0.3423
  109MPD2    H3 1668   1.661   0.232   2.166 -0.9122 -0.6882 -0.8904
  109MPD2     N 1669   1.931   4.714   1.894  1.1494  0.1914 -0.6769
  109MPD2    H5 1670   1.960   4.699   1.798  2.1139  1.2577 -0.5644
  109MPD2    N1 1671   1.541   0.247   1.734  0.0595 -0.2004 -0.0460
  109MPD2    H7 1672   1.444   0.262   1.759  0.2471  1.4759 -0.3078
  110TCq2    C1 1673   1.982   4.630   1.996 -0.2794 -0.0865 -0.1180
  110TCq2    O2 1674   1.933   4.619   2.108  0.4072 -0.2413 -0.7157
  110TCq2    C2 1675   2.073   4.525   1.945 -0.2825 -0.4984 -0.1809
  110TCq2    C3 1676   2.052   4.399   1.998  0.5235  0.5147  0.7562
  110TCq2    C4 1677   2.093   4.289   1.923  0.3103  0.3106 -0.4859
  110TCq2    C5 1678   2.162   4.303   1.801 -0.4035  0.0260 -0.5463
  110TCq2    C6 1679   2.183   4.432   1.756  0.4911  0.1911  0.1146
  110TCq2    C7 1680   2.133   4.544   1.821  0.5204 -0.0645 -0.2917
  110TCq2    C8 1681   2.235   4.452   1.620  0.6263 -0.0192  0.0791
  110TCq2    O4 1682   2.195   4.560   1.573  0.0103  0.0705 -0.3954
  110TCq2    C9 1683   2.055   4.153   1.969 -0.7664  0.5473  0.1998
  110TCq2    O5 1684   2.070   4.053   1.891  0.1485  0.1297  0.1660
  110TCq2    O6 1685   2.021   4.144   2.093  0.3930  0.8140 -0.4359
  110TCq2    H2 1686   1.982   4.387   2.080 -0.7572  0.1024 -0.4013
  110TCq2    H3 1687   2.181   4.216   1.739 -1.7621 -0.5364 -0.1633
  110TCq2    H4 1688   2.163   4.645   1.795  0.1409  0.1121 -0.0490
  111TMC2    C1 1689   1.782   0.115  11.830  1.0240 -1.2770 -0.8749
  111TMC2    C2 1690   1.837   0.182  11.727 -0.7814 -0.0594  0.3772
  111TMC2    C3 1691   1.965   0.184  11.698 -0.4137 -0.0472  0.2250
  111TMC2    C4 1692   1.864   0.045  11.914 -0.1630 -0.2474 -0.1371
  111TMC2    C5 1693   2.000   0.046  11.890 -0.4622  0.0864 -0.4057
  111TMC2    C6 1694   2.057   0.118  11.785 -0.5327 -0.1338  0.4827
  111TMC2     C 1695   1.656   0.062  11.791  0.2191  0.2093  0.0187
  111TMC2     O 1696   1.609   0.090  11.679  0.0878 -0.7566  0.2372
  111TMC2     H 1697   1.770   0.250  11.677  0.5714  0.5576 -0.5939
  111TMC2    H1 1698   1.829   4.708  11.996  0.4234 -1.4316 -0.7752
  111TMC2    H2 1699   2.164   0.113  11.767 -0.4620  0.6786  0.6759
  111TMC2    C7 1700   2.082   4.669  11.961 -0.2912  0.2044 -0.3855
  111TMC2    C8 1701   2.003   0.246  11.573 -0.1982  0.4735 -0.0070
  111TMC2    O1 1702   2.037   4.595  12.047  0.4724  0.2032 -0.3257
  111TMC2    O2 1703   1.929   0.238  11.475  0.4054 -0.1100  0.1377
  111TMC2    O5 1704   2.118   0.313  11.586 -0.0398  0.0974 -0.0774
  111TMC2    H5 1705   2.136   0.325  11.682  0.5105  0.8421 -0.2741
  112MPD2     C 1706   1.296   4.438  11.915  0.1334 -0.2780 -0.5547
  112MPD2    C1 1707   1.352   4.468  11.788  0.3784  0.8465 -0.0464
  112MPD2    C2 1708   1.448   4.565  11.772 -0.6697  0.4134  1.7591
  112MPD2    C3 1709   1.490   4.637  11.886  0.1592  0.0654 -0.5427
  112MPD2    C4 1710   1.435   4.609  12.006  0.3689 -0.0342 -0.0297
  112MPD2    C5 1711   1.330   4.520  12.016  0.3835 -0.1440  0.3284
  112MPD2     H 1712   1.498   4.575  11.676 -2.1594  1.4659  1.0961
  112MPD2    H1 1713   1.447   4.676  12.090  1.9769 -0.5743  0.1552
  112MPD2    H2 1714   1.230   4.354  11.932 -0.0128  0.4000  2.2392
  112MPD2    H3 1715   1.294   4.506  12.117 -0.2326  1.6067  0.3470
  112MPD2     N 1716   1.596   4.723  11.889 -0.0920 -0.2391 -0.1444
  112MPD2    H5 1717   1.632   0.017  11.982  0.2763  2.1721 -0.7827
  112MPD2    N1 1718   1.319   4.401  11.672 -0.2883  0.4753  0.8300
  112MPD2    H7 1719   1.381   4.393  11.592 -0.9541 -0.3967  0.3998
  113MPD2     C 1720   0.291   2.557   1.203  0.0868  0.8615 -0.0887
  113MPD2    C1 1721   0.198   2.653   1.186  0.6094 -0.0440  0.2829
  113MPD2    C2 1722   0.121   2.659   1.067 -0.6169 -0.2038  0.2504
  113MPD2    C3 1723   0.141   2.557   0.971 -0.4843 -0.4203 -0.1972
  113MPD2    C4 1724   0.229   2.456   0.993 -0.1476 -0.5390  0.1817
  113MPD2    C5 1725   0.310   2.463   1.106  0.2881 -0.0271  0.4149
  113MPD2     H 1726   0.044   2.735   1.062  0.4159  0.8166  0.1191
  113MPD2    H1 1727   0.246   2.384   0.913  1.0001  1.9082 -1.7648
  113MPD2    H2 1728   0.354   2.560   1.291 -0.7399  0.8327  0.5033
  113MPD2    H3 1729   0.393   2.394   1.116  0.8452  0.6023  0.1896
  113MPD2     N 1730   0.068   2.551   0.851  0.2831  0.2505 -0.0355
  113MPD2    H5 1731   0.086   2.474   0.787  0.8434  0.2134  0.1690
  113MPD2    N1 1732   0.155   2.750   1.287  0.0515 -0.2707  0.4007
  113MPD2    H7 1733   0.090   2.825   1.263  1.1490 -0.7229 -3.9310
  114TCq2    C1 1734   4.709   2.650   0.811  0.1414 -0.2293  0.1943
  114TCq2    O2 1735   4.675   2.762   0.849 -0.2893 -0.2153 -0.2070
  114TCq2    C2 1736   4.615   2.601   0.702  0.1705 -0.6201  0.4470
  114TCq2    C3 1737   4.565   2.691   0.611  0.4173  0.2025  0.5680
  114TCq2    C4 1738   4.496   2.635   0.507  0.3798  0.3606  0.2976
  114TCq2    C5 1739   4.484   2.504   0.482  0.0711 -0.5196  0.1112
  114TCq2    C6 1740   4.531   2.421   0.580  0.3303  0.0943  0.1306
  114TCq2    C7 1741   4.580   2.464   0.695  0.1132 -0.7465  0.4049
  114TCq2    C8 1742   4.476   2.288   0.575 -0.6003 -0.0350 -0.2185
  114TCq2    O4 1743   4.470   2.240   0.463 -0.0562 -0.8208 -0.3422
  114TCq2    C9 1744   4.435   2.722   0.412 -0.5717  0.1338  0.4030
  114TCq2    O5 1745   4.439   2.848   0.428  0.1024  0.0232  0.3931
  114TCq2    O6 1746   4.356   2.675   0.328  0.1718  0.0679  0.0395
  114TCq2    H2 1747   4.592   2.796   0.615  1.9897 -0.2146  1.1613
  114TCq2    H3 1748   4.427   2.457   0.403  0.8451 -0.2984 -0.5874
  114TCq2    H4 1749   4.623   2.397   0.769  0.0199 -0.8893  0.3290
  115TMC2    C1 1750   0.933   0.660   0.216  0.7767  0.4290  0.2846
  115TMC2    C2 1751   0.847   0.740   0.148  0.0454  0.3169 -0.3560
  115TMC2    C3 1752   0.891   0.862   0.118  0.1203 -0.2506  0.9749
  115TMC2    C4 1753   1.065   0.682   0.223  0.0862  0.3357 -0.3665
  115TMC2    C5 1754   1.103   0.809   0.179  0.1608 -0.1022  0.0849
  115TMC2    C6 1755   1.019   0.894   0.121 -0.5944 -0.0884 -0.4639
  115TMC2     C 1756   0.885   0.525   0.252 -0.8193 -0.1412 -0.0074
  115TMC2     O 1757   0.768   0.491   0.224  0.3288 -0.0649 -0.2611
  115TMC2     H 1758   0.744   0.714   0.130  0.6182 -2.2408  0.0910
  115TMC2    H1 1759   1.137   0.610   0.261  1.5164  1.5737 -0.7009
  115TMC2    H2 1760   1.044   1.000   0.116  0.3806 -0.2821  0.2540
  115TMC2    C7 1761   1.242   0.833   0.163  0.8050 -0.4285  0.2318
  115TMC2    C8 1762   0.803   0.935   0.026  0.1460  0.1496 -0.5205
  115TMC2    O1 1763   1.314   0.760   0.232  0.0938 -0.5899  0.1414
  115TMC2    O2 1764   0.841   0.997  17.630  0.2296  0.4002 -0.0508
  115TMC2    O5 1765   0.674   0.939   0.078  0.1344  0.1228 -0.4412
  115TMC2    H5 1766   0.679   0.944   0.176  2.3662 -4.7317 -0.3047
  116MPD2     C 1767   0.938   0.077   0.493  0.1044  0.1479  0.2673
  116MPD2    C1 1768   0.834   0.120   0.416  0.2834  0.4723 -0.4069
  116MPD2    C2 1769   0.839   0.252   0.372 -0.3041  0.2268 -0.1026
  116MPD2    C3 1770   0.948   0.332   0.407 -0.7058  0.3649 -1.2249
  116MPD2    C4 1771   1.049   0.281   0.486  0.0845 -0.3438  0.9785
  116MPD2    C5 1772   1.038   0.157   0.534 -0.3632  0.4060 -0.6588
  116MPD2     H 1773   0.770   0.284   0.295 -3.4596  0.0952  2.6927
  116MPD2    H1 1774   1.138   0.337   0.515 -0.0776  0.0342  0.7480
  116MPD2    H2 1775   0.943   4.699   0.526 -0.5684  0.5838  1.7101
  116MPD2    H3 1776   1.116   0.124   0.602  0.2701 -1.4768 -2.2871
  116MPD2     N 1777   0.970   0.460   0.339  0.1757  0.6186 -0.0130
  116MPD2    H5 1778   1.052   0.511   0.372 -0.0225 -1.4883  3.7680
  116MPD2    N1 1779   0.726   0.034   0.388 -0.3904  0.1531  0.2047
  116MPD2    H7 1780   0.737   4.660   0.407 -2.2900 -0.0081  0.4751
  117TMC2    C1 1781   3.990   1.407  13.778  0.4484 -0.4181  0.2321
  117TMC2    C2 1782   4.063   1.293  13.780 -0.3082  0.3231 -0.5464
  117TMC2    C3 1783   4.194   1.304  13.809  0.0450  0.3469 -0.1868
  117TMC2    C4 1784   4.041   1.528  13.814  0.9150  0.6513 -0.3738
  117TMC2    C5 1785   4.174   1.528  13.854 -0.4761  0.1087  0.0329
  117TMC2    C6 1786   4.252   1.423  13.841  0.2835  0.0428 -0.6156
  117TMC2     C 1787   3.852   1.403  13.747  0.7933  0.0177 -0.0446
  117TMC2     O 1788   3.821   1.313  13.672  0.2090 -0.2007 -0.1078
  117TMC2     H 1789   4.012   1.198  13.764 -0.5557  0.5914 -1.3281
  117TMC2    H1 1790   3.984   1.620  13.820  0.9067  0.6140  0.1297
  117TMC2    H2 1791   4.356   1.424  13.873 -0.3055  0.0098  1.3122
  117TMC2    C7 1792   4.242   1.651  13.873 -0.1189 -0.0636 -0.0217
  117TMC2    C8 1793   4.279   1.185  13.826  0.1898  0.7333  0.1305
  117TMC2    O1 1794   4.363   1.657  13.857  0.1337  0.1810 -0.3670
  117TMC2    O2 1795   4.261   1.096  13.905  0.0503  0.0696  0.0122
  117TMC2    O5 1796   4.386   1.199  13.741  0.0787  0.1052  0.2788
  117TMC2    H5 1797   4.378   1.276  13.681  1.3558 -0.7464 -0.9553
  118MPD2     C 1798   4.116   1.999  13.944 -0.3894 -0.0030 -0.4778
  118MPD2    C1 1799   4.192   1.896  13.887  0.8742  0.0478  0.0981
  118MPD2    C2 1800   4.288   1.932  13.802 -0.3309  0.4816  0.2205
  118MPD2    C3 1801   4.315   2.066  13.773 -0.2247  0.7967 -0.0002
  118MPD2    C4 1802   4.244   2.167  13.838  0.3484 -0.1284 -0.2410
  118MPD2    C5 1803   4.145   2.131  13.920 -0.0697  1.1395 -0.2370
  118MPD2     H 1804   4.343   1.855  13.750 -0.9001  0.1672  0.0951
  118MPD2    H1 1805   4.268   2.271  13.819 -0.5148 -0.2935 -2.2124
  118MPD2    H2 1806   4.027   1.982  14.002 -1.3487  2.7525 -1.1447
  118MPD2    H3 1807   4.078   2.208  13.957 -1.6498  0.1874 -1.0996
  118MPD2     N 1808   4.408   2.109  13.676 -0.1689  0.2311 -0.8983
  118MPD2    H5 1809   4.418   2.210  13.666  1.2575  0.0353 -1.3533
  118MPD2    N1 1810   4.164   1.759  13.924  0.3515  0.1300  0.4735
  118MPD2    H7 1811   4.070   1.735  13.954  0.8824 -0.9269  1.3014
  119MPD2     C 1812   1.978   3.025  13.370 -0.4297  0.2025  1.2776
  119MPD2    C1 1813   1.859   3.053  13.435 -0.4829 -0.2675  0.9290
  119MPD2    C2 1814   1.744   3.022  13.364 -1.1508 -1.1969  0.4335
  119MPD2    C3 1815   1.753   2.978  13.232 -0.0075  0.1142 -0.5228
  119MPD2    C4 1816   1.874   2.964  13.167 -0.8965 -0.5372  0.4011
  119MPD2    C5 1817   1.988   2.989  13.241 -0.1306 -0.1904 -0.3482
  119MPD2     H 1818   1.649   3.022  13.416 -2.4912  3.2357 -2.0125
  119MPD2    H1 1819   1.879   2.949  13.059  1.4530 -0.1180  0.4551
  119MPD2    H2 1820   2.071   3.043  13.423  0.2767  0.5130 -0.0661
  119MPD2    H3 1821   2.090   2.982  13.204  0.1559  1.7539  0.0721
  119MPD2     N 1822   1.634   2.945  13.169  0.2145 -0.4970 -0.7931
  119MPD2    H5 1823   1.554   2.961  13.229  0.1221 -0.1080 -1.0216
  119MPD2    N1 1824   1.868   3.088  13.573  0.0213  0.1562  0.3586
  119MPD2    H7 1825   1.963   3.100  13.606  1.3682  0.4020 -3.5961
  120TCq2    C1 1826   1.614   2.868  13.053 -0.8903  1.0652  0.0699
  120TCq2    O2 1827   1.699   2.816  12.981  0.6682  0.0515  0.4719
  120TCq2    C2 1828   1.478   2.824  13.058 -0.5613  0.0601  0.2905
  120TCq2    C3 1829   1.470   2.692  13.036 -0.1405 -0.0278  0.4316
  120TCq2    C4 1830   1.393   2.612  13.114 -0.9303  0.1007  0.0957
  120TCq2    C5 1831   1.326   2.660  13.221  0.4167  0.2067  0.0353
  120TCq2    C6 1832   1.327   2.794  13.239 -0.4989  0.3911 -0.2024
  120TCq2    C7 1833   1.400   2.879  13.159 -1.5163 -0.1668 -0.2447
  120TCq2    C8 1834   1.302   2.847  13.371  0.4318  0.8476 -0.2245
  120TCq2    O4 1835   1.317   2.967  13.390  0.7706 -0.6471  0.5714
  120TCq2    C9 1836   1.378   2.472  13.089 -0.0948 -0.1483 -0.6818
  120TCq2    O5 1837   1.450   2.428  12.996 -0.3613 -1.1176 -0.5942
  120TCq2    O6 1838   1.332   2.397  13.179  0.8018 -0.6851  0.4127
  120TCq2    H2 1839   1.540   2.642  12.970 -2.0150 -0.4936 -1.2028
  120TCq2    H3 1840   1.254   2.602  13.278 -0.6250  0.3998 -1.0737
  120TCq2    H4 1841   1.401   2.986  13.176 -0.9291 -0.2998  0.5848
  121TMC2    C1 1842   3.856   0.164  14.407 -0.1877 -0.2558 -0.3859
  121TMC2    C2 1843   3.864   0.149  14.548 -0.0947  0.0417 -0.7606
  121TMC2    C3 1844   3.837   0.027  14.601  0.2219  0.5357 -0.8539
  121TMC2    C4 1845   3.812   0.055  14.333  0.0920 -0.0847 -0.0990
  121TMC2    C5 1846   3.773   4.661  14.393 -0.3487 -0.4732  0.2673
  121TMC2    C6 1847   3.790   4.644  14.528 -0.7975  0.5443  0.6203
  121TMC2     C 1848   3.831   0.292  14.345 -0.5804  0.1094 -1.2955
  121TMC2     O 1849   3.825   0.386  14.426 -0.3134  0.2456  0.1687
  121TMC2     H 1850   3.910   0.231  14.603 -1.2016  0.2515 -0.1452
  121TMC2    H1 1851   3.778   0.073  14.232 -1.0785  0.5068  0.3928
  121TMC2    H2 1852   3.769   4.547  14.572  2.3846  0.7485  2.5907
  121TMC2    C7 1853   3.656   4.609  14.335  0.2359  0.4774 -0.3667
  121TMC2    C8 1854   3.862   4.725  14.737  1.0409 -0.5331 -0.3515
  121TMC2    O1 1855   3.588   4.685  14.270  0.0558  0.2286  0.7455
  121TMC2    O2 1856   3.926   0.076  14.806 -0.4467  0.2389 -0.1424
  121TMC2    O5 1857   3.751   4.664  14.780 -0.1095 -0.3170 -0.0563
  121TMC2    H5 1858   3.686   4.626  14.717 -0.1038  1.0353 -0.8626
  122MPD2     C 1859   3.761   0.531  14.176 -0.8387  0.5537  0.3048
  122MPD2    C1 1860   3.795   0.404  14.125  0.3066 -0.4341 -0.0723
  122MPD2    C2 1861   3.811   0.391  13.991  0.0669 -0.5119  0.8129
  122MPD2    C3 1862   3.792   0.502  13.902  0.0603  1.5579  0.4524
  122MPD2    C4 1863   3.755   0.627  13.963 -0.5889  0.6411 -0.0147
  122MPD2    C5 1864   3.733   0.639  14.099  0.7335 -0.0119 -0.2838
  122MPD2     H 1865   3.836   0.293  13.952  0.0372 -0.5953  1.0055
  122MPD2    H1 1866   3.721   0.718  13.914  0.5295 -0.9725 -3.7533
  122MPD2    H2 1867   3.752   0.552  14.282  2.0847  3.7249 -0.0873
  122MPD2    H3 1868   3.694   0.723  14.154 -0.2905 -1.9410  1.9472
  122MPD2     N 1869   3.798   0.492  13.759  0.0677  0.6799  0.1388
  122MPD2    H5 1870   3.790   0.578  13.704 -0.8368  1.0481  0.8462
  122MPD2    N1 1871   3.834   0.295  14.204  0.8545  0.3714 -0.8423
  122MPD2    H7 1872   3.878   0.211  14.168  0.4600 -1.0965  2.0206
  123MPD2     C 1873   2.093   2.477  10.972  0.7936  0.1213 -0.0705
  123MPD2    C1 1874   2.190   2.532  10.894 -0.1419  0.3051  0.1042
  123MPD2    C2 1875   2.255   2.646  10.945  0.1336  0.3227  0.5868
  123MPD2    C3 1876   2.210   2.707  11.057  0.3227  0.0834  0.0695
  123MPD2    C4 1877   2.120   2.646  11.136  0.0849  0.8815  1.0221
  123MPD2    C5 1878   2.060   2.532  11.095  0.4834 -0.3370 -0.2018
  123MPD2     H 1879   2.327   2.699  10.883 -0.6285  0.0997 -0.4873
  123MPD2    H1 1880   2.084   2.677  11.234 -0.4864  2.5083  0.2902
  123MPD2    H2 1881   2.053   2.378  10.953  1.2063  0.0764 -0.6935
  123MPD2    H3 1882   1.986   2.498  11.166 -0.6962  2.5158 -0.0591
  123MPD2     N 1883   2.276   2.826  11.086  0.4485 -0.1701  0.6304
  123MPD2    H5 1884   2.319   2.870  11.005  0.3234  0.7566  1.0624
  123MPD2    N1 1885   2.230   2.466  10.774 -0.5441 -0.3893 -0.2953
  123MPD2    H7 1886   2.185   2.379  10.747  0.9662 -1.2841  0.1061
  124TCq2    C1 1887   2.245   2.912  11.187  0.4719 -0.0630 -0.3727
  124TCq2    O2 1888   2.174   2.902  11.292 -0.3870  0.3409 -0.5735
  124TCq2    C2 1889   2.305   3.038  11.148 -0.2097  0.3624 -0.5330
  124TCq2    C3 1890   2.237   3.154  11.177  0.0667 -0.4990 -0.0456
  124TCq2    C4 1891   2.268   3.267  11.101 -0.0514 -0.2565  0.1071
  124TCq2    C5 1892   2.358   3.271  10.999 -0.5103  0.6088 -0.4860
  124TCq2    C6 1893   2.430   3.151  10.979  0.3577  0.1510 -0.5407
  124TCq2    C7 1894   2.399   3.037  11.053 -0.9424 -0.4767  0.0366
  124TCq2    C8 1895   2.521   3.133  10.866 -0.1385  0.3277  1.0257
  124TCq2    O4 1896   2.549   3.020  10.837  0.5028 -0.3292 -0.0681
  124TCq2    C9 1897   2.192   3.386  11.117 -0.3160 -0.5103 -0.2383
  124TCq2    O5 1898   2.100   3.393  11.204  0.2641 -0.1433  0.0756
  124TCq2    O6 1899   2.204   3.469  11.020  0.9054 -0.8083  0.0123
  124TCq2    H2 1900   2.145   3.154  11.235 -0.6690 -1.4277 -1.2098
  124TCq2    H3 1901   2.373   3.357  10.934  0.2060  0.9107  0.0756
  124TCq2    H4 1902   2.469   2.956  11.038  0.9271  1.1140  0.1107
  125TMC2    C1 1903   4.048   0.923   9.154  0.4229 -0.0164  0.0445
  125TMC2    C2 1904   3.958   1.030   9.140 -0.0204 -0.3013 -0.2931
  125TMC2    C3 1905   3.836   1.019   9.206  0.0740 -0.5054 -0.5370
  125TMC2    C4 1906   4.016   0.809   9.223  0.5220  0.2717  0.3234
  125TMC2    C5 1907   3.883   0.791   9.248 -0.2165  0.0489 -0.2684
  125TMC2    C6 1908   3.795   0.896   9.243 -0.2490 -0.1401 -0.1814
  125TMC2     C 1909   4.190   0.944   9.139  0.2258  0.4834 -0.5941
  125TMC2     O 1910   4.255   0.863   9.205  0.3333 -0.5108 -0.3854
  125TMC2     H 1911   3.984   1.127   9.098 -1.3415 -0.7717 -2.2079
  125TMC2    H1 1912   4.084   0.724   9.229  1.6594  1.0650 -1.3478
  125TMC2    H2 1913   3.694   0.886   9.281 -1.2636 -0.8797 -3.1247
  125TMC2    C7 1914   3.824   0.671   9.298 -0.1419 -0.2227 -0.4987
  125TMC2    C8 1915   3.735   1.106   9.158 -0.3518  0.6677  0.8885
  125TMC2    O1 1916   3.728   0.681   9.376  0.0802 -0.0142 -0.4954
  125TMC2    O2 1917   3.749   1.224   9.187 -0.0307  0.1709 -0.0144
  125TMC2    O5 1918   3.707   1.062   9.031  0.4923 -0.4330 -0.0135
  125TMC2    H5 1919   3.737   0.970   9.019  1.6029 -0.0226 -0.3539
  126MPD1     C 1920   4.613   1.201   8.999 -0.6781  0.5495 -0.4872
  126MPD1    C1 1921   4.501   1.266   8.942  0.1490  0.9195  0.0530
  126MPD1    C2 1922   4.376   1.212   8.975  0.4264  0.4637  0.3573
  126MPD1    C3 1923   4.360   1.098   9.043  0.8430 -0.0873  0.2925
  126MPD1    C4 1924   4.468   1.034   9.099 -0.4647  0.0925  0.4200
  126MPD1    C5 1925   4.592   1.089   9.077 -0.5277 -0.5979  0.3886
  126MPD1     H 1926   4.282   1.254   8.941 -0.3429 -0.7322  1.0226
  126MPD1    H1 1927   4.461   0.936   9.143  1.1981  1.1913  3.1403
  126MPD1    H2 1928   4.709   1.234   8.962  0.0386 -1.1077 -0.0925
  126MPD1    H3 1929   4.676   1.033   9.115  2.6066  4.1620  0.4957
  126MPD1     N 1930   4.223   1.055   9.066 -0.0691  0.1636 -0.3336
  126MPD1    H5 1931   4.152   1.102   9.011 -0.4381 -1.7506 -1.4688
  126MPD1    N1 1932   4.520   1.368   8.843  0.1672  0.1493  0.3289
  126MPD1    H6 1933   4.434   1.422   8.835  0.3660  0.7176  1.9921
  126MPD1    H7 1934   4.590   1.436   8.872  0.2214 -0.3986  1.4854
  127MPD2     C 1935   0.071   3.215   8.822 -0.2719  0.9282 -0.8374
  127MPD2    C1 1936   0.038   3.132   8.926 -0.0952 -0.4036  0.3573
  127MPD2    C2 1937   4.713   3.190   9.039  0.3114 -0.1171  0.0058
  127MPD2    C3 1938   4.698   3.325   9.057 -0.2667  0.7154  0.2585
  127MPD2    C4 1939   0.003   3.408   8.951  0.0069  0.0268 -0.0644
  127MPD2    C5 1940   0.047   3.350   8.837 -0.5293 -0.3914 -1.2319
  127MPD2     H 1941   4.671   3.138   9.124 -1.8341 -0.6754 -1.4004
  127MPD2    H1 1942   4.716   3.516   8.944  0.3313 -0.0097 -1.3468
  127MPD2    H2 1943   0.116   3.180   8.729 -0.3548  0.1035 -0.5699
  127MPD2    H3 1944   0.068   3.411   8.750  0.7266 -0.0185 -0.6638
  127MPD2     N 1945   4.655   3.371   9.184  0.7071  0.0566  0.5813
  127MPD2    H5 1946   4.632   3.299   9.251 -0.0302  0.2701  0.5528
  127MPD2    N1 1947   0.036   2.995   8.918 -0.0812 -0.1031 -0.1504
  127MPD2    H7 1948   0.064   2.957   8.828  0.8027  2.4771 -0.9592
  128TCq2    C1 1949   4.686   2.907   8.999 -0.1241 -0.2484 -0.4654
  128TCq2    O2 1950   4.631   2.928   9.109 -0.1486  0.0835 -0.1519
  128TCq2    C2 1951   4.672   2.769   8.950  0.6142  0.2587  0.3387
  128TCq2    C3 1952   0.037   2.719   8.858 -0.6755  0.1310 -0.8759
  128TCq2    C4 1953   4.714   2.626   8.771  0.3787  0.7558 -0.1768
  128TCq2    C5 1954   4.585   2.579   8.783  0.6943  0.6124  0.2672
  128TCq2    C6 1955   4.512   2.609   8.891  0.5108 -0.1910  0.8522
  128TCq2    C7 1956   4.547   2.717   8.972 -0.4358 -0.2336  0.0650
  128TCq2    C8 1957   4.372   2.572   8.879 -0.6111 -0.0761  0.0139
  128TCq2    O4 1958   4.315   2.573   8.772  0.1779  0.4057  0.3827
  128TCq2    C9 1959   0.070   2.588   8.655  0.3037  0.1075  0.8848
  128TCq2    O5 1960   0.172   2.655   8.638  0.0159  0.3957  0.5314
  128TCq2    O6 1961   0.010   2.524   8.566 -0.6288 -0.2963  0.6615
  128TCq2    H2 1962   0.135   2.758   8.834 -0.1159  0.0820  1.3043
  128TCq2    H3 1963   4.541   2.502   8.719  0.1863 -0.4797  1.9421
  128TCq2    H4 1964   4.479   2.757   9.047  0.2097  2.5391 -0.8116
  129MPD2     C 1965   2.222   4.356   0.626 -0.3325 -0.1567  0.2238
  129MPD2    C1 1966   2.306   4.311   0.728 -0.0658 -0.2420 -0.5057
  129MPD2    C2 1967   2.434   4.352   0.732  0.3406 -0.2787 -0.5895
  129MPD2    C3 1968   2.485   4.435   0.632  0.1097  0.7590 -0.5485
  129MPD2    C4 1969   2.408   4.466   0.522 -0.3156 -0.6995  0.1175
  129MPD2    C5 1970   2.278   4.422   0.518 -0.6054 -0.6378 -0.0836
  129MPD2     H 1971   2.494   4.319   0.816 -2.2372  2.7772  2.4440
  129MPD2    H1 1972   2.439   4.541   0.450 -0.4216 -0.7783 -0.0104
  129MPD2    H2 1973   2.117   4.336   0.609 -0.4723 -0.6624  1.6837
  129MPD2    H3 1974   2.222   4.443   0.428 -0.3661 -1.1799 -0.3576
  129MPD2     N 1975   2.604   4.503   0.661 -0.4454  0.6999  0.6547
  129MPD2    H5 1976   2.648   4.486   0.751 -0.8127 -0.7977  0.5493
  129MPD2    N1 1977   2.258   4.237   0.836  0.4606 -0.2599  0.8000
  129MPD2    H7 1978   2.331   4.187   0.885 -0.8224 -2.0659  0.8356
  130TCq2    C1 1979   2.126   4.244   0.884  0.3583  0.5856 -0.1354
  130TCq2    O2 1980   2.032   4.324   0.858 -0.1556  0.3183 -0.5518
  130TCq2    C2 1981   2.108   4.150   0.987  0.1521 -0.4224  0.6743
  130TCq2    C3 1982   2.186   4.044   0.986 -0.6010  0.4643 -0.4679
  130TCq2    C4 1983   2.216   3.973   1.102 -0.1777  0.0434  0.0670
  130TCq2    C5 1984   2.163   4.011   1.220 -0.2663  0.3120  0.5299
  130TCq2    C6 1985   2.088   4.129   1.226  0.4932 -0.8300  0.1003
  130TCq2    C7 1986   2.059   4.199   1.107  0.0095 -0.1405  0.2239
  130TCq2    C8 1987   2.009   4.142   1.343  0.6402 -0.0037 -0.3082
  130TCq2    O4 1988   1.996   4.040   1.410  0.4088  0.2073 -0.2472
  130TCq2    C9 1989   2.320   3.875   1.103 -0.3917  0.1075 -0.5509
  130TCq2    O5 1990   2.334   3.805   1.207  0.4217 -0.1539 -0.0493
  130TCq2    O6 1991   2.396   3.879   1.006 -0.0814  0.1132  0.1352
  130TCq2    H2 1992   2.235   4.007   0.897  0.8476 -1.4686  1.1040
  130TCq2    H3 1993   2.195   3.954   1.307  0.2549  1.1988  0.9269
  130TCq2    H4 1994   1.991   4.282   1.096  0.7970  0.6249  1.2075
  131MPD2     C 1995   2.818   2.759   9.980  0.0761 -0.0695 -0.8540
  131MPD2    C1 1996   2.728   2.840  10.050  0.2478 -0.0046  0.3853
  131MPD2    C2 1997   2.633   2.777  10.124 -0.5509  0.3527  0.2375
  131MPD2    C3 1998   2.614   2.642  10.129  0.4666 -0.5459 -0.6152
  131MPD2    C4 1999   2.696   2.566  10.041  0.1943 -0.0665  0.6243
  131MPD2    C5 2000   2.801   2.626   9.983 -0.3343  0.0325  0.5340
  131MPD2     H 2001   2.572   2.836  10.193 -1.8913 -2.5017  1.4870
  131MPD2    H1 2002   2.689   2.459  10.030 -1.5057  0.0476  0.5226
  131MPD2    H2 2003   2.910   2.795   9.935  0.7246 -2.0612 -1.1136
  131MPD2    H3 2004   2.880   2.562   9.946 -2.1350 -1.6629 -0.3896
  131MPD2     N 2005   2.509   2.585  10.215  0.2964 -0.4580  0.1420
  131MPD2    H5 2006   2.447   2.648  10.264 -0.0903  1.0741 -2.3270
  131MPD2    N1 2007   2.738   2.983  10.058 -1.0142 -0.1787 -0.2059
  131MPD2    H7 2008   2.667   3.029  10.114 -0.4257 -0.1393  0.5110
  132TCq2    C1 2009   3.018   3.486   9.926  0.6292  0.3818 -0.1175
  132TCq2    O2 2010   3.096   3.419   9.864  0.1860 -0.1298 -0.0369
  132TCq2    C2 2011   2.916   3.414   9.992  0.4949 -0.4200  0.0916
  132TCq2    C3 2012   2.801   3.475  10.042 -0.3835  0.2923 -0.1345
  132TCq2    C4 2013   2.694   3.390  10.064  0.2842 -0.5189  1.3068
  132TCq2    C5 2014   2.709   3.256  10.057  0.1162  0.3817  0.1361
  132TCq2    C6 2015   2.828   3.202  10.024  0.4380 -0.4541 -0.4068
  132TCq2    C7 2016   2.938   3.278   9.996  0.4885 -0.3926 -0.7062
  132TCq2    C8 2017   2.828   3.058   9.989 -0.6594 -0.0896  0.0605
  132TCq2    O4 2018   2.917   3.026   9.914  0.0858 -0.3581 -0.4431
  132TCq2    C9 2019   2.567   3.447  10.099  0.6856  0.6512  0.0514
  132TCq2    O5 2020   2.469   3.369  10.078 -0.1822 -0.2960  1.0943
  132TCq2    O6 2021   2.562   3.559  10.158  0.0851 -0.0290 -0.0245
  132TCq2    H2 2022   2.784   3.582  10.035 -0.9402  0.0246 -2.8768
  132TCq2    H3 2023   2.618   3.197  10.061  1.7924 -2.0926  1.6951
  132TCq2    H4 2024   3.027   3.233   9.956  0.1731 -1.1971 -0.4921
  133MPD2     C 2025   0.938   4.002   9.275 -0.5791  0.1017 -0.1848
  133MPD2    C1 2026   1.041   3.932   9.335 -0.0121  0.4823  0.5448
  133MPD2    C2 2027   1.041   3.795   9.320  0.0831 -0.6824  0.6904
  133MPD2    C3 2028   0.935   3.739   9.252 -0.1808 -0.5390  0.5123
  133MPD2    C4 2029   0.836   3.806   9.190 -0.3445  0.2859 -0.5832
  133MPD2    C5 2030   0.845   3.945   9.196 -0.0670 -0.4287  0.4158
  133MPD2     H 2031   1.126   3.739   9.356  0.1245 -0.3887  1.0528
  133MPD2    H1 2032   0.756   3.761   9.134 -1.7485  1.1570  0.7162
  133MPD2    H2 2033   0.934   4.110   9.286  0.1577  0.1252 -0.1276
  133MPD2    H3 2034   0.775   4.014   9.150 -0.2007 -1.1634 -0.4831
  133MPD2     N 2035   0.918   3.601   9.244  1.0299 -0.3948 -0.3977
  133MPD2    H5 2036   0.837   3.567   9.192  1.0813  1.1895 -1.5293
  133MPD2    N1 2037   1.132   4.003   9.416 -0.0219  0.2869  0.8157
  133MPD2    H7 2038   1.113   4.098   9.446  0.3585  1.0929 -1.4732
  134TCq2    C1 2039   1.261   3.959   9.437  0.4201  0.2663 -0.3667
  134TCq2    O2 2040   1.326   3.874   9.371 -0.4055  0.8547  0.3656
  134TCq2    C2 2041   1.335   4.050   9.518  0.3030  0.8132 -0.3423
  134TCq2    C3 2042   1.304   4.181   9.541 -0.7990  0.1241 -0.2814
  134TCq2    C4 2043   1.376   4.256   9.625  0.0294 -0.6740  0.3935
  134TCq2    C5 2044   1.489   4.208   9.682  0.0640 -0.2744  0.1202
  134TCq2    C6 2045   1.520   4.080   9.655  0.8991  1.2966 -0.0044
  134TCq2    C7 2046   1.449   4.002   9.567 -0.4507  0.5292 -0.1330
  134TCq2    C8 2047   1.634   4.014   9.725  0.3867 -0.3299 -0.2384
  134TCq2    O4 2048   1.676   4.080   9.820 -0.1394  0.4181  0.5949
  134TCq2    C9 2049   1.334   4.385   9.671 -0.1821 -0.1578  1.3229
  134TCq2    O5 2050   1.220   4.435   9.648  0.0415  0.4123  0.1151
  134TCq2    O6 2051   1.425   4.452   9.728 -0.0382 -0.5484 -0.3176
  134TCq2    H2 2052   1.222   4.229   9.487 -0.6988  2.4182  1.5993
  134TCq2    H3 2053   1.555   4.272   9.740  0.0395 -1.6475  1.6970
  134TCq2    H4 2054   1.468   3.899   9.540 -0.6314 -0.0939  2.1539
  135MPD2     C 2055   4.087   0.606   9.689 -0.3500  0.1925 -0.3134
  135MPD2    C1 2056   4.071   0.475   9.660 -0.1458 -0.3904 -0.9691
  135MPD2    C2 2057   4.165   0.422   9.575  0.1989 -0.4226 -0.0935
  135MPD2    C3 2058   4.256   0.503   9.505 -0.6157 -0.7594 -0.1777
  135MPD2    C4 2059   4.261   0.634   9.537  0.2902  0.6269  0.8153
  135MPD2    C5 2060   4.178   0.686   9.633  0.0137 -0.4466 -0.4339
  135MPD2     H 2061   4.168   0.315   9.565  0.9148 -0.4201  0.0824
  135MPD2    H1 2062   4.319   0.712   9.489  2.7331 -1.2391  0.7699
  135MPD2    H2 2063   4.018   0.652   9.759  2.8257  1.9482  1.6584
  135MPD2    H3 2064   4.178   0.793   9.650  0.2147 -0.8419  1.9258
  135MPD2     N 2065   4.343   0.457   9.402  0.3232 -0.1342 -0.0284
  135MPD2    H5 2066   4.388   0.526   9.342 -0.9882 -0.7443 -1.6650
  135MPD2    N1 2067   3.980   0.383   9.709  0.5369 -0.5299 -0.2032
  135MPD2    H7 2068   3.988   0.285   9.683 -2.5397 -0.6624 -0.7261
  136TCq2    C1 2069   3.876   0.409   9.797 -0.1693 -0.3311 -0.8221
  136TCq2    O2 2070   3.840   0.523   9.833 -0.1906 -0.4222 -0.9452
  136TCq2    C2 2071   3.808   0.287   9.837  0.4987  0.3169  0.2819
  136TCq2    C3 2072   3.687   0.309   9.893  0.4106  0.3834 -0.3233
  136TCq2    C4 2073   3.611   0.200   9.917  0.1947  0.3845  0.4186
  136TCq2    C5 2074   3.660   0.073   9.894  0.4405  0.5044 -0.2275
  136TCq2    C6 2075   3.774   0.058   9.827 -0.0972 -0.2060  0.0030
  136TCq2    C7 2076   3.849   0.166   9.799 -0.6642 -0.3867 -0.1482
  136TCq2    C8 2077   3.818   4.649   9.781  0.0270 -0.2699  0.0764
  136TCq2    O4 2078   3.924   4.641   9.722  0.7511  0.1621  0.2999
  136TCq2    C9 2079   3.469   0.219   9.946 -0.1462 -0.9618 -0.6833
  136TCq2    O5 2080   3.400   0.119   9.992  0.1018  0.4182  0.0277
  136TCq2    O6 2081   3.420   0.331   9.910  0.2519 -0.0800 -0.4302
  136TCq2    H2 2082   3.644   0.407   9.907 -1.1709 -0.6116  1.8293
  136TCq2    H3 2083   3.593   4.713   9.905 -0.7163  1.6142  1.3931
  136TCq2    H4 2084   3.946   0.149   9.753 -0.4816  1.9135 -0.6344
  137MPD2     C 2085   3.892   3.517   9.361  0.0063  0.2736  0.2984
  137MPD2    C1 2086   3.887   3.611   9.463 -0.1068 -0.2326  0.2040
  137MPD2    C2 2087   3.841   3.562   9.588 -0.5180  0.0938 -0.6734
  137MPD2    C3 2088   3.817   3.428   9.611  0.6536 -0.2246 -0.2620
  137MPD2    C4 2089   3.837   3.340   9.509 -0.8919  0.0640  0.6326
  137MPD2    C5 2090   3.874   3.385   9.387 -0.4305 -0.0370  0.4153
  137MPD2     H 2091   3.824   3.636   9.665  1.5755  1.0664 -1.1474
  137MPD2    H1 2092   3.823   3.233   9.521 -1.4463  0.0719  0.0148
  137MPD2    H2 2093   3.910   3.553   9.260  0.2238  2.7949  1.2601
  137MPD2    H3 2094   3.879   3.308   9.310 -1.2600  0.6810 -0.3699
  137MPD2     N 2095   3.784   3.395   9.747  0.3475 -0.1416 -0.2352
  137MPD2    H5 2096   3.770   3.470   9.813  2.2479 -2.1253  2.4200
  137MPD2    N1 2097   3.909   3.744   9.429 -0.3452 -0.7174  0.4033
  137MPD2    H7 2098   3.933   3.759   9.332  0.1183 -1.1697  0.4492
  138TCq2    C1 2099   3.910   3.854   9.516 -0.1545  0.2235  0.3171
  138TCq2    O2 2100   3.862   3.872   9.629  0.1703 -0.5354  0.0414
  138TCq2    C2 2101   3.930   3.976   9.444 -0.0524  0.1182  0.4299
  138TCq2    C3 2102   4.018   3.973   9.340  0.4484 -0.4628 -0.4206
  138TCq2    C4 2103   4.017   4.081   9.253 -0.4265 -1.2255  0.2235
  138TCq2    C5 2104   3.945   4.192   9.283 -0.5179 -0.5207  0.0393
  138TCq2    C6 2105   3.865   4.189   9.391  0.5033 -0.0753 -0.3267
  138TCq2    C7 2106   3.850   4.083   9.471 -0.1357 -0.6573  0.1723
  138TCq2    C8 2107   3.802   4.316   9.427 -0.2817  0.5091  0.1822
  138TCq2    O4 2108   3.872   4.413   9.404  0.3044 -0.0068  0.0320
  138TCq2    C9 2109   4.133   4.085   9.151  0.4378  0.7325 -0.7147
  138TCq2    O5 2110   4.216   3.992   9.161  0.1426 -0.7791  0.0094
  138TCq2    O6 2111   4.145   4.201   9.095  0.3974  0.0302  0.3190
  138TCq2    H2 2112   4.092   3.895   9.326  1.2226  0.5670 -1.9823
  138TCq2    H3 2113   3.971   4.291   9.245 -1.9817 -1.0348 -2.2435
  138TCq2    H4 2114   3.789   4.081   9.561 -0.4989 -0.9006 -0.0795
  139TMC2    C1 2115   3.558   2.718  13.446  0.4464  0.3643 -0.4971
  139TMC2    C2 2116   3.568   2.790  13.330 -0.4318 -0.1076 -0.2982
  139TMC2    C3 2117   3.488   2.896  13.310 -0.3756 -0.6133  0.1369
  139TMC2    C4 2118   3.459   2.741  13.538  0.5257  0.2475  0.9458
  139TMC2    C5 2119   3.380   2.853  13.514  0.4309  0.5861  0.2018
  139TMC2    C6 2120   3.392   2.926  13.404  0.0289 -0.1325  0.0071
  139TMC2     C 2121   3.653   2.607  13.462  0.0423 -0.5681  0.1755
  139TMC2     O 2122   3.749   2.609  13.384 -0.0698  0.2886 -0.6366
  139TMC2     H 2123   3.660   2.789  13.273  0.1612 -2.0896  0.6917
  139TMC2    H1 2124   3.454   2.672  13.622 -1.5852  0.3516  0.9125
  139TMC2    H2 2125   3.319   3.006  13.397 -0.2705 -0.5713 -1.7741
  139TMC2    C7 2126   3.274   2.887  13.613 -0.0865  0.1935  0.4548
  139TMC2    C8 2127   3.459   2.961  13.188 -0.6841 -0.2635 -0.4876
  139TMC2    O1 2128   3.198   2.976  13.572 -0.5927  0.9175  0.1549
  139TMC2    O2 2129   3.394   3.063  13.189  0.0999  0.6906 -0.0839
  139TMC2    O5 2130   3.521   2.900  13.092 -0.9194  0.0978 -0.9697
  139TMC2    H5 2131   3.583   2.829  13.121 -1.9853  0.9716  3.4742
  140MPD2     C 2132   3.647   2.317  13.686 -0.2235  0.7112  0.4789
  140MPD2    C1 2133   3.698   2.399  13.592  1.3387 -0.6590 -0.2775
  140MPD2    C2 2134   3.822   2.363  13.536 -0.2685 -0.0893  0.0623
  140MPD2    C3 2135   3.882   2.242  13.567 -0.5875  0.3706  0.9953
  140MPD2    C4 2136   3.830   2.165  13.672  0.6787 -0.1796 -0.7363
  140MPD2    C5 2137   3.711   2.202  13.721  0.5814  0.4750 -0.2544
  140MPD2     H 2138   3.860   2.436  13.466  0.3552 -0.5204 -0.0473
  140MPD2    H1 2139   3.874   2.074  13.710  1.4319 -0.1361 -1.5032
  140MPD2    H2 2140   3.551   2.347  13.727 -0.1458  0.9749  0.4677
  140MPD2    H3 2141   3.675   2.139  13.802  0.2249  2.7666  1.3615
  140MPD2     N 2142   3.996   2.204  13.491 -0.4647  0.1566  0.4035
  140MPD2    H5 2143   4.032   2.274  13.426 -1.9846  1.4451  0.9451
  140MPD2    N1 2144   3.622   2.514  13.560  0.5607  0.6772  0.5109
  140MPD2    H7 2145   3.535   2.516  13.613 -0.5108 -0.2998 -1.2232
  141TCq2    C1 2146   4.236   4.506  14.886  0.0385  0.7057  0.4295
  141TCq2    O2 2147   4.168   4.405  14.855 -0.2600  0.5051 -1.2384
  141TCq2    C2 2148   4.303   4.499  15.010 -0.3002 -0.0961  0.3103
  141TCq2    C3 2149   4.291   4.391  15.090 -0.5634  0.6616 -0.0538
  141TCq2    C4 2150   4.356   4.385  15.212  0.0869 -0.8885 -0.6892
  141TCq2    C5 2151   4.413   4.496  15.266  0.3777  0.0752  0.1515
  141TCq2    C6 2152   4.409   4.609  15.189 -0.3375 -0.7029 -0.1275
  141TCq2    C7 2153   4.366   4.612  15.059  0.1075  0.3113 -0.2301
  141TCq2    C8 2154   4.429   0.006  15.261  0.4591  0.4859  0.8389
  141TCq2    O4 2155   4.403   0.007  15.381 -0.8580  0.7795  1.0163
  141TCq2    C9 2156   4.325   4.266  15.294  0.1486 -0.8836  0.5438
  141TCq2    O5 2157   4.391   4.247  15.399  0.0645 -0.1241 -0.1180
  141TCq2    O6 2158   4.270   4.170  15.234 -0.3240  0.4807  0.0335
  141TCq2    H2 2159   4.227   4.307  15.066  0.2440 -0.0143  0.1563
  141TCq2    H3 2160   4.454   4.497  15.366 -0.4229 -0.6530  0.4827
  141TCq2    H4 2161   4.365   4.710  15.012 -1.2233 -0.2713 -1.4174
  142MPD2     C 2162   2.545   2.101  10.670 -0.2658  0.4264  0.6997
  142MPD2    C1 2163   2.590   2.087  10.539 -0.3530 -0.3609  0.2337
  142MPD2    C2 2164   2.656   2.198  10.480 -0.4569 -0.4244 -0.0737
  142MPD2    C3 2165   2.678   2.312  10.549  0.6666 -0.2036  0.2757
  142MPD2    C4 2166   2.637   2.315  10.676 -0.3474  0.5157  0.2825
  142MPD2    C5 2167   2.565   2.213  10.733 -0.4186 -0.0370 -0.0009
  142MPD2     H 2168   2.685   2.196  10.375 -0.8117  0.3775 -0.1809
  142MPD2    H1 2169   2.660   2.401  10.737 -0.3384  1.5947 -1.2651
  142MPD2    H2 2170   2.491   2.028  10.728 -3.9461  0.6168 -2.5070
  142MPD2    H3 2171   2.549   2.212  10.840 -0.7079 -0.1556 -0.0456
  142MPD2     N 2172   2.757   2.419  10.500 -0.0593 -0.1143 -0.0570
  142MPD2    H5 2173   2.773   2.492  10.569  2.2209 -0.4527 -0.2248
  142MPD2    N1 2174   2.541   1.975  10.463 -0.7289  0.0211  0.3656
  142MPD2    H7 2175   2.471   1.925  10.517 -1.0050  0.7142  0.6633
  143TCq2    C1 2176   2.813   2.438  10.378 -0.1625 -0.5316 -0.1700
  143TCq2    O2 2177   2.820   2.365  10.279  0.5144  0.2623 -0.2620
  143TCq2    C2 2178   2.872   2.570  10.365  0.1233 -0.0008  0.5649
  143TCq2    C3 2179   2.993   2.587  10.307  0.6133 -0.1100 -0.4564
  143TCq2    C4 2180   3.032   2.712  10.276  0.2538 -0.1550  0.6993
  143TCq2    C5 2181   2.956   2.822  10.316 -0.0028  0.3837 -0.3451
  143TCq2    C6 2182   2.840   2.801  10.386  0.7817 -0.3104  0.8293
  143TCq2    C7 2183   2.796   2.672  10.409  0.2278 -0.9188  0.3284
  143TCq2    C8 2184   2.754   2.909  10.450  0.2811  0.1679 -0.1207
  143TCq2    O4 2185   2.667   2.865  10.528  0.1610  0.2533 -0.1324
  143TCq2    C9 2186   3.158   2.738  10.211  0.0134 -0.0448 -0.4760
  143TCq2    O5 2187   3.212   2.636  10.160  0.6079  0.1777 -0.1755
  143TCq2    O6 2188   3.172   2.856  10.169  0.7870 -0.0460 -0.0866
  143TCq2    H2 2189   3.047   2.502  10.268  2.0582  1.2383 -1.4233
  143TCq2    H3 2190   2.981   2.923  10.284  2.4397  0.2324  1.0411
  143TCq2    H4 2191   2.693   2.653  10.436  0.1951 -0.4113  0.5652
  144MPD2     C 2192   4.670   1.884   0.554  0.1467 -0.4340  0.2905
  144MPD2    C1 2193   4.685   1.755   0.510 -0.5164 -0.2991 -0.3270
  144MPD2    C2 2194   0.063   1.674   0.548 -0.1170 -0.5350  0.0630
  144MPD2    C3 2195   0.155   1.729   0.634 -0.8830  0.1131 -0.0925
  144MPD2    C4 2196   0.148   1.862   0.667 -0.5552 -0.5179  0.2411
  144MPD2    C5 2197   0.040   1.939   0.631  0.0785 -0.1814  0.9273
  144MPD2     H 2198   0.062   1.572   0.513  0.3459 -0.4221 -0.2769
  144MPD2    H1 2199   0.231   1.893   0.730 -0.1297  1.1978 -1.1507
  144MPD2    H2 2200   4.583   1.943   0.528  0.1033 -0.7866 -0.3641
  144MPD2    H3 2201   0.037   2.044   0.659 -0.4100  0.3777 -1.1710
  144MPD2     N 2202   0.269   1.657   0.678 -0.3484  0.5304 -0.4911
  144MPD2    H5 2203   0.315   1.690   0.763  1.9224 -1.2772 -1.0268
  144MPD2    N1 2204   4.583   1.695   0.428 -0.3153 -0.4172  0.8015
  144MPD2    H7 2205   4.577   1.595   0.411  0.3915 -0.1777 -0.8507
  145TCq2    C1 2206   0.330   1.548   0.620  0.3323 -0.2449 -0.0468
  145TCq2    O2 2207   0.302   1.504   0.509 -0.0247 -1.0166 -0.5259
  145TCq2    C2 2208   0.456   1.503   0.679 -0.0203  0.4956  0.2896
  145TCq2    C3 2209   0.521   1.411   0.602 -0.3282  0.7059  0.2363
  145TCq2    C4 2210   0.642   1.372   0.652 -0.2780 -0.5179  0.5572
  145TCq2    C5 2211   0.710   1.429   0.754  0.0374 -0.5238 -0.3061
  145TCq2    C6 2212   0.639   1.532   0.814  0.3890 -0.6696 -0.7217
  145TCq2    C7 2213   0.507   1.560   0.794  0.2465 -0.3126 -0.4126
  145TCq2    C8 2214   0.700   1.611   0.925 -0.2041 -0.1755 -0.2417
  145TCq2    O4 2215   0.820   1.585   0.950 -0.0168  0.3497  0.2347
  145TCq2    C9 2216   0.722   1.272   0.583 -0.2902  0.6544 -0.1520
  145TCq2    O5 2217   0.801   1.202   0.653  0.4493 -0.0782  0.0465
  145TCq2    O6 2218   0.694   1.237   0.466 -0.6265  0.4819  0.1116
  145TCq2    H2 2219   0.487   1.372   0.507  0.5176  1.3879 -0.3446
  145TCq2    H3 2220   0.813   1.398   0.770  0.1103  0.6313  1.4670
  145TCq2    H4 2221   0.447   1.628   0.855  0.0220 -1.4385  0.6392
  146TMC2    C1 2222   0.422   0.768  12.645 -0.1318  0.1852 -0.7477
  146TMC2    C2 2223   0.331   0.869  12.624 -0.0315 -0.7527 -0.3538
  146TMC2    C3 2224   0.265   0.860  12.505 -0.4789  0.1421  0.2533
  146TMC2    C4 2225   0.434   0.664  12.558 -0.2542  0.1740  0.1824
  146TMC2    C5 2226   0.364   0.665  12.447  0.0231 -0.4900 -0.4890
  146TMC2    C6 2227   0.280   0.756  12.413  0.0791 -0.8046  0.1798
  146TMC2     C 2228   0.502   0.787  12.762  0.0053  0.8067  0.2452
  146TMC2     O 2229   0.460   0.872  12.837  0.1737  0.1083  0.6750
  146TMC2     H 2230   0.288   0.927  12.705  1.0113 -1.0034  0.3885
  146TMC2    H1 2231   0.484   0.572  12.585  0.0875 -0.4140 -2.4835
  146TMC2    H2 2232   0.218   0.748  12.325  2.1963  0.7616 -1.4397
  146TMC2    C7 2233   0.372   0.547  12.357  0.3330  0.0344  0.1610
  146TMC2    C8 2234   0.179   0.975  12.489  0.1667 -0.3073 -0.8040
  146TMC2    O1 2235   0.289   0.539  12.268  0.1623 -0.3111  0.5535
  146TMC2    O2 2236   0.184   1.065  12.568 -0.5931 -0.2042  0.0277
  146TMC2    O5 2237   0.075   0.939  12.414 -0.4693 -0.3620  0.0558
  146TMC2    H5 2238   0.064   0.846  12.387  0.9103 -0.8203  1.0368
  147MPD2     C 2239   0.579   0.098  12.190  0.3771 -0.7761  0.1187
  147MPD2    C1 2240   0.651   0.141  12.302 -0.4457  1.0942 -0.4298
  147MPD2    C2 2241   0.610   0.257  12.369  0.5499  0.0635  0.2027
  147MPD2    C3 2242   0.502   0.332  12.323  0.5768  0.0665  0.1191
  147MPD2    C4 2243   0.430   0.279  12.219 -0.2076 -0.6410 -0.1656
  147MPD2    C5 2244   0.463   0.169  12.151  0.3984 -0.4783  0.4609
  147MPD2     H 2245   0.653   0.296  12.461 -1.1400 -0.6576  1.3040
  147MPD2    H1 2246   0.347   0.336  12.179 -0.7631 -0.2360  1.5481
  147MPD2    H2 2247   0.605   0.006  12.139  0.5883 -0.2295 -0.7544
  147MPD2    H3 2248   0.409   0.138  12.063 -2.8892  3.9851  0.9184
  147MPD2     N 2249   0.476   0.457  12.385  0.1437 -0.5031 -0.6499
  147MPD2    H5 2250   0.548   0.490  12.449 -2.2962  0.8328  1.3797
  147MPD2    N1 2251   0.757   0.057  12.341  0.6822  0.2576 -0.1569
  147MPD2    H7 2252   0.773   4.696  12.289 -0.1456  0.0726 -0.1094
  148MPD2     C 2253   1.912   2.800  10.858 -0.6070  0.3502 -0.0972
  148MPD2    C1 2254   1.943   2.811  10.730 -0.2741  0.2599 -0.4959
  148MPD2    C2 2255   1.853   2.761  10.640 -0.3654  0.4428  0.4343
  148MPD2    C3 2256   1.753   2.674  10.679 -0.5058 -0.4283  0.0228
  148MPD2    C4 2257   1.735   2.648  10.813  0.0231  0.5731  0.2648
  148MPD2    C5 2258   1.817   2.710  10.897 -0.6015 -0.2937  0.4436
  148MPD2     H 2259   1.865   2.786  10.536 -2.9621 -0.9926 -0.2276
  148MPD2    H1 2260   1.667   2.575  10.856  1.9734 -1.8124 -0.7233
  148MPD2    H2 2261   1.979   2.822  10.941 -0.0095 -4.2381  0.6080
  148MPD2    H3 2262   1.815   2.686  11.003  0.5606 -0.0816  0.5118
  148MPD2     N 2263   1.662   2.612  10.585  0.0780  0.5005 -0.3063
  148MPD2    H5 2264   1.591   2.555  10.630  1.3714 -0.8447  0.0395
  148MPD2    N1 2265   2.051   2.889  10.684  0.5417  0.4198 -0.5162
  148MPD2    H7 2266   2.082   2.868  10.590  0.6148 -0.4023 -0.3049
  149TCq2    C1 2267   2.133   2.971  10.765  0.1949  0.0608  0.6390
  149TCq2    O2 2268   2.120   3.013  10.879  0.2635 -0.2942 -0.5457
  149TCq2    C2 2269   2.243   3.016  10.683  0.0247 -0.6329 -0.1733
  149TCq2    C3 2270   2.265   3.150  10.680  0.2891  0.4468 -0.0211
  149TCq2    C4 2271   2.320   3.206  10.569 -0.1634 -0.6111  0.4341
  149TCq2    C5 2272   2.354   3.125  10.460  0.6024 -0.1051 -0.2584
  149TCq2    C6 2273   2.339   2.991  10.466 -0.3214 -0.1170 -0.3596
  149TCq2    C7 2274   2.277   2.931  10.578 -0.0283  0.3508 -0.9530
  149TCq2    C8 2275   2.339   2.913  10.340  0.1040  0.1436 -0.1205
  149TCq2    O4 2276   2.345   2.793  10.361 -0.4209 -0.1720 -0.1432
  149TCq2    C9 2277   2.329   3.349  10.547 -0.0248 -0.1149 -0.1585
  149TCq2    O5 2278   2.290   3.414  10.647  0.1909  0.3174  0.0746
  149TCq2    O6 2279   2.324   3.384  10.427  0.0167  0.4516  0.7762
  149TCq2    H2 2280   2.234   3.213  10.763 -1.3737 -1.5645  0.8959
  149TCq2    H3 2281   2.410   3.174  10.381  1.9081  0.4465  0.9953
  149TCq2    H4 2282   2.277   2.823  10.592  0.7371  0.4133 -0.5001
  150MPD2     C 2283   2.947   3.333  11.970  0.1955  0.2746  0.3367
  150MPD2    C1 2284   2.941   3.197  11.987 -0.5279 -0.7279  0.2225
  150MPD2    C2 2285   3.003   3.139  12.094 -0.7214  0.5269 -0.4138
  150MPD2    C3 2286   3.091   3.222  12.165 -0.4209 -0.2616  0.4100
  150MPD2    C4 2287   3.104   3.357  12.142  0.5297  0.1232 -0.4494
  150MPD2    C5 2288   3.025   3.410  12.048  0.0593 -0.1515  0.0381
  150MPD2     H 2289   3.004   3.032  12.111  1.2886  0.5028 -0.6522
  150MPD2    H1 2290   3.170   3.428  12.192  0.3979  0.7112 -1.1045
  150MPD2    H2 2291   2.894   3.376  11.886  0.2266 -1.1729 -0.4164
  150MPD2    H3 2292   3.038   3.513  12.016 -1.2304 -0.6128 -1.9758
  150MPD2     N 2293   3.182   3.149  12.253 -0.3020  0.2604  0.2208
  150MPD2    H5 2294   3.162   3.052  12.274  1.7044 -0.0044  0.8528
  150MPD2    N1 2295   2.876   3.114  11.896  0.2956 -0.2628  0.7753
  150MPD2    H7 2296   2.854   3.021  11.929 -0.4565 -0.1747  0.5253
  151TCq2    C1 2297   3.287   3.212  12.315  0.2535  0.6401 -0.4455
  151TCq2    O2 2298   3.319   3.330  12.333  0.1515 -0.1437 -0.0502
  151TCq2    C2 2299   3.391   3.114  12.353  0.0444 -0.6201  0.5818
  151TCq2    C3 2300   3.366   2.980  12.338 -0.1629  0.3517 -0.4685
  151TCq2    C4 2301   3.457   2.888  12.363  0.2620  0.4561 -0.8945
  151TCq2    C5 2302   3.590   2.919  12.381  0.0188 -0.0141  0.1091
  151TCq2    C6 2303   3.617   3.054  12.393 -0.2487 -0.2365 -0.0777
  151TCq2    C7 2304   3.518   3.149  12.389  0.4229 -0.0964 -0.4475
  151TCq2    C8 2305   3.743   3.093  12.450  0.2847  0.2876  0.0750
  151TCq2    O4 2306   3.767   3.213  12.469 -0.0033  0.5896  0.4933
  151TCq2    C9 2307   3.418   2.749  12.350  0.1957 -0.2006  0.5120
  151TCq2    O5 2308   3.311   2.732  12.290  0.6051 -0.1614  0.3003
  151TCq2    O6 2309   3.492   2.653  12.370 -0.5833 -0.2828  0.0703
  151TCq2    H2 2310   3.265   2.948  12.318 -0.6086  1.6524 -0.2629
  151TCq2    H3 2311   3.660   2.836  12.380 -0.5910 -0.5518  1.9801
  151TCq2    H4 2312   3.532   3.256  12.404 -1.3315  0.3323 -1.9408
  152MPD2     C 2313   2.770   2.436  12.812 -0.3146  0.1608 -0.0756
  152MPD2    C1 2314   2.800   2.517  12.705  0.0992 -0.2370 -0.5202
  152MPD2    C2 2315   2.693   2.571  12.628  0.2732 -0.0645  0.1409
  152MPD2    C3 2316   2.569   2.525  12.639  1.4891  0.4536 -0.1124
  152MPD2    C4 2317   2.545   2.418  12.724  0.2888  0.0262 -0.5298
  152MPD2    C5 2318   2.641   2.379  12.813 -0.5840 -0.9593  0.7697
  152MPD2     H 2319   2.713   2.654  12.561 -0.5661  0.7213  0.8662
  152MPD2    H1 2320   2.445   2.381  12.744  0.0455  0.9371 -0.0484
  152MPD2    H2 2321   2.848   2.401  12.880  1.3595  0.5176 -1.8296
  152MPD2    H3 2322   2.602   2.317  12.893  1.9051  0.7652  3.3473
  152MPD2     N 2323   2.465   2.586  12.563 -0.0573  0.4829 -0.8353
  152MPD2    H5 2324   2.480   2.677  12.520  1.1707  0.5707 -0.2458
  152MPD2    N1 2325   2.935   2.555  12.698  0.2493  0.3175 -0.4536
  152MPD2    H7 2326   2.992   2.527  12.777 -1.0715  0.3730  0.5185
  153TCq2    C1 2327   2.994   2.638  12.607 -0.2370  0.0547 -0.4320
  153TCq2    O2 2328   2.948   2.692  12.509  0.3451  0.0279  0.0982
  153TCq2    C2 2329   3.132   2.651  12.642  0.0408  0.0360 -0.0781
  153TCq2    C3 2330   3.191   2.556  12.719 -0.2324  0.5710  0.4283
  153TCq2    C4 2331   3.303   2.588  12.785  0.0941 -0.0740 -0.5399
  153TCq2    C5 2332   3.358   2.711  12.776 -0.0512  0.3057 -0.4823
  153TCq2    C6 2333   3.302   2.804  12.691 -0.3796 -0.1144 -0.3788
  153TCq2    C7 2334   3.186   2.776  12.627 -0.2396 -0.0483 -0.4923
  153TCq2    C8 2335   3.351   2.941  12.695 -0.5931  0.5995 -0.2193
  153TCq2    O4 2336   3.274   3.032  12.674  0.0791 -0.3370 -0.0783
  153TCq2    C9 2337   3.376   2.491  12.864 -0.0059  0.1018 -0.0344
  153TCq2    O5 2338   3.473   2.535  12.934 -0.0640 -0.1891  0.0630
  153TCq2    O6 2339   3.327   2.373  12.860  0.6987 -0.4621 -0.6695
  153TCq2    H2 2340   3.158   2.453  12.726 -0.1615  0.7276  3.0262
  153TCq2    H3 2341   3.438   2.739  12.844 -1.4901 -1.0663  1.7544
  153TCq2    H4 2342   3.132   2.854  12.575 -0.1707  0.1418 -0.2809
  154MPD2     C 2343   0.349   2.998   0.544 -0.4612 -0.1024  0.3379
  154MPD2    C1 2344   0.277   3.005   0.666 -0.3215 -0.1646 -0.6201
  154MPD2    C2 2345   0.145   3.053   0.667 -0.2517  0.2331  0.2276
  154MPD2    C3 2346   0.092   3.100   0.556 -0.1829  0.5944  0.2312
  154MPD2    C4 2347   0.160   3.089   0.438 -0.4123 -0.3131 -0.2907
  154MPD2    C5 2348   0.290   3.040   0.431 -0.4959 -0.2166 -0.5278
  154MPD2     H 2349   0.084   3.060   0.755 -0.0332 -3.5013  0.7019
  154MPD2    H1 2350   0.121   3.130   0.345  0.1708  0.2927 -0.2652
  154MPD2    H2 2351   0.450   2.960   0.542 -0.8177 -1.0054 -0.6535
  154MPD2    H3 2352   0.349   3.029   0.340 -0.0337  0.3905 -0.2993
  154MPD2     N 2353   4.684   3.148   0.571 -0.4133 -0.2416 -0.2476
  154MPD2    H5 2354   4.644   3.121   0.660 -0.1185  0.2890  0.0463
  154MPD2    N1 2355   0.343   2.958   0.781 -0.4425 -0.5472  0.5110
  154MPD2    H7 2356   0.439   2.927   0.773 -0.8760 -0.5424 -4.5456
  155TCq2    C1 2357   0.291   2.986   0.908  0.3072 -0.1170 -0.0453
  155TCq2    O2 2358   0.205   3.065   0.943  0.0104 -0.1148 -0.0962
  155TCq2    C2 2359   0.376   2.938   1.015 -0.4974  0.5718  0.4350
  155TCq2    C3 2360   0.375   3.015   1.127  0.1907 -0.7389  0.3983
  155TCq2    C4 2361   0.475   2.991   1.219  0.5011  0.0434  0.1517
  155TCq2    C5 2362   0.550   2.874   1.217  0.2841 -0.8319 -0.7678
  155TCq2    C6 2363   0.535   2.794   1.109 -0.1928 -0.1075 -0.5533
  155TCq2    C7 2364   0.452   2.824   1.003  0.7048  0.3729 -0.1018
  155TCq2    C8 2365   0.613   2.665   1.105 -0.5299  0.4712 -0.7757
  155TCq2    O4 2366   0.634   2.619   0.995 -0.1803 -0.0893 -0.2559
  155TCq2    C9 2367   0.473   3.074   1.337  0.3502 -0.4225  0.1605
  155TCq2    O5 2368   0.450   3.198   1.318  0.1397  0.4456 -0.7680
  155TCq2    O6 2369   0.472   3.013   1.446 -0.2951  0.1750 -0.7653
  155TCq2    H2 2370   0.308   3.098   1.143  1.5289  0.6205 -1.0255
  155TCq2    H3 2371   0.627   2.856   1.291  0.9658  0.0693 -1.2691
  155TCq2    H4 2372   0.457   2.769   0.910  1.0181 -1.3851  0.9480
  156MPD2     C 2373   3.914   0.319  12.363 -0.0485  0.9162 -0.2529
  156MPD2    C1 2374   3.787   0.308  12.318 -0.6275  0.6285  0.7453
  156MPD2    C2 2375   3.678   0.329  12.404  0.1234 -0.2103 -0.7594
  156MPD2    C3 2376   3.701   0.370  12.538  0.0955 -0.1768 -0.5146
  156MPD2    C4 2377   3.832   0.393  12.579 -0.0644  0.1656 -0.6717
  156MPD2    C5 2378   3.933   0.360  12.496  0.0549  0.5231  0.2943
  156MPD2     H 2379   3.575   0.316  12.373 -0.1233 -1.3958  0.5154
  156MPD2    H1 2380   3.859   0.440  12.673 -1.2747 -2.2718  0.8926
  156MPD2    H2 2381   4.001   0.283  12.310  0.0858  3.8230 -2.0314
  156MPD2    H3 2382   4.037   0.377  12.523  0.5016 -1.4028 -0.1893
  156MPD2     N 2383   3.593   0.406  12.609 -0.1106 -0.4993  0.0554
  156MPD2    H5 2384   3.502   0.393  12.565 -0.3925  0.6749  0.2820
  156MPD2    N1 2385   3.776   0.271  12.181 -0.1278 -1.1701  0.2889
  156MPD2    H7 2386   3.852   0.262  12.114 -0.5646 -2.0042 -0.0940
  157TCq2    C1 2387   3.655   0.275  12.123  0.1956  0.0711  0.0909
  157TCq2    O2 2388   3.546   0.312  12.165 -0.0028 -0.3059 -0.5210
  157TCq2    C2 2389   3.667   0.248  11.984  0.3984 -0.3068 -0.0168
  157TCq2    C3 2390   3.750   0.152  11.933  0.1419 -0.1576 -0.5180
  157TCq2    C4 2391   3.735   0.128  11.800  0.2031  0.4526 -0.1985
  157TCq2    C5 2392   3.644   0.189  11.714 -0.0093  0.2132  0.5536
  157TCq2    C6 2393   3.555   0.271  11.774 -0.2707 -0.4838 -0.2075
  157TCq2    C7 2394   3.571   0.307  11.906 -0.4175  0.0190  0.2922
  157TCq2    C8 2395   3.447   0.340  11.703 -1.2556  0.1662 -0.6456
  157TCq2    O4 2396   3.416   0.456  11.735  0.1250  0.1385  0.8071
  157TCq2    C9 2397   3.804   0.023  11.739  0.5081 -0.2240 -0.9166
  157TCq2    O5 2398   3.829   0.028  11.618 -0.2900 -0.0522  0.2899
  157TCq2    O6 2399   3.845   4.656  11.822 -0.4842 -1.0511 -0.1225
  157TCq2    H2 2400   3.814   0.091  11.996 -0.1959 -1.3784 -1.3657
  157TCq2    H3 2401   3.645   0.163  11.608 -2.2091 -2.9068  1.2912
  157TCq2    H4 2402   3.495   0.373  11.946  1.4769  0.8606  2.4499
  158TMC2    C1 2403   3.684   3.599  13.604  0.0777  0.2559 -0.2806
  158TMC2    C2 2404   3.760   3.644  13.504 -0.3906  0.0493  0.1653
  158TMC2    C3 2405   3.719   3.754  13.432 -0.9827  0.4024  0.1517
  158TMC2    C4 2406   3.572   3.660  13.645  0.7027  0.4712 -0.6237
  158TMC2    C5 2407   3.533   3.772  13.573 -0.0169 -0.0126 -0.1378
  158TMC2    C6 2408   3.606   3.819  13.467 -1.0620 -0.0046  0.3991
  158TMC2     C 2409   3.743   3.484  13.665 -0.5454  1.3444 -0.5094
  158TMC2     O 2410   3.861   3.459  13.658 -0.7146  0.0257 -0.0274
  158TMC2     H 2411   3.845   3.584  13.473  0.3356  1.9712 -1.5283
  158TMC2    H1 2412   3.510   3.640  13.731 -0.5360  1.3130 -1.3157
  158TMC2    H2 2413   3.568   3.902  13.408 -0.6102 -1.5316 -2.0248
  158TMC2    C7 2414   3.393   3.807  13.561  0.2953 -0.5977 -0.5497
  158TMC2    C8 2415   3.814   3.802  13.337 -1.3481 -0.1947  0.5989
  158TMC2    O1 2416   3.368   3.907  13.500 -0.4698  0.0101  0.1352
  158TMC2    O2 2417   3.882   3.729  13.265 -0.3853 -0.0632 -0.4440
  158TMC2    O5 2418   3.838   3.931  13.353  0.3624  0.3426  0.1348
  158TMC2    H5 2419   3.791   3.970  13.429  0.9597  2.8743 -0.7870
  159MPD2     C 2420   3.706   3.102  13.989 -0.5241 -0.5476  0.0077
  159MPD2    C1 2421   3.597   3.187  14.009  0.0900 -0.0993  0.4957
  159MPD2    C2 2422   3.571   3.290  13.922 -0.2979 -0.0735 -0.3283
  159MPD2    C3 2423   3.660   3.308  13.818 -0.4620  0.1467 -0.3240
  159MPD2    C4 2424   3.774   3.233  13.806 -0.4240  0.5834  0.1998
  159MPD2    C5 2425   3.786   3.122  13.884  0.0673 -0.3132 -0.5564
  159MPD2     H 2426   3.496   3.367  13.937 -1.2250 -0.9297 -0.5567
  159MPD2    H1 2427   3.846   3.247  13.726  0.2896  3.5387  1.3637
  159MPD2    H2 2428   3.717   3.010  14.044  1.7407 -0.3889 -0.1675
  159MPD2    H3 2429   3.875   3.060  13.879 -0.5192 -1.2307  0.4173
  159MPD2     N 2430   3.644   3.424  13.741  0.3450 -0.2821  0.5843
  159MPD2    H5 2431   3.552   3.466  13.731  0.6152 -0.2605 -1.7576
  159MPD2    N1 2432   3.514   3.153  14.121  0.3143  0.7869 -0.1029
  159MPD2    H7 2433   3.549   3.074  14.174 -0.6830  1.3340  1.3455
  160TMC2    C1 2434   3.841   1.749   1.148 -0.1464  0.5917 -0.7270
  160TMC2    C2 2435   3.794   1.623   1.115 -0.0727 -1.0672 -0.6271
  160TMC2    C3 2436   3.820   1.567   0.993  0.8310  0.2340  0.1714
  160TMC2    C4 2437   3.909   1.828   1.061  0.6452 -0.1335 -0.1444
  160TMC2    C5 2438   3.935   1.770   0.938 -0.1705  0.6625 -0.0645
  160TMC2    C6 2439   3.902   1.637   0.904  0.0168  0.0427  0.7790
  160TMC2     C 2440   3.765   1.823   1.250  0.0425  0.0171  0.1286
  160TMC2     O 2441   3.752   1.761   1.355 -0.2043  0.0285 -0.2003
  160TMC2     H 2442   3.731   1.568   1.183  0.8780 -0.3945  0.7930
  160TMC2    H1 2443   3.942   1.924   1.098 -2.1271  1.1897 -1.1656
  160TMC2    H2 2444   3.925   1.595   0.807 -1.7781  3.7062 -1.2404
  160TMC2    C7 2445   3.939   1.853   0.817 -0.0383 -0.4033  0.6838
  160TMC2    C8 2446   3.720   1.470   0.943  0.4433 -0.2600 -0.2561
  160TMC2    O1 2447   3.858   1.811   0.734 -0.0615 -0.2834 -0.4542
  160TMC2    O2 2448   3.605   1.455   0.980 -0.0557  0.7365  0.3320
  160TMC2    O5 2449   3.800   1.370   0.915 -0.1030  0.1995 -0.3547
  160TMC2    H5 2450   3.894   1.394   0.895 -0.4600  0.2685 -1.9392
  161MPD2     C 2451   3.621   2.051   1.398 -0.1015  0.0745  0.6442
  161MPD2    C1 2452   3.605   2.012   1.259 -0.0967  0.6280  0.0554
  161MPD2    C2 2453   3.512   2.087   1.183  0.5730 -0.4444  0.0393
  161MPD2    C3 2454   3.444   2.198   1.242 -0.2863 -0.4918 -0.1870
  161MPD2    C4 2455   3.466   2.225   1.374  0.2568  0.1210  0.2812
  161MPD2    C5 2456   3.546   2.148   1.455  0.2869  0.1332  0.2076
  161MPD2     H 2457   3.494   2.063   1.079 -1.3282  1.9350 -0.1680
  161MPD2    H1 2458   3.409   2.306   1.419  2.4893  2.1877 -0.6287
  161MPD2    H2 2459   3.695   2.000   1.458  1.4712 -0.5765 -1.8626
  161MPD2    H3 2460   3.570   2.183   1.555 -0.7126  0.4016  0.3637
  161MPD2     N 2461   3.354   2.282   1.160  0.1492 -0.0579  0.5496
  161MPD2    H5 2462   3.308   2.355   1.213 -2.7705 -0.8140 -0.9123
  161MPD2    N1 2463   3.693   1.930   1.193  0.0769 -0.7949 -0.6391
  161MPD2    H7 2464   3.693   1.930   1.092 -0.6504 -0.6342 -0.6359
  162TMC2    C1 2465   0.868   3.727   1.291  0.3882 -0.5658 -0.0248
  162TMC2    C2 2466   0.756   3.703   1.225 -0.2541 -0.5116  0.0642
  162TMC2    C3 2467   0.635   3.723   1.294  0.0245  0.9263  0.3277
  162TMC2    C4 2468   0.865   3.789   1.414 -0.1859 -0.4187  0.3128
  162TMC2    C5 2469   0.748   3.799   1.484  0.1057  0.4690  0.1189
  162TMC2    C6 2470   0.630   3.767   1.422  0.0029 -0.2750  0.0698
  162TMC2     C 2471   0.994   3.708   1.223  0.3025 -0.0857 -0.5115
  162TMC2     O 2472   0.991   3.718   1.103 -0.1755  0.2239  0.2519
  162TMC2     H 2473   0.760   3.647   1.132 -0.1186 -2.9154  1.5137
  162TMC2    H1 2474   0.959   3.819   1.458  0.7322 -2.1178 -0.4887
  162TMC2    H2 2475   0.534   3.778   1.472 -1.8076 -0.9413 -3.3168
  162TMC2    C7 2476   0.737   3.880   1.603 -0.2069  0.3135  0.1006
  162TMC2    C8 2477   0.507   3.694   1.233 -1.1933  0.4211 -0.6443
  162TMC2    O1 2478   0.631   3.923   1.642 -0.4297 -0.4897 -0.0665
  162TMC2    O2 2479   0.401   3.680   1.290 -0.8392 -0.2831 -0.1090
  162TMC2    O5 2480   0.518   3.697   1.097  0.3560 -0.3422  0.2971
  162TMC2    H5 2481   0.576   3.771   1.070 -0.2626  0.9137  2.4116
  163MPD2     C 2482   1.486   3.570   1.234  0.1604 -0.0106 -0.1085
  163MPD2    C1 2483   1.410   3.598   1.129 -0.5082 -0.2682 -0.2959
  163MPD2    C2 2484   1.283   3.643   1.148 -0.9224 -0.6269 -0.4459
  163MPD2    C3 2485   1.238   3.664   1.278  0.3364 -0.8659 -0.4005
  163MPD2    C4 2486   1.317   3.636   1.386  0.0394 -0.8905  0.1527
  163MPD2    C5 2487   1.440   3.592   1.361  0.2195  0.1676 -0.2484
  163MPD2     H 2488   1.217   3.659   1.063  0.2576 -0.8578 -1.4113
  163MPD2    H1 2489   1.284   3.624   1.489  2.0765 -1.8540  0.7109
  163MPD2    H2 2490   1.583   3.521   1.229  0.0271 -0.2698 -0.1738
  163MPD2    H3 2491   1.495   3.561   1.449 -0.1570  0.8796  0.2274
  163MPD2     N 2492   1.107   3.687   1.309  0.2565  0.1950 -0.4509
  163MPD2    H5 2493   1.075   3.687   1.405  0.5565  0.7183 -0.3521
  163MPD2    N1 2494   1.465   3.576   1.001  0.1302 -0.0111  0.0792
  163MPD2    H7 2495   1.557   3.534   0.993 -0.5287 -1.4448 -0.0132
  164TCq2    C1 2496   1.916   3.759  12.016 -0.2692  0.2114 -0.7951
  164TCq2    O2 2497   1.926   3.808  12.128 -0.2306 -0.6561 -0.3222
  164TCq2    C2 2498   1.782   3.699  11.996  0.2774  0.2413  0.4941
  164TCq2    C3 2499   1.711   3.664  12.108  0.6675  0.2651 -1.0943
  164TCq2    C4 2500   1.578   3.640  12.084  0.1785 -0.1883  0.5944
  164TCq2    C5 2501   1.514   3.661  11.964  0.2697 -0.0541 -0.2234
  164TCq2    C6 2502   1.584   3.699  11.857 -0.1194  0.4076 -0.2710
  164TCq2    C7 2503   1.722   3.717  11.869 -0.9589  0.3187 -0.7003
  164TCq2    C8 2504   1.507   3.747  11.735  1.1120  0.2206  0.0658
  164TCq2    O4 2505   1.383   3.749  11.737 -0.1007 -0.3976 -0.3516
  164TCq2    C9 2506   1.505   3.570  12.184 -0.1406 -1.0889 -0.2031
  164TCq2    O5 2507   1.389   3.606  12.214 -0.1944 -0.1068  0.1886
  164TCq2    O6 2508   1.576   3.489  12.256  0.4421 -0.1196 -0.1177
  164TCq2    H2 2509   1.754   3.644  12.205  2.1996  0.4496 -1.7415
  164TCq2    H3 2510   1.409   3.638  11.967  0.3250 -0.1602  1.0377
  164TCq2    H4 2511   1.787   3.756  11.792  0.4114  1.8047  1.2129
  165MPD2     C 2512   2.916   0.873   1.763 -0.4470 -0.1309 -0.5807
  165MPD2    C1 2513   3.051   0.876   1.771  0.2358  0.2096  0.6058
  165MPD2    C2 2514   3.118   0.994   1.803 -0.3072  0.3954 -0.0539
  165MPD2    C3 2515   3.043   1.106   1.816 -0.1695 -0.0575 -0.3421
  165MPD2    C4 2516   2.902   1.100   1.827 -0.4724 -0.0065 -0.1356
  165MPD2    C5 2517   2.842   0.983   1.799  0.1306 -0.1331 -0.7198
  165MPD2     H 2518   3.225   0.994   1.819 -0.5024  0.0100  1.1743
  165MPD2    H1 2519   2.850   1.192   1.852  1.2038  0.5111  1.4142
  165MPD2    H2 2520   2.856   0.787   1.736  2.1137 -1.1692 -2.8564
  165MPD2    H3 2521   2.735   0.976   1.780 -0.0674  1.9375 -0.3882
  165MPD2     N 2522   3.096   1.233   1.839  0.7917 -0.0699 -0.0742
  165MPD2    H5 2523   3.030   1.306   1.861  1.2782 -0.2116  1.8419
  165MPD2    N1 2524   3.115   0.754   1.744  0.1946  0.0230 -0.0680
  165MPD2    H7 2525   3.065   0.667   1.727  1.2957 -0.5388 -0.4228
  166TCq2    C1 2526   3.224   1.268   1.810 -0.0611 -0.1396 -0.3651
  166TCq2    O2 2527   3.319   1.202   1.763 -0.0725  0.3323 -0.6178
  166TCq2    C2 2528   3.263   1.403   1.854 -0.3175  0.1868  0.3801
  166TCq2    C3 2529   3.177   1.465   1.937  0.2659  0.4126 -0.4590
  166TCq2    C4 2530   3.205   1.597   1.961 -0.2752 -0.0768  0.2892
  166TCq2    C5 2531   3.323   1.662   1.923 -0.2220 -0.2439 -0.1507
  166TCq2    C6 2532   3.414   1.590   1.853  0.0796  0.6751  0.3501
  166TCq2    C7 2533   3.382   1.461   1.810 -0.5470  0.1707  0.0034
  166TCq2    C8 2534   3.528   1.645   1.795  0.3969  0.2798  0.7414
  166TCq2    O4 2535   3.611   1.577   1.735  0.4392 -0.0426  0.1284
  166TCq2    C9 2536   3.112   1.663   2.051  0.1081  0.7661 -0.9597
  166TCq2    O5 2537   3.033   1.590   2.122  0.3032 -0.2179 -0.2571
  166TCq2    O6 2538   3.112   1.785   2.043 -0.0290 -0.3215 -0.2758
  166TCq2    H2 2539   3.087   1.426   1.983  0.3070 -1.1495 -1.6985
  166TCq2    H3 2540   3.332   1.753   1.981  0.4640 -0.9069  0.7636
  166TCq2    H4 2541   3.442   1.408   1.736  2.0099  0.4902  1.8581
  167TMC2    C1 2542   0.872   3.443  12.463 -0.0709  0.5276 -0.6370
  167TMC2    C2 2543   0.824   3.551  12.534  0.2112 -0.1016 -0.4010
  167TMC2    C3 2544   0.856   3.545  12.670  0.9155 -0.2149  0.5637
  167TMC2    C4 2545   0.951   3.347  12.516  0.3271 -0.2803  0.1538
  167TMC2    C5 2546   0.972   3.339  12.654 -0.6888  0.3769  0.6753
  167TMC2    C6 2547   0.925   3.441  12.732  0.0540  0.1026  0.4500
  167TMC2     C 2548   0.845   3.453  12.319 -0.1175  0.0265  0.4901
  167TMC2     O 2549   0.852   3.563  12.268  0.2146 -0.0150 -0.5705
  167TMC2     H 2550   0.768   3.626  12.479  0.8388  0.4896 -0.2295
  167TMC2    H1 2551   0.971   3.264  12.450  1.3202 -0.3844  0.5859
  167TMC2    H2 2552   0.965   3.456  12.831 -1.9952 -2.3187  1.6295
  167TMC2    C7 2553   1.038   3.238  12.719  0.1667  0.2743 -0.2561
  167TMC2    C8 2554   0.786   3.638  12.763  0.5002 -0.2603  0.0988
  167TMC2    O1 2555   1.039   3.237  12.840 -0.2784 -0.0979  0.2811
  167TMC2    O2 2556   0.711   3.722  12.719 -0.2314 -0.1214  0.3033
  167TMC2    O5 2557   0.747   3.568  12.871 -0.5208  0.0852  0.2672
  167TMC2    H5 2558   0.795   3.483  12.860 -1.2049 -0.1939 -0.5097
  168MPD2     C 2559   0.797   3.408  12.027 -0.6617  0.2262 -0.3786
  168MPD2    C1 2560   0.815   3.303  12.116  0.4342 -0.4568  0.0064
  168MPD2    C2 2561   0.828   3.175  12.080 -0.0682 -0.3291  1.1502
  168MPD2    C3 2562   0.828   3.149  11.942  0.0293 -0.1692 -0.0087
  168MPD2    C4 2563   0.831   3.247  11.849 -0.1066 -0.0382 -0.4107
  168MPD2    C5 2564   0.822   3.372  11.890 -0.2399 -0.3280  0.1314
  168MPD2     H 2565   0.833   3.099  12.158 -0.7473 -1.2829  0.2725
  168MPD2    H1 2566   0.856   3.216  11.748 -0.3872  1.1049 -0.8206
  168MPD2    H2 2567   0.795   3.513  12.053  0.1632 -0.0181  0.6669
  168MPD2    H3 2568   0.823   3.453  11.818  0.9533 -1.3703 -1.0352
  168MPD2     N 2569   0.822   3.016  11.891  0.0681 -0.1280 -0.4327
  168MPD2    H5 2570   0.847   3.006  11.794  1.2318  0.5029 -0.2039
  168MPD2    N1 2571   0.820   3.332  12.259  0.0839  0.7098  0.4360
  168MPD2    H7 2572   0.818   3.249  12.316 -2.5943  1.7668  1.8839
  169MPD1     C 2573   4.164   2.583   8.121 -0.2332  0.1999  1.2657
  169MPD1    C1 2574   4.278   2.511   8.143 -0.3965  0.0463 -1.0834
  169MPD1    C2 2575   4.294   2.448   8.263 -0.6749 -0.5187  0.3102
  169MPD1    C3 2576   4.204   2.463   8.372  0.0420  0.1188  0.5039
  169MPD1    C4 2577   4.097   2.545   8.344  0.0583  0.7858  0.0628
  169MPD1    C5 2578   4.072   2.600   8.224  0.1153 -0.1360  0.0501
  169MPD1     H 2579   4.386   2.394   8.283 -0.0957  0.2973 -0.1905
  169MPD1    H1 2580   4.022   2.548   8.422 -0.8158 -0.6923 -0.7093
  169MPD1    H2 2581   4.147   2.619   8.020 -1.2171  1.7464  1.9895
  169MPD1    H3 2582   3.974   2.641   8.202 -0.2146 -1.9784 -1.8964
  169MPD1     N 2583   4.230   2.386   8.491  0.2962 -0.5579  0.5622
  169MPD1    H5 2584   4.323   2.349   8.508  0.6372 -1.5730 -3.5146
  169MPD1    N1 2585   4.370   2.491   8.039 -0.6993 -0.2136 -0.0643
  169MPD1    H6 2586   4.349   2.554   7.962  2.7939 -2.6125 -2.9187
  169MPD1    H7 2587   4.465   2.514   8.068 -0.5498  2.9115 -2.9869
  170MPD1     C 2588   2.848   0.620  12.821 -0.3715 -0.2826  0.2508
  170MPD1    C1 2589   2.816   0.751  12.787  0.1298  0.1616 -0.0381
  170MPD1    C2 2590   2.769   0.831  12.885 -0.0915  0.4480  0.6247
  170MPD1    C3 2591   2.765   0.795  13.017  0.3384  0.2894  0.3690
  170MPD1    C4 2592   2.796   0.668  13.049  0.0020 -0.7035  0.0748
  170MPD1    C5 2593   2.832   0.581  12.952  0.1781 -0.2671  0.3160
  170MPD1     H 2594   2.745   0.934  12.860 -0.7841  0.4211  1.1669
  170MPD1    H1 2595   2.792   0.628  13.149 -0.1567 -0.0602  0.3279
  170MPD1    H2 2596   2.862   0.539  12.750  0.2790 -0.9570  1.1521
  170MPD1    H3 2597   2.845   0.477  12.980  0.6968  0.0858  1.3620
  170MPD1     N 2598   2.730   0.895  13.117 -0.3824  0.0602  0.6073
  170MPD1    H5 2599   2.690   0.983  13.086 -0.0237 -0.4394 -1.2943
  170MPD1    N1 2600   2.814   0.781  12.653 -0.3336  0.0143  0.1967
  170MPD1    H6 2601   2.813   0.883  12.643  0.6446  0.0626  0.6101
  170MPD1    H7 2602   2.894   0.746  12.601  0.3856 -0.4234  1.6230
  171MPD1     C 2603   0.479   1.679  14.746  0.0629  0.6624  0.1131
  171MPD1    C1 2604   0.616   1.664  14.728  0.2749  0.7803  0.6026
  171MPD1    C2 2605   0.706   1.723  14.808  0.0061 -0.8219  0.3735
  171MPD1    C3 2606   0.662   1.779  14.927  0.4058 -0.6739 -0.1181
  171MPD1    C4 2607   0.528   1.774  14.954 -0.5732 -0.1511 -0.6820
  171MPD1    C5 2608   0.438   1.719  14.867 -0.3865 -0.7833 -0.0754
  171MPD1     H 2609   0.811   1.704  14.786  0.1990 -0.3161  0.8707
  171MPD1    H1 2610   0.490   1.829  15.039 -2.8359  0.0214 -1.8200
  171MPD1    H2 2611   0.411   1.640  14.670 -0.5247  0.6459  0.6514
  171MPD1    H3 2612   0.333   1.721  14.895  0.2932 -0.1088  2.4387
  171MPD1     N 2613   0.747   1.802  15.036  0.0273  0.2544 -0.1695
  171MPD1    H5 2614   0.700   1.830  15.121 -1.5915 -0.4709 -0.8348
  171MPD1    N1 2615   0.665   1.617  14.606  0.6487  0.1771  0.6572
  171MPD1    H6 2616   0.602   1.547  14.566 -1.3136  2.3252 -0.0125
  171MPD1    H7 2617   0.761   1.584  14.605  0.4007 -0.5448  0.1631
  172MPD1     C 2618   0.006   1.278   0.062 -0.2507  0.0828  0.5972
  172MPD1    C1 2619   4.722   1.395  17.693 -0.1276 -0.1883 -0.2819
  172MPD1    C2 2620   0.057   1.510   0.046 -0.3507 -0.2315  0.1502
  172MPD1    C3 2621   0.114   1.504   0.174  0.4717  0.2947 -0.0710
  172MPD1    C4 2622   0.123   1.379   0.232  0.0206  1.0036  0.1777
  172MPD1    C5 2623   0.063   1.270   0.181 -0.0308 -0.1171 -0.4827
  172MPD1     H 2624   0.051   1.603  17.692 -1.4657 -0.2613  0.2206
  172MPD1    H1 2625   0.159   1.368   0.334  0.2288 -0.3344 -0.0420
  172MPD1    H2 2626   4.690   1.184   0.025  3.3790 -1.2226 -0.0829
  172MPD1    H3 2627   0.063   1.177   0.237 -0.9457  0.9639  1.2885
  172MPD1     N 2628   0.166   1.610   0.251  0.3136 -0.7222 -0.3197
  172MPD1    H5 2629   0.210   1.595   0.341  0.5097  0.4546 -0.2195
  172MPD1    N1 2630   4.682   1.400  17.560  0.3624  0.3199  0.6064
  172MPD1    H6 2631   4.640   1.492  17.543 -0.8068 -0.9440 -3.3059
  172MPD1    H7 2632   4.613   1.327  17.541 -0.3890  1.1988 -0.0545
  173MPD1     C 2633   2.014   1.435  13.648  0.0707 -0.4076  0.0396
  173MPD1    C1 2634   1.884   1.410  13.618  0.4025 -0.4308 -0.3326
  173MPD1    C2 2635   1.793   1.379  13.715  0.0689  0.3951  0.0579
  173MPD1    C3 2636   1.830   1.377  13.847 -0.5793 -0.8415 -0.7737
  173MPD1    C4 2637   1.961   1.415  13.886 -0.0354 -0.0805 -0.2528
  173MPD1    C5 2638   2.052   1.449  13.786  0.6038  0.1057 -0.3732
  173MPD1     H 2639   1.699   1.337  13.683  0.0971  0.6632 -0.3757
  173MPD1    H1 2640   1.991   1.423  13.990 -0.3802  0.4362 -0.1935
  173MPD1    H2 2641   2.087   1.449  13.569 -1.7377 -0.3436 -1.6363
  173MPD1    H3 2642   2.155   1.480  13.800  1.0257 -2.0982  1.2430
  173MPD1     N 2643   1.739   1.317  13.937  0.5955 -0.2341 -0.2937
  173MPD1    H5 2644   1.649   1.299  13.894  1.1688 -0.5528 -1.3555
  173MPD1    N1 2645   1.844   1.390  13.486  0.1159 -0.5241 -0.6515
  173MPD1    H6 2646   1.748   1.421  13.474  0.4696  0.5948 -0.5419
  173MPD1    H7 2647   1.902   1.438  13.418  1.1126  0.4963  0.9097
  174MPD1     C 2648   1.149   0.541  13.969  0.5114 -0.2446  0.3965
  174MPD1    C1 2649   1.283   0.549  13.982 -0.1653 -0.0985 -0.0569
  174MPD1    C2 2650   1.348   0.664  14.030 -0.3976 -0.1314 -0.2423
  174MPD1    C3 2651   1.262   0.771  14.060 -0.4943  0.0623  0.5389
  174MPD1    C4 2652   1.127   0.750  14.067  0.0042 -0.0065  0.1199
  174MPD1    C5 2653   1.066   0.642  14.021  0.2955 -0.6751  0.3302
  174MPD1     H 2654   1.456   0.668  14.037 -0.3955 -0.1825 -0.2479
  174MPD1    H1 2655   1.068   0.835  14.100  1.2972  0.5943  0.9123
  174MPD1    H2 2656   1.094   0.453  13.940  2.6837 -1.4081 -0.1899
  174MPD1    H3 2657   0.958   0.633  14.032  0.1005 -0.8786 -1.7283
  174MPD1     N 2658   1.315   0.901  14.105  0.2885  0.1602  0.3334
  174MPD1    H5 2659   1.253   0.978  14.131 -0.7607 -0.6486  0.2246
  174MPD1    N1 2660   1.367   0.453  13.932 -0.3185 -0.2904 -0.3263
  174MPD1    H6 2661   1.337   0.358  13.908  0.7466 -0.8282  0.4459
  174MPD1    H7 2662   1.463   0.461  13.964 -0.5565  0.7566  0.1208
  175MPD1     C 2663   0.300   2.675  15.412 -1.3461  0.3734 -1.6588
  175MPD1    C1 2664   0.219   2.567  15.392 -0.2796 -0.4473 -0.1797
  175MPD1    C2 2665   0.150   2.506  15.500 -0.3064  0.1941  0.4163
  175MPD1    C3 2666   0.176   2.543  15.633  0.0482  0.4742  0.7266
  175MPD1    C4 2667   0.252   2.659  15.650 -0.7613 -0.0619 -0.2208
  175MPD1    C5 2668   0.313   2.722  15.543 -0.1976  0.8589  0.3012
  175MPD1     H 2669   0.081   2.424  15.482 -0.5493  0.5443 -0.2260
  175MPD1    H1 2670   0.259   2.705  15.748 -0.4259  0.4723 -0.4931
  175MPD1    H2 2671   0.332   2.751  15.341  0.7059  0.2540 -0.8349
  175MPD1    H3 2672   0.370   2.812  15.562  1.6327 -0.8670  2.9244
  175MPD1     N 2673   0.111   2.484  15.741  0.5612  0.4772 -0.1199
  175MPD1    H5 2674   0.155   2.516  15.827 -3.0959  1.0169  1.5665
  175MPD1    N1 2675   0.185   2.540  15.256 -0.7723 -0.0258  0.5626
  175MPD1    H6 2676   0.272   2.551  15.205 -1.0116  1.9296  0.5866
  175MPD1    H7 2677   0.148   2.447  15.239  2.0649 -1.1538  0.4767
  176MPD1     C 2678   1.703   3.711  17.605  0.6123  0.2576  0.3265
  176MPD1    C1 2679   1.645   3.828  17.655  0.6552  0.1315  0.1869
  176MPD1    C2 2680   1.584   3.911  17.566  0.5051  0.6343  0.1291
  176MPD1    C3 2681   1.597   3.902  17.426 -0.5777  0.8501  0.0790
  176MPD1    C4 2682   1.663   3.784  17.380 -0.7155 -0.0075 -0.2629
  176MPD1    C5 2683   1.726   3.703  17.471  0.2090  0.9628 -0.5499
  176MPD1     H 2684   1.530   3.993  17.612 -2.2797 -0.5277 -1.0737
  176MPD1    H1 2685   1.679   3.763  17.275 -0.4502  0.2568 -0.2764
  176MPD1    H2 2686   1.751   3.639  17.669 -1.5600 -0.6103  0.9756
  176MPD1    H3 2687   1.780   3.615  17.438  0.0295  1.2062 -1.4914
  176MPD1     N 2688   1.529   3.991  17.338 -0.0551  0.0593  0.2768
  176MPD1    H5 2689   1.462   4.054  17.382 -1.1437 -1.0549  0.2298
  176MPD1    N1 2690   1.631   3.844   0.094 -0.1723  0.0345 -0.1629
  176MPD1    H6 2691   1.715   3.809   0.140 -1.0913  0.5851  1.9670
  176MPD1    H7 2692   1.611   3.940   0.120  0.8366  0.0246  0.6529
  177MPD1     C 2693   4.569   3.119  10.125 -0.0676  0.0936  0.0256
  177MPD1    C1 2694   4.663   3.220  10.126 -0.2448 -0.1998 -0.4974
  177MPD1    C2 2695   4.686   3.292  10.010 -0.3951 -0.4722  0.7770
  177MPD1    C3 2696   4.604   3.276   9.896  0.1264  0.4298 -0.4051
  177MPD1    C4 2697   4.509   3.178   9.899  0.3750  0.5845 -0.0129
  177MPD1    C5 2698   4.496   3.102  10.010 -0.6992 -0.3867 -0.4482
  177MPD1     H 2699   0.042   3.363  10.022 -1.8789  1.1806  1.1677
  177MPD1    H1 2700   4.437   3.163   9.819 -2.0075 -0.4911  2.3355
  177MPD1    H2 2701   4.564   3.055  10.213 -0.2093  1.3057  0.9056
  177MPD1    H3 2702   4.415   3.029  10.003 -1.6563  0.7646 -1.4147
  177MPD1     N 2703   4.634   3.359   9.784 -0.3450 -0.2656 -0.6369
  177MPD1    H5 2704   4.706   3.429   9.799  0.3690 -1.3423  0.8925
  177MPD1    N1 2705   0.025   3.229  10.234 -0.3457 -0.2125 -0.3617
  177MPD1    H6 2706   0.069   3.318  10.257 -2.3912  0.2480  1.8483
  177MPD1    H7 2707   4.706   3.190  10.317 -1.6735  0.3377 -0.8069
  178MPD1     C 2708   2.593   0.301   0.752 -0.3889 -0.2887 -0.5224
  178MPD1    C1 2709   2.500   0.222   0.686 -0.8875 -0.5201 -0.2494
  178MPD1    C2 2710   2.527   0.190   0.554  0.6491 -0.1693  0.2201
  178MPD1    C3 2711   2.631   0.242   0.485  0.2105  0.2219 -0.2484
  178MPD1    C4 2712   2.722   0.322   0.553 -0.8913 -0.6575 -0.7333
  178MPD1    C5 2713   2.702   0.349   0.684  0.4153  0.7565 -0.6274
  178MPD1     H 2714   2.461   0.124   0.498  1.9304  0.3862 -1.9358
  178MPD1    H1 2715   2.808   0.365   0.504 -0.1414 -2.2815 -0.8511
  178MPD1    H2 2716   2.583   0.310   0.859  0.1846  2.0624 -0.6877
  178MPD1    H3 2717   2.776   0.407   0.738  2.1341 -1.1801 -0.8984
  178MPD1     N 2718   2.649   0.222   0.348  0.3985  0.0553  0.2489
  178MPD1    H5 2719   2.728   0.270   0.306 -1.6639  0.4814 -3.1327
  178MPD1    N1 2720   2.392   0.169   0.754  0.2687 -0.2988  0.1835
  178MPD1    H6 2721   2.373   0.224   0.837  0.0677  0.9615 -0.7005
  178MPD1    H7 2722   2.307   0.165   0.698  1.7976 -1.0200 -2.0934
  179MPD1     C 2723   2.179   3.646  15.977  0.1679  0.0823  1.1260
  179MPD1    C1 2724   2.191   3.537  16.058  0.2965  0.4919 -0.3974
  179MPD1    C2 2725   2.104   3.430  16.031  0.1463  0.1916  1.3676
  179MPD1    C3 2726   2.035   3.408  15.916 -0.0636  0.3130  0.4744
  179MPD1    C4 2727   2.034   3.513  15.825  0.0819  0.6935 -0.9746
  179MPD1    C5 2728   2.101   3.630  15.865  0.0437  0.1894  0.0361
  179MPD1     H 2729   2.111   3.352  16.105  1.6809 -0.4950  0.4925
  179MPD1    H1 2730   1.994   3.508  15.724 -1.5142  1.6571 -0.3838
  179MPD1    H2 2731   2.218   3.746  15.989  1.6632 -0.3503 -0.1010
  179MPD1    H3 2732   2.089   3.711  15.794 -0.9097  0.3741  0.3979
  179MPD1     N 2733   1.967   3.286  15.886  0.3962  0.2408  0.0020
  179MPD1    H5 2734   1.899   3.288  15.810 -0.1153  2.1672  0.5136
  179MPD1    N1 2735   2.238   3.558  16.185 -0.5656  0.7037 -0.2891
  179MPD1    H6 2736   2.263   3.474  16.236 -0.2509  0.1842 -1.3047
  179MPD1    H7 2737   2.315   3.624  16.190  0.6261 -0.6991 -0.2061
  180MPD1     C 2738   1.428   0.067  15.240  0.2138  1.0600 -0.1645
  180MPD1    C1 2739   1.538   0.042  15.163  0.6005 -0.0451  0.4035
  180MPD1    C2 2740   1.530   4.667  15.068  0.2855  0.5195  0.9161
  180MPD1    C3 2741   1.410   4.613  15.019  0.1433  0.3906 -0.0544
  180MPD1    C4 2742   1.301   4.644  15.096 -0.1381  0.4120 -0.4011
  180MPD1    C5 2743   1.313   0.005  15.209  0.5787  0.5377  0.3803
  180MPD1     H 2744   1.617   4.646  15.006 -1.0116 -2.1874 -0.0128
  180MPD1    H1 2745   1.203   4.600  15.080 -0.1305 -1.0165  3.4267
  180MPD1    H2 2746   1.432   0.145  15.315 -0.6160  1.8651 -0.9533
  180MPD1    H3 2747   1.221   0.019  15.264  0.2340 -0.0531 -0.0422
  180MPD1     N 2748   1.412   4.540  14.903  0.4255 -0.0704 -0.0613
  180MPD1    H5 2749   1.502   4.535  14.858  0.1993 -1.3597 -0.3639
  180MPD1    N1 2750   1.661   0.091  15.211  0.5066 -0.2791  0.7981
  180MPD1    H6 2751   1.721   0.102  15.130 -0.9572 -1.1587 -0.3903
  180MPD1    H7 2752   1.653   0.184  15.252  1.1540  0.3977 -0.6109
  181MPD1     C 2753   3.474   0.583  10.170 -0.4909 -0.3872  0.2835
  181MPD1    C1 2754   3.454   0.703  10.105  0.1078 -0.4798  0.2345
  181MPD1    C2 2755   3.568   0.760  10.037  0.0561 -0.3951  0.1718
  181MPD1    C3 2756   3.694   0.703  10.048 -0.6235 -0.2952 -0.3766
  181MPD1    C4 2757   3.702   0.574  10.102 -0.1592  0.8548  0.2947
  181MPD1    C5 2758   3.595   0.517  10.170 -0.5162  0.3517 -0.0012
  181MPD1     H 2759   3.552   0.851   9.979 -0.9034 -0.4040  0.4204
  181MPD1    H1 2760   3.800   0.530  10.086 -0.4692  0.9419 -1.9059
  181MPD1    H2 2761   3.399   0.530  10.227  2.4208 -2.5107  2.1179
  181MPD1    H3 2762   3.619   0.422  10.217  0.9582  1.3330  1.2520
  181MPD1     N 2763   3.807   0.771   9.990  0.4477  0.0920 -0.1027
  181MPD1    H5 2764   3.899   0.730  10.004  0.1070 -0.8828 -0.7165
  181MPD1    N1 2765   3.320   0.754  10.086 -0.1160  0.3737  0.2710
  181MPD1    H6 2766   3.341   0.854  10.086  0.4055  0.2646  1.5659
  181MPD1    H7 2767   3.258   0.743  10.166 -0.3167 -1.9541 -0.2183
  182MPD1     C 2768   4.080   1.760   1.923  0.2506  0.0156  0.1596
  182MPD1    C1 2769   4.173   1.709   1.837  0.3989 -0.0482 -0.0455
  182MPD1    C2 2770   4.139   1.621   1.742 -0.1027  0.1615  0.2049
  182MPD1    C3 2771   4.016   1.553   1.743 -0.0344 -0.3792  0.1324
  182MPD1    C4 2772   3.923   1.593   1.832 -0.1865  0.3376  0.2416
  182MPD1    C5 2773   3.957   1.693   1.925 -0.2578 -0.9614  0.0698
  182MPD1     H 2774   4.215   1.595   1.669  0.7381  0.0977  1.1024
  182MPD1    H1 2775   3.823   1.551   1.838  0.9162 -2.0717  1.4065
  182MPD1    H2 2776   4.102   1.844   1.988  1.2905 -0.3656  0.3143
  182MPD1    H3 2777   3.884   1.721   1.999  0.2294  0.0036  0.1852
  182MPD1     N 2778   3.972   1.479   1.627 -0.2008  0.1409  0.7925
  182MPD1    H5 2779   3.872   1.464   1.635 -0.2077  0.1820  0.7835
  182MPD1    N1 2780   4.312   1.733   1.860 -0.6978 -0.5374 -0.5352
  182MPD1    H6 2781   4.340   1.823   1.899 -0.3760 -2.2143  3.1593
  182MPD1    H7 2782   4.360   1.735   1.770 -2.2114  2.1643 -1.2958
  183MPD1     C 2783   1.367   0.328  10.020 -0.6704  0.2858  0.2114
  183MPD1    C1 2784   1.262   0.303  10.106  0.2151 -0.8176  0.0290
  183MPD1    C2 2785   1.137   0.367  10.082  0.1171 -0.7839 -0.1613
  183MPD1    C3 2786   1.124   0.456   9.977 -0.5051 -0.4140 -0.0526
  183MPD1    C4 2787   1.235   0.484   9.903  0.0767  0.4839  0.1705
  183MPD1    C5 2788   1.350   0.418   9.919 -0.2683 -0.3980  0.7966
  183MPD1     H 2789   1.045   0.349  10.137  0.9664 -1.2693  1.1025
  183MPD1    H1 2790   1.228   0.549   9.816  1.0456  3.7445  2.5058
  183MPD1    H2 2791   1.464   0.281  10.024 -1.6282 -1.6485  0.9939
  183MPD1    H3 2792   1.429   0.437   9.847 -1.6039 -1.3313 -0.9107
  183MPD1     N 2793   0.991   0.506   9.952 -0.7811  0.0504 -0.0318
  183MPD1    H5 2794   0.917   0.478  10.016 -0.3952  1.3242  0.9784
  183MPD1    N1 2795   1.285   0.242  10.230  0.3454  0.2962  0.0717
  183MPD1    H6 2796   1.350   0.164  10.230 -1.3772 -1.1325  0.4091
  183MPD1    H7 2797   1.202   0.199  10.269 -0.5266  1.9468  0.0333
  184MPD1     C 2798   3.953   2.969  10.099  0.1517 -1.2328  0.0469
  184MPD1    C1 2799   3.939   2.923   9.970 -0.1170  0.0695  0.7266
  184MPD1    C2 2800   3.986   2.993   9.862 -0.1896  0.0023  0.1118
  184MPD1    C3 2801   4.069   3.104   9.882 -1.1704 -0.2114  0.3120
  184MPD1    C4 2802   4.090   3.144  10.014 -0.1665  0.1658 -0.0186
  184MPD1    C5 2803   4.033   3.075  10.124  0.2456 -0.3209  0.2232
  184MPD1     H 2804   3.970   2.958   9.761  0.9882  0.5869 -0.2775
  184MPD1    H1 2805   4.143   3.234  10.042 -1.2692  0.6407  0.5447
  184MPD1    H2 2806   3.922   2.926  10.193 -0.4191  2.1389  1.3972
  184MPD1    H3 2807   4.050   3.104  10.227  1.4377 -0.5895  0.0940
  184MPD1     N 2808   4.127   3.183   9.779  0.2969  0.3584 -0.0111
  184MPD1    H5 2809   4.176   3.270   9.799 -0.3394  0.8905 -0.7748
  184MPD1    N1 2810   3.882   2.795   9.945 -0.7081 -0.6278  0.0618
  184MPD1    H6 2811   3.799   2.802   9.887  0.4616  0.4683 -1.4741
  184MPD1    H7 2812   3.836   2.742  10.019 -0.3814 -1.0251 -0.0206
  185MPD1     C 2813   4.344   2.951   8.823  0.3424 -0.1156  0.0708
  185MPD1    C1 2814   4.404   3.075   8.847  0.1821 -0.3575 -0.0305
  185MPD1    C2 2815   4.366   3.148   8.961 -0.6831  0.0609 -0.1650
  185MPD1    C3 2816   4.295   3.087   9.063 -0.5568 -0.0034  0.9432
  185MPD1    C4 2817   4.253   2.962   9.040  0.0708  0.4745 -0.2927
  185MPD1    C5 2818   4.266   2.901   8.917 -0.1157 -0.0364  0.0022
  185MPD1     H 2819   4.406   3.249   8.969  1.0762 -0.5816 -0.8012
  185MPD1    H1 2820   4.181   2.910   9.102 -1.1480  2.1554 -0.3107
  185MPD1    H2 2821   4.374   2.891   8.738  1.5732 -1.0672  1.1690
  185MPD1    H3 2822   4.213   2.809   8.898 -0.0579 -0.5867  2.5722
  185MPD1     N 2823   4.266   3.151   9.178  0.3945  0.6830 -0.7230
  185MPD1    H5 2824   4.214   3.096   9.245  1.7727 -1.8005 -1.7105
  185MPD1    N1 2825   4.468   3.145   8.747 -0.4731  0.4451 -0.0934
  185MPD1    H6 2826   4.535   3.209   8.788 -1.2453  1.0462  0.2200
  185MPD1    H7 2827   4.527   3.081   8.694 -1.9680  0.1465 -1.4178
  186MPD1     C 2828   1.796   2.966  16.327  0.1329 -0.0833  0.0060
  186MPD1    C1 2829   1.913   2.997  16.259  0.8603  0.4568  0.0484
  186MPD1    C2 2830   2.001   3.085  16.314 -0.7114 -0.0114 -0.2190
  186MPD1    C3 2831   1.968   3.150  16.436  0.0173  0.2165 -0.5776
  186MPD1    C4 2832   1.844   3.123  16.489  0.5025 -0.2273 -0.3387
  186MPD1    C5 2833   1.758   3.027  16.441 -0.5742 -0.6423  0.0625
  186MPD1     H 2834   2.097   3.112  16.271  0.0502 -3.4309 -0.6361
  186MPD1    H1 2835   1.813   3.170  16.581  0.1649 -0.3286 -0.3999
  186MPD1    H2 2836   1.730   2.896  16.278  1.6920 -1.2086 -0.4833
  186MPD1    H3 2837   1.661   3.013  16.489  0.2902 -1.7143  1.4896
  186MPD1     N 2838   2.050   3.248  16.507 -0.2607 -0.5393 -0.5952
  186MPD1    H5 2839   2.009   3.277  16.595  2.3400  0.0668  0.4349
  186MPD1    N1 2840   1.961   2.923  16.159  0.1811  0.3620  0.1495
  186MPD1    H6 2841   1.881   2.874  16.120 -0.5901  0.7844  1.2005
  186MPD1    H7 2842   2.027   2.976  16.102  0.5665 -0.8514 -0.5313
  187MPD1     C 2843   1.770   0.208   0.327 -0.1823  0.2131 -0.9146
  187MPD1    C1 2844   1.877   0.288   0.302 -0.0499 -0.4552  0.0583
  187MPD1    C2 2845   1.877   0.370   0.192 -0.4456 -0.3706 -0.4180
  187MPD1    C3 2846   1.768   0.358   0.108 -0.2884 -0.2118  0.1784
  187MPD1    C4 2847   1.671   0.266   0.122 -0.1352  0.7434  0.1741
  187MPD1    C5 2848   1.675   0.193   0.234  0.3932  0.2706  1.1746
  187MPD1     H 2849   1.956   0.441   0.176 -1.4817 -0.0168 -3.9668
  187MPD1    H1 2850   1.586   0.247   0.057 -0.5108  2.8958  0.0307
  187MPD1    H2 2851   1.763   0.164   0.426  1.5568 -0.2028 -0.9792
  187MPD1    H3 2852   1.590   0.135   0.265  1.5998 -1.4253  1.3222
  187MPD1     N 2853   1.765   0.423  17.681 -0.3526 -0.4000  0.0283
  187MPD1    H5 2854   1.676   0.413  17.635 -0.4069 -0.6569  0.1895
  187MPD1    N1 2855   1.969   0.318   0.410  0.4772  0.0046 -0.2562
  187MPD1    H6 2856   2.004   0.238   0.463 -2.5571 -0.5045  0.9825
  187MPD1    H7 2857   2.054   0.363   0.376  0.2414  1.1639  0.7115
  188MPD1     C 2858   1.151   4.709  10.565 -0.0441 -0.0158  0.4755
  188MPD1    C1 2859   1.074   4.723  10.447  0.1177 -0.5369 -0.1253
  188MPD1    C2 2860   1.050   4.607  10.382 -0.2783  0.3733  0.1470
  188MPD1    C3 2861   1.088   4.485  10.434 -0.8143 -0.2644  0.5285
  188MPD1    C4 2862   1.161   4.475  10.548  0.7329  0.4984 -0.6187
  188MPD1    C5 2863   1.207   4.591  10.602  0.8894 -0.2268 -0.5068
  188MPD1     H 2864   0.984   4.607  10.296 -0.7255  0.0741  0.4938
  188MPD1    H1 2865   1.203   4.379  10.576  1.8839  1.2044  0.0512
  188MPD1    H2 2866   1.192   0.073  10.612  0.0398 -0.0317  0.4315
  188MPD1    H3 2867   1.273   4.582  10.687  1.4234 -1.1947 -1.0167
  188MPD1     N 2868   1.062   4.369  10.369  1.0023  0.1675  0.4858
  188MPD1    H5 2869   1.127   4.293  10.388 -0.4541 -1.3837 -0.7129
  188MPD1    N1 2870   1.064   0.121  10.380 -0.2661  0.4661  0.3772
  188MPD1    H6 2871   0.982   0.115  10.320  0.6532 -1.7857 -0.6418
  188MPD1    H7 2872   1.053   0.204  10.437  1.5180 -0.5307  2.1504
  189MPD1     C 2873   2.950   0.833   0.627 -0.3458 -0.8178  0.2519
  189MPD1    C1 2874   3.001   0.941   0.553 -0.6391  0.0296  1.0052
  189MPD1    C2 2875   2.910   1.022   0.483 -0.5299 -0.5887  0.2834
  189MPD1    C3 2876   2.775   0.997   0.485  0.3594 -0.0981  0.1653
  189MPD1    C4 2877   2.721   0.898   0.565  0.2720 -0.0600 -0.6499
  189MPD1    C5 2878   2.813   0.818   0.637 -0.7132 -0.2017 -0.3132
  189MPD1     H 2879   2.945   1.104   0.422  0.3327  0.3777  2.0883
  189MPD1    H1 2880   2.616   0.871   0.569  0.9084 -2.4333  0.4514
  189MPD1    H2 2881   3.011   0.764   0.684 -1.0983 -0.7494  1.1476
  189MPD1    H3 2882   2.779   0.734   0.697 -1.5942 -0.1264 -0.7033
  189MPD1     N 2883   2.691   1.086   0.410  0.2364 -0.4009  0.1375
  189MPD1    H5 2884   2.736   1.165   0.365 -0.0746  0.7358  1.8385
  189MPD1    N1 2885   3.134   0.982   0.567 -0.5636 -0.6966  0.0363
  189MPD1    H6 2886   3.172   1.018   0.480  0.9139  0.7023  1.2784
  189MPD1    H7 2887   3.189   0.902   0.596 -0.8714 -0.9768 -0.1553
  190MPD1     C 2888   1.519   3.585  15.613  0.3709 -0.1252 -0.5151
  190MPD1    C1 2889   1.520   3.585  15.749  0.1821 -0.2457  0.1193
  190MPD1    C2 2890   1.618   3.658  15.815 -0.1944 -0.8583  0.1278
  190MPD1    C3 2891   1.717   3.726  15.754 -0.2674  0.9946 -0.2782
  190MPD1    C4 2892   1.721   3.714  15.609 -0.9929  0.8901  0.5127
  190MPD1    C5 2893   1.617   3.654  15.545 -0.0789  0.0927 -0.0974
  190MPD1     H 2894   1.624   3.653  15.923  1.8742 -1.0487 -0.0014
  190MPD1    H1 2895   1.788   3.765  15.541 -1.8171  0.6249 -0.4892
  190MPD1    H2 2896   1.457   3.517  15.556 -0.1490  0.4667 -0.6554
  190MPD1    H3 2897   1.617   3.652  15.437  0.2846  0.7681 -0.1090
  190MPD1     N 2898   1.809   3.815  15.822  0.3964  0.6659  0.0236
  190MPD1    H5 2899   1.813   3.814  15.924 -2.0788 -2.1078  0.0715
  190MPD1    N1 2900   1.441   3.495  15.827 -0.1202 -0.3661 -0.2984
  190MPD1    H6 2901   1.358   3.470  15.774  0.3840  0.5309 -1.5261
  190MPD1    H7 2902   1.405   3.541  15.910  1.1308 -0.8774  0.5201
  191MPD1     C 2903   1.223   1.312  13.219 -0.6013  0.1941 -0.5740
  191MPD1    C1 2904   1.111   1.382  13.236 -0.8385 -0.2922 -0.4046
  191MPD1    C2 2905   1.075   1.468  13.138 -0.0422 -0.3126 -0.2093
  191MPD1    C3 2906   1.140   1.481  13.020  0.8728  0.8453 -0.9013
  191MPD1    C4 2907   1.261   1.403  13.007  0.4609  0.2432  0.3747
  191MPD1    C5 2908   1.301   1.317  13.105 -0.4365  0.1156  0.5988
  191MPD1     H 2909   0.985   1.525  13.156  0.8565  0.7382  0.9825
  191MPD1    H1 2910   1.331   1.419  12.926  0.3988 -2.0114 -0.1396
  191MPD1    H2 2911   1.261   1.248  13.298 -2.0767 -0.2260 -0.2223
  191MPD1    H3 2912   1.388   1.252  13.095  1.6956  3.3306 -1.7922
  191MPD1     N 2913   1.099   1.575  12.919 -0.3352 -0.0572  0.8534
  191MPD1    H5 2914   1.012   1.625  12.935 -0.8508 -0.6418 -0.1418
  191MPD1    N1 2915   1.052   1.387  13.363  0.5986 -0.2287  0.6801
  191MPD1    H6 2916   0.957   1.424  13.370 -0.2604 -2.4032  0.5357
  191MPD1    H7 2917   1.069   1.305  13.422 -1.0552  0.5456  2.2639
  192MPD1     C 2918   0.940   2.503  12.967 -0.1906  0.1434  0.0152
  192MPD1    C1 2919   1.014   2.411  13.030 -0.2739  0.0139  0.3782
  192MPD1    C2 2920   1.026   2.292  12.965  0.0044 -0.0932  0.4088
  192MPD1    C3 2921   0.986   2.278  12.835 -0.3597 -0.4046  0.2517
  192MPD1    C4 2922   0.932   2.381  12.764 -0.2225  0.7549  0.6398
  192MPD1    C5 2923   0.895   2.492  12.837  0.0484  0.1468 -0.1657
  192MPD1     H 2924   1.077   2.209  13.012 -0.9222 -0.5378  0.6300
  192MPD1    H1 2925   0.899   2.377  12.661  1.3151  3.4088  0.0489
  192MPD1    H2 2926   0.925   2.598  13.016  3.2288  1.5630 -1.7138
  192MPD1    H3 2927   0.831   2.571  12.799  1.0116  0.6104 -0.8543
  192MPD1     N 2928   1.012   2.155  12.762  0.3359 -0.9349 -0.3173
  192MPD1    H5 2929   1.028   2.158  12.662  0.9662 -0.0478 -0.1896
  192MPD1    N1 2930   1.039   2.433  13.167  0.1044  0.5103  0.2607
  192MPD1    H6 2931   1.041   2.530  13.200 -0.0960  0.6925 -0.2620
  192MPD1    H7 2932   1.127   2.388  13.191 -1.6798 -2.0974  1.8899
  193MPD1     C 2933   0.878   2.633  16.819  0.2778  0.2833  0.4681
  193MPD1    C1 2934   0.965   2.629  16.711 -0.3396  0.3058  0.3576
  193MPD1    C2 2935   1.095   2.575  16.722  0.1133 -0.2630  0.0321
  193MPD1    C3 2936   1.138   2.525  16.840 -0.8201 -0.0458 -0.1602
  193MPD1    C4 2937   1.061   2.542  16.954  0.0893  0.3345 -0.2448
  193MPD1    C5 2938   0.935   2.596  16.941  1.1450 -0.1115  0.1174
  193MPD1     H 2939   1.173   2.590  16.648  0.8365  0.9905  1.0556
  193MPD1    H1 2940   1.097   2.513  17.052 -0.7833 -0.2359 -0.0982
  193MPD1    H2 2941   0.774   2.667  16.820  0.5530  1.1207  1.0083
  193MPD1    H3 2942   0.879   2.601  17.034  0.0944  1.3684 -0.5977
  193MPD1     N 2943   1.260   2.463  16.866  0.3804  0.8839 -0.3443
  193MPD1    H5 2944   1.268   2.428  16.961 -1.6563  0.5160 -0.3053
  193MPD1    N1 2945   0.912   2.654  16.586  0.1878 -0.1322  0.0923
  193MPD1    H6 2946   0.989   2.695  16.533  0.1032  0.4777  0.4380
  193MPD1    H7 2947   0.822   2.703  16.582  0.6609  0.8078  0.9202
  194MPD1     C 2948   3.745   4.576  16.958  0.4105  0.6721  0.1137
  194MPD1    C1 2949   3.648   4.484  16.917 -0.1607  0.3190  0.2281
  194MPD1    C2 2950   3.687   4.358  16.902 -0.9511  0.0217  0.1807
  194MPD1    C3 2951   3.813   4.311  16.936 -0.6696 -0.7632  0.4022
  194MPD1    C4 2952   3.911   4.404  16.976  0.8609  0.1762 -0.4646
  194MPD1    C5 2953   3.871   4.533  16.989 -0.0351  0.4683 -0.1699
  194MPD1     H 2954   3.611   4.297  16.854 -1.2919  0.7164 -0.1518
  194MPD1    H1 2955   4.017   4.385  16.985  0.8968  0.5385 -0.1306
  194MPD1    H2 2956   3.719   4.681  16.969  2.4060  1.1575  0.2982
  194MPD1    H3 2957   3.949   4.604  17.016  1.4683 -1.7503  1.3334
  194MPD1     N 2958   3.852   4.180  16.917 -0.7363 -0.2963 -0.2033
  194MPD1    H5 2959   3.950   4.155  16.930 -1.1004  0.0433  3.2351
  194MPD1    N1 2960   3.519   4.527  16.876  0.3922  0.2283 -0.3782
  194MPD1    H6 2961   3.530   4.602  16.808 -0.0706 -0.3181 -1.0533
  194MPD1    H7 2962   3.462   4.454  16.835 -1.3028  1.0619  0.4885
  195MPD1     C 2963   1.030   0.728  17.496 -0.6570 -0.6316 -0.5364
  195MPD1    C1 2964   1.139   0.661  17.551  0.3406  0.3342 -0.1954
  195MPD1    C2 2965   1.111   0.543  17.614  0.0188  0.5036 -0.5155
  195MPD1    C3 2966   0.986   0.483  17.608  0.2574  0.2506 -0.0421
  195MPD1    C4 2967   0.879   0.555  17.558 -0.6814 -0.1709  0.3491
  195MPD1    C5 2968   0.902   0.678  17.504 -0.2826  0.7555  0.1271
  195MPD1     H 2969   1.198   0.492  17.654 -0.2280  1.0246  0.6645
  195MPD1    H1 2970   0.778   0.516  17.550 -0.4370 -1.0506  1.4569
  195MPD1    H2 2971   1.041   0.822  17.442 -0.2610  0.9243  2.2454
  195MPD1    H3 2972   0.815   0.737  17.476  0.3470  1.5805 -0.0597
  195MPD1     N 2973   0.957   0.355  17.665  0.0688 -0.2616 -0.5385
  195MPD1    H5 2974   0.868   0.310  17.647 -0.6085  0.4605  1.0265
  195MPD1    N1 2975   1.267   0.719  17.561 -0.2624 -0.4155 -0.3747
  195MPD1    H6 2976   1.341   0.650  17.579  0.4260  0.1401 -1.0605
  195MPD1    H7 2977   1.293   0.781  17.484  1.2536 -2.3289 -1.4413
  196MPD1     C 2978   0.335   4.307   0.380 -0.0121 -0.1005 -0.2867
  196MPD1    C1 2979   0.441   4.359   0.453 -0.6648  0.6643  0.6682
  196MPD1    C2 2980   0.430   4.487   0.514  0.9969 -0.0786 -0.6928
  196MPD1    C3 2981   0.318   4.558   0.490  0.2482  0.1279  0.2870
  196MPD1    C4 2982   0.215   4.505   0.418 -0.1211 -0.3116 -0.3025
  196MPD1    C5 2983   0.215   4.377   0.367 -0.7973  0.1246  0.1156
  196MPD1     H 2984   0.507   4.530   0.577  1.1954  0.5135 -1.3354
  196MPD1    H1 2985   0.127   4.565   0.398 -1.7305 -2.3973  0.5023
  196MPD1    H2 2986   0.337   4.211   0.330 -0.1620 -0.3437  0.1734
  196MPD1    H3 2987   0.135   4.328   0.311 -1.9452  2.0117  0.1193
  196MPD1     N 2988   0.299   4.687   0.546 -0.5569 -0.4497 -0.2026
  196MPD1    H5 2989   0.205   0.001   0.550  0.5936  2.4956 -1.5498
  196MPD1    N1 2990   0.547   4.278   0.475  0.0753 -0.3364 -0.5163
  196MPD1    H6 2991   0.510   4.186   0.498 -2.8007  0.8917 -0.1744
  196MPD1    H7 2992   0.598   4.316   0.554  1.2543 -0.3508 -1.2608
  197MPD1     C 2993   0.588   2.234   0.326 -0.3123 -0.6530  0.2203
  197MPD1    C1 2994   0.577   2.363   0.366  0.4254  0.3570 -0.2187
  197MPD1    C2 2995   0.527   2.452   0.278 -0.2950 -0.1321 -0.0605
  197MPD1    C3 2996   0.454   2.407   0.171 -0.5232  0.6660  0.1770
  197MPD1    C4 2997   0.444   2.271   0.146 -0.8345  0.2066 -0.0059
  197MPD1    C5 2998   0.514   2.189   0.219  0.2208 -0.0037  0.1354
  197MPD1     H 2999   0.509   2.557   0.298 -1.0186  0.2625 -2.7662
  197MPD1    H1 3000   0.385   2.219   0.072  1.6698 -0.9627 -1.1821
  197MPD1    H2 3001   0.641   2.152   0.374  1.1779 -0.0898 -0.4562
  197MPD1    H3 3002   0.518   2.085   0.190  2.3897 -0.5084  2.2363
  197MPD1     N 3003   0.391   2.501   0.077 -0.7282 -0.5161 -0.1491
  197MPD1    H5 3004   0.338   2.455   0.003  1.1377 -3.0970  0.1433
  197MPD1    N1 3005   0.663   2.407   0.469 -0.0054  0.0783 -0.6520
  197MPD1    H6 3006   0.654   2.499   0.512 -0.7298  0.3413 -1.3598
  197MPD1    H7 3007   0.662   2.336   0.542 -1.8239  0.6092 -0.1648
  198MPD1     C 3008   1.962   0.647  15.482 -0.1640 -1.0508  0.8687
  198MPD1    C1 3009   1.991   0.771  15.424  0.4344  0.2652 -0.7433
  198MPD1    C2 3010   2.043   0.862  15.516  0.0937  0.4703 -0.4385
  198MPD1    C3 3011   2.076   0.843  15.644  0.2205 -0.3824  0.5219
  198MPD1    C4 3012   2.052   0.722  15.698 -0.0365 -0.4105 -0.4032
  198MPD1    C5 3013   1.998   0.628  15.612 -0.1347 -0.4805 -0.1461
  198MPD1     H 3014   2.055   0.964  15.479 -1.5765  1.3693  1.5222
  198MPD1    H1 3015   2.079   0.695  15.799  1.0500 -0.9145 -0.8260
  198MPD1    H2 3016   1.932   0.560  15.424  1.1448 -0.7381 -0.2962
  198MPD1    H3 3017   1.986   0.530  15.657 -3.2481 -0.6761 -1.3831
  198MPD1     N 3018   2.120   0.949  15.722 -0.0210 -0.2756 -0.0301
  198MPD1    H5 3019   2.139   1.037  15.675 -3.3362  0.8902  0.8518
  198MPD1    N1 3020   1.936   0.814  15.300  0.2476 -0.1350  0.2577
  198MPD1    H6 3021   2.001   0.879  15.258  1.5855 -0.8989  1.1433
  198MPD1    H7 3022   1.916   0.745  15.228 -1.1145  0.5844 -0.0565
  199MPD1     C 3023   0.338   1.411   9.840 -0.4997  0.2284 -0.1014
  199MPD1    C1 3024   0.304   1.505   9.745  0.3958 -0.6789 -0.0741
  199MPD1    C2 3025   0.171   1.512   9.712  0.1826 -0.4967 -0.3468
  199MPD1    C3 3026   0.075   1.417   9.749 -0.2007 -0.4155  0.2642
  199MPD1    C4 3027   0.120   1.309   9.822  0.0075  0.1226  0.2876
  199MPD1    C5 3028   0.246   1.312   9.876 -0.6641  0.2754 -0.0976
  199MPD1     H 3029   0.148   1.606   9.664  0.2831 -0.9083 -1.2047
  199MPD1    H1 3030   0.046   1.235   9.852 -1.8867  1.1195 -1.9197
  199MPD1    H2 3031   0.435   1.416   9.887 -1.1575 -1.6060  1.4552
  199MPD1    H3 3032   0.286   1.240   9.947 -0.4987  1.0951  0.6334
  199MPD1     N 3033   4.666   1.430   9.709 -0.1789  0.6601  0.3569
  199MPD1    H5 3034   4.605   1.349   9.716  0.7525 -0.0583  0.0558
  199MPD1    N1 3035   0.400   1.609   9.711 -0.0630  0.6242 -0.0308
  199MPD1    H6 3036   0.499   1.592   9.723  0.3618  1.8467 -1.7955
  199MPD1    H7 3037   0.383   1.647   9.618 -0.0240  0.1101 -0.2444
  200MPD1     C 3038   2.958   2.351  15.013 -0.0495 -0.2505  0.6323
  200MPD1    C1 3039   2.889   2.258  14.943  0.1502 -0.7505 -0.0430
  200MPD1    C2 3040   2.957   2.193  14.842  0.6348 -0.1618  0.0545
  200MPD1    C3 3041   3.097   2.196  14.821  0.1970 -0.2088  0.4994
  200MPD1    C4 3042   3.165   2.289  14.895 -0.4812  0.2303  0.3257
  200MPD1    C5 3043   3.090   2.369  14.979 -0.1945  0.3698 -0.4840
  200MPD1     H 3044   2.898   2.117  14.793  0.9664 -0.4472  0.0967
  200MPD1    H1 3045   3.272   2.304  14.882 -0.6680  0.3659 -1.0754
  200MPD1    H2 3046   2.927   2.417  15.093 -0.4493 -0.5629  0.7386
  200MPD1    H3 3047   3.149   2.447  15.025 -0.5856 -0.0858  0.7983
  200MPD1     N 3048   3.161   2.115  14.721 -0.1257  0.4870  0.2297
  200MPD1    H5 3049   3.096   2.052  14.675  3.4127 -2.7122 -0.4094
  200MPD1    N1 3050   2.751   2.245  14.958 -0.0228 -0.2008  0.2295
  200MPD1    H6 3051   2.697   2.175  14.908 -0.3189 -0.0983  0.4066
  200MPD1    H7 3052   2.726   2.262  15.055  0.0378 -1.2836  0.4291
  201MPD1     C 3053   0.253   1.175  13.256 -0.2561 -0.0675  0.2550
  201MPD1    C1 3054   0.294   1.157  13.123  0.1969  0.3056  0.1092
  201MPD1    C2 3055   0.337   1.037  13.081 -0.2371 -0.5383  0.6322
  201MPD1    C3 3056   0.339   0.929  13.165 -1.5252 -1.2856  0.2706
  201MPD1    C4 3057   0.302   0.940  13.293 -0.8973  0.4673 -0.9192
  201MPD1    C5 3058   0.261   1.061  13.337  0.9943 -0.4277 -0.1035
  201MPD1     H 3059   0.360   1.024  12.976 -0.2643 -1.0235  0.6821
  201MPD1    H1 3060   0.288   0.859  13.364  0.2905 -0.7443 -2.0812
  201MPD1    H2 3061   0.227   1.269  13.305  0.2215 -0.8348  1.9847
  201MPD1    H3 3062   0.228   1.082  13.438 -3.5325  0.3418 -1.7619
  201MPD1     N 3063   0.388   0.799  13.113 -0.3856 -0.1781 -0.5691
  201MPD1    H5 3064   0.432   0.803  13.022  0.0941 -0.8011 -0.3711
  201MPD1    N1 3065   0.267   1.253  13.023  0.0336  0.1455  0.0146
  201MPD1    H6 3066   0.320   1.227  12.941 -0.3867 -0.8258  0.0530
  201MPD1    H7 3067   0.288   1.350  13.046 -1.5594 -0.0022  2.1674
  202MPD1     C 3068   0.505   4.000   9.278  0.4392 -0.2270  0.1838
  202MPD1    C1 3069   0.488   4.132   9.316  0.1633  0.2803  0.2560
  202MPD1    C2 3070   0.542   4.153   9.439  0.3571  0.4724 -0.0244
  202MPD1    C3 3071   0.546   4.055   9.542  0.4017 -0.2884  0.5334
  202MPD1    C4 3072   0.540   3.928   9.499 -0.2529 -0.4309 -0.9813
  202MPD1    C5 3073   0.519   3.898   9.368  0.5757  0.0400 -0.3897
  202MPD1     H 3074   0.554   4.255   9.471 -1.1131  0.4729  0.5156
  202MPD1    H1 3075   0.558   3.848   9.571 -3.2403 -1.1719 -1.0448
  202MPD1    H2 3076   0.479   3.972   9.176  2.8664  1.0080 -0.7553
  202MPD1    H3 3077   0.529   3.795   9.336 -1.7144 -0.3263  0.0419
  202MPD1     N 3078   0.574   4.079   9.681 -0.3880 -0.2593 -0.3569
  202MPD1    H5 3079   0.567   4.005   9.750 -0.8219 -0.3774 -0.5271
  202MPD1    N1 3080   0.506   4.223   9.212  0.2238  0.5830 -0.0848
  202MPD1    H6 3081   0.492   4.320   9.240 -2.3943 -0.0214  0.6268
  202MPD1    H7 3082   0.443   4.198   9.137 -0.0391  0.4688  0.1734
  203MPD1     C 3083   3.221   1.147  12.820 -0.3894  0.7703  0.1068
  203MPD1    C1 3084   3.325   1.139  12.904 -0.7234  0.5025  0.5023
  203MPD1    C2 3085   3.443   1.087  12.857  0.1589  0.2949  0.2838
  203MPD1    C3 3086   3.451   1.019  12.736  0.9709 -0.4237 -0.1414
  203MPD1    C4 3087   3.336   1.024  12.652  0.2307  0.4096  0.2615
  203MPD1    C5 3088   3.224   1.082  12.701  0.4161  0.1774 -0.3055
  203MPD1     H 3089   3.536   1.102  12.911  0.8704 -0.8782 -0.6185
  203MPD1    H1 3090   3.336   0.988  12.550 -0.7632  2.0182 -0.3045
  203MPD1    H2 3091   3.125   1.184  12.855 -0.5029  0.7474 -0.1743
  203MPD1    H3 3092   3.137   1.089  12.636 -0.0770  2.6114  0.6085
  203MPD1     N 3093   3.571   0.961  12.702  0.3650  0.2234  0.3491
  203MPD1    H5 3094   3.646   0.985  12.766  0.9157 -1.1322  0.1945
  203MPD1    N1 3095   3.326   1.208  13.021 -0.3401  0.2170 -0.4066
  203MPD1    H6 3096   3.376   1.166  13.098  0.7707  0.8498 -0.7852
  203MPD1    H7 3097   3.231   1.232  13.048 -0.2502 -0.4193  0.4741
  204MPD1     C 3098   4.282   2.383   0.144  0.0709 -0.2935 -0.6521
  204MPD1    C1 3099   4.173   2.442   0.087 -0.6178 -0.0430 -1.2278
  204MPD1    C2 3100   4.059   2.368   0.082 -0.0629 -0.4061  0.5097
  204MPD1    C3 3101   4.059   2.234   0.121  0.1514  0.0298 -0.1524
  204MPD1    C4 3102   4.170   2.180   0.172  0.0041  0.6688  0.4210
  204MPD1    C5 3103   4.277   2.251   0.181 -0.5999  0.4305  0.3388
  204MPD1     H 3104   3.972   2.424   0.049  2.1986  1.9010 -1.4719
  204MPD1    H1 3105   4.179   2.076   0.202 -0.4525 -0.0602 -1.9428
  204MPD1    H2 3106   4.376   2.435   0.153 -1.8619  2.6580  2.4367
  204MPD1    H3 3107   4.369   2.219   0.230 -1.5045 -1.7224  0.6356
  204MPD1     N 3108   3.954   2.156   0.084 -0.1279  0.0815 -0.4476
  204MPD1    H5 3109   3.874   2.204   0.044 -0.7332 -0.8987 -0.4222
  204MPD1    N1 3110   4.166   2.576   0.068 -0.0770  0.3745 -0.2593
  204MPD1    H6 3111   4.255   2.616   0.040  0.0611  0.7439  0.6986
  204MPD1    H7 3112   4.096   2.610   0.002 -0.5024  1.8104  0.9317
  205MPD1     C 3113   4.312   0.753  16.726 -0.1319 -0.3564 -0.1120
  205MPD1    C1 3114   4.207   0.833  16.711 -0.7371  0.3898 -0.0688
  205MPD1    C2 3115   4.117   0.844  16.813 -0.0481  0.1734 -0.2763
  205MPD1    C3 3116   4.128   0.773  16.931 -0.2280  0.0410  0.2532
  205MPD1    C4 3117   4.238   0.688  16.945 -0.0582 -0.0004 -0.4819
  205MPD1    C5 3118   4.316   0.672  16.835  0.2342  0.5830  0.3508
  205MPD1     H 3119   4.032   0.909  16.791  0.1235  1.0090  1.4675
  205MPD1    H1 3120   4.255   0.627  17.034  0.6757 -0.4238 -0.9209
  205MPD1    H2 3121   4.394   0.749  16.654 -2.0115 -1.0389 -2.2045
  205MPD1    H3 3122   4.394   0.597  16.834 -0.9046 -0.5959 -0.9671
  205MPD1     N 3123   4.035   0.780  17.033 -0.4875 -0.1508  0.0499
  205MPD1    H5 3124   4.051   0.725  17.117  1.4360 -0.0312 -0.2587
  205MPD1    N1 3125   4.197   0.921  16.598 -0.4996  0.3438  0.3992
  205MPD1    H6 3126   4.104   0.959  16.585 -0.4391  0.9215  1.6697
  205MPD1    H7 3127   4.245   0.895  16.512  0.4127 -2.5383  1.7753
  206MPD1     C 3128   4.234   0.324  16.890  0.2949  0.6966  0.8198
  206MPD1    C1 3129   4.297   0.220  16.839 -0.1277  0.6039 -0.4906
  206MPD1    C2 3130   4.226   0.117  16.771  0.0785  0.0708 -0.5170
  206MPD1    C3 3131   4.086   0.115  16.777 -0.4631  0.0940 -0.8670
  206MPD1    C4 3132   4.023   0.222  16.842 -0.2111  0.1420  0.9720
  206MPD1    C5 3133   4.099   0.315  16.908 -0.3600 -0.0932  0.4730
  206MPD1     H 3134   4.279   0.040  16.716  1.7797  2.0789 -1.6607
  206MPD1    H1 3135   3.918   0.221  16.869 -0.8585 -2.0608 -1.5657
  206MPD1    H2 3136   4.289   0.404  16.938 -2.6909  1.6262  2.6848
  206MPD1    H3 3137   4.065   0.398  16.969 -0.5436 -0.9506  1.5374
  206MPD1     N 3138   4.006   0.011  16.725  0.2767  0.5284 -0.2336
  206MPD1    H5 3139   3.907   0.032  16.733  0.1364  1.1184 -3.2060
  206MPD1    N1 3140   4.434   0.228  16.813  0.1824 -0.6579 -0.2756
  206MPD1    H6 3141   4.482   0.294  16.873 -0.0164 -0.6743 -0.1017
  206MPD1    H7 3142   4.481   0.138  16.801  1.0882 -0.1842 -0.3175
  207MPD1     C 3143   2.014   1.734   9.564  0.3921  0.1463 -0.7889
  207MPD1    C1 3144   2.086   1.844   9.586  0.2073 -0.5861 -0.3918
  207MPD1    C2 3145   2.150   1.853   9.712 -0.4778 -0.0086 -0.0886
  207MPD1    C3 3146   2.139   1.753   9.805 -0.1659  0.6496 -0.4186
  207MPD1    C4 3147   2.066   1.639   9.775  0.4505  0.2164  0.1163
  207MPD1    C5 3148   2.002   1.634   9.657 -0.3353  0.0607 -0.1873
  207MPD1     H 3149   2.208   1.942   9.733  0.1806 -0.4491 -0.0381
  207MPD1    H1 3150   2.061   1.553   9.840 -2.9292  0.7839  0.6450
  207MPD1    H2 3151   1.963   1.736   9.469 -0.2250  0.1517 -0.4553
  207MPD1    H3 3152   1.951   1.541   9.635 -1.4869  1.3352 -2.9042
  207MPD1     N 3153   2.203   1.750   9.934  0.1344  0.0845  0.2003
  207MPD1    H5 3154   2.188   1.663   9.984  3.3614 -0.0553  0.8836
  207MPD1    N1 3155   2.084   1.948   9.485  0.0883 -0.1876  0.3905
  207MPD1    H6 3156   2.089   1.902   9.394 -1.2979  2.6337 -1.1351
  207MPD1    H7 3157   2.162   2.012   9.498  1.0745 -1.1006 -0.9172
  208MPD1     C 3158   0.200   1.108   0.460 -0.0182  0.4349 -0.1881
  208MPD1    C1 3159   0.110   1.158   0.541 -0.1144  0.3859  0.2726
  208MPD1    C2 3160   4.713   1.087   0.571  0.0134  0.6402 -0.0350
  208MPD1    C3 3161   4.688   0.964   0.512  0.2076  0.2969 -0.0167
  208MPD1    C4 3162   0.055   0.924   0.410  0.3717 -0.5102  0.7073
  208MPD1    C5 3163   0.167   0.995   0.389 -0.4245 -0.0910 -0.0874
  208MPD1     H 3164   4.637   1.130   0.636  0.8602 -0.7971  1.9100
  208MPD1    H1 3165   0.056   0.831   0.354  0.4775 -1.1710  1.8202
  208MPD1    H2 3166   0.290   1.163   0.438 -2.0539  3.3920 -1.1439
  208MPD1    H3 3167   0.227   0.952   0.310  1.0227  0.8576  0.4784
  208MPD1     N 3168   4.561   0.904   0.537 -0.0993  0.0828  0.1771
  208MPD1    H5 3169   4.503   0.962   0.597 -2.5054 -1.5490 -0.5764
  208MPD1    N1 3170   0.121   1.291   0.589 -0.3866  0.1441  0.2451
  208MPD1    H6 3171   0.113   1.295   0.690 -0.7524 -0.3187  0.2379
  208MPD1    H7 3172   0.217   1.321   0.583 -0.0976 -1.2109 -2.0702
  209MPD1     C 3173   1.765   0.939  11.548  0.0336 -0.0921 -0.1344
  209MPD1    C1 3174   1.719   1.061  11.595  0.3898 -0.2112  1.0410
  209MPD1    C2 3175   1.687   1.150  11.494 -0.5645 -0.4563  0.0283
  209MPD1    C3 3176   1.722   1.145  11.360 -0.0895 -0.6302 -0.1210
  209MPD1    C4 3177   1.791   1.034  11.320 -0.4582 -0.0485  0.2866
  209MPD1    C5 3178   1.804   0.934  11.412 -0.5895 -0.1433 -0.2284
  209MPD1     H 3179   1.641   1.244  11.520  3.1595  1.5937 -0.7050
  209MPD1    H1 3180   1.831   1.016  11.220  1.2623 -0.8301  1.1189
  209MPD1    H2 3181   1.775   0.848  11.607 -2.1146 -1.7365 -2.3407
  209MPD1    H3 3182   1.861   0.848  11.378 -1.1967 -0.5853 -0.1336
  209MPD1     N 3183   1.692   1.251  11.275 -0.0462 -0.0339  0.8192
  209MPD1    H5 3184   1.659   1.338  11.316  1.0274  1.8413 -2.3295
  209MPD1    N1 3185   1.656   1.070  11.724 -0.6199 -0.1473  0.4721
  209MPD1    H6 3186   1.647   1.160  11.768 -0.2547 -0.3863  1.0347
  209MPD1    H7 3187   1.691   1.011  11.799  0.0023  1.5092  1.4579
  210MPD1     C 3188   1.902   2.024  11.576  0.0458  0.6836  0.0247
  210MPD1    C1 3189   1.775   2.012  11.534  0.1903  0.6067  0.2761
  210MPD1    C2 3190   1.744   1.919  11.436  1.2687  0.5265  0.5493
  210MPD1    C3 3191   1.850   1.846  11.378  0.0232  0.4035  0.8684
  210MPD1    C4 3192   1.980   1.867  11.418  0.2718 -0.1660 -0.7454
  210MPD1    C5 3193   2.002   1.948  11.523 -0.3954 -0.0878  0.0662
  210MPD1     H 3194   1.645   1.917  11.393  1.0277 -1.3454  1.2095
  210MPD1    H1 3195   2.062   1.826  11.360  0.7573 -2.6194  1.6503
  210MPD1    H2 3196   1.916   2.094  11.657  0.3136 -1.0186  1.4552
  210MPD1    H3 3197   2.100   1.963  11.567  1.0246  0.1943 -3.2261
  210MPD1     N 3198   1.830   1.759  11.268 -0.3639 -0.3289 -0.0474
  210MPD1    H5 3199   1.909   1.724  11.215 -0.6385 -1.0837  0.0450
  210MPD1    N1 3200   1.673   2.102  11.580 -0.7140  0.2855 -0.0717
  210MPD1    H6 3201   1.691   2.118  11.679  1.5479 -1.1854 -0.2522
  210MPD1    H7 3202   1.584   2.055  11.565 -1.9409  1.8036  2.3278
  211MPD1     C 3203   0.027   1.002  16.691 -0.0248  0.7761 -0.1908
  211MPD1    C1 3204   4.641   0.948  16.748 -0.6785  0.4312 -0.1617
  211MPD1    C2 3205   4.526   1.022  16.741 -0.1924 -0.4087 -0.6514
  211MPD1    C3 3206   4.513   1.134  16.672  0.0858  0.4397 -0.2935
  211MPD1    C4 3207   4.618   1.174  16.598  0.5957  0.8830  0.4248
  211MPD1    C5 3208   0.011   1.109  16.615 -0.1378  0.8189 -0.6283
  211MPD1     H 3209   4.442   0.989  16.801  0.5104 -1.0600 -0.0222
  211MPD1    H1 3210   4.620   1.267  16.542  0.7495  0.5110 -0.1939
  211MPD1    H2 3211   0.128   0.963  16.692  0.3226  1.6334 -2.8022
  211MPD1    H3 3212   0.107   1.138  16.573  0.9094 -1.3133  0.2852
  211MPD1     N 3213   4.383   1.194  16.669 -0.3007  0.3579 -0.4085
  211MPD1    H5 3214   4.313   1.130  16.705  0.8772 -0.5554  0.2750
  211MPD1    N1 3215   4.640   0.838  16.841 -0.1381 -0.0654 -0.4275
  211MPD1    H6 3216   4.711   0.766  16.835 -1.3731 -1.3951  0.9418
  211MPD1    H7 3217   4.549   0.793  16.847  1.2950 -2.7456  1.1316
  212MPD1     C 3218   3.140   4.279  16.461  0.0931  0.1964 -0.0940
  212MPD1    C1 3219   3.046   4.337  16.538  0.1828 -0.5441 -0.1505
  212MPD1    C2 3220   2.989   4.278  16.648 -0.1525 -0.8727  0.2322
  212MPD1    C3 3221   3.033   4.146  16.677 -0.1276  0.3180  0.4077
  212MPD1    C4 3222   3.121   4.083  16.584 -0.4123  0.0834 -0.0713
  212MPD1    C5 3223   3.166   4.147  16.476 -0.1912 -0.9120  0.1040
  212MPD1     H 3224   2.905   4.323  16.701  0.4322  0.4769  0.0224
  212MPD1    H1 3225   3.153   3.980  16.588  0.9923  0.5544  0.6334
  212MPD1    H2 3226   3.198   4.327  16.384  0.7268 -3.3866 -1.8593
  212MPD1    H3 3227   3.228   4.101  16.400  1.1373  0.0743  0.5911
  212MPD1     N 3228   2.980   4.063  16.779 -0.3899 -0.5845  0.7760
  212MPD1    H5 3229   3.006   3.965  16.783  0.0583 -0.5715 -1.9535
  212MPD1    N1 3230   2.992   4.459  16.491 -0.0561  0.2979  0.4762
  212MPD1    H6 3231   2.925   4.513  16.546  1.0238  0.0542  2.0318
  212MPD1    H7 3232   3.060   4.512  16.438 -0.5633 -0.0538 -0.5220
  213MPD1     C 3233   1.441   1.061  16.054  0.6582 -0.8512 -0.0484
  213MPD1    C1 3234   1.335   1.076  15.970 -0.3464 -1.0179 -0.0796
  213MPD1    C2 3235   1.336   0.984  15.874 -0.0519 -0.4170 -0.3986
  213MPD1    C3 3236   1.426   0.876  15.864  0.0720  0.1286  0.0842
  213MPD1    C4 3237   1.506   0.856  15.977  0.0221  0.8625  0.1655
  213MPD1    C5 3238   1.499   0.944  16.083  1.5010  0.2496  0.3010
  213MPD1     H 3239   1.271   1.003  15.790  1.0840  1.0145 -0.9453
  213MPD1    H1 3240   1.571   0.771  15.994 -0.5528 -0.0848 -2.5549
  213MPD1    H2 3241   1.445   1.142  16.125 -0.6118 -0.9502  0.1252
  213MPD1    H3 3242   1.557   0.932  16.174  1.0044 -1.7053  0.3706
  213MPD1     N 3243   1.415   0.795  15.754  0.6815  0.1709 -0.4503
  213MPD1    H5 3244   1.339   0.809  15.688 -0.2569 -0.8114  0.4325
  213MPD1    N1 3245   1.289   1.209  15.949  0.0031 -0.1473 -0.3466
  213MPD1    H6 3246   1.195   1.210  15.909 -0.6178  0.0301  1.1156
  213MPD1    H7 3247   1.271   1.259  16.035  1.4344 -0.6253  0.2138
  214MPD1     C 3248   0.878   0.142  15.213 -0.4122  0.2475  0.0399
  214MPD1    C1 3249   0.877   0.186  15.343  0.1511  0.7925  0.2528
  214MPD1    C2 3250   0.977   0.280  15.388 -0.0463  0.2841 -0.5119
  214MPD1    C3 3251   1.086   0.299  15.305 -0.8465 -0.6004  0.2483
  214MPD1    C4 3252   1.092   0.244  15.181 -0.5098  0.8270  0.0163
  214MPD1    C5 3253   0.988   0.171  15.133  0.3980  0.0256  0.2710
  214MPD1     H 3254   0.962   0.341  15.476  1.2417  0.4262 -0.3948
  214MPD1    H1 3255   1.181   0.259  15.121  0.1657 -0.2717  0.7298
  214MPD1    H2 3256   0.803   0.090  15.153  0.2384  0.9855 -1.4313
  214MPD1    H3 3257   0.987   0.141  15.029  0.3308  0.0139  0.2754
  214MPD1     N 3258   1.198   0.369  15.352  0.1466 -0.4310  0.2055
  214MPD1    H5 3259   1.279   0.369  15.291  0.4569 -0.7092  0.6164
  214MPD1    N1 3260   0.760   0.160  15.424 -0.3059 -0.1971 -0.6346
  214MPD1    H6 3261   0.786   0.180  15.520 -0.2626 -0.5734 -0.5691
  214MPD1    H7 3262   0.727   0.064  15.426  0.8346 -0.5808 -0.4767
  215MPD1     C 3263   1.350   0.327  10.888  0.7191 -0.1839 -0.5002
  215MPD1    C1 3264   1.398   0.395  10.999  0.8014 -0.1555 -0.0685
  215MPD1    C2 3265   1.418   0.534  10.984  1.3747 -0.4972  0.1402
  215MPD1    C3 3266   1.380   0.595  10.865  0.3860 -0.3976 -0.5758
  215MPD1    C4 3267   1.340   0.525  10.753 -0.2407 -0.2177  0.0015
  215MPD1    C5 3268   1.323   0.390  10.771  0.1902  0.3161 -0.1124
  215MPD1     H 3269   1.446   0.598  11.067 -1.6735 -0.9831  1.5281
  215MPD1    H1 3270   1.308   0.566  10.658  1.5905 -0.1725 -0.5963
  215MPD1    H2 3271   1.333   0.220  10.897 -1.5503  0.1250 -1.1731
  215MPD1    H3 3272   1.287   0.333  10.686  0.1946 -1.0451  0.8095
  215MPD1     N 3273   1.398   0.737  10.861 -0.0393  0.3501  0.4533
  215MPD1    H5 3274   1.441   0.788  10.937 -0.3822  0.7961  0.3473
  215MPD1    N1 3275   1.411   0.333  11.116  0.1829  0.1187 -0.2990
  215MPD1    H6 3276   1.382   0.236  11.119  2.4425 -0.6001 -1.3100
  215MPD1    H7 3277   1.490   0.354  11.177 -0.8430 -2.1224  1.7840
  216MPD1     C 3278   3.205   3.468  16.136 -0.4397  0.9715  0.6115
  216MPD1    C1 3279   3.226   3.338  16.182  0.3026  0.0648 -0.4008
  216MPD1    C2 3280   3.265   3.327  16.313 -0.4471  0.3752  0.5281
  216MPD1    C3 3281   3.290   3.438  16.393  0.5089  0.3173 -0.2706
  216MPD1    C4 3282   3.280   3.568  16.341 -0.0023  0.1612  0.0352
  216MPD1    C5 3283   3.227   3.580  16.216  0.3055 -0.8818  0.1663
  216MPD1     H 3284   3.263   3.228  16.356 -1.9309  0.2875  0.2292
  216MPD1    H1 3285   3.294   3.659  16.399  0.8201  1.1580 -1.7400
  216MPD1    H2 3286   3.153   3.475  16.041  1.6458 -1.0323 -0.6679
  216MPD1    H3 3287   3.214   3.683  16.182 -0.9287 -0.4425  2.0002
  216MPD1     N 3288   3.327   3.415  16.525 -0.0905 -0.3335 -0.5164
  216MPD1    H5 3289   3.352   3.321  16.553  0.0491  0.0175  0.5444
  216MPD1    N1 3290   3.194   3.226  16.109 -0.3297  0.3300  0.4040
  216MPD1    H6 3291   3.212   3.233  16.009  1.2257 -0.9692  0.5974
  216MPD1    H7 3292   3.230   3.142  16.153  0.3680  0.1798 -0.4494
  217MPD1     C 3293   4.542   0.863   8.684 -0.1507 -0.3069  0.3245
  217MPD1    C1 3294   4.615   0.747   8.664  0.5386  0.3505  0.5624
  217MPD1    C2 3295   4.596   0.642   8.747 -0.1976  0.3446 -0.0518
  217MPD1    C3 3296   4.517   0.652   8.860 -0.6005  0.7449  0.1334
  217MPD1    C4 3297   4.451   0.771   8.891  0.8105  0.5765 -0.0788
  217MPD1    C5 3298   4.458   0.872   8.794  0.0434  0.1425  0.8399
  217MPD1     H 3299   4.656   0.554   8.734 -0.5542  0.5711 -3.1275
  217MPD1    H1 3300   4.384   0.784   8.976  1.3065  0.1458  0.3793
  217MPD1    H2 3301   4.540   0.948   8.618  0.2270  1.8492  3.1218
  217MPD1    H3 3302   4.401   0.964   8.804  2.2735  1.9711 -3.4213
  217MPD1     N 3303   4.509   0.546   8.949 -0.5681 -0.5682  0.0025
  217MPD1    H5 3304   4.474   0.563   9.042 -0.4081 -1.0542  0.1520
  217MPD1    N1 3305   4.698   0.736   8.553 -0.1241 -0.4400 -0.1879
  217MPD1    H6 3306   0.055   0.681   8.581 -0.3303 -2.1599 -2.8947
  217MPD1    H7 3307   0.004   0.829   8.525  0.7039  0.2162  2.8533
  218MPD1     C 3308   0.332   1.582  13.131 -0.2708 -1.1483 -0.0967
  218MPD1    C1 3309   0.424   1.505  13.197  0.3149  0.2154 -0.2603
  218MPD1    C2 3310   0.536   1.452  13.135  0.4392  0.6427  0.0015
  218MPD1    C3 3311   0.545   1.464  12.997 -0.0462  0.4905  0.3305
  218MPD1    C4 3312   0.450   1.537  12.925  0.6315 -0.8219 -0.1733
  218MPD1    C5 3313   0.343   1.585  12.995 -0.0868 -0.2221 -0.3119
  218MPD1     H 3314   0.608   1.401  13.197 -0.8723  0.4026  1.3358
  218MPD1    H1 3315   0.453   1.558  12.819  0.4240 -0.4014 -0.0945
  218MPD1    H2 3316   0.244   1.626  13.176  0.4311 -1.7469  1.8766
  218MPD1    H3 3317   0.264   1.634  12.940 -0.7008 -0.1090  0.6755
  218MPD1     N 3318   0.661   1.419  12.937 -0.0083 -0.4560 -0.8862
  218MPD1    H5 3319   0.727   1.370  12.997  1.2710  2.5374  0.1862
  218MPD1    N1 3320   0.422   1.509  13.339 -0.0684 -0.2902  0.3902
  218MPD1    H6 3321   0.325   1.516  13.370 -0.4615 -0.4101 -0.7770
  218MPD1    H7 3322   0.459   1.423  13.377  0.9418  0.4461  1.0651
  219MPD1     C 3323   1.388   1.533  12.134 -0.1636  0.3506  0.4215
  219MPD1    C1 3324   1.281   1.605  12.171 -0.1341 -0.5266 -0.2875
  219MPD1    C2 3325   1.203   1.552  12.276 -0.5059 -0.2120  0.0442
  219MPD1    C3 3326   1.243   1.436  12.341  0.2035 -0.4875  0.1101
  219MPD1    C4 3327   1.365   1.373  12.308 -0.3648 -0.2414 -0.0380
  219MPD1    C5 3328   1.434   1.426  12.204 -0.7110 -0.1579 -0.1658
  219MPD1     H 3329   1.106   1.595  12.297 -1.6328 -2.1534 -1.2435
  219MPD1    H1 3330   1.410   1.287  12.357  0.4070  0.1011 -0.1418
  219MPD1    H2 3331   1.438   1.580  12.050 -0.7436 -2.4800 -1.5248
  219MPD1    H3 3332   1.527   1.380  12.174 -1.1266 -0.5811 -0.7929
  219MPD1     N 3333   1.175   1.384  12.458 -0.5058  0.1987  0.0181
  219MPD1    H5 3334   1.230   1.322  12.516  0.3994  1.2677  0.3106
  219MPD1    N1 3335   1.223   1.702  12.087 -0.3058  0.0113 -0.0705
  219MPD1    H6 3336   1.175   1.781  12.129  1.0946  0.7818  0.0817
  219MPD1    H7 3337   1.296   1.746  12.031 -1.4805  1.5562 -0.3923
  220MPD1     C 3338   0.731   2.078   9.567  0.3545 -1.0460  0.1084
  220MPD1    C1 3339   0.865   2.059   9.602  0.8485  0.4912  0.3766
  220MPD1    C2 3340   0.894   1.929   9.638 -0.1408  0.2937  0.3531
  220MPD1    C3 3341   0.804   1.832   9.664  0.2613 -0.4352  0.0813
  220MPD1    C4 3342   0.672   1.856   9.640  0.0154 -0.7205 -0.6482
  220MPD1    C5 3343   0.640   1.979   9.592 -0.0898  0.1978 -0.1905
  220MPD1     H 3344   0.999   1.905   9.650 -0.0098 -0.0878 -1.6940
  220MPD1    H1 3345   0.592   1.785   9.656 -0.3948 -0.3423 -1.0057
  220MPD1    H2 3346   0.697   2.172   9.526 -0.2677 -2.0721 -1.7431
  220MPD1    H3 3347   0.538   2.002   9.563 -0.7415 -1.4631  0.8240
  220MPD1     N 3348   0.856   1.713   9.724 -0.0119  0.0246  0.0427
  220MPD1    H5 3349   0.956   1.707   9.734  0.0076 -0.3255 -0.3880
  220MPD1    N1 3350   0.962   2.161   9.591  0.2332 -0.6984  0.0949
  220MPD1    H6 3351   1.039   2.142   9.654  1.5058  2.7317 -0.4314
  220MPD1    H7 3352   0.934   2.259   9.592 -1.7723 -1.2658  0.4143
  221MPD1     C 3353   3.057   0.421  16.609  0.4916 -0.7198  0.0248
  221MPD1    C1 3354   3.087   0.544  16.553  0.6644 -0.0487  0.6969
  221MPD1    C2 3355   3.216   0.561  16.506  0.0932 -0.3492  0.0966
  221MPD1    C3 3356   3.305   0.452  16.501  0.3245 -0.5162 -0.2916
  221MPD1    C4 3357   3.262   0.329  16.548 -0.4599 -0.9040 -0.2370
  221MPD1    C5 3358   3.139   0.315  16.610 -0.4232 -0.1994  0.4721
  221MPD1     H 3359   3.247   0.654  16.458  0.0819 -0.8551 -0.8976
  221MPD1    H1 3360   3.320   0.238  16.540  2.8675  1.3169 -1.6390
  221MPD1    H2 3361   2.955   0.402  16.640  0.9589 -1.6204  0.9898
  221MPD1    H3 3362   3.099   0.221  16.647 -2.1956  0.0288 -0.8542
  221MPD1     N 3363   3.432   0.461  16.448 -0.3380 -0.0024 -0.2539
  221MPD1    H5 3364   3.486   0.375  16.450 -0.2245  0.0655 -0.4261
  221MPD1    N1 3365   2.994   0.642  16.568  0.0272 -0.3824  0.3441
  221MPD1    H6 3366   2.979   0.668  16.666 -1.0431 -1.5470  0.4985
  221MPD1    H7 3367   3.023   0.728  16.523 -0.3519  0.0281  0.8669
  222MPD1     C 3368   3.313   3.814  17.103 -0.2234 -1.0027  0.2808
  222MPD1    C1 3369   3.358   3.913  17.021 -0.5418 -0.4796 -0.1968
  222MPD1    C2 3370   3.296   4.037  17.026 -0.1818 -0.3287  0.3604
  222MPD1    C3 3371   3.204   4.059  17.124 -0.4893 -0.0527  0.2401
  222MPD1    C4 3372   3.166   3.955  17.211  0.7646 -0.1048  0.2379
  222MPD1    C5 3373   3.228   3.830  17.208 -0.3626  0.4947 -0.9631
  222MPD1     H 3374   3.299   4.106  16.943 -0.2816  1.3890  1.8023
  222MPD1    H1 3375   3.077   3.958  17.273  1.6427 -0.6027  1.5227
  222MPD1    H2 3376   3.353   3.714  17.089 -1.4502 -1.7540  2.0652
  222MPD1    H3 3377   3.194   3.751  17.274 -2.5797 -0.2848 -2.9991
  222MPD1     N 3378   3.138   4.181  17.137  0.6295 -0.2694  0.6041
  222MPD1    H5 3379   3.088   4.184  17.225  1.2120  0.9634  0.8867
  222MPD1    N1 3380   3.442   3.877  16.912  0.1618  0.2157 -0.4176
  222MPD1    H6 3381   3.510   3.808  16.943 -0.7143 -0.4086  0.1057
  222MPD1    H7 3382   3.502   3.950  16.873  0.8886 -0.3719 -0.4059
  223MPD1     C 3383   2.627   4.531   0.109  0.2556 -0.7042 -0.3515
  223MPD1    C1 3384   2.747   4.604   0.117 -0.2187 -0.4786  0.4357
  223MPD1    C2 3385   2.820   4.620   0.007  0.3014 -0.2890  0.2283
  223MPD1    C3 3386   2.767   4.565  17.587  0.4847 -0.3400  0.8572
  223MPD1    C4 3387   2.640   4.507  17.577 -0.3027 -0.2479 -0.0455
  223MPD1    C5 3388   2.573   4.487  17.698 -0.5337 -0.9503 -0.1771
  223MPD1     H 3389   2.915   4.671   0.014 -0.1439  0.6131 -0.3091
  223MPD1    H1 3390   2.603   4.458  17.488  0.6010  0.3710 -0.7564
  223MPD1    H2 3391   2.572   4.520   0.202 -1.8389 -0.8493 -1.6082
  223MPD1    H3 3392   2.476   4.438  17.699 -0.6242 -0.7955 -1.6326
  223MPD1     N 3393   2.853   4.568  17.474 -0.3185 -0.5641 -0.1058
  223MPD1    H5 3394   2.935   4.628  17.479 -0.0471 -0.8323 -1.3632
  223MPD1    N1 3395   2.805   4.628   0.245  0.0889 -0.0105 -0.3817
  223MPD1    H6 3396   2.888   4.686   0.256 -0.4539  0.5668  0.6147
  223MPD1    H7 3397   2.746   4.640   0.327  1.1562  0.0923  0.3736
  224MPD1     C 3398   0.582   0.918   9.290 -0.0127 -0.4489  0.3148
  224MPD1    C1 3399   0.670   0.838   9.365  0.1491  0.8595  0.1323
  224MPD1    C2 3400   0.606   0.760   9.454  0.6112 -0.2468  0.1538
  224MPD1    C3 3401   0.472   0.774   9.492  0.1056  0.5581  0.7904
  224MPD1    C4 3402   0.399   0.865   9.427 -0.3442 -0.0561  0.6213
  224MPD1    C5 3403   0.447   0.932   9.322 -0.1142 -0.6121  0.2659
  224MPD1     H 3404   0.673   0.684   9.491  0.7613 -0.0727  0.2443
  224MPD1    H1 3405   0.298   0.886   9.460 -1.2559 -1.5659 -1.2446
  224MPD1    H2 3406   0.623   0.982   9.213  0.8582 -0.2451  0.9447
  224MPD1    H3 3407   0.385   1.002   9.266  1.1315  2.1917  2.3561
  224MPD1     N 3408   0.398   0.684   9.578 -0.1912 -0.4994  0.2809
  224MPD1    H5 3409   0.302   0.710   9.598 -1.0136 -2.0848 -1.5790
  224MPD1    N1 3410   0.796   0.816   9.316 -0.0736 -0.1771  0.3493
  224MPD1    H6 3411   0.839   0.902   9.282  0.3150  0.4339  2.3894
  224MPD1    H7 3412   0.863   0.784   9.386 -0.6737 -0.5531  0.7519
  225MPD1     C 3413   0.657   2.008  12.938 -0.2205  0.2793  1.3481
  225MPD1    C1 3414   0.588   1.893  12.922  0.4334 -0.0768 -0.1497
  225MPD1    C2 3415   0.528   1.865  12.800 -0.5315 -0.2277 -0.7503
  225MPD1    C3 3416   0.543   1.951  12.689 -0.0143 -0.5865 -0.4197
  225MPD1    C4 3417   0.613   2.070  12.704  0.4033  0.4265  1.1364
  225MPD1    C5 3418   0.663   2.099  12.831 -0.5974  0.3231  0.4197
  225MPD1     H 3419   0.464   1.778  12.796 -1.0493  0.2415 -2.7297
  225MPD1    H1 3420   0.629   2.138  12.621  2.2951 -1.9504 -0.4604
  225MPD1    H2 3421   0.705   2.017  13.035 -0.5853  1.6318  1.4065
  225MPD1    H3 3422   0.717   2.193  12.835  0.5488 -0.2643 -1.3401
  225MPD1     N 3423   0.478   1.932  12.569  0.3582 -0.3058 -0.4453
  225MPD1    H5 3424   0.498   1.998  12.495  0.3119 -0.3084 -0.4601
  225MPD1    N1 3425   0.585   1.798  13.029  0.3828  0.9353  0.1319
  225MPD1    H6 3426   0.518   1.723  13.016  2.3445 -1.0955  1.8156
  225MPD1    H7 3427   0.584   1.833  13.125  2.1166  1.3533 -0.0006
  226MPD1     C 3428   4.703   0.473   9.487 -0.1297 -0.5173  0.5301
  226MPD1    C1 3429   0.081   0.533   9.420 -0.0026 -0.2999  0.7274
  226MPD1    C2 3430   0.077   0.668   9.390 -0.6238  0.5444  0.1594
  226MPD1    C3 3431   4.709   0.751   9.433  0.4758  0.5279 -0.1945
  226MPD1    C4 3432   4.608   0.700   9.510 -0.6320  0.4762  0.2647
  226MPD1    C5 3433   4.598   0.562   9.533 -0.4728  0.6434  0.1248
  226MPD1     H 3434   0.160   0.706   9.331 -1.3136 -0.3573 -1.4024
  226MPD1    H1 3435   4.533   0.758   9.563  0.9241  1.9777  0.8231
  226MPD1    H2 3436   4.700   0.367   9.506 -1.9617 -0.6252 -0.3414
  226MPD1    H3 3437   4.509   0.530   9.586  0.5609 -0.1931  1.3513
  226MPD1     N 3438   4.709   0.894   9.420 -0.7020 -1.0179 -0.0272
  226MPD1    H5 3439   0.066   0.936   9.376  0.2603 -1.6222  1.2021
  226MPD1    N1 3440   0.171   0.446   9.355  0.4606 -0.1877 -0.1560
  226MPD1    H6 3441   0.261   0.482   9.327  0.4853 -1.3255 -1.5236
  226MPD1    H7 3442   0.188   0.360   9.406 -1.4627  0.4585  1.6075
  227MPD1     C 3443   4.098   1.633   9.114  0.3507  0.1221  0.0169
  227MPD1    C1 3444   4.068   1.507   9.149 -0.7433  0.5427 -0.5511
  227MPD1    C2 3445   4.174   1.428   9.192 -0.1281  0.0256  0.4679
  227MPD1    C3 3446   4.300   1.472   9.212  0.3893 -0.2855  0.0987
  227MPD1    C4 3447   4.319   1.607   9.192 -0.3316 -0.3356  0.1896
  227MPD1    C5 3448   4.222   1.679   9.140  0.5117  0.4916  0.0444
  227MPD1     H 3449   4.155   1.323   9.208  0.3860 -0.1250  0.0745
  227MPD1    H1 3450   4.409   1.664   9.211 -0.1495 -0.1006 -1.3097
  227MPD1    H2 3451   4.029   1.700   9.065 -0.3487  0.2669  1.1825
  227MPD1    H3 3452   4.240   1.784   9.118  0.3895 -0.0759 -2.7658
  227MPD1     N 3453   4.401   1.388   9.263  0.2415  0.5007  0.4545
  227MPD1    H5 3454   4.368   1.304   9.309  1.4166 -0.1941  0.0137
  227MPD1    N1 3455   3.949   1.451   9.100  0.2533  1.0262 -1.0411
  227MPD1    H6 3456   3.870   1.514   9.112  1.0201  2.0169 -1.2183
  227MPD1    H7 3457   3.920   1.365   9.146 -0.7892  1.3469 -1.0777
  228MPD1     C 3458   1.204   4.000  11.988 -0.4308 -0.5796 -0.2789
  228MPD1    C1 3459   1.278   4.025  12.098  0.2242 -0.6712 -0.3812
  228MPD1    C2 3460   1.251   4.131  12.181  0.9360 -0.0983 -0.6878
  228MPD1    C3 3461   1.138   4.210  12.158 -0.0074 -0.0160  0.0195
  228MPD1    C4 3462   1.064   4.182  12.037 -0.4477  0.2598 -0.3258
  228MPD1    C5 3463   1.099   4.083  11.951  0.2576 -0.2054 -0.7373
  228MPD1     H 3464   1.317   4.154  12.263  1.8003 -1.2752 -1.0584
  228MPD1    H1 3465   0.980   4.246  12.014 -0.4914  0.1369 -0.4998
  228MPD1    H2 3466   1.222   3.914  11.925  0.2352 -1.7061  1.4323
  228MPD1    H3 3467   1.038   4.077  11.862 -2.4443  2.5687  0.9101
  228MPD1     N 3468   1.107   4.313  12.250  0.1943  0.1596  0.1325
  228MPD1    H5 3469   1.175   4.332  12.323  0.1297  0.5445  0.0903
  228MPD1    N1 3470   1.369   3.930  12.135 -0.4493 -0.2357  0.8269
  228MPD1    H6 3471   1.423   3.907  12.052 -0.5352 -1.1158  1.0142
  228MPD1    H7 3472   1.422   3.962  12.216 -0.5261  0.4157  0.6272
  229MPD1     C 3473   2.600   3.604  15.110 -0.1435 -0.0185  0.0457
  229MPD1    C1 3474   2.490   3.629  15.188 -0.1442 -0.9226  0.1607
  229MPD1    C2 3475   2.389   3.528  15.188 -0.0231 -0.6543  0.4962
  229MPD1    C3 3476   2.408   3.400  15.133  0.2279  0.0833 -0.5842
  229MPD1    C4 3477   2.529   3.381  15.067 -0.1892  0.4755  0.3191
  229MPD1    C5 3478   2.625   3.483  15.048 -0.1447  0.3443  0.0916
  229MPD1     H 3479   2.293   3.537  15.239  0.6032 -1.9998  1.9419
  229MPD1    H1 3480   2.548   3.287  15.016 -1.4902  0.4251 -0.0638
  229MPD1    H2 3481   2.669   3.687  15.102 -0.9515  0.4106 -2.2681
  229MPD1    H3 3482   2.719   3.460  14.999 -0.4000  0.7627 -0.5933
  229MPD1     N 3483   2.308   3.296  15.134 -0.0681 -0.5052 -0.3580
  229MPD1    H5 3484   2.335   3.208  15.091 -0.6092 -0.9944  0.2971
  229MPD1    N1 3485   2.464   3.750  15.249  0.5274  0.3662  0.7918
  229MPD1    H6 3486   2.397   3.752  15.327 -3.5304 -1.8192 -2.6159
  229MPD1    H7 3487   2.550   3.796  15.277  1.6645 -1.7518  0.7461
  230MPD1     C 3488   1.320   3.112  15.063  0.1227  0.3592 -0.0882
  230MPD1    C1 3489   1.403   3.191  14.995 -0.3323 -0.2612 -0.5386
  230MPD1    C2 3490   1.538   3.198  15.024 -0.1158  0.1148  0.3130
  230MPD1    C3 3491   1.584   3.125  15.129  0.7525 -0.0603  0.3575
  230MPD1    C4 3492   1.497   3.048  15.198 -0.0551 -0.2153  0.1739
  230MPD1    C5 3493   1.365   3.028  15.157 -0.0796 -0.3046 -0.0849
  230MPD1     H 3494   1.616   3.239  14.961  0.1349  2.0520  1.8987
  230MPD1    H1 3495   1.527   2.991  15.285 -1.0793  0.3302  0.8873
  230MPD1    H2 3496   1.214   3.112  15.043  0.3653 -0.0947 -1.3493
  230MPD1    H3 3497   1.293   2.959  15.199 -0.5974 -0.7890 -1.7721
  230MPD1     N 3498   1.726   3.122  15.147  0.8294 -0.9132 -0.5414
  230MPD1    H5 3499   1.775   3.181  15.079 -0.1266 -0.3401 -0.7398
  230MPD1    N1 3500   1.350   3.275  14.900 -0.0536 -0.4648  0.6174
  230MPD1    H6 3501   1.428   3.306  14.843 -0.6386 -0.6869 -0.2920
  230MPD1    H7 3502   1.271   3.255  14.840  1.4468 -0.1031 -1.4623
  231MPD1     C 3503   0.818   0.829  15.921 -0.1914  0.6217  0.6972
  231MPD1    C1 3504   0.739   0.788  15.812  0.7633 -0.3267 -0.0043
  231MPD1    C2 3505   0.801   0.782  15.690  0.7915 -0.1085 -0.5306
  231MPD1    C3 3506   0.932   0.808  15.668  0.5843  0.4814  1.0130
  231MPD1    C4 3507   1.009   0.834  15.781 -0.2423  0.0739  0.4342
  231MPD1    C5 3508   0.946   0.866  15.897 -1.2028 -0.7610  0.9068
  231MPD1     H 3509   0.743   0.758  15.601  0.8924  0.4322 -0.7425
  231MPD1    H1 3510   1.117   0.847  15.778 -0.1223 -1.1484 -0.7527
  231MPD1    H2 3511   0.773   0.857  16.015 -0.6655 -0.8386  0.9103
  231MPD1    H3 3512   1.004   0.899  15.982 -1.8215  0.7254  0.7456
  231MPD1     N 3513   0.982   0.798  15.543 -0.0818  0.2312 -0.0216
  231MPD1    H5 3514   0.918   0.763  15.473 -2.8523 -1.6839  3.4132
  231MPD1    N1 3515   0.600   0.769  15.831 -0.6247  0.3282 -0.1413
  231MPD1    H6 3516   0.560   0.854  15.791 -0.3470  1.3315  1.6832
  231MPD1    H7 3517   0.578   0.770  15.931  0.3485 -1.5997  0.1031
  232MPD1     C 3518   2.898   2.373  17.534 -0.4068 -0.7569  0.2083
  232MPD1    C1 3519   2.901   2.329  17.662 -0.3517  0.5695  0.4976
  232MPD1    C2 3520   2.777   2.332   0.025 -0.1581  0.7255  0.4441
  232MPD1    C3 3521   2.658   2.375  17.662  0.6956 -0.2722  0.2392
  232MPD1    C4 3522   2.662   2.398  17.530  0.4354 -0.2787 -0.6431
  232MPD1    C5 3523   2.775   2.397  17.460 -0.8004  0.0602  0.2092
  232MPD1     H 3524   2.777   2.298   0.128  0.9375  1.1413  0.5789
  232MPD1    H1 3525   2.578   2.428  17.469 -1.1931 -1.7821  0.8871
  232MPD1    H2 3526   2.991   2.380  17.480  1.1058 -0.9260  2.7623
  232MPD1    H3 3527   2.775   2.414  17.353 -1.5672  0.4222  0.2713
  232MPD1     N 3528   2.535   2.372   0.026 -0.1379  0.5248  0.7878
  232MPD1    H5 3529   2.537   2.362   0.127 -0.6768  0.4350  0.7902
  232MPD1    N1 3530   3.024   2.281   0.021 -0.1759  0.1783 -0.3432
  232MPD1    H6 3531   3.094   2.267  17.650 -0.1019  1.0425 -0.4390
  232MPD1    H7 3532   3.009   2.195   0.074  0.5104  0.8737  0.9789
  233MPD1     C 3533   2.795   1.867   0.897 -0.2481 -0.5947  0.3836
  233MPD1    C1 3534   2.704   1.771   0.903  0.6513  0.1517  0.3643
  233MPD1    C2 3535   2.702   1.688   1.007  0.1811  0.4279  0.0962
  233MPD1    C3 3536   2.816   1.671   1.083  0.1631  0.2766 -0.1950
  233MPD1    C4 3537   2.921   1.758   1.071 -0.1974 -0.2971 -0.1382
  233MPD1    C5 3538   2.908   1.862   0.981  0.3763 -0.3087  0.1016
  233MPD1     H 3539   2.608   1.638   1.030  1.2911 -1.5833  0.1535
  233MPD1    H1 3540   3.002   1.768   1.143 -0.4840 -1.6791  0.3704
  233MPD1    H2 3541   2.783   1.945   0.823 -1.4831 -2.5240 -1.4539
  233MPD1    H3 3542   2.981   1.941   0.969 -0.9054  0.6467 -1.3895
  233MPD1     N 3543   2.825   1.569   1.178  0.3536  0.4161  0.3438
  233MPD1    H5 3544   2.899   1.579   1.248  0.9478 -0.9051 -0.0937
  233MPD1    N1 3545   2.583   1.776   0.832  0.1455  0.3626 -0.3334
  233MPD1    H6 3546   2.583   1.819   0.740 -2.4000  1.7044  0.2939
  233MPD1    H7 3547   2.520   1.699   0.850 -0.9440  1.2682 -0.2416
  234MPD1     C 3548   0.256   3.358   9.656 -0.3269 -0.3506  0.7839
  234MPD1    C1 3549   0.259   3.444   9.763 -0.2035  0.1958  0.0356
  234MPD1    C2 3550   0.245   3.580   9.724  0.5816 -0.8491  0.7254
  234MPD1    C3 3551   0.226   3.620   9.594  0.1940  0.4707  0.2257
  234MPD1    C4 3552   0.220   3.533   9.492  0.0726  0.2646 -0.1655
  234MPD1    C5 3553   0.236   3.401   9.525 -0.8056  0.8184 -0.6673
  234MPD1     H 3554   0.252   3.657   9.800 -1.0325  2.8006 -2.8583
  234MPD1    H1 3555   0.220   3.562   9.388 -1.6021 -0.6195 -0.4170
  234MPD1    H2 3556   0.273   3.252   9.668  0.0376 -0.4579 -0.6866
  234MPD1    H3 3557   0.226   3.324   9.450  1.5137  2.9875 -3.2159
  234MPD1     N 3558   0.236   3.762   9.573 -0.6414 -0.4219 -0.2421
  234MPD1    H5 3559   0.260   3.810   9.659  0.7382 -2.6914  0.6540
  234MPD1    N1 3560   0.293   3.409   9.898 -0.0597  0.6576  0.3263
  234MPD1    H6 3561   0.280   3.312   9.926  0.3837  0.6185  0.3852
  234MPD1    H7 3562   0.238   3.472   9.956 -1.1593 -0.0901  0.1083
  235MPD1     C 3563   1.843   1.807  10.198  0.0801  0.6508 -0.2888
  235MPD1    C1 3564   1.897   1.876  10.095  0.0180 -0.2794 -0.0715
  235MPD1    C2 3565   1.994   1.967  10.132  0.0343  0.8441 -0.2306
  235MPD1    C3 3566   2.046   1.978  10.259 -0.2490  0.0632 -0.1497
  235MPD1    C4 3567   1.988   1.898  10.358  0.0296  0.1844  0.1168
  235MPD1    C5 3568   1.871   1.818  10.330  0.5745  0.0057 -0.0589
  235MPD1     H 3569   2.036   2.029  10.053  0.7964 -0.1540 -0.6119
  235MPD1    H1 3570   2.027   1.906  10.459  1.5021 -0.7152 -0.3756
  235MPD1    H2 3571   1.774   1.726  10.175 -0.5251  0.5794  1.7787
  235MPD1    H3 3572   1.856   1.738  10.402 -1.1069 -0.2307 -0.6631
  235MPD1     N 3573   2.143   2.071  10.289  0.2135  0.0781 -0.3647
  235MPD1    H5 3574   2.163   2.135  10.213 -1.4669  1.8370  0.6598
  235MPD1    N1 3575   1.842   1.875   9.968 -0.6781 -0.3604 -0.8204
  235MPD1    H6 3576   1.788   1.791   9.947 -1.0984  0.1647 -1.8473
  235MPD1    H7 3577   1.913   1.891   9.897 -0.1294 -1.9320 -0.6067
  236MPD1     C 3578   0.971   2.899  10.013  0.0203 -0.7102 -0.4544
  236MPD1    C1 3579   0.989   2.774   9.954 -0.2533 -0.0516 -0.1601
  236MPD1    C2 3580   1.089   2.698   9.999  0.0462  0.3937 -0.4611
  236MPD1    C3 3581   1.182   2.748  10.089  0.2560 -0.7000 -0.1203
  236MPD1    C4 3582   1.164   2.878  10.140  0.0761 -0.0553  0.5720
  236MPD1    C5 3583   1.057   2.950  10.104 -0.1379 -0.3027 -0.6562
  236MPD1     H 3584   1.107   2.599   9.957  1.1928 -0.1098  1.2127
  236MPD1    H1 3585   1.238   2.922  10.205  1.8803  0.7087 -2.0012
  236MPD1    H2 3586   0.891   2.969   9.992  0.3148 -0.2503 -0.0602
  236MPD1    H3 3587   1.046   3.051  10.143 -0.5127  0.9699 -4.0951
  236MPD1     N 3588   1.294   2.675  10.140 -0.0162  0.1282  0.3135
  236MPD1    H5 3589   1.331   2.726  10.220 -1.7617 -0.1062  1.2839
  236MPD1    N1 3590   0.885   2.722   9.882  0.0023  0.6021 -0.3750
  236MPD1    H6 3591   0.836   2.791   9.826 -1.4417 -1.6851 -1.9346
  236MPD1    H7 3592   0.923   2.656   9.815 -2.8023  1.5510 -2.8937
  237MPD1     C 3593   0.977   1.548  15.416 -0.0745 -0.3331 -0.2926
  237MPD1    C1 3594   0.882   1.559  15.313 -0.3693 -0.1822  0.4377
  237MPD1    C2 3595   0.766   1.639  15.327 -0.1950 -0.1951 -0.9332
  237MPD1    C3 3596   0.737   1.697  15.452 -0.0874  0.0366  0.1588
  237MPD1    C4 3597   0.830   1.681  15.558  0.2912 -0.5507 -0.4694
  237MPD1    C5 3598   0.947   1.614  15.533 -0.7100 -0.5653 -0.2350
  237MPD1     H 3599   0.687   1.629  15.253 -1.1829  0.9371 -0.0292
  237MPD1    H1 3600   0.807   1.725  15.655  1.3200  0.4700 -0.6875
  237MPD1    H2 3601   1.067   1.490  15.401 -0.7171 -1.9129  1.8854
  237MPD1    H3 3602   1.018   1.622  15.614 -1.6345 -1.0522  0.6115
  237MPD1     N 3603   0.619   1.774  15.482 -0.4758 -0.2758  0.1627
  237MPD1    H5 3604   0.611   1.808  15.577 -1.4873 -1.3611  0.4623
  237MPD1    N1 3605   0.913   1.506  15.187 -0.2355 -0.2243 -0.2661
  237MPD1    H6 3606   0.835   1.482  15.127 -1.3435  1.1246  0.6189
  237MPD1    H7 3607   0.977   1.427  15.188 -1.7650 -1.4411  1.0093
  238MPD1     C 3608   3.135   0.306  15.046 -0.4678  1.0199  0.0400
  238MPD1    C1 3609   3.062   0.189  15.050  0.8630 -0.5322  0.3168
  238MPD1    C2 3610   2.921   0.192  15.042 -0.7518  0.0306 -0.2167
  238MPD1    C3 3611   2.856   0.309  15.029  0.1070 -0.7268  0.0432
  238MPD1    C4 3612   2.932   0.423  15.019 -0.3389  0.5880  0.2374
  238MPD1    C5 3613   3.067   0.417  15.026  0.3734  0.3042 -0.0761
  238MPD1     H 3614   2.861   0.101  15.042  1.5744 -1.5161 -0.0928
  238MPD1    H1 3615   2.884   0.520  15.013 -1.6456 -0.0101  1.0764
  238MPD1    H2 3616   3.243   0.310  15.042 -0.3874 -0.7707  0.5602
  238MPD1    H3 3617   3.123   0.508  15.006  3.1048 -1.7195 -1.5023
  238MPD1     N 3618   2.715   0.310  15.018 -0.2470  0.4019  0.3055
  238MPD1    H5 3619   2.662   0.388  14.980 -0.1359 -0.0336 -0.7423
  238MPD1    N1 3620   3.123   0.064  15.046  0.5191  0.5998 -0.2186
  238MPD1    H6 3621   3.063   4.710  15.071 -0.1998  1.1740 -0.1191
  238MPD1    H7 3622   3.218   0.055  15.082  0.4104 -0.7031 -0.2651
  239MPD1     C 3623   2.823   0.929  14.889 -0.6809 -0.0361  0.7006
  239MPD1    C1 3624   2.912   0.920  14.783  0.3787  0.3613  0.2508
  239MPD1    C2 3625   2.885   0.985  14.665 -1.1045  0.4044  0.5522
  239MPD1    C3 3626   2.784   1.079  14.661  0.0784  0.3349  0.6215
  239MPD1    C4 3627   2.699   1.093  14.761  0.4902  0.8977  0.4123
  239MPD1    C5 3628   2.714   1.016  14.875 -0.2390  0.0368 -0.1850
  239MPD1     H 3629   2.950   0.967  14.580 -1.3232 -2.8669  1.0465
  239MPD1    H1 3630   2.624   1.171  14.769  0.6951  0.7860  3.1559
  239MPD1    H2 3631   2.838   0.876  14.982  1.2263  0.0274  0.4275
  239MPD1    H3 3632   2.642   1.032  14.954 -1.8472  1.0132 -1.8459
  239MPD1     N 3633   2.761   1.166  14.549  0.5060 -0.3630  0.0470
  239MPD1    H5 3634   2.680   1.226  14.561  0.7619 -0.9944  5.2141
  239MPD1    N1 3635   3.013   0.816  14.783 -0.1400 -0.0591 -0.6183
  239MPD1    H6 3636   3.091   0.825  14.718  0.1232  1.0577 -0.1534
  239MPD1    H7 3637   3.051   0.777  14.870  0.7260  1.4975 -0.2872
  240MPD1     C 3638   2.417   0.342  13.718 -0.3092 -0.2166  0.1041
  240MPD1    C1 3639   2.487   0.378  13.830  0.9958  1.1168 -0.0226
  240MPD1    C2 3640   2.426   0.439  13.937  0.4271 -0.4510  0.0832
  240MPD1    C3 3641   2.288   0.466  13.938 -0.5431 -0.1501  0.2727
  240MPD1    C4 3642   2.219   0.437  13.819 -0.1287  0.0472  0.2399
  240MPD1    C5 3643   2.285   0.376  13.710 -0.1793 -0.5763  0.2168
  240MPD1     H 3644   2.490   0.456  14.023 -1.4621 -1.9425  1.7753
  240MPD1    H1 3645   2.113   0.459  13.813 -0.4815 -1.4477  1.1179
  240MPD1    H2 3646   2.460   0.300  13.627 -2.4672 -1.2286 -0.4607
  240MPD1    H3 3647   2.226   0.348  13.624  1.2132 -1.1701 -0.5466
  240MPD1     N 3648   2.234   0.508  14.055  0.1040 -0.0989 -0.1413
  240MPD1    H5 3649   2.307   0.515  14.126 -2.1459  2.0220  1.9577
  240MPD1    N1 3650   2.617   0.334  13.840  0.5702 -0.0413  0.3503
  240MPD1    H6 3651   2.672   0.399  13.895 -1.3303  0.3477  1.7747
  240MPD1    H7 3652   2.649   0.334  13.743 -0.1836  1.0871  0.1008
  241MPD1     C 3653   2.682   0.625  14.769  0.1390  1.0192  0.0759
  241MPD1    C1 3654   2.558   0.622  14.824 -0.1721 -0.1414 -0.3085
  241MPD1    C2 3655   2.443   0.605  14.744  0.1962  0.6136 -0.1704
  241MPD1    C3 3656   2.451   0.609  14.605 -0.3667 -0.2965 -0.8051
  241MPD1    C4 3657   2.573   0.642  14.550 -0.1675  0.8110  0.0844
  241MPD1    C5 3658   2.689   0.638  14.631 -0.4226  0.3000  0.1929
  241MPD1     H 3659   2.347   0.618  14.793  0.7729  0.0539  1.0989
  241MPD1    H1 3660   2.582   0.654  14.443 -0.7491 -1.9106 -0.2768
  241MPD1    H2 3661   2.768   0.637  14.834 -0.0550  0.6776  0.3972
  241MPD1    H3 3662   2.782   0.655  14.579 -0.4597 -1.3351 -0.3934
  241MPD1     N 3663   2.342   0.607  14.517 -0.3460  0.2017  0.1718
  241MPD1    H5 3664   2.357   0.609  14.416 -1.3963  1.2854  0.0259
  241MPD1    N1 3665   2.560   0.599  14.958 -0.3505  0.3821  0.0659
  241MPD1    H6 3666   2.473   0.609  15.010 -1.0150 -1.3535 -0.7387
  241MPD1    H7 3667   2.632   0.655  15.004 -0.4209 -0.7381  1.5678
  242MPD1     C 3668   1.631   4.314  16.006 -0.4894 -0.0024  0.7967
  242MPD1    C1 3669   1.530   4.228  15.972 -0.1515  1.0080 -0.0127
  242MPD1    C2 3670   1.539   4.170  15.851  0.0775 -0.2241 -0.1453
  242MPD1    C3 3671   1.631   4.207  15.755 -1.0300 -0.0338 -0.9082
  242MPD1    C4 3672   1.735   4.292  15.787  0.5420 -0.0515 -0.1677
  242MPD1    C5 3673   1.725   4.342  15.912 -0.6029 -0.0838  0.9085
  242MPD1     H 3674   1.464   4.097  15.823 -0.0993  1.1325 -3.2733
  242MPD1    H1 3675   1.824   4.313  15.729  1.1705 -1.3698  0.3096
  242MPD1    H2 3676   1.635   4.361  16.104  0.6931 -2.5967  1.9893
  242MPD1    H3 3677   1.799   4.419  15.930 -0.0583 -0.3510 -0.1420
  242MPD1     N 3678   1.639   4.158  15.625  0.2704  0.6199  0.4014
  242MPD1    H5 3679   1.735   4.166  15.594  0.2567  1.8931  0.6931
  242MPD1    N1 3680   1.438   4.174  16.063  0.0835 -0.1987  0.3595
  242MPD1    H6 3681   1.347   4.143  16.031  0.3959  0.5719 -1.2777
  242MPD1    H7 3682   1.422   4.256  16.122 -0.8807  0.6275 -1.0665
  243MPD1     C 3683   4.004   2.831  17.152 -0.4774 -0.6584  0.0457
  243MPD1    C1 3684   4.039   2.702  17.186  0.5324  0.4945  0.6033
  243MPD1    C2 3685   3.948   2.600  17.160 -0.3170  0.6981  0.6511
  243MPD1    C3 3686   3.837   2.623  17.081  0.1522  0.3009 -0.4164
  243MPD1    C4 3687   3.817   2.753  17.028 -0.2650 -0.0778  0.0642
  243MPD1    C5 3688   3.909   2.851  17.060  1.0157 -0.1691 -0.0669
  243MPD1     H 3689   3.971   2.500  17.194  2.1834  1.3772  0.9129
  243MPD1    H1 3690   3.730   2.772  16.965 -0.2975 -2.6741 -0.6606
  243MPD1    H2 3691   4.063   2.918  17.176 -1.4294 -0.2659  0.9556
  243MPD1    H3 3692   3.900   2.950  17.016  0.5333  0.3103  1.0928
  243MPD1     N 3693   3.752   2.519  17.054  0.0197  0.0524 -0.8306
  243MPD1    H5 3694   3.781   2.443  17.114 -1.1813 -0.5091 -0.9636
  243MPD1    N1 3695   4.127   2.673  17.291 -0.0057  0.4348  0.4119
  243MPD1    H6 3696   4.172   2.582  17.277 -1.3232  0.1769 -2.0180
  243MPD1    H7 3697   4.205   2.737  17.305  0.1445 -0.1163  2.1490
  244MPD1     C 3698   3.497   2.187   0.074  0.0209 -0.2917 -0.3729
  244MPD1    C1 3699   3.592   2.282   0.033  0.0293 -0.9413  0.7782
  244MPD1    C2 3700   3.590   2.311  17.598  0.5321  0.1005 -0.1010
  244MPD1    C3 3701   3.484   2.274  17.518 -0.0134 -0.1294  0.2695
  244MPD1    C4 3702   3.394   2.177  17.561  0.2559 -0.5474 -0.0522
  244MPD1    C5 3703   3.411   2.127  17.690 -0.4512 -0.1505  0.1569
  244MPD1     H 3704   3.668   2.380  17.567  0.6529 -1.4915 -3.3162
  244MPD1    H1 3705   3.313   2.132  17.504 -0.1694  0.5673 -0.3179
  244MPD1    H2 3706   3.490   2.144   0.174  0.2572  1.2824  0.3149
  244MPD1    H3 3707   3.351   2.043   0.020  0.4201 -0.5286  0.8158
  244MPD1     N 3708   3.479   2.329  17.383 -0.1887  0.1460  0.3435
  244MPD1    H5 3709   3.551   2.395  17.355 -0.5299  0.5682  0.4699
  244MPD1    N1 3710   3.706   2.321   0.105 -0.3312  0.2613 -0.6451
  244MPD1    H6 3711   3.692   2.304   0.205 -0.9594 -0.6191 -0.8797
  244MPD1    H7 3712   3.728   2.415   0.073  1.1390  0.1293 -0.0051
  245MPD1     C 3713   0.554   3.132  13.282  0.3285 -0.2947 -0.4491
  245MPD1    C1 3714   0.614   3.239  13.216  0.1518 -0.1021 -0.7872
  245MPD1    C2 3715   0.643   3.347  13.290 -0.3329 -0.1548 -0.3810
  245MPD1    C3 3716   0.622   3.359  13.428  0.1553  0.0845 -0.0757
  245MPD1    C4 3717   0.568   3.248  13.492 -0.5275 -0.1549 -0.3413
  245MPD1    C5 3718   0.533   3.143  13.416 -0.2452 -0.3743 -0.1455
  245MPD1     H 3719   0.693   3.432  13.244 -0.2123  0.1312  0.2731
  245MPD1    H1 3720   0.555   3.248  13.600 -0.9913  1.6339 -0.3984
  245MPD1    H2 3721   0.524   3.043  13.228  0.3564  0.3570 -1.5476
  245MPD1    H3 3722   0.494   3.062  13.477 -0.5888 -0.2756 -0.2362
  245MPD1     N 3723   0.643   3.480  13.498 -0.1971 -0.3928  0.1366
  245MPD1    H5 3724   0.613   3.485  13.595  0.4350 -3.3267  0.4771
  245MPD1    N1 3725   0.617   3.232  13.079 -0.8510  0.2158 -0.0480
  245MPD1    H6 3726   0.694   3.293  13.052 -1.7487 -0.0779 -3.3426
  245MPD1    H7 3727   0.636   3.138  13.045 -0.9726 -0.5758  2.0995
  246MPD1     C 3728   1.972   3.643   9.784 -0.3314  0.5556 -0.1642
  246MPD1    C1 3729   1.907   3.621   9.665  0.0248 -0.3828 -0.5025
  246MPD1    C2 3730   1.808   3.707   9.640  1.0977  0.4051 -0.2860
  246MPD1    C3 3731   1.767   3.809   9.727 -0.4143  0.1443  0.4785
  246MPD1    C4 3732   1.841   3.830   9.848  0.3415  0.3056  0.2028
  246MPD1    C5 3733   1.932   3.740   9.876  0.5952 -0.8625  0.1359
  246MPD1     H 3734   1.757   3.700   9.544  0.3293 -0.2644  0.1753
  246MPD1    H1 3735   1.826   3.907   9.922  1.4353  0.2856  0.4359
  246MPD1    H2 3736   2.060   3.585   9.809 -0.1688  1.5501  1.5411
  246MPD1    H3 3737   1.996   3.756   9.963  3.2176 -1.1865 -1.7381
  246MPD1     N 3738   1.666   3.892   9.681 -0.6365  0.2167 -0.5894
  246MPD1    H5 3739   1.619   3.862   9.596 -1.2963 -0.8639  0.1593
  246MPD1    N1 3740   1.966   3.541   9.567 -0.5027 -0.1074 -0.1072
  246MPD1    H6 3741   2.029   3.470   9.605 -0.4837 -0.8416 -1.5209
  246MPD1    H7 3742   1.893   3.498   9.511  0.5943 -1.1985 -0.7045
  247MPD1     C 3743   3.794   3.116  16.025  0.4986  0.0404  0.3364
  247MPD1    C1 3744   3.826   2.995  16.087  0.0767  0.2852  0.1622
  247MPD1    C2 3745   3.943   2.971  16.151  0.2737 -0.0117  0.0592
  247MPD1    C3 3746   4.040   3.071  16.151  0.3680 -0.1853  0.4434
  247MPD1    C4 3747   4.010   3.190  16.087 -0.3140  0.0822  0.2264
  247MPD1    C5 3748   3.884   3.217  16.039 -0.4785 -0.1850 -0.0704
  247MPD1     H 3749   3.963   2.872  16.190  0.8842 -1.2113 -3.2575
  247MPD1    H1 3750   4.072   3.279  16.082  3.0560 -2.3373 -1.5311
  247MPD1    H2 3751   3.706   3.138  15.967  0.8788 -0.8527 -0.5830
  247MPD1    H3 3752   3.870   3.318  16.002  2.3543  1.2300  2.7094
  247MPD1     N 3753   4.164   3.057  16.214  0.3975 -0.0398 -0.0367
  247MPD1    H5 3754   4.231   3.133  16.202  1.1131 -0.7979 -0.8876
  247MPD1    N1 3755   3.733   2.890  16.056 -0.3472 -0.3655 -0.3735
  247MPD1    H6 3756   3.639   2.931  16.054  0.2830  1.0928 -0.5048
  247MPD1    H7 3757   3.723   2.813  16.122  4.0657 -0.1422  0.5750
  248MPD1     C 3758   0.785   2.247   1.346 -0.0872 -0.4766  0.5369
  248MPD1    C1 3759   0.767   2.345   1.434 -0.0179 -0.6287 -0.3456
  248MPD1    C2 3760   0.716   2.467   1.393 -0.2698 -0.7448 -0.2087
  248MPD1    C3 3761   0.684   2.487   1.264  0.3782  0.6140 -0.2624
  248MPD1    C4 3762   0.703   2.386   1.170 -0.2101  0.5334  0.4894
  248MPD1    C5 3763   0.750   2.264   1.219  0.1261  0.3696  0.4169
  248MPD1     H 3764   0.696   2.543   1.467 -3.8298  0.0862 -2.0406
  248MPD1    H1 3765   0.678   2.408   1.067  2.0335 -3.0271 -0.7920
  248MPD1    H2 3766   0.825   2.148   1.363  0.9591  0.3210  2.6223
  248MPD1    H3 3767   0.757   2.181   1.149  0.6846  2.0239 -1.4927
  248MPD1     N 3768   0.638   2.616   1.231  0.4734  0.6354 -0.0654
  248MPD1    H5 3769   0.600   2.674   1.305 -0.6824  0.4243 -0.4821
  248MPD1    N1 3770   0.826   2.328   1.559 -0.4255 -0.1863 -0.9921
  248MPD1    H6 3771   0.831   2.232   1.594  0.6712  0.4185  0.5204
  248MPD1    H7 3772   0.796   2.382   1.639 -1.1894  0.4733 -1.7323
  249MPD1     C 3773   2.388   1.045   9.184  0.9807  0.4575  0.5716
  249MPD1    C1 3774   2.283   1.133   9.220 -0.9388 -0.7877  0.2574
  249MPD1    C2 3775   2.284   1.178   9.353 -0.7018 -0.0522 -0.3069
  249MPD1    C3 3776   2.390   1.155   9.442  0.1712  0.1622 -0.6439
  249MPD1    C4 3777   2.500   1.081   9.397  0.0423 -1.0432 -0.3559
  249MPD1    C5 3778   2.500   1.029   9.266  0.3344 -0.0531 -0.1805
  249MPD1     H 3779   2.199   1.238   9.382  0.9938  2.3466 -0.3916
  249MPD1    H1 3780   2.582   1.067   9.466  0.9030  2.1764 -0.6984
  249MPD1    H2 3781   2.390   0.993   9.089 -1.1343  0.8168  0.3204
  249MPD1    H3 3782   2.582   0.960   9.249 -1.0399 -0.6343 -4.6289
  249MPD1     N 3783   2.382   1.202   9.577 -0.1974 -0.1413  0.5179
  249MPD1    H5 3784   2.300   1.257   9.599  0.2542  0.0771  1.6440
  249MPD1    N1 3785   2.169   1.165   9.137  0.3021 -0.1759  0.2457
  249MPD1    H6 3786   2.127   1.256   9.153  0.4567 -0.0007 -0.3400
  249MPD1    H7 3787   2.187   1.143   9.039 -0.9295 -0.4870  0.0896
  250MPD2     C 3788   3.581   1.856  12.686  0.1150 -0.5615  0.1856
  250MPD2    C1 3789   3.510   1.867  12.806  0.8964 -0.7208 -0.2489
  250MPD2    C2 3790   3.413   1.769  12.831 -0.4539 -0.2095 -0.3644
  250MPD2    C3 3791   3.372   1.679  12.738 -0.2090 -0.0729 -0.2584
  250MPD2    C4 3792   3.434   1.678  12.619 -0.3747 -0.4610 -0.2534
  250MPD2    C5 3793   3.536   1.763  12.591 -1.4060 -0.3633  0.3682
  250MPD2     H 3794   3.374   1.755  12.931  1.7053 -0.2203  0.4632
  250MPD2    H1 3795   3.411   1.615  12.534 -0.7917 -0.6324 -0.0139
  250MPD2    H2 3796   3.668   1.915  12.658  0.0608 -1.1507 -1.2468
  250MPD2    H3 3797   3.574   1.752  12.490  1.5820  0.1960  1.4271
  250MPD2     N 3798   3.254   1.598  12.740 -0.5505  0.2039  0.2798
  250MPD2    H5 3799   3.226   1.547  12.657  1.1414  0.6784 -0.5780
  250MPD2    N1 3800   3.558   1.962  12.898  0.9173 -0.6112  0.0488
  250MPD2    H7 3801   3.630   2.024  12.861 -0.2891  1.8256  1.8295
  251TMC3    C1 3802   3.530   2.122  13.069 -0.4216  0.2219  0.3542
  251TMC3    C2 3803   3.444   2.175  13.163 -1.3218  0.7788  0.4801
  251TMC3    C3 3804   3.473   2.300  13.208 -0.1383 -0.4206  0.1187
  251TMC3    C4 3805   3.652   2.176  13.045 -0.1240 -0.0980  0.5528
  251TMC3    C5 3806   3.685   2.283  13.119 -0.3959 -0.1947 -0.0026
  251TMC3    C6 3807   3.590   2.360  13.177  0.2785  0.0847 -0.4026
  251TMC3     C 3808   3.496   1.991  13.020  0.2375 -0.1456 -0.7603
  251TMC3     O 3809   3.413   1.927  13.089  0.1816 -0.0295  0.7376
  251TMC3     H 3810   3.351   2.123  13.185 -0.6698 -0.0130  1.3984
  251TMC3    H1 3811   3.731   2.143  12.979 -1.1288  1.9470 -1.6634
  251TMC3    H2 3812   3.621   2.445  13.237  0.7785  0.0972 -0.6732
  251TMC3    C7 3813   3.825   2.303  13.148 -0.4854 -1.0352 -1.6215
  251TMC3    C8 3814   3.372   2.387  13.257  0.4973 -0.1925 -0.0231
  251TMC3    O1 3815   3.898   2.211  13.163  0.3017 -0.4126 -0.2265
  251TMC3    O2 3816   3.299   2.337  13.341  1.4140 -0.0375 -0.1381
  252TMC3    C1 3817   4.182   2.284   8.698 -0.3216 -0.2828  0.1844
  252TMC3    C2 3818   4.314   2.259   8.721  0.0477  0.2366 -0.4573
  252TMC3    C3 3819   4.353   2.200   8.837  0.5565  0.4082  0.2584
  252TMC3    C4 3820   4.088   2.252   8.789 -0.1305 -0.1061 -0.6820
  252TMC3    C5 3821   4.130   2.181   8.895  0.0284  0.5267  0.1594
  252TMC3    C6 3822   4.265   2.160   8.929 -0.0977 -0.5391  0.4692
  252TMC3     C 3823   4.133   2.361   8.586 -1.0209  0.1223  0.4628
  252TMC3     O 3824   4.014   2.401   8.593  0.4423  0.4327  0.1801
  252TMC3     H 3825   4.376   2.315   8.652  1.3257  0.2540  0.7211
  252TMC3    H1 3826   3.982   2.269   8.774  0.1829  0.4196 -2.2309
  252TMC3    H2 3827   4.308   2.114   9.018  2.3620 -1.3601 -1.1394
  252TMC3    C7 3828   4.027   2.142   8.986 -0.5505  1.1979  0.6395
  252TMC3    C8 3829   4.491   2.217   8.867  0.2525 -0.1331 -0.3592
  252TMC3    O1 3830   3.909   2.131   8.957 -0.8484 -0.2127  0.1183
  252TMC3    O2 3831   4.568   2.218   8.774  0.2627  0.1294 -0.0491
  253MPD2     C 3832   0.223   2.162  15.421  0.3982 -0.9192  0.0658
  253MPD2    C1 3833   0.088   2.125  15.420  0.4300 -0.0549  0.1735
  253MPD2    C2 3834   0.036   2.084  15.536  0.3986 -0.4031  1.0574
  253MPD2    C3 3835   0.109   2.078  15.657  0.7499 -0.0800 -0.3616
  253MPD2    C4 3836   0.237   2.128  15.658 -1.1413 -0.2564  0.0475
  253MPD2    C5 3837   0.293   2.168  15.539 -0.4564 -0.2847 -0.0064
  253MPD2     H 3838   4.660   2.045  15.528  0.7645 -1.0272 -0.6159
  253MPD2    H1 3839   0.304   2.140  15.742 -0.1280 -4.2319 -0.2322
  253MPD2    H2 3840   0.264   2.187  15.323  1.0467 -1.4983  0.1880
  253MPD2    H3 3841   0.395   2.203  15.537 -0.5440 -0.0709 -0.8585
  253MPD2     N 3842   0.059   2.023  15.783  0.0552  0.1892  0.1542
  253MPD2    H5 3843   0.116   2.019  15.867 -0.7903  2.4055  0.8198
  253MPD2    N1 3844   0.006   2.119  15.306 -0.2597  1.4083 -0.1073
  253MPD2    H7 3845   4.642   2.073  15.321  0.3735  0.4085  0.5982
  254TMC3    C1 3846   4.619   1.954  15.941  0.5406  0.3772 -0.1533
  254TMC3    C2 3847   4.490   1.993  15.977  0.1663  0.6715 -0.0303
  254TMC3    C3 3848   4.455   1.987  16.109  0.8932  0.9623  0.4873
  254TMC3    C4 3849   4.703   1.902  16.034 -0.2397 -0.2669 -0.1302
  254TMC3    C5 3850   4.657   1.888  16.162 -0.7349 -0.3849 -0.2010
  254TMC3    C6 3851   4.534   1.930  16.204  0.2036  0.2285 -0.7085
  254TMC3     C 3852   4.656   1.970  15.806 -0.7280  0.1612  0.0448
  254TMC3     O 3853   4.563   1.971  15.731 -0.4564  0.2754  0.1569
  254TMC3     H 3854   4.421   2.032  15.903  3.3110  3.1822 -1.6788
  254TMC3    H1 3855   0.076   1.860  16.013  0.5620  2.0033 -0.8728
  254TMC3    H2 3856   4.505   1.913  16.307 -3.3764  1.4864 -1.4960
  254TMC3    C7 3857   0.011   1.810  16.254  0.0587 -0.0064 -0.5261
  254TMC3    C8 3858   4.327   2.036  16.161  0.0973  0.8002 -0.0052
  254TMC3    O1 3859   4.671   1.773  16.353  0.2163  0.6096 -0.2825
  254TMC3    O2 3860   4.321   2.045  16.284  0.0654  0.1945 -0.2513
  255MPD2     C 3861   3.137   3.368  10.310 -0.0281 -0.1404 -0.3213
  255MPD2    C1 3862   3.232   3.403  10.217 -0.3341 -0.0483  0.7862
  255MPD2    C2 3863   3.301   3.294  10.161  0.3232 -0.4716 -0.7395
  255MPD2    C3 3864   3.281   3.165  10.200  0.1343  0.0149  0.1106
  255MPD2    C4 3865   3.190   3.137  10.302  0.6086 -0.2800 -0.2759
  255MPD2    C5 3866   3.118   3.243  10.352 -0.2616  0.3648  0.0716
  255MPD2     H 3867   3.359   3.300  10.070 -0.2126  0.1762 -1.0394
  255MPD2    H1 3868   3.186   3.042  10.355  0.9840  0.4211  0.9899
  255MPD2    H2 3869   3.074   3.444  10.353 -2.0978 -1.9483 -0.1427
  255MPD2    H3 3870   3.051   3.229  10.436  0.6715 -0.6513  0.6466
  255MPD2     N 3871   3.348   3.049  10.164 -0.7715  0.0024 -0.0291
  255MPD2    H5 3872   3.301   2.963  10.194 -1.2960  0.1491 -0.4282
  255MPD2    N1 3873   3.261   3.538  10.197  1.1795  0.8851 -0.2039
  255MPD2    H7 3874   3.202   3.603  10.247  0.8003 -0.4241  1.0430
  256TMC3    C1 3875   3.388   3.727  10.128  0.3755  0.1473  0.0286
  256TMC3    C2 3876   3.439   3.793  10.023 -0.0980  0.7584 -0.5643
  256TMC3    C3 3877   3.479   3.918  10.040  0.7311 -0.0682  0.2708
  256TMC3    C4 3878   3.379   3.781  10.257 -0.0478  0.2352  0.3746
  256TMC3    C5 3879   3.416   3.913  10.271 -0.4088 -0.3999  0.8289
  256TMC3    C6 3880   3.468   3.980  10.159 -0.0671  0.4304 -0.5408
  256TMC3     C 3881   3.364   3.585  10.113  0.2318  0.2066  0.4035
  256TMC3     O 3882   3.432   3.531  10.025  0.0504  0.5859  0.3446
  256TMC3     H 3883   3.430   3.751   9.924 -1.2883 -0.0601 -0.1090
  256TMC3    H1 3884   3.340   3.725  10.341 -0.6873  1.0218  0.6029
  256TMC3    H2 3885   3.518   4.073  10.184  0.2672 -0.5486  2.5136
  256TMC3    C7 3886   3.339   3.987  10.367 -0.2477  0.1286  0.4229
  256TMC3    C8 3887   3.568   3.968   9.935 -0.0508  0.0132  0.0498
  256TMC3    O1 3888   3.304   3.930  10.465 -0.0794  0.1051  0.5012
  256TMC3    O2 3889   3.621   3.885   9.864 -0.1026  0.5027  0.4968
  257MPD2     C 3890   2.042   1.443  13.118 -0.0082 -0.1491  0.0094
  257MPD2    C1 3891   2.160   1.494  13.074  0.2987  0.1475 -0.0036
  257MPD2    C2 3892   2.283   1.453  13.133  0.3499 -0.1922  0.1824
  257MPD2    C3 3893   2.279   1.354  13.234 -1.1965  0.7038 -0.4077
  257MPD2    C4 3894   2.154   1.305  13.273 -0.3995 -0.1862 -0.6366
  257MPD2    C5 3895   2.034   1.358  13.224 -0.1220 -0.6714  0.6250
  257MPD2     H 3896   2.374   1.498  13.095 -0.8661  2.7096  0.7134
  257MPD2    H1 3897   2.158   1.224  13.345  0.0366  0.0999 -0.3381
  257MPD2    H2 3898   1.949   1.481  13.077  2.7749  2.2571 -4.0964
  257MPD2    H3 3899   1.943   1.313  13.260 -0.1617 -1.1583 -0.0868
  257MPD2     N 3900   2.391   1.297  13.296 -0.0455  0.2664  0.3661
  257MPD2    H5 3901   2.382   1.225  13.367 -0.4953 -1.0296 -0.9981
  257MPD2    N1 3902   2.148   1.582  12.963  0.2677  0.0382 -0.5700
  257MPD2    H7 3903   2.054   1.591  12.927  0.3600  1.5794 -0.4141
  258TMC3    C1 3904   2.602   1.209  13.316 -0.1415  0.2145 -0.1156
  258TMC3    C2 3905   2.663   1.110  13.244  0.1565  1.0352  0.3379
  258TMC3    C3 3906   2.729   1.013  13.314  0.6335  0.4152 -0.4907
  258TMC3    C4 3907   2.600   1.216  13.455  0.4309 -0.1724  0.3071
  258TMC3    C5 3908   2.668   1.110  13.514  0.1797 -0.0531  0.0587
  258TMC3    C6 3909   2.735   1.018  13.446 -0.6344 -0.1639 -1.0834
  258TMC3     C 3910   2.517   1.305  13.246  0.2346  0.1009  0.3658
  258TMC3     O 3911   2.563   1.357  13.143 -0.3262  0.2688  0.9721
  258TMC3     H 3912   2.660   1.127  13.137 -0.0838 -1.9662 -0.1337
  258TMC3    H1 3913   2.554   1.294  13.515 -2.4002 -1.6161  0.0387
  258TMC3    H2 3914   2.788   0.941  13.501 -0.6939  0.8610  0.4032
  258TMC3    C7 3915   2.637   1.104  13.657  0.8316 -0.6048 -0.2707
  258TMC3    C8 3916   2.755   0.887  13.251  0.2062  0.6086  0.0876
  258TMC3    O1 3917   2.521   1.118  13.683  0.7590  0.4198  0.0199
  258TMC3    O2 3918   2.807   0.794  13.313 -0.4088  0.6098  0.0320
  259MPD2     C 3919   1.126   3.406   0.947 -0.1958 -0.2212 -0.2669
  259MPD2    C1 3920   1.174   3.281   0.977  0.2159 -0.6134 -0.1868
  259MPD2    C2 3921   1.245   3.199   0.886 -0.4190  0.0129  0.4107
  259MPD2    C3 3922   1.258   3.238   0.760  0.0219 -0.7535 -0.6478
  259MPD2    C4 3923   1.220   3.362   0.726 -0.1359 -0.3968 -0.1736
  259MPD2    C5 3924   1.149   3.442   0.815  0.1038  0.2208 -0.3060
  259MPD2     H 3925   1.287   3.103   0.913 -1.4360 -0.6053 -0.2057
  259MPD2    H1 3926   1.222   3.399   0.624 -0.0986 -1.3214 -0.5077
  259MPD2    H2 3927   1.068   3.465   1.017  0.7868 -0.5119  0.7836
  259MPD2    H3 3928   1.115   3.543   0.793  0.7238  0.4761 -0.1039
  259MPD2     N 3929   1.318   3.147   0.669  0.6409 -0.2327  0.3547
  259MPD2    H5 3930   1.344   3.053   0.699  1.0618 -0.7522 -1.6227
  259MPD2    N1 3931   1.151   3.233   1.110 -0.3362  0.6627  0.6054
  259MPD2    H7 3932   1.084   3.286   1.165 -2.3837  0.0240 -1.2765
  260TMC3    C1 3933   1.350   3.047   0.455  0.2599 -0.3292  0.2615
  260TMC3    C2 3934   1.405   3.065   0.333  0.2402  0.4308 -0.2675
  260TMC3    C3 3935   1.395   2.961   0.248 -0.1408 -0.0718 -0.0185
  260TMC3    C4 3936   1.279   2.932   0.488 -0.1661  0.2604 -0.3352
  260TMC3    C5 3937   1.288   2.828   0.397  0.0528  0.2945  0.2715
  260TMC3    C6 3938   1.344   2.839   0.278 -0.5927  0.0037 -0.0681
  260TMC3     C 3939   1.335   3.173   0.532 -0.4284 -0.6038  0.1052
  260TMC3     O 3940   1.365   3.278   0.475  0.1268  0.1058  0.2094
  260TMC3     H 3941   1.457   3.154   0.299  2.8552 -0.4419  1.4852
  260TMC3    H1 3942   1.224   2.926   0.581 -0.2523 -0.1140 -0.4121
  260TMC3    H2 3943   1.352   2.760   0.203 -1.5422 -1.2327  1.1497
  260TMC3    C7 3944   1.257   2.690   0.430 -0.3362 -0.1258  0.0552
  260TMC3    C8 3945   1.489   2.966   0.146 -0.4817 -0.4632  0.4943
  260TMC3    O1 3946   1.213   2.620   0.339 -0.5507  0.1785  0.2030
  260TMC3    O2 3947   1.481   3.056   0.059  0.5579 -0.3242  0.0568
  261MPD2     C 3948   2.714   1.406  12.271  0.6193  0.4694 -0.1648
  261MPD2    C1 3949   2.829   1.483  12.301 -0.4455 -0.4296  0.2257
  261MPD2    C2 3950   2.883   1.562  12.195  0.4140 -0.2348 -0.7901
  261MPD2    C3 3951   2.835   1.545  12.068 -0.3089  0.0875  0.6255
  261MPD2    C4 3952   2.732   1.462  12.046 -0.1811 -0.3028 -0.4290
  261MPD2    C5 3953   2.662   1.397  12.142  0.4239  0.1341  0.1232
  261MPD2     H 3954   2.958   1.633  12.229 -0.1635  0.5057 -1.0649
  261MPD2    H1 3955   2.673   1.465  11.955 -0.8308 -3.4696 -0.1121
  261MPD2    H2 3956   2.661   1.361  12.354 -0.8443  1.1398 -0.7360
  261MPD2    H3 3957   2.572   1.339  12.124  0.7177 -0.0059 -0.8931
  261MPD2     N 3958   2.881   1.635  11.967 -0.5803  0.0812 -0.0445
  261MPD2    H5 3959   2.944   1.708  11.997  0.0716 -0.1641 -0.8038
  261MPD2    N1 3960   2.881   1.499  12.435  1.0208  0.2467 -0.1968
  261MPD2    H7 3961   2.946   1.577  12.444 -0.7998  1.5062  1.9900
  262TMC3    C1 3962   2.903   1.742  11.752  0.2111 -0.2196 -0.0354
  262TMC3    C2 3963   2.851   1.867  11.776  0.6406  0.0061  0.4444
  262TMC3    C3 3964   2.867   1.958  11.678 -0.1617  0.3400  0.9058
  262TMC3    C4 3965   2.976   1.710  11.642 -0.0423 -0.7198 -0.1073
  262TMC3    C5 3966   2.991   1.806  11.548  0.1842  0.7521 -0.1141
  262TMC3    C6 3967   2.925   1.930  11.554 -0.2048 -0.3796 -0.0028
  262TMC3     C 3968   2.847   1.630  11.831  0.7124 -0.8225  0.1880
  262TMC3     O 3969   2.804   1.532  11.767  0.2769 -0.3169 -0.1944
  262TMC3     H 3970   2.807   1.899  11.870 -0.4792  0.1635 -0.1395
  262TMC3    H1 3971   3.017   1.612  11.622  2.8221  0.4525  0.0301
  262TMC3    H2 3972   2.927   2.017  11.489  0.8859 -0.5663 -0.2146
  262TMC3    C7 3973   3.088   1.775  11.441  0.3269 -0.1345 -0.2731
  262TMC3    C8 3974   2.824   2.094  11.706  0.2343 -0.1848  0.7831
  262TMC3    O1 3975   3.128   1.662  11.420 -0.0784  0.1375 -0.1583
  262TMC3    O2 3976   2.866   2.181  11.629 -0.5247 -0.4972  0.2331
  263MPD2     C 3977   3.629   0.767  11.472  0.1600  0.1638 -0.2313
  263MPD2    C1 3978   3.752   0.766  11.412 -0.3109 -0.4717  0.0780
  263MPD2    C2 3979   3.761   0.819  11.286 -0.4675  0.5213 -0.5558
  263MPD2    C3 3980   3.673   0.897  11.223  0.1064 -0.3740  0.0556
  263MPD2    C4 3981   3.546   0.902  11.276 -0.5850 -0.4431  0.7380
  263MPD2    C5 3982   3.533   0.837  11.407  0.5340  0.1211 -0.3837
  263MPD2     H 3983   3.855   0.800  11.237 -0.4856  1.1573 -0.8348
  263MPD2    H1 3984   3.460   0.956  11.240 -1.1135 -0.3394  2.1372
  263MPD2    H2 3985   3.608   0.719  11.567  0.9719  0.5864  0.1636
  263MPD2    H3 3986   3.434   0.853  11.449 -0.3212 -0.6400 -2.1241
  263MPD2     N 3987   3.700   0.971  11.106  0.2051 -0.7796 -0.1796
  263MPD2    H5 3988   3.632   1.039  11.073  0.3459 -1.2065 -1.3718
  263MPD2    N1 3989   3.861   0.711  11.474 -0.4578 -0.4858 -0.0117
  263MPD2    H7 3990   3.832   0.657  11.554 -0.3551  0.1397  0.4484
  264TMC3    C1 3991   3.811   1.055  10.924 -0.2749  0.1235 -0.3058
  264TMC3    C2 3992   3.770   1.178  10.961 -0.1269  0.3607  0.4739
  264TMC3    C3 3993   3.808   1.277  10.878 -0.3069 -0.4485 -0.0384
  264TMC3    C4 3994   3.883   1.034  10.812 -0.1850  0.8240 -0.5841
  264TMC3    C5 3995   3.933   1.140  10.747 -0.1963 -0.3358  0.8971
  264TMC3    C6 3996   3.886   1.263  10.768  0.6000  0.2743 -1.0652
  264TMC3     C 3997   3.800   0.946  11.023  0.3343  0.4591  0.4060
  264TMC3     O 3998   3.878   0.851  11.012  0.0029  0.2682 -1.0764
  264TMC3     H 3999   3.743   1.201  11.064 -2.0772 -1.6914  0.4239
  264TMC3    H1 4000   3.922   0.939  10.779 -2.7766  0.0496 -1.4067
  264TMC3    H2 4001   3.909   1.344  10.700  1.9812  0.1218 -0.7823
  264TMC3    C7 4002   4.074   1.141  10.713  0.2350  0.3456  0.1349
  264TMC3    C8 4003   3.835   1.412  10.930  0.4672  0.1393 -0.0724
  264TMC3    O1 4004   4.130   1.041  10.663  0.1224  0.2109 -0.1381
  264TMC3    O2 4005   3.934   1.460  10.883  0.3202 -0.1304  0.0832
  265MPD2     C 4006   1.435   1.488  15.362  0.3436 -0.2129 -0.4351
  265MPD2    C1 4007   1.408   1.561  15.245 -0.2581 -0.5289 -0.4646
  265MPD2    C2 4008   1.484   1.529  15.132  0.8954  0.1470 -0.3203
  265MPD2    C3 4009   1.564   1.416  15.129 -0.4353 -0.4652 -0.2834
  265MPD2    C4 4010   1.586   1.350  15.249  0.0474 -0.3902 -0.1355
  265MPD2    C5 4011   1.519   1.389  15.363  0.1488 -0.5711  0.5256
  265MPD2     H 4012   1.472   1.598  15.049  0.9832 -0.4834 -0.8576
  265MPD2    H1 4013   1.637   1.255  15.250 -0.4042 -0.6194  1.1630
  265MPD2    H2 4014   1.390   1.505  15.459 -1.6958  0.7607 -1.5662
  265MPD2    H3 4015   1.538   1.335  15.456 -1.6228 -0.7560  0.7792
  265MPD2     N 4016   1.637   1.362  15.023  0.2823  0.2940 -0.6821
  265MPD2    H5 4017   1.691   1.278  15.038  1.5084  1.1160 -0.5504
  265MPD2    N1 4018   1.311   1.667  15.235 -0.0528  0.1593 -0.2979
  265MPD2    H7 4019   1.288   1.698  15.142 -0.3185 -0.7895 -0.5506
  266TMC3    C1 4020   1.133   1.814  15.299 -0.2256 -0.3830 -0.0655
  266TMC3    C2 4021   1.076   1.893  15.392 -0.7077 -0.1528  0.8177
  266TMC3    C3 4022   0.960   1.961  15.359  0.1673 -1.0321  0.0475
  266TMC3    C4 4023   1.073   1.785  15.178 -0.1842  0.0200 -0.2190
  266TMC3    C5 4024   0.951   1.847  15.156 -0.2114  0.2445 -0.3779
  266TMC3    C6 4025   0.896   1.935  15.244 -0.3318 -0.7031  0.7375
  266TMC3     C 4026   1.239   1.724  15.341 -1.2051  0.0318  0.1236
  266TMC3     O 4027   1.256   1.711  15.461  0.6357  0.5994 -0.1846
  266TMC3     H 4028   1.137   1.910  15.480  0.5829  1.4291 -0.3835
  266TMC3    H1 4029   1.094   1.699  15.115 -1.4427  0.2419 -0.9295
  266TMC3    H2 4030   0.802   1.985  15.225  0.1345 -0.0809  0.0383
  266TMC3    C7 4031   0.891   1.808  15.032 -0.2726  0.1101 -0.1956
  266TMC3    C8 4032   0.916   2.073  15.439 -0.3116 -0.2052 -1.2107
  266TMC3    O1 4033   0.966   1.784  14.940 -0.0190 -0.3321 -0.1304
  266TMC3    O2 4034   0.828   2.146  15.390 -0.6017 -0.1513 -0.0863
  267MPD2     C 4035   3.995   3.622  17.341 -0.2352 -0.7418  0.5349
  267MPD2    C1 4036   3.965   3.489  17.324 -0.4356 -0.5623 -0.3809
  267MPD2    C2 4037   3.857   3.452  17.245 -0.9221 -0.0248  0.5100
  267MPD2    C3 4038   3.773   3.545  17.185 -0.0785 -0.7439  0.7954
  267MPD2    C4 4039   3.800   3.682  17.207 -0.4964 -0.3104 -0.5164
  267MPD2    C5 4040   3.909   3.714  17.284  0.7254  0.7058 -0.5934
  267MPD2     H 4041   3.828   3.348  17.235 -0.7733  0.0564 -0.7443
  267MPD2    H1 4042   3.733   3.756  17.163 -0.0901 -0.2123 -0.9660
  267MPD2    H2 4043   4.081   3.651  17.399 -0.2238 -3.2644  1.7868
  267MPD2    H3 4044   3.933   3.819  17.293  0.7821  0.7392 -1.1108
  267MPD2     N 4045   3.671   3.493  17.105  1.1246  0.1883  0.0243
  267MPD2    H5 4046   3.656   3.392  17.102  2.1442  0.0045  1.3433
  267MPD2    N1 4047   4.042   3.401  17.396 -0.2460  0.0674 -0.1135
  267MPD2    H7 4048   4.113   3.440  17.458  0.3230  0.8828 -1.2707
  268TMC3    C1 4049   4.142   3.189  17.456 -1.3529 -0.3427  0.0059
  268TMC3    C2 4050   4.245   3.154  17.371  0.5736  0.4650 -0.0610
  268TMC3    C3 4051   4.368   3.145  17.427 -0.3339 -0.1682  0.2194
  268TMC3    C4 4052   4.161   3.236  17.581 -0.4338  0.1287  0.2501
  268TMC3    C5 4053   4.281   3.204  17.636  0.3819 -0.3947 -0.6193
  268TMC3    C6 4054   4.377   3.146  17.566 -0.1589 -0.2881 -0.8565
  268TMC3     C 4055   4.043   3.264  17.383 -0.2606 -0.1768 -0.3678
  268TMC3     O 4056   3.993   3.202  17.294 -0.5681 -0.7216  0.3717
  268TMC3     H 4057   4.214   3.114  17.276  0.4383 -0.4575  0.3723
  268TMC3    H1 4058   4.069   3.261  17.632 -0.8454 -3.8415  1.4976
  268TMC3    H2 4059   4.469   3.121  17.617 -0.0258 -0.9489 -1.4188
  268TMC3    C7 4060   4.287   3.186   0.075  0.1311 -0.1497 -0.3034
  268TMC3    C8 4061   4.448   3.259  17.383 -0.6658 -0.0363 -0.2420
  268TMC3    O1 4062   4.381   3.118   0.117  0.8440 -0.3991 -0.3500
  268TMC3    O2 4063   4.543   3.294  17.447 -0.2094 -0.1014 -0.1242
  269MPD2     C 4064   3.906   2.044  15.614  0.3295 -0.0932  0.5945
  269MPD2    C1 4065   3.783   2.047  15.682  0.6874  0.0682 -0.7167
  269MPD2    C2 4066   3.722   2.171  15.693 -0.9380 -0.9299  0.1434
  269MPD2    C3 4067   3.775   2.283  15.638 -0.5167  0.0474 -0.0742
  269MPD2    C4 4068   3.892   2.273  15.559  0.6366  0.4528  0.1166
  269MPD2    C5 4069   3.955   2.153  15.546 -0.2626 -0.3085  0.1724
  269MPD2     H 4070   3.645   2.186  15.768 -0.5477 -1.7963  0.7149
  269MPD2    H1 4071   3.941   2.359  15.515 -1.1096  1.0476 -0.6483
  269MPD2    H2 4072   3.966   1.954  15.609  0.9670  0.4335 -1.0402
  269MPD2    H3 4073   4.053   2.152  15.501  0.7694  0.0885  2.4396
  269MPD2     N 4074   3.717   2.407  15.681  0.0240 -0.3229  0.4444
  269MPD2    H5 4075   3.652   2.406  15.759  0.6429 -0.6828  0.9528
  269MPD2    N1 4076   3.726   1.923  15.726 -0.4161  0.2465 -0.1041
  269MPD2    H7 4077   3.787   1.842  15.712 -2.1689 -0.7264 -2.0527
  270TMC3    C1 4078   3.567   1.768  15.790 -0.4303  0.3106 -0.2830
  270TMC3    C2 4079   3.438   1.741  15.758 -0.3160 -0.0407 -0.3762
  270TMC3    C3 4080   3.397   1.610  15.770 -0.0865 -0.3178  0.3215
  270TMC3    C4 4081   3.644   1.681  15.853  0.0926  0.4928 -0.1097
  270TMC3    C5 4082   3.590   1.561  15.884  0.5161  0.0587 -0.1923
  270TMC3    C6 4083   3.470   1.515  15.836  0.1958 -0.2611 -0.4930
  270TMC3     C 4084   3.598   1.907  15.782 -0.4733  0.5814  0.6506
  270TMC3     O 4085   3.507   1.988  15.785  0.4184 -0.0717 -0.0468
  270TMC3     H 4086   3.383   1.819  15.706 -1.0197  0.8175  1.6796
  270TMC3    H1 4087   3.739   1.702  15.901  0.6275 -0.0128 -0.9415
  270TMC3    H2 4088   3.432   1.414  15.842  1.3481 -0.6950 -0.5635
  270TMC3    C7 4089   3.689   1.464  15.926 -0.3022 -0.2607  0.5249
  270TMC3    C8 4090   3.333   1.549  15.652  0.3166 -0.3021  0.1109
  270TMC3    O1 4091   3.810   1.486  15.934  0.3194  0.3534  0.1586
  270TMC3    O2 4092   3.367   1.440  15.617  0.8673 -0.3561  1.0694
  271MPD2     C 4093   3.099   1.639  13.902  1.0965 -0.0331 -0.0571
  271MPD2    C1 4094   3.035   1.669  14.023 -0.2110 -0.1466  0.0774
  271MPD2    C2 4095   2.907   1.704  14.022 -0.4524 -0.0857  0.1821
  271MPD2    C3 4096   2.834   1.734  13.910  0.1390  0.1697 -0.0155
  271MPD2    C4 4097   2.907   1.728  13.795 -0.1855  0.4011 -0.0568
  271MPD2    C5 4098   3.033   1.676  13.785  0.1370  0.6024  0.9398
  271MPD2     H 4099   2.853   1.697  14.115 -0.6452  0.9938  0.1581
  271MPD2    H1 4100   2.864   1.765  13.703 -2.0377 -0.8308  0.3111
  271MPD2    H2 4101   3.198   1.597  13.894  0.5812 -0.8096 -2.1686
  271MPD2    H3 4102   3.082   1.656  13.690 -1.2538 -1.7267  0.6891
  271MPD2     N 4103   2.704   1.790  13.911  0.5090 -0.0611  0.5843
  271MPD2    H5 4104   2.649   1.793  13.825 -2.1061  1.1661  2.2769
  271MPD2    N1 4105   3.090   1.643  14.145 -0.2501 -0.1370  0.0520
  271MPD2    H7 4106   3.023   1.634  14.221 -1.0177  1.5901 -0.4451
  272TMC3    C1 4107   3.235   1.549  14.298 -0.2072  0.2294 -0.4203
  272TMC3    C2 4108   3.352   1.482  14.325  0.6309  0.0364 -0.0036
  272TMC3    C3 4109   3.373   1.436  14.452 -0.1410  0.0585  0.0023
  272TMC3    C4 4110   3.137   1.563  14.393 -0.1659 -0.0560 -0.3358
  272TMC3    C5 4111   3.170   1.517  14.520  0.1798  0.2962  0.5239
  272TMC3    C6 4112   3.290   1.457  14.554 -0.2357 -0.2334  0.0835
  272TMC3     C 4113   3.221   1.600  14.164  0.1168  0.5091  0.6033
  272TMC3     O 4114   3.319   1.597  14.092  0.0845  0.1740 -0.4753
  272TMC3     H 4115   3.424   1.474  14.244  2.6424 -1.3188  1.9233
  272TMC3    H1 4116   3.045   1.618  14.381 -0.3074 -0.5784 -1.6644
  272TMC3    H2 4117   3.308   1.426  14.657  1.9018 -0.9014 -0.4943
  272TMC3    C7 4118   3.081   1.555  14.629  0.1908  0.3997  1.2250
  272TMC3    C8 4119   3.510   1.415  14.474  0.4038 -0.0758  0.2218
  272TMC3    O1 4120   2.965   1.521  14.619  0.2184 -0.2580 -0.4858
  272TMC3    O2 4121   3.586   1.459  14.388  0.0054  0.8369 -0.4460
  273MPD2     C 4122   4.542   4.215  11.872  0.0142 -0.1051 -0.0702
  273MPD2    C1 4123   4.564   4.347  11.830  0.4824 -0.3857 -0.0986
  273MPD2    C2 4124   4.505   4.393  11.711 -0.5646 -0.1592 -0.2786
  273MPD2    C3 4125   4.421   4.305  11.641  0.9420  0.2433  0.0839
  273MPD2    C4 4126   4.404   4.174  11.686  0.3483  0.2952 -0.2623
  273MPD2    C5 4127   4.470   4.129  11.795 -0.6310 -0.2343  0.5547
  273MPD2     H 4128   4.517   4.499  11.690  0.4415  0.4050  3.1501
  273MPD2    H1 4129   4.354   4.098  11.627  1.5675  0.3958 -1.3969
  273MPD2    H2 4130   4.588   4.175  11.962  0.3426 -0.7077 -0.5153
  273MPD2    H3 4131   4.453   4.025  11.824  0.1557 -1.0807 -2.0191
  273MPD2     N 4132   4.364   4.348  11.518 -0.1051 -0.2179  0.3969
  273MPD2    H5 4133   4.317   4.273  11.468  1.3994  0.5422 -2.1188
  273MPD2    N1 4134   4.642   4.441  11.903 -0.5721 -0.3772 -0.1032
  273MPD2    H7 4135   4.643   4.535  11.865 -1.5803  0.0539  0.9513
  274TMC3    C1 4136   4.383   4.446  11.306 -0.1616  0.4228 -0.2491
  274TMC3    C2 4137   4.264   4.409  11.254 -0.4785 -0.2165 -0.1922
  274TMC3    C3 4138   4.239   4.439  11.126 -0.0167 -0.0223  0.6212
  274TMC3    C4 4139   4.473   4.520  11.232 -0.1071 -0.1480 -0.8922
  274TMC3    C5 4140   4.444   4.547  11.102 -0.5364  0.1481  0.4226
  274TMC3    C6 4141   4.327   4.512  11.049 -0.9434  1.0208  0.5342
  274TMC3     C 4142   4.390   4.463  11.451 -0.1687 -0.2715  0.5988
  274TMC3     O 4143   4.466   4.552  11.484 -0.5950  0.1213 -0.2379
  274TMC3     H 4144   4.191   4.350  11.308  1.2358 -1.7311  0.4750
  274TMC3    H1 4145   4.569   4.549  11.274 -0.9706  0.9512  0.3351
  274TMC3    H2 4146   4.282   4.575  10.973 -1.9119  0.1059  0.3515
  274TMC3    C7 4147   4.493   4.674  11.057 -0.5668  0.2078  0.4011
  274TMC3    C8 4148   4.119   4.381  11.063 -0.0344  0.4156 -0.2592
  274TMC3    O1 4149   4.480   4.705  10.934 -0.4312  0.0485  0.1807
  274TMC3    O2 4150   4.027   4.340  11.132 -0.1746 -0.0309 -0.4034
  275MPD2     C 4151   4.482   2.865  14.388 -0.5077  1.0589 -0.0941
  275MPD2    C1 4152   4.384   2.895  14.478 -0.3053 -0.7149  0.0587
  275MPD2    C2 4153   4.279   2.815  14.499 -0.2306  0.4847  0.4278
  275MPD2    C3 4154   4.273   2.694  14.427  0.4741 -0.8910 -0.1661
  275MPD2    C4 4155   4.369   2.671  14.338 -0.3450 -0.7398  0.4812
  275MPD2    C5 4156   4.470   2.759  14.312 -0.4804  0.1998 -0.0005
  275MPD2     H 4157   4.206   2.838  14.576 -1.2415  0.5725 -0.5529
  275MPD2    H1 4158   4.369   2.580  14.279  0.6900 -0.9179  0.7613
  275MPD2    H2 4159   4.573   2.923  14.374  2.3249 -3.2294  0.7146
  275MPD2    H3 4160   4.546   2.732  14.240 -0.0501 -0.7281  0.7947
  275MPD2     N 4161   4.166   2.603  14.434  0.1820  0.5967 -0.4820
  275MPD2    H5 4162   4.165   2.523  14.372 -0.8213 -0.1817  0.5662
  275MPD2    N1 4163   4.393   2.999  14.568 -0.2739 -0.1538 -0.2499
  275MPD2    H7 4164   4.308   3.018  14.620 -0.3243  0.1939 -0.4569
  276TMC3    C1 4165   4.468   3.186  14.703 -0.2092 -0.2545  0.4670
  276TMC3    C2 4166   4.345   3.157  14.752 -0.0159 -0.5546  0.3466
  276TMC3    C3 4167   4.324   3.153  14.891 -0.3165 -0.5056  0.4709
  276TMC3    C4 4168   4.576   3.199  14.786  0.8352 -0.5716  0.0514
  276TMC3    C5 4169   4.557   3.177  14.920  0.1879 -0.9010  0.1784
  276TMC3    C6 4170   4.436   3.151  14.969  0.2100 -0.8819 -0.1921
  276TMC3     C 4171   4.496   3.088  14.594 -0.2469  0.4444  0.5722
  276TMC3     O 4172   4.610   3.084  14.551  0.4871 -0.4496 -0.1613
  276TMC3     H 4173   4.262   3.156  14.682  0.1158  0.1649  0.1774
  276TMC3    H1 4174   4.674   3.197  14.741  0.7752  1.1950 -0.1503
  276TMC3    H2 4175   4.431   3.106  15.068  0.0394  2.6357  1.4147
  276TMC3    C7 4176   4.666   3.169  15.014  0.4487 -0.0214  0.1218
  276TMC3    C8 4177   4.230   3.055  14.927  0.9686 -0.4573 -0.1659
  276TMC3    O1 4178   4.638   3.195  15.132 -0.7295  0.4348 -0.2378
  276TMC3    O2 4179   4.130   3.096  14.987 -0.6876 -0.6069 -0.5718
  277MPD2     C 4180   1.738   1.169  13.123  0.5000 -0.1934 -0.0699
  277MPD2    C1 4181   1.652   1.239  13.207  0.0273 -0.7489  0.4437
  277MPD2    C2 4182   1.595   1.175  13.317 -0.5557  0.1492  0.1020
  277MPD2    C3 4183   1.624   1.042  13.336 -0.0378  0.0933  0.3008
  277MPD2    C4 4184   1.713   0.977  13.253 -0.4290 -0.3427 -0.4833
  277MPD2    C5 4185   1.773   1.041  13.148  0.4021  0.5217  0.5365
  277MPD2     H 4186   1.521   1.224  13.379  0.6509  1.5439  0.4391
  277MPD2    H1 4187   1.750   0.877  13.273  0.8287  0.3211  0.5904
  277MPD2    H2 4188   1.790   1.225  13.047 -0.0062  0.1022 -0.2006
  277MPD2    H3 4189   1.843   0.979  13.091 -1.0743 -0.8472  0.2070
  277MPD2     N 4190   1.557   0.987  13.447  0.3954  0.2680  0.0781
  277MPD2    H5 4191   1.498   1.047  13.504 -0.7104 -0.8360  0.1029
  277MPD2    N1 4192   1.626   1.371  13.179  0.0162 -0.5816 -0.4569
  277MPD2    H7 4193   1.648   1.404  13.085 -0.0185  1.3915  0.2293
  278TMC3    C1 4194   1.495   0.813  13.591 -0.2482 -0.0441  0.1055
  278TMC3    C2 4195   1.461   0.680  13.577  0.0559 -0.1886 -0.1012
  278TMC3    C3 4196   1.341   0.646  13.631 -0.0465  0.2170  0.2684
  278TMC3    C4 4197   1.433   0.917  13.657  0.6419 -0.2323 -0.2032
  278TMC3    C5 4198   1.311   0.869  13.704  0.1659  0.3390  0.4984
  278TMC3    C6 4199   1.261   0.735  13.694 -0.6346 -0.4941 -0.0339
  278TMC3     C 4200   1.572   0.856  13.477  0.2213  0.3507  0.0859
  278TMC3     O 4201   1.648   0.768  13.439  0.0614  0.8246  0.8417
  278TMC3     H 4202   1.516   0.604  13.524  1.5073  0.5127  0.4109
  278TMC3    H1 4203   1.472   1.018  13.661  0.7180 -0.1682 -2.1305
  278TMC3    H2 4204   1.179   0.699  13.754  1.1335 -1.3320  1.9066
  278TMC3    C7 4205   1.233   0.971  13.769  0.1844 -0.3870  0.4202
  278TMC3    C8 4206   1.287   0.512  13.600  0.1260  0.1812 -0.2436
  278TMC3    O1 4207   1.288   1.079  13.782 -0.6259 -0.8146  0.7297
  278TMC3    O2 4208   1.372   0.427  13.574  0.0511  0.1910 -0.3263
  279MPD2     C 4209   0.809   1.678   0.514 -0.5409 -0.8141  0.3200
  279MPD2    C1 4210   0.720   1.661   0.408 -0.6707 -0.0396 -0.4571
  279MPD2    C2 4211   0.743   1.564   0.311  0.1991  0.7117  0.0297
  279MPD2    C3 4212   0.861   1.507   0.303 -0.0939  0.6218  0.7735
  279MPD2    C4 4213   0.956   1.527   0.402 -0.0949 -0.8188  0.7743
  279MPD2    C5 4214   0.931   1.609   0.508 -0.3178 -0.1644 -0.1205
  279MPD2     H 4215   0.669   1.547   0.234  0.1264 -3.8192  1.0601
  279MPD2    H1 4216   1.051   1.474   0.402 -0.6193 -1.7577 -0.0447
  279MPD2    H2 4217   0.785   1.736   0.602  1.3405 -0.0129  0.3051
  279MPD2    H3 4218   1.000   1.608   0.591  0.0670  1.3455 -0.4309
  279MPD2     N 4219   0.903   1.434   0.190 -0.0047 -0.1081  0.4368
  279MPD2    H5 4220   0.994   1.390   0.193 -0.7765 -1.7252  0.0490
  279MPD2    N1 4221   0.601   1.734   0.387  0.0530 -0.1716  1.0378
  279MPD2    H7 4222   0.551   1.709   0.303 -1.0272 -0.6234  1.8222
  280TMC3    C1 4223   0.430   1.881   0.397 -0.3328 -0.2971 -0.1806
  280TMC3    C2 4224   0.355   1.790   0.321 -0.1563  0.1043  0.1991
  280TMC3    C3 4225   0.228   1.830   0.295 -0.1834  0.3688  0.6822
  280TMC3    C4 4226   0.380   1.999   0.447 -0.9499  0.1957  0.4243
  280TMC3    C5 4227   0.257   2.034   0.399  0.5650  0.1741  0.2365
  280TMC3    C6 4228   0.187   1.953   0.314  0.0192 -0.2741  0.3954
  280TMC3     C 4229   0.550   1.833   0.458 -0.0211  0.0115 -0.1951
  280TMC3     O 4230   0.590   1.889   0.559 -0.2236 -0.0309  0.0105
  280TMC3     H 4231   0.387   1.693   0.283  2.6154  1.1163 -0.0361
  280TMC3    H1 4232   0.445   2.064   0.505 -1.5399  2.2990 -1.2964
  280TMC3    H2 4233   0.087   1.982   0.286 -0.3913 -1.2389  0.8756
  280TMC3    C7 4234   0.226   2.171   0.414 -0.0402 -0.3573  0.2060
  280TMC3    C8 4235   0.145   1.740   0.217 -0.1433  0.3456  0.1819
  280TMC3    O1 4236   0.272   2.225   0.510  0.3164 -0.4802  0.0344
  280TMC3    O2 4237   0.054   1.791   0.154  0.0114 -0.2057 -0.4158
  281TMC3    C1 4238   4.154   2.071  13.381 -0.5504 -1.3250  0.7135
  281TMC3    C2 4239   4.214   2.188  13.344  0.4826 -0.3361  0.3919
  281TMC3    C3 4240   4.281   2.193  13.225  0.6815 -0.6396  0.3643
  281TMC3    C4 4241   4.176   1.951  13.321  0.3347  0.8192 -1.5941
  281TMC3    C5 4242   4.246   1.962  13.200  0.1454 -0.8853 -0.6375
  281TMC3    C6 4243   4.304   2.076  13.157 -0.3928  0.2624  0.0798
  281TMC3     C 4244   4.043   2.076  13.478  1.2486  0.1371  0.5089
  281TMC3     O 4245   3.992   1.971  13.503 -0.2163  0.1728  0.3098
  281TMC3     H 4246   4.200   2.281  13.398 -0.0935  0.4494 -1.1105
  281TMC3    H1 4247   4.130   1.860  13.354  2.5495  0.6403  0.9757
  281TMC3    H2 4248   4.368   2.078  13.070 -1.8661 -1.3439 -1.0269
  281TMC3    C7 4249   4.312   1.841  13.144 -0.9410 -0.3902 -0.5668
  281TMC3    C8 4250   4.381   2.297  13.197  0.0646 -0.6828 -1.2603
  281TMC3    O1 4251   4.418   1.855  13.080  0.0866 -0.0274  0.5895
  281TMC3    O2 4252   4.492   2.255  13.178  0.0897 -0.3835  0.1224
  282MPD2     C 4253   1.151   3.434  15.318  0.6529  0.8320 -0.2034
  282MPD2    C1 4254   1.025   3.449  15.375  0.1606 -0.4853 -0.1356
  282MPD2    C2 4255   0.920   3.433  15.295 -1.1294  0.5287 -0.2161
  282MPD2    C3 4256   0.926   3.409  15.162 -0.5012  0.2455  0.6026
  282MPD2    C4 4257   1.049   3.384  15.108 -0.3488  0.4061 -0.0435
  282MPD2    C5 4258   1.154   3.405  15.187  0.4029 -0.2008 -0.0618
  282MPD2     H 4259   0.817   3.444  15.327 -2.0546 -1.9418 -2.3552
  282MPD2    H1 4260   1.056   3.371  15.001  0.5534 -1.3059  0.2359
  282MPD2    H2 4261   1.238   3.445  15.381  3.5360 -0.8845 -3.9232
  282MPD2    H3 4262   1.248   3.371  15.144  1.1165  1.2870  0.3174
  282MPD2     N 4263   0.812   3.422  15.087  0.0441 -0.1030  0.1718
  282MPD2    H5 4264   0.728   3.448  15.138  0.1767 -2.6218  1.7299
  282MPD2    N1 4265   0.992   3.463  15.511  0.1878  0.0506  0.0825
  282MPD2    H7 4266   0.896   3.442  15.536  0.3842 -0.5467  0.3587
  283TMC3    C1 4267   1.027   3.498  15.735  0.3994 -0.1519 -0.4465
  283TMC3    C2 4268   1.060   3.611  15.802 -0.7084 -0.5392 -0.4285
  283TMC3    C3 4269   0.973   3.659  15.889  0.0255 -0.1321  0.4261
  283TMC3    C4 4270   0.904   3.434  15.753 -0.7854  0.2582  0.2159
  283TMC3    C5 4271   0.815   3.490  15.840 -0.1245  0.3044 -1.0661
  283TMC3    C6 4272   0.846   3.603  15.906 -0.3117 -0.5143 -0.1064
  283TMC3     C 4273   1.083   3.494  15.611  0.2560  0.5318 -0.0772
  283TMC3     O 4274   1.202   3.512  15.610 -0.1369 -0.0140  0.5541
  283TMC3     H 4275   1.145   3.669  15.768 -1.3439  0.3304 -0.5616
  283TMC3    H1 4276   0.892   3.337  15.706  1.9736 -0.3254  0.7111
  283TMC3    H2 4277   0.770   3.648  15.968  0.9799  0.1726  0.9686
  283TMC3    C7 4278   0.699   3.419  15.896 -0.6051 -0.0743  0.5888
  283TMC3    C8 4279   0.986   3.790  15.954 -0.1085 -0.1681 -0.2559
  283TMC3    O1 4280   0.627   3.467  15.987 -0.2357 -0.4497 -0.0448
  283TMC3    O2 4281   0.913   3.804  16.050 -0.3625  0.0320 -0.1838
  284MPD2     C 4282   3.878   2.145  12.247  0.8645 -0.5183 -0.2958
  284MPD2    C1 4283   3.934   2.137  12.122  0.0643  0.0065 -0.0995
  284MPD2    C2 4284   3.902   2.027  12.040  0.1435  0.2600 -0.0848
  284MPD2    C3 4285   3.825   1.924  12.082 -0.2298 -0.1740  0.1271
  284MPD2    C4 4286   3.771   1.932  12.208 -0.1945 -0.1340 -0.0609
  284MPD2    C5 4287   3.794   2.041  12.289 -0.3514  0.0357  0.8831
  284MPD2     H 4288   3.938   2.027  11.938  0.4736  1.5771  0.0237
  284MPD2    H1 4289   3.707   1.857  12.254  0.1355 -0.8756 -0.8145
  284MPD2    H2 4290   3.891   2.228  12.315 -1.6373  1.0751 -1.7674
  284MPD2    H3 4291   3.738   2.030  12.381 -0.3648  1.8255  1.0850
  284MPD2     N 4292   3.785   1.806  12.011 -0.5335 -0.6263  0.4994
  284MPD2    H5 4293   3.728   1.743  12.067  1.1683 -1.4251  1.3512
  284MPD2    N1 4294   4.025   2.230  12.070 -0.2581 -0.6900 -0.4634
  284MPD2    H7 4295   4.057   2.211  11.976 -1.6407  0.9045 -1.2525
  285TMC3    C1 4296   4.189   2.394  12.070 -1.1110  0.0182 -0.1840
  285TMC3    C2 4297   4.242   2.340  11.959  0.2512  0.0423  0.4403
  285TMC3    C3 4298   4.352   2.394  11.902  0.2530  0.2844  0.8913
  285TMC3    C4 4299   4.250   2.502  12.132  0.7288 -0.5527  0.4506
  285TMC3    C5 4300   4.350   2.566  12.064 -0.0496  0.0947 -0.2896
  285TMC3    C6 4301   4.400   2.510  11.949 -0.2462  0.2938  0.0618
  285TMC3     C 4302   4.077   2.335  12.137 -0.2624 -0.7096 -0.4009
  285TMC3     O 4303   4.040   2.381  12.246 -0.1677 -0.5417 -0.8170
  285TMC3     H 4304   4.217   2.247  11.910 -1.5156  1.5900 -1.6263
  285TMC3    H1 4305   4.221   2.537  12.230  1.7357 -0.6450  0.7776
  285TMC3    H2 4306   4.484   2.560  11.902 -2.1599  0.9885 -2.5863
  285TMC3    C7 4307   4.354   2.711  12.059  0.5430  0.8243  0.6921
  285TMC3    C8 4308   4.382   2.353  11.761 -0.4120 -0.2658  0.3422
  285TMC3    O1 4309   4.438   2.756  11.989 -0.3137  0.3192  0.7515
  285TMC3    O2 4310   4.301   2.284  11.702 -0.1483 -0.6823 -0.5322
  286MPD2     C 4311   4.633   1.598   1.581 -1.3407 -0.0335 -0.0572
  286MPD2    C1 4312   4.577   1.574   1.454  0.1375 -0.0817 -0.2768
  286MPD2    C2 4313   4.634   1.484   1.373  0.4943 -0.0760 -0.5484
  286MPD2    C3 4314   0.022   1.415   1.409 -0.2389 -0.4995  0.8220
  286MPD2    C4 4315   0.090   1.448   1.527  0.5539  0.1742 -0.0494
  286MPD2    C5 4316   0.023   1.532   1.609 -0.7221  0.4581  0.1152
  286MPD2     H 4317   4.581   1.466   1.280  0.2502  2.0871 -0.8066
  286MPD2    H1 4318   0.177   1.390   1.556  0.1392 -0.2496  0.3749
  286MPD2    H2 4319   4.582   1.657   1.656  0.2958  0.5245  0.6148
  286MPD2    H3 4320   0.071   1.547   1.705 -1.3908 -1.9528  0.8075
  286MPD2     N 4321   0.078   1.302   1.342  0.2742 -0.5685  0.4539
  286MPD2    H5 4322   0.158   1.255   1.381  0.5689  2.0183  2.9326
  286MPD2    N1 4323   4.460   1.641   1.415  0.1103 -0.0262 -0.6157
  286MPD2    H7 4324   4.419   1.608   1.328 -0.3535  0.3844 -0.5565
  287TMC3    C1 4325   0.108   1.134   1.172  0.1758 -0.5412 -0.7276
  287TMC3    C2 4326   0.048   1.056   1.084  0.4972  0.0709  0.9359
  287TMC3    C3 4327   0.122   0.948   1.052 -0.3234 -0.7658 -0.2620
  287TMC3    C4 4328   0.239   1.118   1.210  0.1127 -0.0968 -0.1499
  287TMC3    C5 4329   0.305   1.011   1.166 -0.2195 -0.2662  0.0658
  287TMC3    C6 4330   0.249   0.925   1.085 -0.1907  0.0459 -0.7123
  287TMC3     C 4331   0.032   1.251   1.219 -0.1710 -0.0640 -0.6562
  287TMC3     O 4332   4.660   1.283   1.151  0.1720 -0.3500  0.5624
  287TMC3     H 4333   4.666   1.059   1.068  1.1287  1.0611 -2.9344
  287TMC3    H1 4334   0.279   1.182   1.288 -2.0750 -1.4038  2.0395
  287TMC3    H2 4335   0.300   0.837   1.049 -0.3405 -0.0863 -0.6051
  287TMC3    C7 4336   0.447   1.001   1.212 -1.1391 -0.1334  0.4389
  287TMC3    C8 4337   0.056   0.861   0.961 -0.7582 -0.1566  0.3159
  287TMC3    O1 4338   0.483   1.057   1.316  0.5553 -0.4018  0.2534
  287TMC3    O2 4339   4.658   0.845   0.958 -0.2958 -0.1454 -0.1891
  288TMC3    C1 4340   1.481   1.075  14.147  0.6634  0.2197  0.6653
  288TMC3    C2 4341   1.431   1.113  14.268 -0.4037  0.3558  0.2118
  288TMC3    C3 4342   1.496   1.223  14.322  0.2613 -0.7674  0.4802
  288TMC3    C4 4343   1.581   1.138  14.074 -0.2522 -0.5203 -0.3885
  288TMC3    C5 4344   1.647   1.245  14.134  0.6379  0.3057 -0.4826
  288TMC3    C6 4345   1.600   1.290  14.257 -0.8390 -0.6123 -0.0897
  288TMC3     C 4346   1.449   0.938  14.104 -0.5884 -0.3820  0.2199
  288TMC3     O 4347   1.543   0.876  14.055  0.0523  0.6175  0.5809
  288TMC3     H 4348   1.372   1.045  14.327 -0.3082 -0.4795 -0.6650
  288TMC3    H1 4349   1.616   1.093  13.982  1.9096 -0.8293  0.5831
  288TMC3    H2 4350   1.654   1.373  14.300 -1.0282 -0.4885 -0.0933
  288TMC3    C7 4351   1.763   1.306  14.074 -0.2026  0.6520  0.3926
  288TMC3    C8 4352   1.475   1.259  14.466 -0.0221 -0.1206  0.0168
  288TMC3    O1 4353   1.857   1.336  14.145 -0.4679  0.2668 -0.3417
  288TMC3    O2 4354   1.503   1.376  14.488 -0.3699  0.3796  0.5643
  289MPD2     C 4355   1.645   0.244  14.695  0.7383  0.1734  1.0241
  289MPD2    C1 4356   1.637   0.325  14.584  0.3248  0.4832 -0.4471
  289MPD2    C2 4357   1.510   0.325  14.521 -0.2263 -0.2858  0.1415
  289MPD2    C3 4358   1.395   0.260  14.572  0.1952  0.1513  0.0122
  289MPD2    C4 4359   1.411   0.184  14.686 -0.3091  0.4031 -0.3996
  289MPD2    C5 4360   1.535   0.172  14.741  0.3053  0.5777  0.2413
  289MPD2     H 4361   1.492   0.387  14.434 -0.9874 -0.2647  0.3127
  289MPD2    H1 4362   1.325   0.135  14.731 -0.3411  1.2794  0.4896
  289MPD2    H2 4363   1.735   0.236  14.754  1.5865 -0.3883 -0.3567
  289MPD2    H3 4364   1.535   0.105  14.827  4.3251 -0.8781 -0.9180
  289MPD2     N 4365   1.263   0.266  14.523  0.8279 -0.1194  0.6875
  289MPD2    H5 4366   1.192   0.214  14.574 -0.6283 -1.0517 -2.2932
  289MPD2    N1 4367   1.755   0.387  14.536 -0.2146 -0.4292 -0.1419
  289MPD2    H7 4368   1.843   0.357  14.579  0.6073  2.3776  0.1594
  290TMC3    C1 4369   1.072   0.343  14.410 -0.0088 -0.7240  1.0832
  290TMC3    C2 4370   1.010   0.443  14.343  0.1400 -0.5432 -0.8086
  290TMC3    C3 4371   0.881   0.421  14.312  0.7188  1.1255  0.0638
  290TMC3    C4 4372   1.006   0.239  14.464 -0.2408  0.1547 -0.4218
  290TMC3    C5 4373   0.877   0.214  14.428 -0.3802 -0.4095 -0.3779
  290TMC3    C6 4374   0.818   0.304  14.347 -0.2933 -0.0309 -0.1069
  290TMC3     C 4375   1.215   0.351  14.429 -0.0908  0.6373  0.3282
  290TMC3     O 4376   1.277   0.437  14.368 -0.4359 -0.0497  0.2442
  290TMC3     H 4377   1.073   0.529  14.321 -0.1831 -0.3015 -0.7942
  290TMC3    H1 4378   1.049   0.173  14.539  0.0175  1.8387  0.8940
  290TMC3    H2 4379   0.715   0.300  14.312  0.7746 -2.2195 -2.9800
  290TMC3    C7 4380   0.790   0.143  14.525 -0.8549  0.0652 -0.2369
  290TMC3    C8 4381   0.798   0.531  14.272  0.3834  0.5562  0.3864
  290TMC3    O1 4382   0.701   0.205  14.582  0.2042 -0.0153 -0.3647
  290TMC3    O2 4383   0.687   0.503  14.226 -0.2402 -0.8898 -0.1538
  291MPD2     C 4384   1.504   4.491   0.627  0.3752 -0.5009  0.3634
  291MPD2    C1 4385   1.381   4.439   0.612 -0.1750 -0.5274 -0.5253
  291MPD2    C2 4386   1.293   4.478   0.509 -0.0767 -0.6321  0.3832
  291MPD2    C3 4387   1.322   4.589   0.424 -0.6745  0.6199  0.1480
  291MPD2    C4 4388   1.444   4.650   0.451  0.1651 -0.0956  0.0096
  291MPD2    C5 4389   1.531   4.597   0.546  0.0346  0.2353  0.2684
  291MPD2     H 4390   1.197   4.428   0.502  0.8829 -2.7037  1.9917
  291MPD2    H1 4391   1.471   0.015   0.396  1.0270  1.4923  3.0746
  291MPD2    H2 4392   1.584   4.464   0.695  0.3334 -1.4566  0.0229
  291MPD2    H3 4393   1.624   4.649   0.565  0.1534  0.3310 -0.5768
  291MPD2     N 4394   1.237   4.642   0.321  0.2127 -0.0143  0.2455
  291MPD2    H5 4395   1.273   4.718   0.264  0.8485  0.9362  1.8938
  291MPD2    N1 4396   1.335   4.332   0.691 -0.2714 -0.3199 -0.3832
  291MPD2    H7 4397   1.245   4.296   0.663 -1.5148  0.5049  2.5539
  292TMC3    C1 4398   1.316   4.175   0.871 -0.2568 -0.3428  0.3313
  292TMC3    C2 4399   1.303   4.167   1.011  0.3944 -0.0944 -0.5683
  292TMC3    C3 4400   1.244   4.056   1.055  0.2183 -0.3441  0.1434
  292TMC3    C4 4401   1.275   4.078   0.786 -0.1722 -0.2978 -0.6321
  292TMC3    C5 4402   1.217   3.967   0.839  0.4722  0.0642  0.1651
  292TMC3    C6 4403   1.188   3.959   0.972 -0.6546 -0.0043  0.3940
  292TMC3     C 4404   1.389   4.289   0.813 -0.6713 -0.4736 -0.1944
  292TMC3     O 4405   1.468   4.352   0.878 -0.5212 -0.0500 -0.0574
  292TMC3     H 4406   1.340   4.245   1.076 -0.8869 -0.7259  0.9038
  292TMC3    H1 4407   1.287   4.083   0.679  1.2933 -0.7287 -0.4868
  292TMC3    H2 4408   1.157   3.865   1.015 -0.0910 -0.5944 -0.4934
  292TMC3    C7 4409   1.117   3.899   0.747  0.2453  0.6895 -0.4539
  292TMC3    C8 4410   1.196   4.071   1.192 -0.6178 -0.5314 -0.0209
  292TMC3    O1 4411   1.136   3.908   0.628 -0.3648 -0.1593 -0.3826
  292TMC3    O2 4412   1.291   4.097   1.264 -0.0469  0.0249 -0.2824
  293MPD2     C 4413   2.590   1.684  12.447  0.0590 -0.1979 -0.0715
  293MPD2    C1 4414   2.498   1.618  12.532 -0.2774  0.8358 -0.0657
  293MPD2    C2 4415   2.518   1.621  12.677 -0.5122  0.3421 -0.7502
  293MPD2    C3 4416   2.623   1.697  12.730  0.2092 -0.5081 -0.0845
  293MPD2    C4 4417   2.692   1.775  12.635 -0.3691  0.0024 -0.4187
  293MPD2    C5 4418   2.681   1.771  12.499 -0.3578 -0.3649  0.4406
  293MPD2     H 4419   2.465   1.561  12.750  2.9057 -4.0067 -1.7962
  293MPD2    H1 4420   2.771   1.844  12.660  0.3258 -0.2541 -1.8768
  293MPD2    H2 4421   2.581   1.682  12.339 -0.6436  1.3966 -0.0390
  293MPD2    H3 4422   2.742   1.840  12.441 -1.0296 -0.7845 -0.7677
  293MPD2     N 4423   2.668   1.698  12.864  0.6624 -0.4743 -0.4519
  293MPD2    H5 4424   2.613   1.642  12.929  0.4054  0.3299  0.0215
  293MPD2    N1 4425   2.404   1.546  12.461  0.0890 -0.2769 -0.2527
  293MPD2    H7 4426   2.385   1.565  12.363 -2.3713 -2.0859 -0.1312
  294TMC3    C1 4427   2.222   1.403  12.421 -0.2512 -0.0047  0.7446
  294TMC3    C2 4428   2.107   1.348  12.471 -0.3254  0.7326 -0.5384
  294TMC3    C3 4429   2.011   1.292  12.383  0.0989 -0.5658 -0.3822
  294TMC3    C4 4430   2.259   1.386  12.296  0.9794 -0.2460  0.0959
  294TMC3    C5 4431   2.162   1.334  12.216 -0.5777  0.1775 -0.7450
  294TMC3    C6 4432   2.035   1.301  12.248 -0.2553 -0.1263 -0.2998
  294TMC3     C 4433   2.314   1.461  12.520  0.1641  0.1473  0.0392
  294TMC3     O 4434   2.294   1.437  12.641  0.1368 -0.1917  0.7103
  294TMC3     H 4435   2.100   1.346  12.579  0.0044  1.2008 -0.5098
  294TMC3    H1 4436   2.357   1.418  12.261 -0.7245  3.7439 -1.0506
  294TMC3    H2 4437   1.949   1.295  12.181 -1.8447  3.9611  1.3534
  294TMC3    C7 4438   2.203   1.301  12.074  0.2235 -0.0797  0.0857
  294TMC3    C8 4439   1.871   1.261  12.432 -0.1517  0.1243  0.4255
  294TMC3    O1 4440   2.293   1.358  12.017 -0.5097 -0.5612  1.1307
  294TMC3    O2 4441   1.830   1.309  12.536  0.3054 -0.0870  0.2515
  295MPD2     C 4442   3.558   0.283   0.669  0.4652 -0.4176 -0.3597
  295MPD2    C1 4443   3.470   0.284   0.561  0.5805 -0.6459  0.3503
  295MPD2    C2 4444   3.342   0.236   0.584  0.2235 -0.0880  0.3306
  295MPD2    C3 4445   3.293   0.195   0.701 -0.0093 -0.5261 -0.4883
  295MPD2    C4 4446   3.379   0.206   0.809  1.4791  0.5711  0.0677
  295MPD2    C5 4447   3.507   0.249   0.791 -0.3702  0.8796 -0.3620
  295MPD2     H 4448   3.280   0.231   0.495  1.4983  2.6664 -0.6995
  295MPD2    H1 4449   3.343   0.180   0.908  1.6066 -1.1746 -0.3464
  295MPD2    H2 4450   3.662   0.311   0.657  0.4502 -0.9305 -1.6714
  295MPD2    H3 4451   3.575   0.246   0.876 -0.0525  0.2834 -0.6390
  295MPD2     N 4452   3.159   0.165   0.725  0.3251  0.3488 -0.2376
  295MPD2    H5 4453   3.126   0.132   0.815  1.0264  0.8539  0.2014
  295MPD2    N1 4454   3.511   0.316   0.430  0.3161  0.5552 -0.2001
  295MPD2    H7 4455   3.446   0.306   0.353  2.7117 -0.5572 -2.0875
  296TMC3    C1 4456   2.941   0.085   0.693  0.3711 -0.1150 -0.4032
  296TMC3    C2 4457   2.920   0.097   0.825  0.0698  1.0133  0.4473
  296TMC3    C3 4458   2.810   0.039   0.876  0.4125  0.3758 -0.7523
  296TMC3    C4 4459   2.861   0.009   0.610 -0.4381  0.2856 -0.2240
  296TMC3    C5 4460   2.754   4.674   0.664  0.3574 -0.1582  0.7850
  296TMC3    C6 4461   2.729   4.682   0.799  0.5323 -0.4560 -0.7805
  296TMC3     C 4462   3.057   0.152   0.633 -0.2449 -0.1157  0.2644
  296TMC3     O 4463   3.063   0.151   0.512 -0.8954 -0.2312  0.1137
  296TMC3     H 4464   2.980   0.168   0.880  2.3542  1.0278 -2.0698
  296TMC3    H1 4465   2.873   4.718   0.503  0.4921  0.5917 -0.1679
  296TMC3    H2 4466   2.631   4.668   0.844  1.1885  2.5813  1.5548
  296TMC3    C7 4467   2.660   4.603   0.581  0.2429  0.2433  0.2179
  296TMC3    C8 4468   2.770   0.068   1.014  0.4043 -0.2918  0.1783
  296TMC3    O1 4469   2.656   4.619   0.462  0.0826 -0.6033  0.0927
  296TMC3    O2 4470   2.659   0.026   1.046 -0.2909 -0.1983  0.0521
  297MPD2     C 4471   0.252   2.277  16.428 -0.2034 -0.2399 -0.2837
  297MPD2    C1 4472   0.261   2.362  16.320  0.2042  0.0832  0.2515
  297MPD2    C2 4473   0.342   2.473  16.331  0.3293 -0.6088 -0.8681
  297MPD2    C3 4474   0.416   2.500  16.433  0.2022 -0.6837  0.2504
  297MPD2    C4 4475   0.404   2.422  16.543 -0.8446  0.3314  0.9730
  297MPD2    C5 4476   0.315   2.312  16.539 -0.7092  0.0881 -0.4674
  297MPD2     H 4477   0.339   2.546  16.251 -0.8649 -0.0957 -0.3689
  297MPD2    H1 4478   0.462   2.448  16.631  1.2248 -1.8526  0.2735
  297MPD2    H2 4479   0.193   2.186  16.425 -0.5051 -0.0757  0.9521
  297MPD2    H3 4480   0.303   2.255  16.630  0.8354  0.5422  0.0201
  297MPD2     N 4481   0.493   2.616  16.425 -0.1445 -0.3544 -0.0516
  297MPD2    H5 4482   0.500   2.663  16.335  1.2160 -2.4518 -1.0458
  297MPD2    N1 4483   0.185   2.348  16.201 -0.0945 -0.5876 -0.3860
  297MPD2    H7 4484   0.220   2.395  16.118 -1.3517  2.1414  0.6144
  298TMC3    C1 4485   4.714   2.302  16.088 -1.3594 -0.1315 -0.4192
  298TMC3    C2 4486   0.034   2.319  15.961 -0.2530 -0.1683 -0.7038
  298TMC3    C3 4487   4.673   2.383  15.871 -0.3072  0.4883  0.6307
  298TMC3    C4 4488   4.589   2.330  16.120 -0.4599  0.1309  0.0754
  298TMC3    C5 4489   4.503   2.393  16.031  0.1641  0.2441 -0.0068
  298TMC3    C6 4490   4.541   2.420  15.903  0.2209  0.1174  0.6013
  298TMC3     C 4491   0.074   2.262  16.196  0.3835 -0.4678 -0.1089
  298TMC3     O 4492   0.017   2.215  16.290  0.0658 -0.6139 -0.0781
  298TMC3     H 4493   0.135   2.295  15.931 -0.4154  1.5035 -2.6580
  298TMC3    H1 4494   4.551   2.319  16.221  1.0931 -1.6342  0.4580
  298TMC3    H2 4495   4.476   2.478  15.839 -0.6673 -0.2199  1.1942
  298TMC3    C7 4496   4.385   2.461  16.084 -0.6309  0.1459 -0.0018
  298TMC3    C8 4497   4.724   2.412  15.742 -0.8099 -0.1464  0.3704
  298TMC3    O1 4498   4.404   2.504  16.194 -0.1161  0.6666 -0.7101
  298TMC3    O2 4499   4.639   2.398  15.654  0.3727  0.4502 -0.0899
  299MPD2     C 4500   1.226   1.819  10.195  0.4644 -0.2125 -0.2273
  299MPD2    C1 4501   1.172   1.755  10.309  0.1060 -0.9189  0.0767
  299MPD2    C2 4502   1.034   1.736  10.316  0.0468  0.3775 -0.3966
  299MPD2    C3 4503   0.944   1.763  10.211 -0.2320  0.7843 -0.3342
  299MPD2    C4 4504   1.003   1.813  10.099  0.6282 -0.3962  0.6765
  299MPD2    C5 4505   1.137   1.848  10.093  0.4530 -1.0323 -0.0655
  299MPD2     H 4506   0.997   1.690  10.407  0.0211  1.9795  0.3899
  299MPD2    H1 4507   0.943   1.845  10.015  1.4692  0.9895  0.5869
  299MPD2    H2 4508   1.328   1.853  10.207  0.0053  0.5881  1.4992
  299MPD2    H3 4509   1.177   1.903  10.009  0.9513 -1.7444 -0.3022
  299MPD2     N 4510   0.801   1.766  10.217 -0.5399  0.0826  0.0469
  299MPD2    H5 4511   0.758   1.821  10.143  1.3672 -0.9670 -1.8657
  299MPD2    N1 4512   1.261   1.743  10.423  1.2547  0.0172  0.4785
  299MPD2    H7 4513   1.356   1.772  10.401  0.5188  2.1311  0.1205
  300TMC3    C1 4514   0.595   1.777  10.327 -0.2407  0.2208 -0.3090
  300TMC3    C2 4515   0.552   1.886  10.271 -0.0045 -0.0389  0.0355
  300TMC3    C3 4516   0.420   1.918  10.296  0.6502  0.0392 -0.1431
  300TMC3    C4 4517   0.515   1.708  10.418 -0.1910 -0.0153  0.9659
  300TMC3    C5 4518   0.402   1.768  10.470  0.2691  0.9780  0.4086
  300TMC3    C6 4519   0.347   1.872  10.401  0.3980 -0.2362  0.2539
  300TMC3     C 4520   0.730   1.732  10.324  0.5176 -0.3061  0.4108
  300TMC3     O 4521   0.773   1.663  10.414  0.0537  0.2047  0.2095
  300TMC3     H 4522   0.610   1.948  10.204  1.9485 -0.9122  0.9485
  300TMC3    H1 4523   0.559   1.623  10.468 -0.4043 -1.4806 -1.3215
  300TMC3    H2 4524   0.268   1.935  10.441  0.2924  0.5068 -1.1245
  300TMC3    C7 4525   0.319   1.684  10.565 -0.2506  0.3255  0.1066
  300TMC3    C8 4526   0.389   2.052  10.279 -0.2217  0.3470  0.3662
  300TMC3    O1 4527   0.343   1.565  10.558 -0.4958 -0.3956  0.3180
  300TMC3    O2 4528   0.273   2.071  10.238 -0.4971  0.4139  0.3561
  301MPD2     C 4529   2.718   2.692   1.570  0.2032 -0.3805 -0.2915
  301MPD2    C1 4530   2.672   2.700   1.442  0.8892 -0.0253  0.1362
  301MPD2    C2 4531   2.751   2.655   1.335  0.0825 -0.3606  0.0484
  301MPD2    C3 4532   2.875   2.595   1.360 -0.3911 -0.3567 -0.5306
  301MPD2    C4 4533   2.916   2.582   1.487  0.1163  0.1899  0.6450
  301MPD2    C5 4534   2.841   2.626   1.594 -0.1433  0.8934  0.1539
  301MPD2     H 4535   2.708   2.661   1.236 -0.8042  2.4325  0.6015
  301MPD2    H1 4536   3.016   2.544   1.505  0.5942  1.1606  0.0644
  301MPD2    H2 4537   2.665   2.722   1.660  2.4608 -2.7941  1.7961
  301MPD2    H3 4538   2.880   2.616   1.694 -0.4567  0.4860  0.2348
  301MPD2     N 4539   2.965   2.550   1.261  0.4756  0.1766  0.4771
  301MPD2    H5 4540   3.050   2.503   1.292  0.8990  0.7025  0.1062
  301MPD2    N1 4541   2.553   2.767   1.416  0.8424 -0.4519  0.4449
  301MPD2    H7 4542   2.508   2.753   1.326  1.4283 -2.2298  0.4294
  302TMC3    C1 4543   3.056   2.528   1.041  0.6717  0.9550 -0.5772
  302TMC3    C2 4544   3.152   2.440   1.086  0.0935  0.4244  1.0107
  302TMC3    C3 4545   3.229   2.387   0.987 -0.0711  0.8331 -0.1458
  302TMC3    C4 4546   3.029   2.554   0.913  0.5469  0.3648  0.7657
  302TMC3    C5 4547   3.112   2.491   0.814  0.4571  0.9856 -0.2365
  302TMC3    C6 4548   3.211   2.411   0.850  0.4360  0.0270 -0.3497
  302TMC3     C 4549   2.949   2.565   1.126  0.0345 -0.5419  0.2084
  302TMC3     O 4550   2.852   2.611   1.069  0.1074  0.1275 -0.4351
  302TMC3     H 4551   3.144   2.396   1.185  2.4434  1.5307  1.6818
  302TMC3    H1 4552   2.949   2.619   0.881 -0.2845  0.4718  3.0400
  302TMC3    H2 4553   3.265   2.351   0.777 -2.0197 -1.5827 -0.8250
  302TMC3    C7 4554   3.090   2.517   0.670 -1.0096 -0.2907 -0.1137
  302TMC3    C8 4555   3.323   2.278   1.021  0.1368  0.8734 -0.4109
  302TMC3    O1 4556   3.192   2.503   0.600 -0.4282 -0.0069  0.3551
  302TMC3    O2 4557   3.359   2.209   0.928 -0.0008  0.5428  0.3934
  303MPD2     C 4558   3.319   1.098  10.420  0.8762 -0.2659  0.2912
  303MPD2    C1 4559   3.228   1.029  10.349 -0.0315  0.2591 -0.1061
  303MPD2    C2 4560   3.228   1.040  10.208  0.8267  0.1730  0.8896
  303MPD2    C3 4561   3.319   1.117  10.140  0.2752  0.7487  0.4298
  303MPD2    C4 4562   3.416   1.173  10.213 -0.6371  0.5644  0.1838
  303MPD2    C5 4563   3.420   1.167  10.351 -0.0176  0.7681 -0.7844
  303MPD2     H 4564   3.156   0.986  10.148 -0.2370  0.7767  1.6167
  303MPD2    H1 4565   3.490   1.232  10.160 -1.3899  1.3896  0.0557
  303MPD2    H2 4566   3.312   1.086  10.527 -1.1013  0.6760  0.2713
  303MPD2    H3 4567   3.498   1.221  10.403  0.9037 -0.6035 -0.7543
  303MPD2     N 4568   3.315   1.134   9.998  0.0569  0.0759  0.7851
  303MPD2    H5 4569   3.398   1.178   9.958  0.2388  1.2281  2.4472
  303MPD2    N1 4570   3.122   0.963  10.415  0.4286  0.0835 -0.1878
  303MPD2    H7 4571   3.104   0.989  10.511  2.0806 -4.1382  1.2418
  304TMC3    C1 4572   2.962   0.815  10.465 -0.9059 -0.7668 -0.2990
  304TMC3    C2 4573   2.873   0.917  10.503 -0.7172  0.7490  0.1163
  304TMC3    C3 4574   2.759   0.874  10.567 -0.1927 -0.1806 -0.1133
  304TMC3    C4 4575   2.941   0.682  10.478  0.3136 -0.1729 -0.1180
  304TMC3    C5 4576   2.816   0.654  10.515 -0.6831 -0.2352  0.5043
  304TMC3    C6 4577   2.723   0.741  10.560  0.0023 -0.3246  0.8180
  304TMC3     C 4578   3.068   0.851  10.374  0.5401  0.2636 -0.0643
  304TMC3     O 4579   3.114   0.773  10.288 -0.0825 -0.6535  0.3899
  304TMC3     H 4580   2.902   1.021  10.493 -1.1828  1.1298  2.5050
  304TMC3    H1 4581   3.002   0.605  10.433  0.7360 -0.2645  0.6120
  304TMC3    H2 4582   2.624   0.707  10.589  0.3322 -1.9143  0.0878
  304TMC3    C7 4583   2.760   0.536  10.453 -0.1584  0.6349 -0.2081
  304TMC3    C8 4584   2.652   0.967  10.554 -0.4060 -0.4357 -0.1330
  304TMC3    O1 4585   2.834   0.444  10.434 -0.2377 -0.0696  0.5962
  304TMC3    O2 4586   2.582   0.981  10.655  0.0843 -0.3282  0.2725
  305MPD2     C 4587   1.034   3.817  14.062 -0.3875 -0.0623  0.1934
  305MPD2    C1 4588   1.000   3.678  14.083  0.2636  0.0778 -0.4339
  305MPD2    C2 4589   0.970   3.599  13.979  0.2644 -0.0840 -0.5316
  305MPD2    C3 4590   0.984   3.651  13.847  1.6173  0.4842  0.0292
  305MPD2    C4 4591   1.001   3.787  13.827  0.1578 -0.2922  0.4362
  305MPD2    C5 4592   1.026   3.866  13.938  0.5884  0.3380  0.3055
  305MPD2     H 4593   0.958   3.492  13.989  1.4734 -0.1929 -0.2960
  305MPD2    H1 4594   1.008   3.830  13.728  2.8382  1.1499  1.2303
  305MPD2    H2 4595   1.038   3.878  14.151  0.6039  1.1844 -0.7163
  305MPD2    H3 4596   1.044   3.973  13.927  0.4902  0.2155 -1.0691
  305MPD2     N 4597   0.977   3.567  13.727 -0.9148  0.1562 -0.1422
  305MPD2    H5 4598   1.017   3.607  13.642 -0.2347 -0.0019  0.1012
  305MPD2    N1 4599   0.981   3.636  14.215  0.2758  0.8957  0.6583
  305MPD2    H7 4600   1.005   3.702  14.289  1.3851  1.3548 -0.1098
  306TMC3    C1 4601   0.937   3.501  14.394 -0.2448 -0.1729 -0.1073
  306TMC3    C2 4602   1.009   3.386  14.415 -0.4803 -0.5650 -0.6149
  306TMC3    C3 4603   1.069   3.363  14.535  0.1331  0.2997 -0.0231
  306TMC3    C4 4604   0.933   3.602  14.489 -0.6464 -0.2148  0.0711
  306TMC3    C5 4605   0.996   3.583  14.610 -0.3904  0.2153 -0.2524
  306TMC3    C6 4606   1.060   3.462  14.633 -0.1038 -0.0158  1.0018
  306TMC3     C 4607   0.916   3.531  14.257  0.4206 -0.7760 -0.2706
  306TMC3     O 4608   0.853   3.450  14.195 -0.5893  0.0778  0.1049
  306TMC3     H 4609   1.011   3.314  14.334  1.0323 -1.4994  0.2560
  306TMC3    H1 4610   0.860   3.680  14.471  0.8807  0.9110 -1.2536
  306TMC3    H2 4611   1.125   3.436  14.716 -2.3248 -0.5458  2.5578
  306TMC3    C7 4612   0.961   3.655  14.724 -0.3669  0.6222  0.7647
  306TMC3    C8 4613   1.103   3.230  14.592  0.3770  0.9308  0.2836
  306TMC3    O1 4614   0.861   3.725  14.719  0.3394  0.9124 -0.0003
  306TMC3    O2 4615   1.147   3.227  14.708  0.2618  0.6641 -0.2528
  307MPD2     C 4616   3.445   0.706   0.773  0.6167  0.3159 -0.2344
  307MPD2    C1 4617   3.461   0.842   0.790  0.0146  0.4796  0.5953
  307MPD2    C2 4618   3.355   0.912   0.851 -0.4515  0.6959 -0.1731
  307MPD2    C3 4619   3.239   0.850   0.886  0.1000  0.2854 -0.5187
  307MPD2    C4 4620   3.226   0.712   0.868  0.7030 -0.5198  0.0507
  307MPD2    C5 4621   3.329   0.640   0.814 -0.9738  0.5080 -0.6533
  307MPD2     H 4622   3.366   1.019   0.860  2.3077  0.3473  0.8031
  307MPD2    H1 4623   3.133   0.657   0.877  0.9290 -1.0377 -0.7565
  307MPD2    H2 4624   3.521   0.645   0.725  0.5872  1.3838 -1.6442
  307MPD2    H3 4625   3.330   0.533   0.797  0.0240  0.4272 -0.1047
  307MPD2     N 4626   3.139   0.932   0.933  0.1094  0.4853  0.5648
  307MPD2    H5 4627   3.159   1.031   0.923  2.3477 -0.2567 -2.3559
  307MPD2    N1 4628   3.578   0.920   0.765  0.9206  0.0806 -0.4652
  307MPD2    H7 4629   3.587   1.013   0.805 -1.4188  0.5762 -1.0901
  308TMC3    C1 4630   2.769   1.154   0.921 -0.4400  0.5349 -0.1948
  308TMC3    C2 4631   2.844   1.263   0.965  0.2327  0.5996 -0.1184
  308TMC3    C3 4632   2.962   1.242   1.032  0.7102 -0.6098  0.4303
  308TMC3    C4 4633   2.809   1.027   0.937 -0.2084 -0.3155  0.0796
  308TMC3    C5 4634   2.933   1.008   0.996  0.1326 -0.3433 -0.4677
  308TMC3    C6 4635   3.001   1.112   1.058  0.0957 -0.2334  0.0097
  308TMC3     C 4636   2.664   1.172   0.824  0.3877  0.0337 -0.2057
  308TMC3     O 4637   2.559   1.119   0.842  0.6632  0.3652 -0.4628
  308TMC3     H 4638   2.812   1.365   0.948  1.1522  0.5387 -2.2226
  308TMC3    H1 4639   2.768   0.953   0.869  0.8672 -0.1310 -0.7731
  308TMC3    H2 4640   3.091   1.098   1.117  0.3452 -1.9029 -0.7596
  308TMC3    C7 4641   3.010   0.894   0.966 -0.3673  1.0423 -0.0612
  308TMC3    C8 4642   3.056   1.348   1.074 -0.3141 -0.0375  0.0449
  308TMC3    O1 4643   2.949   0.788   0.958 -0.7054  0.3359 -0.3727
  308TMC3    O2 4644   3.117   1.324   1.183 -0.0881  0.4781  0.1685
  309MPD2     C 4645   2.952   2.169  16.934  0.4114  0.9583  0.2932
  309MPD2    C1 4646   2.890   2.144  16.813 -0.5930 -0.1727 -0.3747
  309MPD2    C2 4647   2.758   2.180  16.806 -0.3025 -0.1376 -0.1265
  309MPD2    C3 4648   2.692   2.233  16.915 -0.1436 -0.4222  0.2941
  309MPD2    C4 4649   2.763   2.274  17.024  0.1834 -0.1421  0.3109
  309MPD2    C5 4650   2.898   2.244  17.034 -0.0231 -0.1862 -0.0552
  309MPD2     H 4651   2.703   2.160  16.715 -2.2033  1.0236  0.7631
  309MPD2    H1 4652   2.722   2.311  17.117  2.2135  0.8887  0.7865
  309MPD2    H2 4653   3.055   2.135  16.943  0.1984  0.1804 -0.1915
  309MPD2    H3 4654   2.952   2.270  17.124 -0.1943  1.0624 -0.3087
  309MPD2     N 4655   2.548   2.238  16.921  0.7714 -0.6073  0.2726
  309MPD2    H5 4656   2.518   2.257  17.016 -0.3457  5.1567 -1.2417
  309MPD2    N1 4657   2.953   2.085  16.695 -0.0950 -0.2038  0.3266
  309MPD2    H7 4658   2.892   2.081  16.614 -1.0742 -1.8182  1.1328
  310TMC3    C1 4659   3.116   2.004  16.552 -0.0906  0.0255  0.1241
  310TMC3    C2 4660   3.052   2.061  16.442 -0.2252  0.1251 -0.0125
  310TMC3    C3 4661   3.104   2.023  16.320  0.4242 -0.0123  0.0061
  310TMC3    C4 4662   3.230   1.933  16.539  0.2140  0.5471  0.2017
  310TMC3    C5 4663   3.282   1.919  16.411 -0.6642  0.1823 -0.0879
  310TMC3    C6 4664   3.222   1.957  16.299  0.1425 -0.2445  0.1784
  310TMC3     C 4665   3.084   2.044  16.685 -0.2962  0.2698 -0.4129
  310TMC3     O 4666   3.158   2.019  16.778 -0.6843 -0.1380  0.2457
  310TMC3     H 4667   2.974   2.134  16.458 -2.3371 -1.6366 -2.2230
  310TMC3    H1 4668   3.278   1.902  16.630  0.8555  0.0726 -0.3008
  310TMC3    H2 4669   3.257   1.924  16.202 -0.2914  0.4608 -0.2250
  310TMC3    C7 4670   3.397   1.836  16.404  0.3253 -0.5283 -0.3049
  310TMC3    C8 4671   3.029   2.077  16.200  0.4356 -0.4845 -0.1948
  310TMC3    O1 4672   3.417   1.761  16.503 -0.2192  0.3299 -0.6238
  310TMC3    O2 4673   3.091   2.075  16.093  0.0601 -0.4214 -0.5454
  311MPD2     C 4674   0.141   2.764  12.864 -0.0168  0.1987 -0.3106
  311MPD2    C1 4675   0.153   2.902  12.885  0.2095 -0.2179 -0.0269
  311MPD2    C2 4676   0.039   2.969  12.940 -0.5274 -0.0302  0.0331
  311MPD2    C3 4677   4.647   2.913  12.978 -0.8083  0.5976 -0.5547
  311MPD2    C4 4678   4.642   2.774  12.964 -0.2650  0.4534  0.0408
  311MPD2    C5 4679   0.021   2.712  12.899  0.4137 -0.1885  0.6650
  311MPD2     H 4680   0.060   3.074  12.958 -0.1427 -0.2175  0.6770
  311MPD2    H1 4681   4.556   2.711  12.987  1.6869 -1.7440  1.3363
  311MPD2    H2 4682   0.223   2.709  12.818  0.1443  0.5836 -0.4797
  311MPD2    H3 4683   0.011   2.605  12.886  0.5916 -0.1067 -0.1329
  311MPD2     N 4684   4.531   2.985  13.022  0.1365 -0.3824  0.3129
  311MPD2    H5 4685   4.547   3.073  13.069  0.5686  0.5579 -1.5937
  311MPD2    N1 4686   0.263   2.983  12.851 -0.3984  0.2114 -0.1168
  311MPD2    H7 4687   0.266   3.080  12.881  2.7731  0.1019 -0.0098
  312TMC3    C1 4688   4.293   3.024  13.050 -0.8146 -0.0401 -0.0205
  312TMC3    C2 4689   4.165   2.986  13.002  0.6895  0.6502  0.6280
  312TMC3    C3 4690   4.076   3.080  13.008  0.7269  0.2148  0.2375
  312TMC3    C4 4691   4.322   3.145  13.101  0.0032 -0.2704  0.2423
  312TMC3    C5 4692   4.219   3.238  13.101  0.1860  0.5637 -0.3881
  312TMC3    C6 4693   4.096   3.205  13.058 -0.5226 -0.2166 -0.6064
  312TMC3     C 4694   4.405   2.938  13.009 -0.1503  0.7678 -1.1433
  312TMC3     O 4695   4.367   2.836  12.952  0.5289  0.7017 -0.2094
  312TMC3     H 4696   4.140   2.888  12.965  1.2780  1.0321 -0.7860
  312TMC3    H1 4697   4.422   3.181  13.119 -0.6405  0.8663  1.5449
  312TMC3    H2 4698   4.015   3.277  13.068  0.1622  0.1982  1.8896
  312TMC3    C7 4699   4.228   3.368  13.166 -0.0750 -0.5141  0.2879
  312TMC3    C8 4700   3.943   3.044  12.952  0.5266 -0.2182  0.3275
  312TMC3    O1 4701   4.169   3.452  13.101  0.3993 -0.3297  0.6583
  312TMC3    O2 4702   3.919   2.923  12.941 -0.4222 -0.3464 -0.1074
  313MPD2     C 4703   4.257   1.946  10.650  0.5545  0.3221 -0.2015
  313MPD2    C1 4704   4.334   2.049  10.611  0.1604  0.1780 -0.6095
  313MPD2    C2 4705   4.448   2.020  10.541  0.2321 -0.3138 -0.5498
  313MPD2    C3 4706   4.485   1.888  10.515  0.4747  0.2413  0.4319
  313MPD2    C4 4707   4.410   1.787  10.567 -0.1063 -0.0630  0.3900
  313MPD2    C5 4708   4.292   1.815  10.634  0.0104 -0.0903 -0.2333
  313MPD2     H 4709   4.498   2.106  10.498 -0.0459 -0.8654 -1.9821
  313MPD2    H1 4710   4.432   1.682  10.550 -0.0147  0.4350 -2.4590
  313MPD2    H2 4711   4.163   1.956  10.702  0.8164  1.1621  0.1155
  313MPD2    H3 4712   4.233   1.733  10.673 -2.2688  0.8092 -1.8269
  313MPD2     N 4713   4.601   1.856  10.441  0.1136  0.0015 -0.1020
  313MPD2    H5 4714   4.678   1.920  10.426  1.9130 -1.3345  3.3156
  313MPD2    N1 4715   4.308   2.185  10.629 -0.1381  0.2977  0.4910
  313MPD2    H7 4716   4.373   2.254  10.591  0.5760 -2.3908 -3.1749
  314TMC3    C1 4717   4.223   2.387  10.703 -0.5458 -1.1428  1.0470
  314TMC3    C2 4718   4.213   2.451  10.823  0.3585  0.1034  1.0171
  314TMC3    C3 4719   4.216   2.587  10.817 -0.2303 -0.4536 -0.1811
  314TMC3    C4 4720   4.237   2.446  10.582 -0.5019  0.0848 -0.7094
  314TMC3    C5 4721   4.223   2.581  10.583 -0.1444 -0.1769 -0.0364
  314TMC3    C6 4722   4.206   2.652  10.694 -0.0828  0.0161 -0.2611
  314TMC3     C 4723   4.213   2.244  10.710 -0.7232 -0.6367  0.1998
  314TMC3     O 4724   4.118   2.202  10.777 -0.0643 -0.2314  0.3134
  314TMC3     H 4725   4.222   2.397  10.916 -0.6496 -2.8223 -0.5939
  314TMC3    H1 4726   4.227   2.381  10.495 -1.9226 -0.9889  0.2568
  314TMC3    H2 4727   4.194   2.760  10.694  0.0482  0.0157 -2.0876
  314TMC3    C7 4728   4.239   2.662  10.457  0.2836  0.0219 -0.4448
  314TMC3    C8 4729   4.259   2.664  10.935  0.5428 -0.8024 -0.0455
  314TMC3    O1 4730   4.179   2.773  10.446  0.3831  0.2458 -0.3645
  314TMC3    O2 4731   4.302   2.777  10.913  0.7040  0.4202 -0.0413
  315MPD2     C 4732   4.099   1.958  17.472  0.0787 -0.3032 -0.4166
  315MPD2    C1 4733   4.209   1.972  17.558 -0.1272 -0.1466 -0.7352
  315MPD2    C2 4734   4.298   2.073  17.536 -0.3888 -0.3769  0.2323
  315MPD2    C3 4735   4.273   2.174  17.449 -0.6395  0.0089 -0.8416
  315MPD2    C4 4736   4.174   2.156  17.357 -0.0866 -0.5788 -0.3594
  315MPD2    C5 4737   4.093   2.044  17.373  0.1587  0.2129  0.4341
  315MPD2     H 4738   4.382   2.075  17.603  0.3841  1.0582 -0.7636
  315MPD2    H1 4739   4.153   2.212  17.267  2.7538  2.9658  1.1891
  315MPD2    H2 4740   4.020   1.884  17.466 -2.9528  2.9195 -0.5884
  315MPD2    H3 4741   4.020   2.030  17.294  2.2128  0.7672 -1.5776
  315MPD2     N 4742   4.362   2.289  17.444 -0.0599 -0.6675 -0.3663
  315MPD2    H5 4743   4.439   2.288  17.511  1.2556  0.8450 -1.8609
  315MPD2    N1 4744   4.233   1.881  17.667  0.3810 -0.1148 -0.1477
  315MPD2    H7 4745   4.307   1.901   0.032 -0.3335 -0.1954  0.6726
  316TMC3    C1 4746   4.455   2.499  17.378 -0.0403 -0.4327  0.7762
  316TMC3    C2 4747   4.528   2.497  17.495  0.7817  0.4453 -0.4258
  316TMC3    C3 4748   4.609   2.610  17.513 -0.5187 -0.7328  0.2853
  316TMC3    C4 4749   4.462   2.592  17.282  0.2039 -0.3188 -0.1326
  316TMC3    C5 4750   4.541   2.707  17.306 -0.3409 -0.4501 -0.9693
  316TMC3    C6 4751   4.611   2.718  17.423 -0.6053  0.3664 -0.4256
  316TMC3     C 4752   4.344   2.404  17.371  0.3742 -0.3602 -0.4472
  316TMC3     O 4753   4.250   2.429  17.299 -0.6149 -0.0385  0.0981
  316TMC3     H 4754   4.505   2.435  17.581  1.0662  1.7620  0.6034
  316TMC3    H1 4755   4.392   2.581  17.199 -1.3964 -0.3130  1.2256
  316TMC3    H2 4756   4.661   2.813  17.437  2.8179 -1.5974  0.5899
  316TMC3    C7 4757   4.522   2.825  17.213 -0.7553  1.0071  0.1360
  316TMC3    C8 4758   4.668   2.637  17.645  0.8658  0.4379 -0.5420
  316TMC3    O1 4759   4.597   2.921  17.239  0.3045  0.6114  0.4196
  316TMC3    O2 4760   4.707   2.750  17.671 -0.1061  0.4049  0.1626
  317MPD2     C 4761   0.724   0.773  12.971 -0.7528 -0.0553 -0.7497
  317MPD2    C1 4762   0.693   0.674  12.872  1.0333  0.1268  0.7079
  317MPD2    C2 4763   0.768   0.559  12.863  0.6010  0.5459 -0.1885
  317MPD2    C3 4764   0.858   0.521  12.958 -0.1912  0.0390  0.0974
  317MPD2    C4 4765   0.888   0.613  13.061 -0.0524 -0.3479  0.0031
  317MPD2    C5 4766   0.824   0.734  13.065  0.4210  0.4865  0.2487
  317MPD2     H 4767   0.747   0.490  12.782  0.2364  1.5050 -0.9147
  317MPD2    H1 4768   0.959   0.587  13.139 -0.1369  1.3637  0.6408
  317MPD2    H2 4769   0.677   0.869  12.992 -1.4280 -0.6864  0.6567
  317MPD2    H3 4770   0.842   0.804  13.145 -1.5001  0.0192  1.0889
  317MPD2     N 4771   0.915   0.388  12.945  0.1961 -0.3000  0.5238
  317MPD2    H5 4772   0.867   0.328  12.879 -1.3681  2.8637 -1.2413
  317MPD2    N1 4773   0.606   0.698  12.766  0.0918  0.4946  0.3206
  317MPD2    H7 4774   0.612   0.636  12.686 -0.8157 -2.2792  2.3768
  318TMC3    C1 4775   1.082   0.230  12.941  1.2076 -0.0941  0.4638
  318TMC3    C2 4776   1.020   0.126  13.010 -0.6070 -0.4451  0.4576
  318TMC3    C3 4777   1.101   0.024  13.057  0.0559  0.9957  0.0609
  318TMC3    C4 4778   1.220   0.233  12.929 -0.4667 -0.3448 -0.2144
  318TMC3    C5 4779   1.296   0.132  12.983 -1.0547  0.4657 -0.5771
  318TMC3    C6 4780   1.238   0.026  13.053  0.7553 -0.1565 -0.6283
  318TMC3     C 4781   1.034   0.355  12.995 -0.0690 -0.1281  0.8469
  318TMC3     O 4782   1.117   0.420  13.059  0.1532 -0.4121  0.2765
  318TMC3     H 4783   0.915   0.127  13.037 -0.9120  2.7832 -0.8409
  318TMC3    H1 4784   1.271   0.316  12.882 -1.0954  0.7142  0.9667
  318TMC3    H2 4785   1.292   4.666  13.095  1.0307  0.4197  0.1831
  318TMC3    C7 4786   1.443   0.151  12.983  1.3357  0.1033 -0.6616
  318TMC3    C8 4787   1.032   4.639  13.116  0.6901  0.4751  0.1182
  318TMC3    O1 4788   1.489   0.225  12.897  0.2303  0.5674 -0.4179
  318TMC3    O2 4789   1.081   4.586  13.217 -0.5012  0.1702 -0.0317
  319MPD2     C 4790   2.650   1.500  16.351 -0.0547  0.2940  0.1361
  319MPD2    C1 4791   2.548   1.567  16.419 -0.1427  0.7508  0.5895
  319MPD2    C2 4792   2.430   1.592  16.344  0.5056 -0.6376 -0.2518
  319MPD2    C3 4793   2.430   1.575  16.208 -0.0648  0.6163 -0.8677
  319MPD2    C4 4794   2.543   1.526  16.146  0.2198 -0.2609  0.7426
  319MPD2    C5 4795   2.654   1.485  16.215 -0.9291 -0.6652  0.4369
  319MPD2     H 4796   2.347   1.635  16.397  2.1258  3.9186 -1.3835
  319MPD2    H1 4797   2.551   1.523  16.038 -1.5552 -0.7249  0.6304
  319MPD2    H2 4798   2.734   1.474  16.415 -1.2191 -1.0134  1.1408
  319MPD2    H3 4799   2.744   1.442  16.173 -1.5932 -2.0480  0.4355
  319MPD2     N 4800   2.316   1.590  16.130  0.8266  0.1992 -0.1805
  319MPD2    H5 4801   2.314   1.568  16.030  1.3842 -1.9316  0.2666
  319MPD2    N1 4802   2.545   1.594  16.557  0.1996  0.7971  1.0472
  319MPD2    H7 4803   2.456   1.621  16.598 -0.0982 -1.9690  2.1612
  320TMC3    C1 4804   2.087   1.643  16.076  0.7542 -0.4953 -0.1267
  320TMC3    C2 4805   1.997   1.749  16.071  0.7715 -0.6251 -0.1614
  320TMC3    C3 4806   1.868   1.715  16.026  0.3334 -0.0117  0.4307
  320TMC3    C4 4807   2.050   1.512  16.051  0.1021 -0.4291 -0.4916
  320TMC3    C5 4808   1.922   1.482  16.016  0.0702  0.1433  0.1224
  320TMC3    C6 4809   1.830   1.585  16.007  0.1875 -0.0733 -0.2182
  320TMC3     C 4810   2.206   1.659  16.165 -0.8512  0.3549 -0.2929
  320TMC3     O 4811   2.188   1.736  16.258 -0.0445  0.1363 -0.1030
  320TMC3     H 4812   2.026   1.852  16.087 -1.6881 -0.0501  0.5066
  320TMC3    H1 4813   2.111   1.427  16.081 -0.7241 -0.4895  1.0080
  320TMC3    H2 4814   1.735   1.556  15.962 -0.4670  1.0614  0.4319
  320TMC3    C7 4815   1.883   1.338  16.026  0.3251 -0.1931  0.1043
  320TMC3    C8 4816   1.795   1.826  15.972  0.2085  0.1228 -0.1862
  320TMC3    O1 4817   1.961   1.269  15.966  0.1114  0.4114  0.0907
  320TMC3    O2 4818   1.833   1.935  16.009  0.2199  0.1984  0.1351
  321TMC3    C1 4819   2.612   1.696  16.759 -0.2728  0.0132 -0.1377
  321TMC3    C2 4820   2.525   1.619  16.826  0.4530 -0.0567  0.2915
  321TMC3    C3 4821   2.511   1.648  16.961  0.0007  0.1455  0.5749
  321TMC3    C4 4822   2.683   1.796  16.811  0.0790  0.0594  0.8227
  321TMC3    C5 4823   2.667   1.816  16.948  0.0630 -0.3208 -0.6590
  321TMC3    C6 4824   2.581   1.743  17.022  0.4570  0.3776 -0.3524
  321TMC3     C 4825   2.657   1.632  16.631  0.1659  0.3568 -0.8215
  321TMC3     O 4826   2.772   1.633  16.593  0.1041 -0.5898 -0.0786
  321TMC3     H 4827   2.472   1.537  16.778  1.3779 -1.3740  1.4918
  321TMC3    H1 4828   2.749   1.858  16.751 -0.4043 -1.1994 -1.0036
  321TMC3    H2 4829   2.574   1.771  17.126  5.4988  2.4279 -0.5820
  321TMC3    C7 4830   2.795   1.821  17.015  0.1731 -0.2385  0.4276
  321TMC3    C8 4831   2.499   1.539  17.052  0.2267 -0.3028 -0.1024
  321TMC3    O1 4832   2.886   1.773  16.945 -0.4756 -0.5288  0.7065
  321TMC3    O2 4833   2.402   1.464  17.047  0.2747 -0.3875 -0.2463
  322MPD2     C 4834   1.034   2.536  13.788  0.3208  0.6441 -0.2080
  322MPD2    C1 4835   1.084   2.450  13.887 -0.2382 -0.9899  0.1147
  322MPD2    C2 4836   1.127   2.324  13.853  0.2798 -0.0216  0.1621
  322MPD2    C3 4837   1.123   2.279  13.719 -0.2953 -0.4293 -1.6080
  322MPD2    C4 4838   1.088   2.375  13.620  0.4304  0.6372 -0.0668
  322MPD2    C5 4839   1.042   2.499  13.656 -0.3243  0.8905  0.4966
  322MPD2     H 4840   1.159   2.250  13.925 -1.2060  0.2173  1.0609
  322MPD2    H1 4841   1.093   2.353  13.514 -0.2037  1.1742 -0.2097
  322MPD2    H2 4842   1.002   2.635  13.821  1.2413  1.7643 -2.6721
  322MPD2    H3 4843   1.012   2.576  13.586  0.5516 -0.0782 -0.9269
  322MPD2     N 4844   1.189   2.152  13.698 -0.3720 -0.0885 -0.1592
  322MPD2    H5 4845   1.210   2.090  13.775  0.3410  0.0305 -0.2553
  322MPD2    N1 4846   1.091   2.500  14.019  0.1104 -0.3308 -0.2344
  322MPD2    H7 4847   1.064   2.597  14.025 -2.4217 -0.9378 -1.3606
  323TMC3    C1 4848   1.148   2.519  14.249  0.5753  0.2010 -1.2945
  323TMC3    C2 4849   1.160   2.656  14.230 -0.2846 -0.0657  0.5307
  323TMC3    C3 4850   1.234   2.724  14.320  0.3643 -0.0172  0.0335
  323TMC3    C4 4851   1.196   2.457  14.357 -0.1994 -0.1752  0.1250
  323TMC3    C5 4852   1.274   2.528  14.447 -0.4496 -0.1618  0.1426
  323TMC3    C6 4853   1.294   2.663  14.431 -0.3389 -0.0721  0.1837
  323TMC3     C 4854   1.126   2.428  14.127  0.2137  0.4184  0.4636
  323TMC3     O 4855   1.140   2.310  14.136 -0.8005  0.2372  0.5174
  323TMC3     H 4856   1.132   2.702  14.136 -0.2061 -1.0960 -0.0011
  323TMC3    H1 4857   1.175   2.351  14.360 -1.9883  0.1319 -1.3751
  323TMC3    H2 4858   1.344   2.727  14.503  2.2291  1.1980 -2.7404
  323TMC3    C7 4859   1.378   2.445  14.514 -0.8497 -0.2166  0.3140
  323TMC3    C8 4860   1.271   2.861  14.299 -0.2356  1.0672 -0.2613
  323TMC3    O1 4861   1.368   2.322  14.518  0.4780  0.0893  0.1248
  323TMC3    O2 4862   1.377   2.904  14.338 -0.1903  0.2243 -0.4697
  324MPD2     C 4863   2.531   3.239  14.618  0.5932 -0.0677 -0.9846
  324MPD2    C1 4864   2.601   3.339  14.550 -0.1082  0.1662  0.0226
  324MPD2    C2 4865   2.535   3.405  14.450  0.1514 -0.8866  0.0393
  324MPD2    C3 4866   2.398   3.389  14.433 -0.6875 -0.0705  0.5383
  324MPD2    C4 4867   2.325   3.305  14.511 -0.3044  0.6454  0.1842
  324MPD2    C5 4868   2.393   3.229  14.601  0.2535  0.5128 -0.2557
  324MPD2     H 4869   2.579   3.484  14.390 -1.5549  0.7344  0.8810
  324MPD2    H1 4870   2.217   3.300  14.501  0.0583 -1.8834 -2.4383
  324MPD2    H2 4871   2.582   3.168  14.682  1.1449 -0.0102 -1.3676
  324MPD2    H3 4872   2.346   3.156  14.667 -0.3283 -0.4951 -1.7816
  324MPD2     N 4873   2.324   3.459  14.339 -0.5854  0.8068 -0.3483
  324MPD2    H5 4874   2.235   3.421  14.309 -1.3970  2.2165  0.2964
  324MPD2    N1 4875   2.745   3.354  14.545  0.2628  0.2468  0.6571
  324MPD2    H7 4876   2.778   3.411  14.468 -1.4648 -1.3038 -1.2374
  325TMC3    C1 4877   2.257   3.633  14.202 -0.6655 -0.6194  0.2454
  325TMC3    C2 4878   2.139   3.563  14.185 -0.1790 -0.5874  0.1667
  325TMC3    C3 4879   2.022   3.633  14.181  0.7265 -0.0043  0.7929
  325TMC3    C4 4880   2.261   3.761  14.231  0.4029 -0.3899  0.7122
  325TMC3    C5 4881   2.146   3.836  14.247  0.0477 -0.0184 -0.0291
  325TMC3    C6 4882   2.028   3.770  14.210 -0.5655 -0.5247 -0.4295
  325TMC3     C 4883   2.374   3.562  14.256  0.3452  0.1057 -0.2797
  325TMC3     O 4884   2.485   3.618  14.252  1.1904  0.3834  0.3590
  325TMC3     H 4885   2.131   3.462  14.146  2.3930 -0.6887 -0.0492
  325TMC3    H1 4886   2.358   3.797  14.262  1.3914 -2.1539 -0.3347
  325TMC3    H2 4887   1.941   3.833  14.197 -0.2301  0.6836  2.9732
  325TMC3    C7 4888   2.145   3.949  14.344  0.3780  0.4160 -0.0776
  325TMC3    C8 4889   1.907   3.563  14.114  0.1840 -0.2002 -0.1388
  325TMC3    O1 4890   2.247   3.972  14.408  0.0749  0.1966  0.0138
  325TMC3    O2 4891   1.932   3.475  14.031 -0.3292  0.2475 -0.0952
  326MPD2     C 4892   3.619   4.680  11.249 -0.7382 -0.2135 -0.1656
  326MPD2    C1 4893   3.649   4.643  11.125 -0.8720  0.7812 -0.3075
  326MPD2    C2 4894   3.762   4.702  11.064 -0.1163 -0.5133 -0.5633
  326MPD2    C3 4895   3.855   0.050  11.140 -0.3944 -0.0878  0.6359
  326MPD2    C4 4896   3.825   0.076  11.269  0.3570  0.4435 -0.0026
  326MPD2    C5 4897   3.706   0.030  11.318  0.2392 -0.5531  0.1869
  326MPD2     H 4898   3.791   4.676  10.962  1.4255  1.6878 -0.6721
  326MPD2    H1 4899   3.899   0.136  11.320 -1.3630  1.1175  1.7296
  326MPD2    H2 4900   3.528   4.650  11.299 -0.9938 -0.3576 -0.7165
  326MPD2    H3 4901   3.691   0.066  11.420 -1.2219  0.7821 -0.5095
  326MPD2     N 4902   3.974   0.106  11.086  0.3031  0.3618 -0.3655
  326MPD2    H5 4903   4.033   0.159  11.149 -2.0076  1.5372  0.8022
  326MPD2    N1 4904   3.569   4.569  11.043 -0.3711  0.4988  0.0187
  326MPD2    H7 4905   3.586   4.564  10.943  0.5597 -2.8652  0.3193
  327TMC3    C1 4906   3.406   4.415  10.982 -0.5168  0.1072  0.1532
  327TMC3    C2 4907   3.333   4.506  10.914 -0.2195 -0.1887 -0.5234
  327TMC3    C3 4908   3.314   4.483  10.781 -0.1972  0.0407  0.1043
  327TMC3    C4 4909   3.462   4.306  10.925 -0.1333 -0.4008 -0.5862
  327TMC3    C5 4910   3.442   4.283  10.791  0.2486  0.2114  0.0866
  327TMC3    C6 4911   3.367   4.373  10.721 -0.7059 -0.3398  0.2136
  327TMC3     C 4912   3.479   4.477  11.092  0.1899  0.5737  0.6172
  327TMC3     O 4913   3.454   4.442  11.203 -0.4763  0.3194  0.1067
  327TMC3     H 4914   3.293   4.596  10.960 -0.9580 -1.2807  0.9966
  327TMC3    H1 4915   3.520   4.236  10.984 -2.1100 -1.3360  0.2813
  327TMC3    H2 4916   3.360   4.363  10.613 -0.7785  0.5456  0.1388
  327TMC3    C7 4917   3.559   4.252  10.717 -0.3112 -0.1700 -0.4250
  327TMC3    C8 4918   3.315   4.597  10.699  0.8119 -0.4036 -0.2756
  327TMC3    O1 4919   3.550   4.244  10.594  0.4673 -0.0163  0.1327
  327TMC3    O2 4920   3.411   4.616  10.633 -0.2522 -0.3916  0.2267
  328MPD2     C 4921   1.860   4.520  16.955 -0.4869 -0.2171  0.6993
  328MPD2    C1 4922   1.725   4.512  16.931  0.9683  0.3280 -1.0241
  328MPD2    C2 4923   1.656   4.631  16.916 -0.1790  0.5906 -0.3295
  328MPD2    C3 4924   1.724   0.024  16.919  0.1142  0.0620 -0.2229
  328MPD2    C4 4925   1.862   0.022  16.932  0.3064 -0.2018 -0.3081
  328MPD2    C5 4926   1.931   4.634  16.949  0.1871  0.0984 -0.4963
  328MPD2     H 4927   1.548   4.637  16.909 -0.4389 -0.9261  2.2449
  328MPD2    H1 4928   1.913   0.109  16.970  0.0986  0.1677 -0.8805
  328MPD2    H2 4929   1.914   4.428  16.978 -2.2861 -1.4980 -0.2358
  328MPD2    H3 4930   2.036   4.643  16.976 -0.0325  2.5762 -0.4630
  328MPD2     N 4931   1.665   0.151  16.900 -0.6636 -0.5005  0.0268
  328MPD2    H5 4932   1.716   0.235  16.927 -2.3831  0.3777  0.5405
  328MPD2    N1 4933   1.652   4.391  16.936  0.3519  0.2807 -0.2425
  328MPD2    H7 4934   1.711   4.309  16.949  0.7267  0.3976 -1.1807
  329TMC3    C1 4935   1.474   4.246  16.943 -0.6534 -0.2193  0.1699
  329TMC3    C2 4936   1.338   4.254  16.957 -0.1509 -0.4102  0.0275
  329TMC3    C3 4937   1.289   4.182  17.056 -0.1882 -0.3352 -0.2397
  329TMC3    C4 4938   1.549   4.161  17.018 -0.4233  0.3556 -0.4377
  329TMC3    C5 4939   1.497   4.102  17.133 -0.7371  0.3807  0.5119
  329TMC3    C6 4940   1.363   4.121  17.156 -0.0883  0.0816  0.3119
  329TMC3     C 4941   1.523   4.372  16.899 -0.6250  0.5003 -0.1003
  329TMC3     O 4942   1.445   4.446  16.839  0.8218  0.4339  0.2557
  329TMC3     H 4943   1.271   4.292  16.881 -2.1685  0.0134  2.0183
  329TMC3    H1 4944   1.657   4.164  17.013 -0.3781 -1.2269 -0.3540
  329TMC3    H2 4945   1.312   4.072  17.239 -0.4898 -0.3619 -0.1922
  329TMC3    C7 4946   1.577   4.012  17.212 -0.1736 -0.2674  0.1620
  329TMC3    C8 4947   1.160   4.238  17.087 -0.1115  0.1027 -0.1939
  329TMC3    O1 4948   1.684   3.977  17.173 -0.6143  0.2220  0.1162
  329TMC3    O2 4949   1.078   4.229  16.996 -0.0568 -0.4793 -0.0566
  330TMC3    C1 4950   4.621   3.684   9.540  0.2951  0.0786  0.4316
  330TMC3    C2 4951   4.628   3.671   9.402  0.2606  0.2447 -0.0934
  330TMC3    C3 4952   4.608   3.534   9.358 -0.4423 -0.0140 -0.1019
  330TMC3    C4 4953   4.598   3.585   9.630  0.4025 -0.0601 -0.0592
  330TMC3    C5 4954   4.581   3.461   9.575 -0.3302  0.1292 -0.4948
  330TMC3    C6 4955   4.579   3.432   9.443 -0.7095  0.0244  0.3238
  330TMC3     C 4956   4.617   3.815   9.594 -0.1467  0.2788  0.5731
  330TMC3     O 4957   4.645   3.823   9.715  0.1959 -0.0421 -0.3816
  330TMC3     H 4958   4.630   3.754   9.332 -1.9832 -0.0329 -0.4806
  330TMC3    H1 4959   4.597   3.591   9.738  2.1674 -0.5049 -0.0204
  330TMC3    H2 4960   4.583   3.329   9.410  0.1038 -0.6069  2.3682
  330TMC3    C7 4961   4.568   3.343   9.662 -1.2118  0.3360 -0.3538
  330TMC3    C8 4962   4.642   3.505   9.217  0.1239 -0.2379 -0.6682
  330TMC3    O1 4963   4.521   3.241   9.608  0.1064 -0.0389 -0.3218
  330TMC3    O2 4964   4.648   3.599   9.139 -0.0092 -0.4933 -0.1231
  331MPD2     C 4965   1.639   3.224  12.614  0.1812  0.4804 -0.0548
  331MPD2    C1 4966   1.742   3.261  12.530  0.4667  0.4797 -0.5935
  331MPD2    C2 4967   1.829   3.170  12.484 -0.0211 -0.4657  0.5047
  331MPD2    C3 4968   1.822   3.041  12.514 -0.4629 -0.4126 -0.5585
  331MPD2    C4 4969   1.720   3.000  12.595  0.8644  1.0037  0.2929
  331MPD2    C5 4970   1.630   3.091  12.644  0.0069 -0.1758  0.4455
  331MPD2     H 4971   1.899   3.207  12.410 -0.8849  1.4752  0.6732
  331MPD2    H1 4972   1.710   2.897  12.626  0.4275  1.1476  0.6345
  331MPD2    H2 4973   1.568   3.287  12.668 -1.5823  0.0690 -1.8876
  331MPD2    H3 4974   1.553   3.048  12.709  1.4037 -0.0993  2.1479
  331MPD2     N 4975   1.923   2.954  12.466  1.5137 -0.0273  0.8261
  331MPD2    H5 4976   1.997   3.003  12.417 -1.7384  3.5763 -0.4291
  331MPD2    N1 4977   1.767   3.393  12.493 -0.3914  0.2839  0.6412
  331MPD2    H7 4978   1.843   3.410  12.428 -0.9958  1.2019  0.1717
  332TMC3    C1 4979   2.063   2.772  12.430 -0.1970  0.0050  0.2033
  332TMC3    C2 4980   2.124   2.843  12.329  0.6631 -0.2043 -0.1603
  332TMC3    C3 4981   2.251   2.800  12.296 -0.1630  0.0078  0.4476
  332TMC3    C4 4982   2.126   2.665  12.494 -0.4024 -0.2543  0.0300
  332TMC3    C5 4983   2.261   2.643  12.466  1.2060 -0.1539  0.5721
  332TMC3    C6 4984   2.324   2.709  12.367  0.5752 -0.4849 -0.2469
  332TMC3     C 4985   1.934   2.818  12.488 -0.1656  0.5569  0.1461
  332TMC3     O 4986   1.870   2.743  12.563 -0.1620  0.3071  0.0510
  332TMC3     H 4987   2.067   2.919  12.276  2.2435  1.5524  0.6410
  332TMC3    H1 4988   2.076   2.599  12.564 -1.2097  0.5694  0.2205
  332TMC3    H2 4989   2.426   2.683  12.341  0.9259  1.4353 -0.8334
  332TMC3    C7 4990   2.330   2.548  12.547  0.7939 -0.1475 -0.0819
  332TMC3    C8 4991   2.332   2.877  12.199  0.0323  0.4774  0.3633
  332TMC3    O1 4992   2.255   2.468  12.605  0.0645 -0.3105  0.5283
  332TMC3    O2 4993   2.455   2.881  12.209  0.5743  0.4462 -0.5083
  333MPD2     C 4994   2.567   3.015  11.376  0.3905 -0.3585 -0.1643
  333MPD2    C1 4995   2.608   2.919  11.287  0.5569  0.0679  0.2217
  333MPD2    C2 4996   2.582   2.785  11.312  0.4483 -0.2276  0.2028
  333MPD2    C3 4997   2.508   2.742  11.418 -0.1185  0.5854 -0.4376
  333MPD2    C4 4998   2.463   2.839  11.504 -0.4229 -0.5227  0.1506
  333MPD2    C5 4999   2.495   2.972  11.483 -0.1186 -0.4663 -0.5429
  333MPD2     H 5000   2.621   2.710  11.243  0.7403  1.3562 -1.3447
  333MPD2    H1 5001   2.404   2.820  11.594 -1.0487 -2.1769 -0.6088
  333MPD2    H2 5002   2.597   3.119  11.367  1.5271 -0.5272  1.7567
  333MPD2    H3 5003   2.467   3.040  11.562  2.5020  0.9169 -0.8260
  333MPD2     N 5004   2.484   2.606  11.436 -0.1851 -0.2186 -0.3709
  333MPD2    H5 5005   2.517   2.544  11.363 -2.2335 -0.0767 -1.4270
  333MPD2    N1 5006   2.686   2.968  11.178 -0.0862 -0.0747 -0.1076
  333MPD2    H7 5007   2.706   3.068  11.176 -1.0710  0.1535  1.5282
  334TMC3    C1 5008   2.818   2.970  10.984 -0.6506 -0.0875 -0.1854
  334TMC3    C2 5009   2.876   2.897  10.882 -0.6016 -0.1031 -0.8743
  334TMC3    C3 5010   2.942   2.968  10.777  0.5520  1.0527 -0.0107
  334TMC3    C4 5011   2.839   3.106  10.994 -0.3568 -0.1923  0.4137
  334TMC3    C5 5012   2.913   3.171  10.895 -0.1044 -0.4206  0.3418
  334TMC3    C6 5013   2.962   3.105  10.787  0.0931 -0.2719  0.3931
  334TMC3     C 5014   2.740   2.894  11.073 -0.3487  0.1906 -0.0107
  334TMC3     O 5015   2.735   2.772  11.060 -0.0497 -0.1575 -0.1963
  334TMC3     H 5016   2.852   2.793  10.863 -0.8838  0.1105 -1.7171
  334TMC3    H1 5017   2.795   3.168  11.071  0.7366  1.2419 -0.1282
  334TMC3    H2 5018   2.996   3.155  10.697  2.8764 -0.2595  1.4534
  334TMC3    C7 5019   2.930   3.321  10.905  0.4736  0.1015  0.3602
  334TMC3    C8 5020   3.026   2.891  10.689  0.5790  0.4295  0.2173
  334TMC3    O1 5021   2.918   3.374  11.015 -0.4695  0.1020  0.1110
  334TMC3    O2 5022   2.993   2.776  10.678 -0.0227  0.1064  0.1188
  335TMC3    C1 5023   2.593   0.190   0.125 -0.3404  1.0082 -0.7802
  335TMC3    C2 5024   2.493   0.162   0.036  0.1788 -0.4062 -0.4331
  335TMC3    C3 5025   2.522   0.181  17.604 -0.1870  0.2922 -0.1358
  335TMC3    C4 5026   2.724   0.206   0.089  0.0942  0.0830  0.0986
  335TMC3    C5 5027   2.745   0.211  17.657  0.5391  0.6724 -0.0496
  335TMC3    C6 5028   2.648   0.194  17.557 -0.4410  0.5500 -0.3092
  335TMC3     C 5029   2.564   0.152   0.261 -0.5141  0.3388 -0.3273
  335TMC3     O 5030   2.476   0.073   0.284 -0.1088 -0.7137 -0.3122
  335TMC3     H 5031   2.391   0.139   0.062  0.3892  2.4081  2.7692
  335TMC3    H1 5032   2.806   0.188   0.158 -0.1079  1.9000  0.8124
  335TMC3    H2 5033   2.675   0.203  17.452  1.3885  0.2701  0.1329
  335TMC3    C7 5034   2.880   0.240  17.614  0.0984 -0.1641 -0.7001
  335TMC3    C8 5035   2.432   0.141  17.502  0.1314 -0.5781  0.6062
  335TMC3    O1 5036   2.889   0.231  17.492 -0.1406 -0.2422 -0.1854
  335TMC3    O2 5037   2.423   0.208  17.399  0.4728  0.1665  0.2213
  336MPD2     C 5038   2.221   2.518  15.660 -0.4840  1.1021 -0.5650
  336MPD2    C1 5039   2.177   2.552  15.791  0.3166 -0.9197 -0.6882
  336MPD2    C2 5040   2.205   2.466  15.898  0.7351  0.5449  0.1863
  336MPD2    C3 5041   2.271   2.349  15.888  0.0602 -0.5428 -0.7078
  336MPD2    C4 5042   2.319   2.323  15.759  0.4273 -0.1029  1.2309
  336MPD2    C5 5043   2.285   2.404  15.647 -0.4105  0.5191  0.0388
  336MPD2     H 5044   2.177   2.498  15.998 -1.0321  2.5292 -0.9430
  336MPD2    H1 5045   2.385   2.241  15.733  1.1511  1.0688 -0.6689
  336MPD2    H2 5046   2.191   2.577  15.574 -0.8468 -1.5824 -2.2738
  336MPD2    H3 5047   2.326   2.365  15.555 -0.3646 -0.3373  0.4181
  336MPD2     N 5048   2.317   2.265  15.986  0.2006 -0.1285 -0.0025
  336MPD2    H5 5049   2.366   2.182  15.953 -1.6214 -0.9914 -0.5874
  336MPD2    N1 5050   2.104   2.677  15.810  0.0300 -0.0033  0.2487
  336MPD2    H7 5051   2.081   2.702  15.905 -1.1055 -3.8824  1.0055
  337TMC3    C1 5052   1.957   2.860  15.748 -0.2383  0.0169 -0.1481
  337TMC3    C2 5053   1.833   2.882  15.687  0.3534 -0.0803 -0.7750
  337TMC3    C3 5054   1.764   2.997  15.730  0.4077 -0.2359 -0.2479
  337TMC3    C4 5055   2.006   2.944  15.841 -0.0433  0.3087 -0.2040
  337TMC3    C5 5056   1.940   3.055  15.878  0.5229  0.3648 -0.2867
  337TMC3    C6 5057   1.816   3.084  15.826  0.1718  0.4710 -0.7849
  337TMC3     C 5058   2.032   2.737  15.713 -0.2821 -0.3831 -0.3226
  337TMC3     O 5059   2.008   2.701  15.599 -0.7901  0.5170 -0.2947
  337TMC3     H 5060   1.789   2.812  15.616  1.4682 -0.4348 -1.1246
  337TMC3    H1 5061   2.109   2.939  15.874  0.2096 -0.2255 -1.0820
  337TMC3    H2 5062   1.754   3.159  15.874  1.4192 -0.5543  2.4069
  337TMC3    C7 5063   2.013   3.168  15.932 -0.2132 -0.5971  0.7620
  337TMC3    C8 5064   1.620   3.006  15.708 -0.1788 -0.6787  0.1317
  337TMC3    O1 5065   2.118   3.155  15.985  0.6322 -0.6272  0.0164
  337TMC3    O2 5066   1.556   3.045  15.803 -0.2449  0.1499  0.0895
  338MPD2     C 5067   2.997   2.130   0.566 -0.3702  0.2523  0.7389
  338MPD2    C1 5068   2.859   2.123   0.555  0.9215  0.5577  0.1334
  338MPD2    C2 5069   2.783   2.146   0.665  0.3116  0.0048  0.3347
  338MPD2    C3 5070   2.836   2.187   0.785  0.0753  0.2579  0.0998
  338MPD2    C4 5071   2.972   2.193   0.791  0.0002  0.1066  0.2214
  338MPD2    C5 5072   3.056   2.163   0.681 -0.5200 -0.0470 -0.6269
  338MPD2     H 5073   2.676   2.130   0.656 -0.0118  1.7819  1.0758
  338MPD2    H1 5074   3.021   2.223   0.882  1.1465  1.0033 -0.6939
  338MPD2    H2 5075   3.059   2.085   0.489  1.3129  2.9975  0.5084
  338MPD2    H3 5076   3.162   2.161   0.706 -0.6175  0.7632 -0.1363
  338MPD2     N 5077   2.752   2.210   0.898 -0.1044 -1.0505  0.6431
  338MPD2    H5 5078   2.654   2.194   0.875 -0.2566 -0.5785  0.9680
  338MPD2    N1 5079   2.789   2.079   0.440  0.4851 -0.5980 -0.3974
  338MPD2    H7 5080   2.692   2.053   0.456  0.1284  1.2260  0.3689
  339TMC3    C1 5081   2.681   2.191   1.103  0.0603 -0.0499  0.9786
  339TMC3    C2 5082   2.702   2.082   1.174 -0.4948  0.4028  0.8861
  339TMC3    C3 5083   2.600   1.988   1.190 -0.1186 -0.2390  0.1833
  339TMC3    C4 5084   2.565   2.218   1.044  0.3436 -1.1004  0.2101
  339TMC3    C5 5085   2.470   2.124   1.053 -0.8617  0.4459 -0.3031
  339TMC3    C6 5086   2.479   2.006   1.131 -0.2387 -0.5121 -0.6109
  339TMC3     C 5087   2.792   2.232   1.024 -0.2333  0.1033 -0.6922
  339TMC3     O 5088   2.901   2.218   1.074  0.0129  0.0285 -0.2761
  339TMC3     H 5089   2.799   2.051   1.210 -0.0036 -0.7562 -1.4371
  339TMC3    H1 5090   2.554   2.313   0.994 -0.1059 -1.3982 -0.2545
  339TMC3    H2 5091   2.390   1.945   1.140 -1.7641  1.6376 -1.1114
  339TMC3    C7 5092   2.401   2.122   0.925 -0.2592  0.4030  0.7339
  339TMC3    C8 5093   2.607   1.890   1.304  0.8062  0.1594 -0.0975
  339TMC3    O1 5094   2.418   2.214   0.848 -0.3737 -0.0609 -0.3540
  339TMC3    O2 5095   2.713   1.902   1.366 -0.7785  0.2682 -0.0890
  340MPD2     C 5096   3.076   4.408  10.521 -0.3064  0.5731 -0.4026
  340MPD2    C1 5097   3.117   4.427  10.392  0.6318  0.5357  0.0738
  340MPD2    C2 5098   3.202   4.328  10.335  0.4396 -0.4362  0.3809
  340MPD2    C3 5099   3.218   4.208  10.395 -0.0277  0.1394  0.6607
  340MPD2    C4 5100   3.154   4.182  10.509  0.3379  0.0741 -0.1755
  340MPD2    C5 5101   3.084   4.284  10.573 -0.5078  0.3688 -0.1907
  340MPD2     H 5102   3.261   4.341  10.245 -0.4781 -1.8387 -0.4227
  340MPD2    H1 5103   3.165   4.085  10.556 -0.4621  0.3425  0.5821
  340MPD2    H2 5104   3.037   4.489  10.582 -2.0362  1.4846 -2.7069
  340MPD2    H3 5105   3.033   4.252  10.663  1.9195 -1.3724  0.5794
  340MPD2     N 5106   3.302   4.115  10.330  0.7275 -0.1367  0.4194
  340MPD2    H5 5107   3.333   4.148  10.239  1.2696 -0.6088  0.4278
  340MPD2    N1 5108   3.090   4.549  10.327  0.0911  0.0048  0.0424
  340MPD2    H7 5109   3.065   4.620  10.395 -0.7842  0.3125 -0.5942
  341TMC3    C1 5110   3.106   4.479  10.093 -0.1605  0.1855 -0.3475
  341TMC3    C2 5111   3.036   4.361  10.110 -0.8620 -0.3369  0.0701
  341TMC3    C3 5112   3.014   4.282  10.004 -0.8964 -0.1072  0.6596
  341TMC3    C4 5113   3.151   4.518   9.970 -0.2751 -0.1836  0.0196
  341TMC3    C5 5114   3.127   4.432   9.867 -0.3152 -0.6458 -0.3893
  341TMC3    C6 5115   3.053   4.317   9.877  0.5609 -1.0530 -0.6371
  341TMC3     C 5116   3.110   4.582  10.195  0.3228  0.1986 -0.1591
  341TMC3     O 5117   3.147   4.690  10.160  0.2774  0.2738 -0.4029
  341TMC3     H 5118   2.987   4.352  10.206 -1.8051  4.4160  0.0400
  341TMC3    H1 5119   3.210   4.606   9.949  0.8478 -0.6008  1.4258
  341TMC3    H2 5120   3.032   4.259   9.789 -0.5684  2.2589 -2.5752
  341TMC3    C7 5121   3.240   4.400   9.782  0.2059 -0.6586 -0.6503
  341TMC3    C8 5122   3.027   4.140  10.025  0.1931 -0.3354 -0.4120
  341TMC3    O1 5123   3.278   4.281   9.795  0.5133 -0.1373 -0.0545
  341TMC3    O2 5124   2.987   4.077  10.123  0.7592 -0.3344  0.7732
  342MPD2     C 5125   0.671   2.801  17.423  0.2330  0.7193 -0.9272
  342MPD2    C1 5126   0.704   2.791  17.562  0.2706 -0.9064  0.8216
  342MPD2    C2 5127   0.719   2.906  17.635 -0.1816 -0.5522 -0.0929
  342MPD2    C3 5128   0.697   3.031  17.579 -0.0090  0.2132 -0.1940
  342MPD2    C4 5129   0.677   3.035  17.444  0.2142 -0.2396 -0.2401
  342MPD2    C5 5130   0.654   2.925  17.368  0.2210 -0.3195 -0.0866
  342MPD2     H 5131   0.755   2.902   0.036 -1.1924 -2.4649  0.1814
  342MPD2    H1 5132   0.668   3.125  17.384  1.0389  0.0218  0.0352
  342MPD2    H2 5133   0.638   2.713  17.368  0.3517  1.3612 -2.0214
  342MPD2    H3 5134   0.628   2.942  17.264  0.0627 -1.7707 -0.2757
  342MPD2     N 5135   0.691   3.152  17.646 -0.7004 -0.6075 -0.5684
  342MPD2    H5 5136   0.691   3.242  17.598  0.0531 -1.2111 -1.6987
  342MPD2    N1 5137   0.721   2.666  17.629  0.3289  0.1636  0.2729
  342MPD2    H7 5138   0.760   2.659   0.021  0.2777 -0.6232  0.2327
  343TMC3    C1 5139   0.727   2.432  17.644  0.0324 -0.4499  0.6359
  343TMC3    C2 5140   0.862   2.416  17.633 -0.3028  0.1864  0.4026
  343TMC3    C3 5141   0.915   2.287  17.612  0.2317 -0.2197 -0.2927
  343TMC3    C4 5142   0.643   2.326  17.623  0.0836  0.2665 -0.1018
  343TMC3    C5 5143   0.695   2.203  17.597  0.4659  0.3393 -0.4187
  343TMC3    C6 5144   0.831   2.180  17.601 -0.2411  0.3405 -0.0157
  343TMC3     C 5145   0.681   2.549  17.573  0.6567  0.1601 -0.2593
  343TMC3     O 5146   0.610   2.525  17.474 -0.4796 -0.0348  0.5170
  343TMC3     H 5147   0.925   2.504  17.637  0.1046 -0.1923  2.4427
  343TMC3    H1 5148   0.538   2.352  17.618 -0.5456 -2.3053 -0.1147
  343TMC3    H2 5149   0.871   2.083  17.571  0.6714  0.3313  1.2333
  343TMC3    C7 5150   0.604   2.120  17.523  0.1000 -0.2287 -0.6122
  343TMC3    C8 5151   1.043   2.274  17.553 -0.2514  0.4699  0.4731
  343TMC3    O1 5152   0.496   2.165  17.489  0.7419  0.1186 -0.3204
  343TMC3    O2 5153   1.062   2.210  17.450 -0.1371 -0.1120 -0.3547
  344MPD2     C 5154   1.814   2.134  10.727 -1.0702  0.4731 -0.4398
  344MPD2    C1 5155   1.752   2.063  10.622 -0.9161  0.0055 -0.4847
  344MPD2    C2 5156   1.770   2.104  10.493 -0.2547  0.9173  0.5112
  344MPD2    C3 5157   1.830   2.227  10.461  0.1188  0.8228 -0.1610
  344MPD2    C4 5158   1.890   2.287  10.561 -0.1231  0.0178 -0.3104
  344MPD2    C5 5159   1.894   2.242  10.690 -0.5287 -0.0447  0.1237
  344MPD2     H 5160   1.736   2.041  10.411 -1.8858  0.2365  1.7117
  344MPD2    H1 5161   1.957   2.369  10.536  1.2184 -0.4485  1.7518
  344MPD2    H2 5162   1.804   2.103  10.831  1.0673  2.6283  0.3786
  344MPD2    H3 5163   1.950   2.296  10.766 -0.2224 -1.0947  0.6537
  344MPD2     N 5164   1.847   2.282  10.332 -0.2213  0.0817 -0.4233
  344MPD2    H5 5165   1.900   2.368  10.327 -0.8107  0.4482 -0.4001
  344MPD2    N1 5166   1.671   1.946  10.631 -0.1933  0.0806  0.1997
  344MPD2    H7 5167   1.618   1.924  10.547 -1.2507  0.9676  0.6369
  345TMC3    C1 5168   1.857   2.303  10.097  0.3059 -0.8024  0.2193
  345TMC3    C2 5169   1.978   2.368  10.104 -0.1512  0.8791 -0.5074
  345TMC3    C3 5170   1.999   2.474  10.014  0.3404  0.4607 -0.6070
  345TMC3    C4 5171   1.761   2.348  10.006 -0.1534 -0.4355  0.9389
  345TMC3    C5 5172   1.784   2.458   9.929 -0.3758 -0.4006 -0.1484
  345TMC3    C6 5173   1.906   2.520   9.931  0.2729  0.0041  0.4381
  345TMC3     C 5174   1.808   2.224  10.211  0.3296  0.1641  0.3135
  345TMC3     O 5175   1.716   2.145  10.198 -0.1362  0.6448  0.0512
  345TMC3     H 5176   2.064   2.324  10.154 -0.0210  0.3025 -1.2399
  345TMC3    H1 5177   1.663   2.302  10.007  0.4108 -1.6681 -1.1933
  345TMC3    H2 5178   1.926   2.611   9.876  0.6661  1.1451  2.4825
  345TMC3    C7 5179   1.671   2.542   9.884  0.1946 -1.2223  0.2921
  345TMC3    C8 5180   2.121   2.548  10.039  0.7254 -0.1353  0.1197
  345TMC3    O1 5181   1.697   2.662   9.899  0.3577 -0.7639 -0.0676
  345TMC3    O2 5182   2.177   2.530  10.148 -0.2567 -0.0012 -0.0148
  346MPD2     C 5183   0.823   4.256  14.030  0.1905  0.4511 -0.1882
  346MPD2    C1 5184   0.955   4.266  13.995 -0.7224  0.0265 -0.0768
  346MPD2    C2 5185   1.048   4.280  14.098  0.7557 -0.9037  0.1806
  346MPD2    C3 5186   1.004   4.283  14.224  0.3951 -0.1211 -0.2306
  346MPD2    C4 5187   0.868   4.277  14.253 -0.0818 -0.0862 -0.1609
  346MPD2    C5 5188   0.778   4.261  14.153  0.9364 -0.8673 -0.0874
  346MPD2     H 5189   1.155   4.289  14.081  0.7029  0.5922  0.6325
  346MPD2    H1 5190   0.824   4.288  14.352  0.8048 -0.4321  0.2705
  346MPD2    H2 5191   0.759   4.250  13.942  1.8685  2.2074 -1.5499
  346MPD2    H3 5192   0.670   4.256  14.162  0.9716 -1.1847  0.1801
  346MPD2     N 5193   1.104   4.305  14.321  0.1401 -0.0796 -0.9485
  346MPD2    H5 5194   1.194   4.331  14.282 -0.1271  1.8247 -0.3265
  346MPD2    N1 5195   0.997   4.278  13.864  0.4180 -0.0918 -0.4039
  346MPD2    H7 5196   1.094   4.307  13.849  1.0805 -0.9317  2.2536
  347TMC3    C1 5197   1.219   4.320  14.531  0.7951  0.1925  0.0089
  347TMC3    C2 5198   1.337   4.275  14.480  0.2550 -0.3685  0.2817
  347TMC3    C3 5199   1.447   4.294  14.564 -0.0916 -0.1391  0.7553
  347TMC3    C4 5200   1.206   4.381  14.651  0.2925  0.7215  0.6112
  347TMC3    C5 5201   1.318   4.404  14.729 -0.5402  0.1629  0.2037
  347TMC3    C6 5202   1.442   4.357  14.693 -0.2013 -0.1314  0.3374
  347TMC3     C 5203   1.096   4.288  14.456  0.1033 -0.3935 -0.5070
  347TMC3     O 5204   1.001   4.281  14.531  0.0003  1.1240  0.0149
  347TMC3     H 5205   1.343   4.222  14.386  0.6515  0.3415 -0.0902
  347TMC3    H1 5206   1.110   4.422  14.681 -0.5149 -0.2707 -0.5943
  347TMC3    H2 5207   1.528   4.360  14.759  0.2680 -0.5629 -0.2546
  347TMC3    C7 5208   1.298   4.493  14.841 -0.0387  0.9178  0.3303
  347TMC3    C8 5209   1.574   4.232  14.516 -0.0353  0.4316 -0.1572
  347TMC3    O1 5210   1.182   4.516  14.876 -0.0676  0.0430 -0.3775
  347TMC3    O2 5211   1.561   4.167  14.411 -0.0049  0.2052 -0.4079
  348MPD2     C 5212   4.693   3.530  12.141 -0.1860 -0.0735  0.3911
  348MPD2    C1 5213   0.081   3.553  12.068 -0.3535  0.6769  0.1960
  348MPD2    C2 5214   0.077   3.609  11.941 -0.8797 -0.3865 -0.4984
  348MPD2    C3 5215   4.680   3.660  11.895 -0.0119 -0.6917  0.4108
  348MPD2    C4 5216   4.564   3.638  11.968 -0.1343 -0.0573 -0.5415
  348MPD2    C5 5217   4.572   3.572  12.088 -0.2249  0.5468  0.0327
  348MPD2     H 5218   0.163   3.606  11.875 -0.4717 -1.3275  0.0929
  348MPD2    H1 5219   4.467   3.664  11.929  0.7719  0.8250 -2.2383
  348MPD2    H2 5220   4.689   3.491  12.241  0.7438 -0.2634  0.3484
  348MPD2    H3 5221   4.482   3.544  12.142  0.8136 -0.1490  1.4160
  348MPD2     N 5222   4.676   3.723  11.764 -0.0387  0.4923 -0.3982
  348MPD2    H5 5223   0.037   3.745  11.715 -0.0130 -0.8722 -0.9736
  348MPD2    N1 5224   0.207   3.493  12.099  0.0083 -0.0588  0.7682
  348MPD2    H7 5225   0.285   3.512  12.038 -1.6589 -2.2697 -2.0584
  349TMC3    C1 5226   0.367   3.351  12.207  0.3827  0.6988  0.0207
  349TMC3    C2 5227   0.375   3.239  12.284  0.1410 -0.1793  0.3339
  349TMC3    C3 5228   0.440   3.132  12.220  0.1293  0.9638 -0.0223
  349TMC3    C4 5229   0.438   3.366  12.085 -0.5456 -0.0835  0.3576
  349TMC3    C5 5230   0.493   3.255  12.029  0.1671  0.5517 -0.2495
  349TMC3    C6 5231   0.487   3.136  12.095 -0.2915  0.3516  0.0969
  349TMC3     C 5232   0.235   3.410  12.206  0.2629 -0.0684  0.4789
  349TMC3     O 5233   0.156   3.368  12.290  0.3286 -0.0741 -0.4297
  349TMC3     H 5234   0.330   3.238  12.382 -3.4775  1.0980 -1.3022
  349TMC3    H1 5235   0.426   3.454  12.023 -3.4582 -0.0136  1.0212
  349TMC3    H2 5236   0.545   3.055  12.051  0.0232  2.1369 -2.8090
  349TMC3    C7 5237   0.486   3.242  11.880  0.6695  0.3484 -0.7976
  349TMC3    C8 5238   0.444   3.018  12.299  0.4352 -0.1914 -0.1088
  349TMC3    O1 5239   0.423   3.143  11.848  0.0282  0.5653  0.5598
  349TMC3    O2 5240   0.383   3.020  12.404 -0.0684 -0.3075 -0.4028
  350MPD2     C 5241   4.180   1.573   9.920  0.4085 -0.2275  0.8162
  350MPD2    C1 5242   4.263   1.466   9.929  0.4883 -0.8438 -0.0361
  350MPD2    C2 5243   4.398   1.479   9.954  0.2348 -0.1625 -0.7112
  350MPD2    C3 5244   4.448   1.610   9.962 -0.1162 -0.5983  0.5301
  350MPD2    C4 5245   4.370   1.718   9.950 -0.8921 -0.4074  0.6493
  350MPD2    C5 5246   4.240   1.705   9.916  0.3688  0.4112 -0.1079
  350MPD2     H 5247   4.464   1.394   9.963 -1.4797 -1.7436 -2.9275
  350MPD2    H1 5248   4.405   1.819   9.962 -1.6986  0.0066 -0.5103
  350MPD2    H2 5249   4.073   1.563   9.911  0.8640 -3.2685 -1.2784
  350MPD2    H3 5250   4.182   1.792   9.886  1.1510  1.7910  2.4396
  350MPD2     N 5251   4.589   1.624   9.995 -0.0838  0.0321 -0.6725
  350MPD2    H5 5252   4.639   1.540  10.021  0.0227  0.5168  0.6962
  350MPD2    N1 5253   4.226   1.329   9.921 -0.4282  0.5891  0.4839
  350MPD2    H7 5254   4.295   1.255   9.922 -1.4921 -0.4305 -0.9609
  351TMC3    C1 5255   4.090   1.138   9.899  0.1909 -0.5941 -0.2784
  351TMC3    C2 5256   4.203   1.062   9.891 -0.6162 -0.8373 -0.4629
  351TMC3    C3 5257   4.181   0.934   9.925  0.5484 -0.5800 -0.4362
  351TMC3    C4 5258   3.960   1.087   9.901  0.0804 -0.5936 -0.3780
  351TMC3    C5 5259   3.945   0.952   9.937 -0.4912  0.8477 -0.2529
  351TMC3    C6 5260   4.055   0.879   9.967 -0.3727 -0.3277 -0.4808
  351TMC3     C 5261   4.100   1.282   9.894  0.5902  0.2917 -0.5464
  351TMC3     O 5262   3.993   1.345   9.885 -0.1604  0.2026 -0.2746
  351TMC3     H 5263   4.299   1.094   9.853 -0.0776 -1.2561  0.5734
  351TMC3    H1 5264   3.874   1.150   9.918  0.6365  0.0545  0.0224
  351TMC3    H2 5265   4.051   0.772   9.983  1.1244  0.1199  2.7215
  351TMC3    C7 5266   3.808   0.903   9.944 -0.0412 -0.1588  0.0309
  351TMC3    C8 5267   4.299   0.855   9.933 -0.1515  0.2216  0.2705
  351TMC3    O1 5268   3.720   0.965   9.900  0.2332 -0.6881 -0.7555
  351TMC3    O2 5269   4.379   0.864   9.843 -0.2658 -0.3801  0.3747
  352MPD2     C 5270   2.193   3.683   1.571  0.6545  0.1224 -0.1387
  352MPD2    C1 5271   2.112   3.624   1.479  0.3050 -0.2027  0.1997
  352MPD2    C2 5272   2.117   3.482   1.454  0.3433 -0.0968  0.1547
  352MPD2    C3 5273   2.221   3.413   1.507 -1.1364  0.2004  0.5628
  352MPD2    C4 5274   2.296   3.464   1.605  0.6485 -0.2312  0.1276
  352MPD2    C5 5275   2.281   3.593   1.637 -0.7549  0.4747  0.3232
  352MPD2     H 5276   2.045   3.437   1.386  0.3366 -0.2876  0.2885
  352MPD2    H1 5277   2.371   3.411   1.663  1.1717  0.7208  0.3236
  352MPD2    H2 5278   2.195   3.789   1.593  2.8195  0.0100  0.2713
  352MPD2    H3 5279   2.345   3.635   1.714 -0.5171  0.2819  0.2281
  352MPD2     N 5280   2.244   3.276   1.486  0.0411 -0.8542 -0.2660
  352MPD2    H5 5281   2.309   3.233   1.551  0.0150 -1.3883 -0.5947
  352MPD2    N1 5282   2.002   3.700   1.429 -0.2882 -0.1929 -0.3513
  352MPD2    H7 5283   1.990   3.791   1.472  1.8111  1.3609 -3.0439
  353TMC3    C1 5284   2.216   3.062   1.381  1.0114  0.1898 -0.5640
  353TMC3    C2 5285   2.315   3.019   1.466 -0.7860  0.6867  0.0785
  353TMC3    C3 5286   2.351   2.889   1.452  0.1466  0.0457 -0.4375
  353TMC3    C4 5287   2.152   2.987   1.287 -0.3285 -0.2973  0.1089
  353TMC3    C5 5288   2.194   2.856   1.282 -0.5745  0.1662 -0.2234
  353TMC3    C6 5289   2.295   2.803   1.368  0.4261 -0.3253 -0.4340
  353TMC3     C 5290   2.188   3.206   1.380  1.0720  0.8983  0.1353
  353TMC3     O 5291   2.116   3.246   1.291 -0.6358 -0.1451 -0.4261
  353TMC3     H 5292   2.395   3.087   1.494  0.6745 -1.3373  0.8309
  353TMC3    H1 5293   2.079   3.039   1.225  1.2888  0.7130 -0.9603
  353TMC3    H2 5294   2.336   2.703   1.359 -0.5227 -0.9625  2.0289
  353TMC3    C7 5295   2.164   2.793   1.155 -0.2744 -0.2129  0.1554
  353TMC3    C8 5296   2.486   2.849   1.502  0.2457  0.4570  0.3640
  353TMC3    O1 5297   2.134   2.878   1.071  0.4048 -0.0091 -0.8872
  353TMC3    O2 5298   2.512   2.900   1.611  0.3595 -0.5507  0.3683
  354TMC3    C1 5299   3.897   0.390  13.566 -0.2471 -0.5476 -0.5922
  354TMC3    C2 5300   3.967   0.505  13.541 -0.3466  0.2654  0.1130
  354TMC3    C3 5301   4.077   0.486  13.458  0.4295  0.5761 -0.5249
  354TMC3    C4 5302   3.932   0.267  13.508  0.1445  0.4565  0.1904
  354TMC3    C5 5303   4.044   0.250  13.429  0.3210  0.2846 -0.2068
  354TMC3    C6 5304   4.122   0.365  13.419  0.0608  0.5024  0.3033
  354TMC3     C 5305   3.824   0.373  13.691 -0.1857 -0.6673 -0.5308
  354TMC3     O 5306   3.805   0.256  13.731  0.1145 -0.3835 -0.3399
  354TMC3     H 5307   3.942   0.603  13.580  2.0932  0.7544  0.4083
  354TMC3    H1 5308   3.871   0.177  13.517 -1.4438  1.4375 -0.7995
  354TMC3    H2 5309   4.208   0.357  13.354  2.0213 -0.7717  3.0503
  354TMC3    C7 5310   4.010   0.203  13.297  0.4267  0.5279  0.9260
  354TMC3    C8 5311   4.102   0.598  13.361 -0.8447  0.2336  0.2733
  354TMC3    O1 5312   3.892   0.193  13.270  0.0849  0.0391  0.1168
  354TMC3    O2 5313   4.009   0.663  13.317 -0.1763 -0.0883  0.0421
  355MPD2     C 5314   3.916   0.889  11.868 -0.7619  0.1826 -0.1510
  355MPD2    C1 5315   3.942   0.939  11.740  0.1328  0.0416 -0.0567
  355MPD2    C2 5316   4.073   0.930  11.693 -0.2292 -0.9024 -0.5938
  355MPD2    C3 5317   4.175   0.914  11.782 -0.1816  0.1821 -0.1683
  355MPD2    C4 5318   4.155   0.880  11.913 -0.0756 -0.1787  0.0028
  355MPD2    C5 5319   4.025   0.857  11.951 -0.6386  0.2366  0.4129
  355MPD2     H 5320   4.103   0.958  11.593 -1.0184  1.4137 -0.1892
  355MPD2    H1 5321   4.233   0.871  11.988 -0.7608  0.5921  0.8071
  355MPD2    H2 5322   3.816   0.879  11.907 -1.3778  1.5456 -1.3458
  355MPD2    H3 5323   4.002   0.823  12.052 -0.4393  0.7782  0.6413
  355MPD2     N 5324   4.309   0.943  11.737  0.7951  0.6936 -0.2527
  355MPD2    H5 5325   4.382   0.948  11.807 -1.7613 -0.7480  2.5374
  355MPD2    N1 5326   3.831   0.988  11.668 -0.3152  0.1103  0.2155
  355MPD2    H7 5327   3.739   0.980  11.709  0.0850 -1.7656  0.7439
  356TMC3    C1 5328   4.490   1.002  11.600 -0.0663 -0.2744 -0.0036
  356TMC3    C2 5329   4.507   1.106  11.512  0.2541 -0.2745  0.3747
  356TMC3    C3 5330   4.570   1.223  11.549  0.5636  0.1568 -0.9230
  356TMC3    C4 5331   4.564   1.001  11.713  0.8742 -0.2915  0.1881
  356TMC3    C5 5332   4.622   1.116  11.748  0.3642  0.4232 -0.0674
  356TMC3    C6 5333   4.624   1.232  11.676  0.6378  0.1329 -0.2062
  356TMC3     C 5334   4.350   0.959  11.607  0.9315 -0.2491 -0.4794
  356TMC3     O 5335   4.300   0.956  11.494 -0.8412 -0.5193 -0.7919
  356TMC3     H 5336   4.474   1.089  11.411 -2.6203  2.2680  0.8900
  356TMC3    H1 5337   4.573   0.904  11.762 -1.5055  0.1210  1.4436
  356TMC3    H2 5338   4.686   1.313  11.713  0.7687 -0.1576  0.2110
  356TMC3    C7 5339   4.617   1.125  11.891 -0.2083 -0.5139 -0.5390
  356TMC3    C8 5340   4.621   1.320  11.449  0.4593 -0.3316 -0.5312
  356TMC3    O1 5341   4.547   1.038  11.941  0.6249 -0.0902  0.1535
  356TMC3    O2 5342   4.599   1.306  11.327  0.0400  0.0810 -0.5321
  357MPD2     C 5343   3.457   1.710   1.472 -0.7718 -0.4128  0.2575
  357MPD2    C1 5344   3.451   1.574   1.433 -0.6187 -0.4732 -0.9428
  357MPD2    C2 5345   3.334   1.505   1.447  1.0833 -0.3040 -0.2952
  357MPD2    C3 5346   3.219   1.566   1.492  0.2436  0.7758  0.1326
  357MPD2    C4 5347   3.218   1.702   1.521  0.3808  0.1166 -0.3137
  357MPD2    C5 5348   3.336   1.772   1.508  0.3940 -0.3530 -0.0857
  357MPD2     H 5349   3.328   1.401   1.417  1.0524  0.1854 -1.9793
  357MPD2    H1 5350   3.127   1.756   1.543  1.1685  0.6966  1.4425
  357MPD2    H2 5351   3.551   1.763   1.481 -0.4142 -0.8139 -1.1707
  357MPD2    H3 5352   3.325   1.871   1.550  0.3486 -0.4784  0.2042
  357MPD2     N 5353   3.095   1.506   1.509 -0.0698 -0.2330 -0.0468
  357MPD2    H5 5354   3.021   1.570   1.536 -1.7438 -2.0988 -0.1854
  357MPD2    N1 5355   3.569   1.516   1.381 -0.2456  0.4639  0.4401
  357MPD2    H7 5356   3.647   1.582   1.387  1.3161 -1.3060 -0.4012
  358TMC3    C1 5357   3.738   1.351   1.338 -0.3745  0.3310  0.1835
  358TMC3    C2 5358   3.776   1.236   1.278  0.1433 -0.1132  0.2299
  358TMC3    C3 5359   3.901   1.190   1.289 -0.7529 -0.4103  0.0489
  358TMC3    C4 5360   3.822   1.438   1.403  0.8715  0.2259 -0.0094
  358TMC3    C5 5361   3.950   1.383   1.414  0.9646  0.9316 -0.3169
  358TMC3    C6 5362   3.994   1.279   1.334 -0.5109  0.9718 -0.8480
  358TMC3     C 5363   3.593   1.387   1.334  0.1898 -0.4960  0.0313
  358TMC3     O 5364   3.518   1.289   1.327 -0.6946  0.2607 -0.4113
  358TMC3     H 5365   3.710   1.195   1.202 -1.8808  0.0079  1.9265
  358TMC3    H1 5366   3.797   1.531   1.451  0.5313  0.1252  0.0085
  358TMC3    H2 5367   4.097   1.248   1.351 -0.6217  0.4219 -1.1910
  358TMC3    C7 5368   4.038   1.419   1.526 -0.9402 -0.2788  0.2856
  358TMC3    C8 5369   3.941   1.072   1.209  0.5756  0.0292  0.0524
  358TMC3    O1 5370   4.158   1.420   1.509 -0.7459  0.2889 -0.0885
  358TMC3    O2 5371   4.064   1.053   1.194 -0.1273  0.3437 -0.2841
  359MPD2     C 5372   4.399   0.182  12.354  0.0129  0.7241  0.4351
  359MPD2    C1 5373   4.429   0.050  12.343  0.2752  0.4241  0.0279
  359MPD2    C2 5374   4.336   4.674  12.371  0.6700  0.0273  0.2296
  359MPD2    C3 5375   4.207   4.700  12.403  0.3056 -0.0774  0.4797
  359MPD2    C4 5376   4.173   0.110  12.413  0.1126 -0.4574 -0.4266
  359MPD2    C5 5377   4.267   0.211  12.394 -0.5963 -0.3832  0.6900
  359MPD2     H 5378   4.370   4.572  12.350 -0.4159 -0.4333  0.7482
  359MPD2    H1 5379   4.071   0.136  12.437  0.1177 -1.0280  0.2102
  359MPD2    H2 5380   4.469   0.261  12.329  3.7596 -3.0899 -1.1127
  359MPD2    H3 5381   4.236   0.314  12.408 -1.0917 -0.3790 -0.4422
  359MPD2     N 5382   4.107   4.605  12.424 -0.1993  0.2685 -0.0421
  359MPD2    H5 5383   4.012   4.636  12.441 -0.5221 -0.0237 -1.3482
  359MPD2    N1 5384   4.554   0.001  12.306  0.4159  0.0116 -0.3135
  359MPD2    H7 5385   4.563   4.626  12.319 -2.6428 -0.1965  0.1263
  360TMC3    C1 5386   0.038   0.009  12.204 -0.5601  0.7914 -0.1960
  360TMC3    C2 5387   0.103   0.080  12.108  0.2985 -0.2736 -0.1040
  360TMC3    C3 5388   0.139   0.028  11.988 -0.3404  0.2238  0.1536
  360TMC3    C4 5389   0.015   4.601  12.188  0.2097 -0.3209  0.5902
  360TMC3    C5 5390   0.055   4.542  12.064 -0.8367  0.2928 -0.0383
  360TMC3    C6 5391   0.121   4.614  11.964  0.5386 -1.0197 -0.3958
  360TMC3     C 5392   4.663   0.080  12.282  0.0320 -0.4835 -0.7178
  360TMC3     O 5393   4.679   0.195  12.311  0.0088 -0.6006 -0.3845
  360TMC3     H 5394   0.103   0.187  12.123 -0.8929 -0.5017  1.4457
  360TMC3    H1 5395   4.689   4.532  12.254 -1.5445  0.4484  0.0541
  360TMC3    H2 5396   0.144   4.575  11.865  1.4236  0.1323 -0.6381
  360TMC3    C7 5397   4.707   4.423  12.019  0.0024  0.1726  0.4071
  360TMC3    C8 5398   0.163   0.113  11.878 -0.0168  0.0011 -0.2804
  360TMC3    O1 5399   4.686   4.333  12.095 -0.0067  0.6662 -0.4087
  360TMC3    O2 5400   0.124   0.228  11.878 -0.5680  1.0047  0.0944
  361MPD2     C 5401   1.415   3.831  16.874 -0.2548  0.4518  1.1134
  361MPD2    C1 5402   1.378   3.756  16.983  0.1473  0.0141 -1.2116
  361MPD2    C2 5403   1.468   3.671  17.039 -0.3427  0.1824 -0.1290
  361MPD2    C3 5404   1.595   3.653  16.981  0.1364  0.1495 -0.5472
  361MPD2    C4 5405   1.632   3.740  16.876  0.0085  0.3633 -0.0571
  361MPD2    C5 5406   1.541   3.828  16.827 -0.5049  0.3935  0.3077
  361MPD2     H 5407   1.436   3.619  17.129  0.4602 -2.5397 -1.4191
  361MPD2    H1 5408   1.717   3.729  16.811  1.7276  4.1466  1.5952
  361MPD2    H2 5409   1.351   3.908  16.833 -0.8482  0.2551  1.6755
  361MPD2    H3 5410   1.577   3.896  16.751  0.2729 -0.1472  0.1851
  361MPD2     N 5411   1.687   3.555  17.021 -0.1819  0.2438 -0.6531
  361MPD2    H5 5412   1.773   3.544  16.968 -1.4090  2.3756 -3.1226
  361MPD2    N1 5413   1.249   3.779  17.050 -0.3966 -0.4069 -0.0860
  361MPD2    H7 5414   1.222   3.720  17.128  2.1693  0.0959  1.1757
  362TMC3    C1 5415   1.030   3.860  17.082 -0.4027  0.1505 -0.0306
  362TMC3    C2 5416   1.050   3.897  17.215  0.4711  0.1112  0.1725
  362TMC3    C3 5417   0.948   3.961  17.286 -0.1661 -0.3155 -0.8692
  362TMC3    C4 5418   0.920   3.900  17.018  0.2153  0.6747 -0.3516
  362TMC3    C5 5419   0.820   3.963  17.092  0.0724 -0.7499 -0.0387
  362TMC3    C6 5420   0.834   4.003  17.223 -0.1616  0.3973  0.1014
  362TMC3     C 5421   1.148   3.859  16.995  0.0403 -1.2254 -0.4870
  362TMC3     O 5422   1.140   3.910  16.885  0.1429  0.1232 -0.2249
  362TMC3     H 5423   1.142   3.869  17.266 -0.4236 -2.0221  0.5804
  362TMC3    H1 5424   0.912   3.896  16.910  1.5999  0.1828 -0.4232
  362TMC3    H2 5425   0.764   4.070  17.271  0.8747  1.6640 -0.1411
  362TMC3    C7 5426   0.705   4.010  17.015  0.0176 -0.4712 -0.1882
  362TMC3    C8 5427   0.985   4.017  17.411 -0.2645  0.2742  0.2042
  362TMC3    O1 5428   0.718   4.027  16.895 -0.3271 -0.0467 -0.1483
  362TMC3    O2 5429   1.106   4.025  17.434 -0.1626  0.0842 -0.3093
  363TMC3    C1 5430   0.821   0.623   9.861 -0.5789  0.3127 -0.8212
  363TMC3    C2 5431   0.740   0.523   9.915  0.3649  0.3997 -0.5352
  363TMC3    C3 5432   0.609   0.553   9.942 -0.1774  0.0788  0.4559
  363TMC3    C4 5433   0.762   0.742   9.824 -0.2046  0.0431 -0.3473
  363TMC3    C5 5434   0.638   0.771   9.857 -0.0096 -0.2963 -0.2627
  363TMC3    C6 5435   0.562   0.682   9.920  0.6910 -0.1585 -0.4496
  363TMC3     C 5436   0.966   0.600   9.864 -0.4687  0.1006 -0.7580
  363TMC3     O 5437   1.045   0.680   9.809 -0.3691  0.5882  0.0391
  363TMC3     H 5438   0.782   0.423   9.913  0.5081  0.4600 -0.5744
  363TMC3    H1 5439   0.824   0.807   9.764  3.9459 -4.1741 -0.6300
  363TMC3    H2 5440   0.460   0.702   9.951  1.0697 -0.4630  0.9976
  363TMC3    C7 5441   0.569   0.892   9.808  0.1488  0.7898  0.1429
  363TMC3    C8 5442   0.518   0.458  10.006 -0.0443 -0.4444  0.3472
  363TMC3    O1 5443   0.451   0.891   9.835  0.0460 -0.3216 -1.0290
  363TMC3    O2 5444   0.419   0.504  10.063  0.3389 -0.5116 -0.4769
  364MPD2     C 5445   3.204   0.378  10.654  0.4942 -0.6373  0.3549
  364MPD2    C1 5446   3.314   0.309  10.615  0.0491  0.4271  0.1253
  364MPD2    C2 5447   3.316   0.169  10.626  0.2827 -0.0971 -0.1665
  364MPD2    C3 5448   3.206   0.106  10.686  0.4211 -0.1007  0.0127
  364MPD2    C4 5449   3.099   0.172  10.726 -0.3637  0.1297 -0.4597
  364MPD2    C5 5450   3.098   0.308  10.702  0.0192  0.2290  0.8586
  364MPD2     H 5451   3.414   0.126  10.611 -0.0196 -0.3943 -1.2755
  364MPD2    H1 5452   3.011   0.124  10.768 -1.4254 -0.2129 -3.0723
  364MPD2    H2 5453   3.189   0.486  10.648  3.3517 -0.1010  2.4387
  364MPD2    H3 5454   3.009   0.363  10.732  0.3846 -0.0312  2.3986
  364MPD2     N 5455   3.213   4.690  10.729  0.3065 -0.7749  0.1690
  364MPD2    H5 5456   3.139   4.644  10.781 -0.5295  0.9006  0.4630
  364MPD2    N1 5457   3.427   0.391  10.575 -0.1310  0.2864  0.4457
  364MPD2    H7 5458   3.414   0.492  10.572  1.2728  0.4490  0.0373
  365TMC3    C1 5459   3.639   0.464  10.524 -1.0479  0.5286  0.1754
  365TMC3    C2 5460   3.757   0.432  10.464 -0.1687  0.3029 -0.0555
  365TMC3    C3 5461   3.835   0.533  10.418 -0.7750 -0.1349  0.3655
  365TMC3    C4 5462   3.611   0.595  10.568 -0.0934  0.3741 -0.0171
  365TMC3    C5 5463   3.703   0.685  10.530  0.2082 -0.3155 -0.2220
  365TMC3    C6 5464   3.807   0.664  10.444  0.2643  0.0910  0.3280
  365TMC3     C 5465   3.551   0.350  10.546 -0.0472 -0.1234  0.4690
  365TMC3     O 5466   3.597   0.237  10.528 -0.1330  0.0039 -0.3328
  365TMC3     H 5467   3.775   0.329  10.435 -0.3891 -0.3232  2.0948
  365TMC3    H1 5468   3.514   0.617  10.610  1.3096 -0.9867  3.9317
  365TMC3    H2 5469   3.875   0.745  10.420  1.0380 -1.2603 -2.0341
  365TMC3    C7 5470   3.676   0.832  10.549 -0.6671 -0.3618 -0.2963
  365TMC3    C8 5471   3.935   0.504  10.316 -0.4627  0.2544 -1.0317
  365TMC3    O1 5472   3.742   0.915  10.481 -0.5062  0.4191  0.0665
  365TMC3    O2 5473   4.001   0.601  10.270  0.0628 -0.4235 -0.0921
  366MPD2     C 5474   1.900   1.555  15.087 -0.3440  0.1395 -0.7945
  366MPD2    C1 5475   1.933   1.547  15.222 -0.3869  0.0194 -0.4423
  366MPD2    C2 5476   2.040   1.466  15.263  0.2260  0.3246 -0.2784
  366MPD2    C3 5477   2.125   1.407  15.172  0.4818 -0.3372  0.4889
  366MPD2    C4 5478   2.088   1.417  15.041 -0.7607  0.6857  0.0032
  366MPD2    C5 5479   1.979   1.490  15.000  0.3093 -0.0119 -0.0562
  366MPD2     H 5480   2.065   1.456  15.368 -3.1836  0.5623  0.5599
  366MPD2    H1 5481   2.147   1.365  14.966 -1.2982  1.3378 -0.8794
  366MPD2    H2 5482   1.810   1.604  15.051 -2.1659 -1.0671  2.2063
  366MPD2    H3 5483   1.947   1.492  14.896 -0.2706 -2.6365  0.0725
  366MPD2     N 5484   2.248   1.348  15.206  0.4918  0.1944 -0.4034
  366MPD2    H5 5485   2.300   1.321  15.124  0.8266 -1.0284  0.2031
  366MPD2    N1 5486   1.858   1.606  15.325  0.9078 -0.0972  0.3136
  366MPD2    H7 5487   1.885   1.583  15.420 -1.0926 -0.2115  0.8476
  367TMC3    C1 5488   1.719   1.761  15.432  0.5198  0.4486 -0.6235
  367TMC3    C2 5489   1.827   1.822  15.494  0.2870  0.9173  0.6293
  367TMC3    C3 5490   1.832   1.957  15.498 -0.4559  1.0305  0.2375
  367TMC3    C4 5491   1.607   1.828  15.414  0.2546  0.8761 -0.1948
  367TMC3    C5 5492   1.610   1.962  15.433 -0.2461 -1.1040  0.4645
  367TMC3    C6 5493   1.721   2.033  15.465  0.4899  0.0004 -0.0748
  367TMC3     C 5494   1.743   1.689  15.308  0.0250 -0.1555 -0.2144
  367TMC3     O 5495   1.701   1.741  15.206 -0.1819  0.4342  0.1404
  367TMC3     H 5496   1.921   1.767  15.495  0.5723  1.3732 -0.9499
  367TMC3    H1 5497   1.528   1.772  15.366  0.5230 -1.8356  2.5332
  367TMC3    H2 5498   1.713   2.140  15.484 -1.8858 -0.1635 -0.2749
  367TMC3    C7 5499   1.509   2.035  15.359  0.6657 -0.0254 -0.2277
  367TMC3    C8 5500   1.966   2.022  15.488 -1.2844  0.4069  0.3979
  367TMC3    O1 5501   1.490   2.146  15.394  0.1636  0.2443  0.3576
  367TMC3    O2 5502   2.061   1.965  15.541 -0.4747 -0.2862  0.5903
  368MPD2     C 5503   2.553   3.929  13.392 -0.2287  0.9359  0.2480
  368MPD2    C1 5504   2.559   4.054  13.340 -0.0918 -0.0700  0.1316
  368MPD2    C2 5505   2.670   4.092  13.267 -0.4483  0.2470 -0.3343
  368MPD2    C3 5506   2.780   4.007  13.259  0.0172 -0.0016 -0.1992
  368MPD2    C4 5507   2.778   3.883  13.327  0.7059 -0.0393 -0.4977
  368MPD2    C5 5508   2.658   3.844  13.380  0.3057  0.7921 -0.3859
  368MPD2     H 5509   2.666   4.187  13.213 -2.9880  0.1179 -0.3439
  368MPD2    H1 5510   2.854   3.805  13.327  0.1853 -0.5522 -1.1087
  368MPD2    H2 5511   2.464   3.892  13.441 -0.2539  0.4444 -0.1683
  368MPD2    H3 5512   2.647   3.742  13.417  0.9013  0.9937  0.3561
  368MPD2     N 5513   2.887   4.044  13.173  0.1987 -0.1038 -0.0329
  368MPD2    H5 5514   2.959   3.973  13.171  0.1068 -0.2011  0.0720
  368MPD2    N1 5515   2.443   4.131  13.355 -0.0477 -0.3267 -0.0673
  368MPD2    H7 5516   2.369   4.092  13.413 -0.7884  2.4075  0.8044
  369TMC3    C1 5517   2.299   4.300  13.302  0.1241  0.1678 -0.5547
  369TMC3    C2 5518   2.298   4.431  13.263 -1.0529 -0.0662 -0.3642
  369TMC3    C3 5519   2.214   4.465  13.160 -0.1330  0.5177  0.2099
  369TMC3    C4 5520   2.207   4.206  13.248  0.3892 -0.1901 -0.3219
  369TMC3    C5 5521   2.115   4.253  13.160  0.5914 -0.3764 -0.5295
  369TMC3    C6 5522   2.107   4.382  13.116  0.3275 -0.2530 -0.4497
  369TMC3     C 5523   2.436   4.265  13.325  0.1628 -0.3801 -0.8401
  369TMC3     O 5524   2.522   4.346  13.289  0.1385 -0.1127  0.2154
  369TMC3     H 5525   2.368   4.498  13.310 -1.7943 -0.2489  0.9974
  369TMC3    H1 5526   2.221   4.102  13.278  1.8692  0.5009  1.3459
  369TMC3    H2 5527   2.044   4.413  13.033 -2.6575 -0.8297  1.5858
  369TMC3    C7 5528   2.005   4.160  13.132  0.6540 -0.2763  0.3132
  369TMC3    C8 5529   2.285   4.537  13.052 -0.1174 -0.3211 -0.0074
  369TMC3    O1 5530   2.023   4.042  13.160  0.0449 -0.3715 -0.1115
  369TMC3    O2 5531   2.220   4.598  12.968  0.6966  0.0373  0.4713
  370TMC3    C1 5532   2.466   4.420  16.492 -0.4343  0.3776 -0.4538
  370TMC3    C2 5533   2.405   4.362  16.600 -0.5394  0.2173  0.4527
  370TMC3    C3 5534   2.316   4.259  16.584  0.0546 -0.3348 -0.6280
  370TMC3    C4 5535   2.429   4.385  16.360 -0.0150  0.2908 -1.1530
  370TMC3    C5 5536   2.339   4.284  16.349 -0.0507  0.1231  0.1384
  370TMC3    C6 5537   2.285   4.220  16.457 -0.1055 -0.6308 -0.5246
  370TMC3     C 5538   2.567   4.518  16.516  0.0799  0.1386 -0.2317
  370TMC3     O 5539   2.605   4.520  16.630 -0.6866 -0.1695  0.2634
  370TMC3     H 5540   2.435   4.392  16.700 -0.4876 -1.7262  1.0256
  370TMC3    H1 5541   2.469   4.428  16.268 -1.2664 -0.6394 -2.1240
  370TMC3    H2 5542   2.217   4.136  16.445  2.6772 -2.7188 -1.7634
  370TMC3    C7 5543   2.345   4.196  16.229 -1.0186 -0.2793 -0.0361
  370TMC3    C8 5544   2.266   4.183  16.687 -0.1725  0.2568 -0.0354
  370TMC3    O1 5545   2.332   4.248  16.118 -0.0687 -0.2908 -0.2009
  370TMC3    O2 5546   2.228   4.069  16.667 -0.1459  0.4768  0.2671
  371TMC3    C1 5547   3.677   2.637  15.685  0.5344  0.6869  0.0330
  371TMC3    C2 5548   3.546   2.614  15.714 -0.1037  0.0975 -0.4386
  371TMC3    C3 5549   3.466   2.719  15.753 -0.3521 -0.6628  0.1921
  371TMC3    C4 5550   3.735   2.759  15.671  0.1103 -0.5280 -0.1101
  371TMC3    C5 5551   3.654   2.855  15.698  0.2633 -0.2230  0.3134
  371TMC3    C6 5552   3.521   2.847  15.737 -0.5983 -0.3115  0.6723
  371TMC3     C 5553   3.748   2.530  15.626  0.7746 -1.1290  0.7149
  371TMC3     O 5554   3.839   2.564  15.547 -0.3643 -0.0518  0.6027
  371TMC3     H 5555   3.499   2.516  15.714  0.6209 -0.2518  3.1941
  371TMC3    H1 5556   3.840   2.770  15.645 -0.2422 -0.4943 -1.4724
  371TMC3    H2 5557   3.457   2.934  15.740 -0.5568 -0.2750  0.5287
  371TMC3    C7 5558   3.707   2.992  15.670 -0.7063 -0.6313 -0.1330
  371TMC3    C8 5559   3.326   2.701  15.783  0.4423  0.2174  0.3631
  371TMC3    O1 5560   3.624   3.084  15.650  0.9186  0.2151 -0.6515
  371TMC3    O2 5561   3.277   2.595  15.752  0.1549  0.5154 -0.3669
  372MPD2     C 5562   3.101   3.856  13.613  0.4254  0.4220 -0.6791
  372MPD2    C1 5563   3.174   3.750  13.664 -0.3581 -0.1146  0.8667
  372MPD2    C2 5564   3.106   3.666  13.748 -0.7836  0.0700 -0.9299
  372MPD2    C3 5565   2.972   3.671  13.772 -0.9657 -0.5070 -0.3816
  372MPD2    C4 5566   2.897   3.768  13.711 -0.0952  0.4288  0.2138
  372MPD2    C5 5567   2.961   3.866  13.634  0.4922  0.2126 -0.4505
  372MPD2     H 5568   3.158   3.591  13.805 -1.5959 -0.5418 -0.9885
  372MPD2    H1 5569   2.790   3.769  13.725  0.0634  2.1199  1.3871
  372MPD2    H2 5570   3.139   3.940  13.556 -0.9388  2.6240  1.6268
  372MPD2    H3 5571   2.907   3.950  13.590  1.0542  1.4135  1.1568
  372MPD2     N 5572   2.906   3.565  13.842 -0.3393  0.2977 -0.6019
  372MPD2    H5 5573   2.954   3.478  13.865 -0.3933 -0.2919 -2.6702
  372MPD2    N1 5574   3.312   3.727  13.638 -0.4963 -0.6719  0.1820
  372MPD2    H7 5575   3.352   3.642  13.675  0.8979  0.7874  2.0448
  373TMC3    C1 5576   2.711   3.431  13.893  0.2506  0.2174  0.3520
  373TMC3    C2 5577   2.611   3.413  13.980 -0.4042 -0.2766  1.3150
  373TMC3    C3 5578   2.581   3.287  14.024 -0.1573 -0.4859 -0.9346
  373TMC3    C4 5579   2.780   3.329  13.837 -0.9779 -0.6048  0.0308
  373TMC3    C5 5580   2.754   3.206  13.889  0.0815  0.0212 -0.1320
  373TMC3    C6 5581   2.658   3.184  13.975  0.0574 -0.4133  0.1545
  373TMC3     C 5582   2.771   3.563  13.876 -0.8262  0.3024 -0.3399
  373TMC3     O 5583   2.693   3.656  13.888  0.2378 -0.0804  0.1139
  373TMC3     H 5584   2.558   3.501  14.016  0.2751  0.2223  1.0876
  373TMC3    H1 5585   2.840   3.340  13.747  0.3318 -0.9288  0.8572
  373TMC3    H2 5586   2.638   3.084  14.013  2.3367 -0.1183  2.1454
  373TMC3    C7 5587   2.834   3.095  13.839  0.2613  0.6087 -1.2464
  373TMC3    C8 5588   2.457   3.263  14.090 -0.5097  0.3243 -0.1062
  373TMC3    O1 5589   2.876   3.107  13.723  0.1482 -0.2122 -0.2486
  373TMC3    O2 5590   2.372   3.330  14.038  0.0465  0.0010 -0.0135
  374TMC3    C1 5591   4.183   3.246   9.553 -0.0655 -0.1504  1.0336
  374TMC3    C2 5592   4.174   3.380   9.584  0.1396  0.3082 -0.5704
  374TMC3    C3 5593   4.219   3.476   9.502 -0.0156 -0.5315  0.2856
  374TMC3    C4 5594   4.225   3.206   9.433 -0.0051  0.2905 -0.2803
  374TMC3    C5 5595   4.255   3.308   9.341  0.6798  0.1072  0.8809
  374TMC3    C6 5596   4.263   3.442   9.374 -0.1020  0.7704  0.0775
  374TMC3     C 5597   4.124   3.146   9.646  0.8039 -0.2308  0.2231
  374TMC3     O 5598   4.096   3.036   9.592 -0.0064 -0.0544 -0.4784
  374TMC3     H 5599   4.114   3.407   9.670  0.2423 -0.3497 -0.2939
  374TMC3    H1 5600   4.247   3.105   9.402 -2.0246  0.1796 -1.3806
  374TMC3    H2 5601   4.295   3.517   9.303  1.1422  0.3760  0.2222
  374TMC3    C7 5602   4.310   3.273   9.212 -0.4905  0.6405 -0.3990
  374TMC3    C8 5603   4.232   3.611   9.540 -0.3180  0.2443 -0.6793
  374TMC3    O1 5604   4.366   3.359   9.144  0.5546  0.5057  0.3968
  374TMC3    O2 5605   4.238   3.692   9.450 -0.4332  0.0653 -0.0117
  375MPD2     C 5606   3.819   0.648  16.695 -0.1305 -0.7161 -0.3359
  375MPD2    C1 5607   3.769   0.519  16.699 -0.9234 -0.1551  0.1513
  375MPD2    C2 5608   3.824   0.428  16.613  0.0857 -0.7106 -0.2803
  375MPD2    C3 5609   3.932   0.445  16.530  0.1846  0.3283 -0.0087
  375MPD2    C4 5610   3.980   0.575  16.539 -0.1571  0.3207  0.1365
  375MPD2    C5 5611   3.925   0.675  16.614  0.4330 -0.2472  0.4358
  375MPD2     H 5612   3.789   0.326  16.623 -0.8890 -0.0487  2.8930
  375MPD2    H1 5613   4.075   0.601  16.493  0.0810 -0.6887  0.0577
  375MPD2    H2 5614   3.781   0.728  16.757  1.3090 -0.2104 -0.0914
  375MPD2    H3 5615   3.968   0.774  16.614 -1.6676  0.6653  1.1657
  375MPD2     N 5616   3.993   0.345  16.456  0.1373  0.0649 -0.1392
  375MPD2    H5 5617   4.068   0.362  16.390  3.0829 -0.4392  3.1031
  375MPD2    N1 5618   3.671   0.476  16.795  0.3318 -0.4932 -0.1261
  375MPD2    H7 5619   3.653   0.376  16.797  0.2627 -0.4446  1.5408
  376TMC3    C1 5620   4.055   0.137  16.387 -0.6389  0.2382 -0.4985
  376TMC3    C2 5621   4.184   0.166  16.418 -0.4801  0.3114 -0.3425
  376TMC3    C3 5622   4.272   0.063  16.407  0.3528 -0.6003 -0.3768
  376TMC3    C4 5623   4.010   0.013  16.345  0.2299 -0.1847 -0.5793
  376TMC3    C5 5624   4.104   4.637  16.322 -0.2143 -0.0321 -0.0306
  376TMC3    C6 5625   4.234   4.666  16.349  0.5522 -0.2366 -0.1324
  376TMC3     C 5626   3.958   0.215  16.456 -0.2665 -0.2096 -0.7874
  376TMC3     O 5627   3.858   0.159  16.495 -0.3225  0.4797  0.2873
  376TMC3     H 5628   4.209   0.256  16.473  1.3272 -0.6220  0.3670
  376TMC3    H1 5629   3.907   4.713  16.326  0.6321  0.1477 -3.2826
  376TMC3    H2 5630   4.304   4.593  16.313  0.9948  0.6476 -1.0552
  376TMC3    C7 5631   4.073   4.570  16.192 -0.4647 -0.0381  0.2247
  376TMC3    C8 5632   4.410   0.089  16.431  0.1066 -0.1178  0.5477
  376TMC3    O1 5633   3.970   4.590  16.134  0.3232 -0.5137  0.2145
  376TMC3    O2 5634   4.451   0.202  16.401  0.2554 -0.3369 -0.2470
  377MPD2     C 5635   1.819   4.547  12.780 -0.4119  0.0740  0.0558
  377MPD2    C1 5636   1.893   4.429  12.775 -0.3277 -0.3177  0.0897
  377MPD2    C2 5637   1.844   4.301  12.798  0.0224  0.4301  0.1445
  377MPD2    C3 5638   1.704   4.288  12.797  0.3134  0.0867 -0.2575
  377MPD2    C4 5639   1.631   4.402  12.815 -0.2590  0.1038 -0.1637
  377MPD2    C5 5640   1.689   4.528  12.810 -0.3159  0.0272 -0.0256
  377MPD2     H 5641   1.904   4.212  12.810 -0.0959  0.8627  3.7470
  377MPD2    H1 5642   1.528   4.411  12.848  0.3252  2.2158  1.0489
  377MPD2    H2 5643   1.860   4.647  12.771 -1.1914  0.6877  3.2238
  377MPD2    H3 5644   1.634   4.618  12.834 -0.8128  0.0811 -1.3393
  377MPD2     N 5645   1.628   4.162  12.807  0.3384  0.5822 -0.8657
  377MPD2    H5 5646   1.528   4.162  12.818  0.3731 -1.8771 -0.5924
  377MPD2    N1 5647   2.039   4.445  12.760 -0.5074 -0.3057 -0.1839
  377MPD2    H7 5648   2.071   4.539  12.739  1.3960 -0.9297 -0.0114
  378TMC3    C1 5649   2.363   4.477  12.529  0.5059 -1.0528 -0.7968
  378TMC3    C2 5650   2.249   4.456  12.600 -0.3202  0.0710 -0.6373
  378TMC3    C3 5651   2.262   4.386  12.715 -0.0101 -0.2702  0.5116
  378TMC3    C4 5652   2.482   4.426  12.556  0.0531 -0.3332 -0.5707
  378TMC3    C5 5653   2.491   4.348  12.669  0.3467 -0.4590 -0.1687
  378TMC3    C6 5654   2.380   4.327  12.744 -0.0641  0.0403  0.0992
  378TMC3     C 5655   2.336   4.518  12.392  0.1511  0.5053 -0.3327
  378TMC3     O 5656   2.233   4.580  12.379 -0.2404  0.3672 -0.1856
  378TMC3     H 5657   2.152   4.477  12.557  0.2416 -0.0254 -1.9522
  378TMC3    H1 5658   2.575   4.443  12.502 -0.3363 -3.7397 -2.2945
  378TMC3    H2 5659   2.381   4.247  12.818 -1.1363  1.2344  1.4056
  378TMC3    C7 5660   2.605   4.263  12.702 -0.9032 -0.0120  0.0076
  378TMC3    C8 5661   2.130   4.340  12.766  0.1431  0.4118 -0.1305
  378TMC3    O1 5662   2.601   4.211  12.814 -0.0239 -0.5414 -0.0517
  378TMC3    O2 5663   2.129   4.221  12.798  0.2890  0.2210  0.9144
  379MPD2     C 5664   2.662   2.328  15.950  0.0120  0.5223 -0.0686
  379MPD2    C1 5665   2.743   2.230  15.899  0.1587  0.9545  0.3682
  379MPD2    C2 5666   2.819   2.168  15.994 -0.9350 -0.6891  0.1243
  379MPD2    C3 5667   2.830   2.206  16.130 -0.0099  0.2818  0.4223
  379MPD2    C4 5668   2.737   2.299  16.170  0.0201  0.3577 -0.7681
  379MPD2    C5 5669   2.651   2.358  16.085 -0.2418 -0.0160 -0.2526
  379MPD2     H 5670   2.883   2.086  15.964  1.2173  1.6724 -1.8333
  379MPD2    H1 5671   2.725   2.335  16.272  2.1264 -0.0985 -0.3569
  379MPD2    H2 5672   2.597   2.384  15.884  1.3657 -0.2556 -2.0627
  379MPD2    H3 5673   2.585   2.436  16.120 -0.0480 -1.0055  2.3447
  379MPD2     N 5674   2.913   2.140  16.230  0.2405  0.1177 -0.0832
  379MPD2    H5 5675   2.896   2.157  16.329  1.3646  0.7128  0.0074
  379MPD2    N1 5676   2.739   2.189  15.762  0.2015  0.4964 -0.4925
  379MPD2    H7 5677   2.670   2.228  15.698  0.7369 -0.4192 -1.6367
  380TMC3    C1 5678   2.780   2.037  15.578 -0.3966  0.0972  0.0251
  380TMC3    C2 5679   2.877   1.967  15.510 -0.4895 -0.0011  0.5313
  380TMC3    C3 5680   2.893   1.990  15.378 -0.9686 -0.3829  0.4602
  380TMC3    C4 5681   2.672   2.090  15.514 -0.0445  0.5459 -0.0019
  380TMC3    C5 5682   2.681   2.100  15.380 -0.0554  0.0556 -0.4077
  380TMC3    C6 5683   2.794   2.051  15.311 -0.2910 -0.7880 -0.1908
  380TMC3     C 5684   2.819   2.087  15.707 -0.4435 -0.3016  0.4963
  380TMC3     O 5685   2.930   2.058  15.748  0.5390  0.6120 -0.2958
  380TMC3     H 5686   2.953   1.905  15.556 -1.0121 -1.6331 -0.8151
  380TMC3    H1 5687   2.588   2.130  15.571  1.3619  2.2079  0.9228
  380TMC3    H2 5688   2.794   2.055  15.203  1.1833  1.4121 -0.1063
  380TMC3    C7 5689   2.577   2.155  15.303 -0.4458 -0.0036 -0.0846
  380TMC3    C8 5690   3.025   2.050  15.349  0.0574 -0.2074 -0.6799
  380TMC3    O1 5691   2.605   2.171  15.181  0.3097 -0.4565  0.4431
  380TMC3    O2 5692   3.035   2.107  15.242  0.1764  0.5539 -0.0149
  381TMC3    C1 5693   2.215   3.401  16.563 -0.1344  0.2449  0.0530
  381TMC3    C2 5694   2.305   3.495  16.522 -0.2027  0.7513  0.3707
  381TMC3    C3 5695   2.356   3.576  16.614  0.0713  0.2957  0.0262
  381TMC3    C4 5696   2.185   3.377  16.694 -0.4592  0.5449 -0.3386
  381TMC3    C5 5697   2.239   3.465  16.778  0.8067  0.3167 -0.2999
  381TMC3    C6 5698   2.327   3.557  16.743  0.1199 -0.6761 -0.3512
  381TMC3     C 5699   2.166   3.314  16.459  0.5735 -0.1662 -0.6241
  381TMC3     O 5700   2.217   3.311  16.347 -0.0514 -0.1059  0.7416
  381TMC3     H 5701   2.342   3.502  16.420  0.9668 -1.0184  0.6687
  381TMC3    H1 5702   2.138   3.285  16.726  0.1227  0.7890  1.2310
  381TMC3    H2 5703   2.392   3.593  16.822  1.0387 -1.9481 -0.5388
  381TMC3    C7 5704   2.228   3.437  16.920 -0.9530  0.3284  0.3456
  381TMC3    C8 5705   2.464   3.665  16.565 -0.0109  0.7801 -1.1482
  381TMC3    O1 5706   2.234   3.321  16.954 -0.0008  0.0911  0.4866
  381TMC3    O2 5707   2.527   3.640  16.461 -0.7437  0.3058  0.6207
  382MPD2     C 5708   2.225   1.139  17.006 -0.6369 -0.6355 -0.8278
  382MPD2    C1 5709   2.190   1.159  17.136 -0.0651 -0.0590  0.4705
  382MPD2    C2 5710   2.106   1.066  17.197 -0.0164  0.3186  0.3769
  382MPD2    C3 5711   2.066   0.952  17.133 -0.1713  0.5792  0.8163
  382MPD2    C4 5712   2.117   0.920  17.009 -0.1427 -0.1470 -0.3533
  382MPD2    C5 5713   2.191   1.018  16.949  0.4165 -0.1862 -0.1010
  382MPD2     H 5714   2.082   1.081  17.302  0.8061 -0.6174  0.7040
  382MPD2    H1 5715   2.089   0.830  16.956 -0.1978  0.1776 -0.8793
  382MPD2    H2 5716   2.287   1.205  16.947  1.9998 -2.5981 -0.2115
  382MPD2    H3 5717   2.226   0.997  16.848 -0.6465  0.0884 -0.5332
  382MPD2     N 5718   1.991   0.848  17.193  0.0837 -0.3067 -0.7123
  382MPD2    H5 5719   1.979   0.763  17.139 -1.4184  1.2275 -2.7639
  382MPD2    N1 5720   2.221   1.282  17.187  0.6698 -0.0796  0.2604
  382MPD2    H7 5721   2.257   1.356  17.127 -0.6076 -0.7736 -1.3778
  383TMC3    C1 5722   1.868   0.732  17.346 -0.1220  0.5314  0.6355
  383TMC3    C2 5723   1.793   0.669  17.256  0.0064  0.6081 -0.5343
  383TMC3    C3 5724   1.753   0.542  17.296  0.5167  0.6532  0.7007
  383TMC3    C4 5725   1.880   0.684  17.475  0.0248 -0.7533 -0.7289
  383TMC3    C5 5726   1.826   0.568  17.514 -0.2519  0.3414 -0.2497
  383TMC3    C6 5727   1.769   0.487  17.420  0.1215  0.4399 -0.2198
  383TMC3     C 5728   1.937   0.853  17.320 -0.1030  0.1783 -0.4503
  383TMC3     O 5729   1.960   0.933  17.414 -0.2132  0.9521 -0.1168
  383TMC3     H 5730   1.762   0.720  17.166  0.4997  1.2263 -0.3559
  383TMC3    H1 5731   1.956   0.735  17.534 -2.2630  1.6310  0.1565
  383TMC3    H2 5732   1.710   0.400  17.449 -1.1967  1.1029 -0.9179
  383TMC3    C7 5733   1.862   0.511  17.638  0.1787 -0.3805  0.2789
  383TMC3    C8 5734   1.626   0.507  17.230 -0.1535 -0.3622 -0.6445
  383TMC3    O1 5735   1.936   0.580   0.008 -0.6583 -0.1327 -0.1625
  383TMC3    O2 5736   1.564   0.597  17.171  0.7278  0.2152 -0.7578
  384MPD2     C 5737   3.109   2.619  11.702  0.8278  0.2634 -0.0509
  384MPD2    C1 5738   3.070   2.504  11.774 -0.4115 -0.4023 -0.1913
  384MPD2    C2 5739   3.135   2.386  11.755 -0.3026 -0.2262  0.4756
  384MPD2    C3 5740   3.220   2.376  11.650  0.0827  0.4247 -0.2400
  384MPD2    C4 5741   3.250   2.480  11.556  1.0432 -0.9564  0.1436
  384MPD2    C5 5742   3.191   2.600  11.593 -0.2242 -0.6013 -0.3376
  384MPD2     H 5743   3.111   2.301  11.816 -1.0145  1.1167  2.0726
  384MPD2    H1 5744   3.324   2.466  11.477  0.8055  3.7496 -0.9583
  384MPD2    H2 5745   3.067   2.719  11.712 -1.7422 -0.7475 -0.9262
  384MPD2    H3 5746   3.198   2.688  11.530  1.2852 -0.1450  0.4633
  384MPD2     N 5747   3.303   2.261  11.646 -0.5708  0.3789 -0.4642
  384MPD2    H5 5748   3.387   2.274  11.590 -0.9165 -2.0236 -1.4974
  384MPD2    N1 5749   2.991   2.526  11.892  0.6950 -0.5270 -0.1122
  384MPD2    H7 5750   2.957   2.620  11.910  0.8760  0.1389 -3.3349
  385TMC3    C1 5751   3.372   2.049  11.714  0.1770  0.4920  0.1839
  385TMC3    C2 5752   3.341   1.917  11.721  0.0542  0.0694  0.0153
  385TMC3    C3 5753   3.394   1.846  11.823  0.3408  0.2259 -0.1926
  385TMC3    C4 5754   3.468   2.107  11.797  0.1894 -0.3259  0.1135
  385TMC3    C5 5755   3.520   2.028  11.903  0.2961 -0.3387  0.6770
  385TMC3    C6 5756   3.479   1.897  11.915  0.6684  0.3388 -0.3497
  385TMC3     C 5757   3.263   2.135  11.682 -0.1366  0.8146 -0.1848
  385TMC3     O 5758   3.157   2.089  11.710 -0.4482  0.3099 -0.0353
  385TMC3     H 5759   3.248   1.885  11.675 -0.4223  0.2817  0.8205
  385TMC3    H1 5760   3.505   2.208  11.791 -0.1215 -0.1385  1.4038
  385TMC3    H2 5761   3.542   1.838  11.981 -0.9157 -0.2772  0.6099
  385TMC3    C7 5762   3.494   2.099  12.032  0.3533 -0.2476 -0.6943
  385TMC3    C8 5763   3.310   1.738  11.865  0.4978  0.2619  0.4854
  385TMC3    O1 5764   3.455   2.217  12.012 -0.1823 -0.4918  0.5432
  385TMC3    O2 5765   3.292   1.723  11.983 -0.5985 -0.0661  0.0168
  386TMC3    C1 5766   3.315   4.147  12.256 -0.1986  0.5499  0.2316
  386TMC3    C2 5767   3.409   4.159  12.155  0.0861  0.1616 -0.5047
  386TMC3    C3 5768   3.392   4.263  12.065 -0.2865  0.0954  0.1990
  386TMC3    C4 5769   3.224   4.247  12.284  0.1172  0.2006 -0.0063
  386TMC3    C5 5770   3.212   4.347  12.190 -0.0755  0.0240 -0.4310
  386TMC3    C6 5771   3.295   4.359  12.081 -0.2457 -0.7913 -0.1047
  386TMC3     C 5772   3.329   4.041  12.363 -0.4944  0.4179 -0.7496
  386TMC3     O 5773   3.290   4.069  12.476 -0.1566  0.1893  0.1461
  386TMC3     H 5774   3.486   4.087  12.129  0.9306  0.1045  2.1919
  386TMC3    H1 5775   3.161   4.226  12.369  0.3801 -1.8119 -0.2989
  386TMC3    H2 5776   3.301   4.451  12.025 -0.3247 -0.0902  1.0437
  386TMC3    C7 5777   3.095   4.435  12.188  0.0992 -0.1995 -0.1726
  386TMC3    C8 5778   3.402   4.229  11.928  0.2835 -0.2044  0.4745
  386TMC3    O1 5779   3.029   4.452  12.288  0.0841  0.4490 -0.1130
  386TMC3    O2 5780   3.351   4.306  11.849  0.8989 -0.0774  0.0896
  387MPD2     C 5781   0.831   3.831   9.697 -0.2432 -0.3409  0.1608
  387MPD2    C1 5782   0.871   3.784   9.818 -1.4327 -0.1803  0.0904
  387MPD2    C2 5783   0.914   3.654   9.839  0.6520 -0.4506  0.5813
  387MPD2    C3 5784   0.929   3.567   9.736  0.1807 -0.2403 -0.2074
  387MPD2    C4 5785   0.886   3.615   9.612  0.1872 -0.4264 -0.1500
  387MPD2    C5 5786   0.841   3.743   9.589 -0.2040  0.7918 -0.3130
  387MPD2     H 5787   0.965   3.634   9.933  2.4470  0.7251 -0.1545
  387MPD2    H1 5788   0.894   3.548   9.527 -0.6375  0.3951 -0.8808
  387MPD2    H2 5789   0.787   3.930   9.688  0.6342  0.1419  1.1121
  387MPD2    H3 5790   0.818   3.772   9.487  2.9803  1.8617 -0.7302
  387MPD2     N 5791   0.989   3.439   9.753 -0.1579 -0.1396  0.1256
  387MPD2    H5 5792   1.032   3.424   9.844 -2.1024  0.7696  1.1969
  387MPD2    N1 5793   0.882   3.868   9.929 -0.5628  0.6346 -0.2919
  387MPD2    H7 5794   0.902   3.820  10.016 -0.2753 -0.4331 -0.9345
  388TMC3    C1 5795   0.951   4.042  10.067 -0.1940  0.2620  1.1548
  388TMC3    C2 5796   0.924   4.165  10.111 -0.6713  0.6800  0.2345
  388TMC3    C3 5797   0.997   4.201  10.219 -0.2582 -0.7258 -0.5971
  388TMC3    C4 5798   1.037   3.952  10.129  1.1802 -0.6846 -0.6150
  388TMC3    C5 5799   1.089   3.989  10.248  0.7214 -0.3456  0.4615
  388TMC3    C6 5800   1.065   4.115  10.302  0.4891 -0.0833 -0.1904
  388TMC3     C 5801   0.891   4.007   9.938 -0.0107 -0.9217 -0.0176
  388TMC3     O 5802   0.857   4.094   9.856  0.3966 -0.4343  0.0413
  388TMC3     H 5803   0.889   4.245  10.046  0.0565 -0.6101 -1.7348
  388TMC3    H1 5804   1.075   3.867  10.074  1.5284 -0.1076 -1.2736
  388TMC3    H2 5805   1.096   4.130  10.405  1.9068 -1.2129 -0.4477
  388TMC3    C7 5806   1.180   3.903  10.317  0.7024 -0.1495 -0.4698
  388TMC3    C8 5807   0.978   4.342  10.263  0.8164 -0.0048  0.5193
  388TMC3    O1 5808   1.277   3.957  10.376 -0.2124 -0.2601  0.1995
  388TMC3    O2 5809   0.890   4.412  10.212 -0.5981  0.3984  0.0019
  389MPD2     C 5810   0.583   2.451  11.432 -0.3276  0.2033  0.1763
  389MPD2    C1 5811   0.531   2.390  11.323 -1.2417  0.5746  0.1741
  389MPD2    C2 5812   0.425   2.301  11.331  0.1110 -0.1001 -0.2868
  389MPD2    C3 5813   0.363   2.287  11.449  0.1523 -0.0453 -0.5193
  389MPD2    C4 5814   0.409   2.357  11.557 -0.2327 -0.1988 -0.4414
  389MPD2    C5 5815   0.519   2.437  11.548  0.6700  0.2744  0.0764
  389MPD2     H 5816   0.383   2.252  11.244 -1.5401  1.7686 -0.5544
  389MPD2    H1 5817   0.358   2.349  11.652 -1.5450 -0.6808 -1.1873
  389MPD2    H2 5818   0.661   2.524  11.416 -1.7996  1.1894 -2.5833
  389MPD2    H3 5819   0.555   2.486  11.638 -2.2524  1.7480  0.4228
  389MPD2     N 5820   0.244   2.215  11.463 -0.4268  0.0669  0.3863
  389MPD2    H5 5821   0.213   2.210  11.560 -1.3118  0.2935  0.1062
  389MPD2    N1 5822   0.595   2.434  11.205 -0.0641  0.0799 -0.1784
  389MPD2    H7 5823   0.670   2.502  11.212  0.8585 -1.1339  1.7559
  390TMC3    C1 5824   0.069   2.057  11.414 -0.1746  0.1658 -0.2786
  390TMC3    C2 5825   0.043   2.060  11.547  0.1464  0.4423 -0.2885
  390TMC3    C3 5826   4.644   2.034  11.589  0.7028  0.2090 -0.1911
  390TMC3    C4 5827   4.695   2.017  11.326 -0.4237  0.4816 -0.0826
  390TMC3    C5 5828   4.567   1.993  11.368  0.3833  0.4118 -0.8151
  390TMC3    C6 5829   4.541   2.020  11.497  0.1869  0.0987  0.1519
  390TMC3     C 5830   0.173   2.144  11.362 -0.6346  0.5319 -0.6340
  390TMC3     O 5831   0.185   2.151  11.240  0.0404  0.3404  0.1151
  390TMC3     H 5832   0.118   2.066  11.625  1.7723 -2.9337 -1.6077
  390TMC3    H1 5833   4.724   1.998  11.223 -1.8999 -0.4046 -0.3278
  390TMC3    H2 5834   4.440   2.020  11.536 -0.3045  0.5706 -1.1512
  390TMC3    C7 5835   4.492   1.875  11.313  0.1837  0.3602  0.2616
  390TMC3    C8 5836   4.637   1.926  11.687 -0.6189  0.1520  0.1398
  390TMC3    O1 5837   4.543   1.820  11.215  0.2135 -0.2995  0.2084
  390TMC3    O2 5838   4.673   1.949  11.803  0.8379 -0.1786  0.6161
  391MPD2     C 5839   4.271   3.484  11.126 -0.2363 -0.0867 -0.8299
  391MPD2    C1 5840   4.370   3.580  11.112  0.4049  0.4522  0.3121
  391MPD2    C2 5841   4.404   3.609  10.980 -0.4362 -0.5242  0.2223
  391MPD2    C3 5842   4.344   3.557  10.869  0.4152  0.3785  0.0577
  391MPD2    C4 5843   4.247   3.462  10.883  0.5407  0.1536 -0.0967
  391MPD2    C5 5844   4.212   3.426  11.016  0.3769 -0.5472 -0.1251
  391MPD2     H 5845   4.466   3.695  10.957 -1.4913 -0.0263 -0.7926
  391MPD2    H1 5846   4.193   3.410  10.804  2.5634 -0.4641 -1.0710
  391MPD2    H2 5847   4.243   3.444  11.223 -0.5913  0.4477 -0.7107
  391MPD2    H3 5848   4.132   3.354  11.033  0.0907 -0.6960 -2.0754
  391MPD2     N 5849   4.384   3.605  10.741  0.1560  0.3247 -0.7194
  391MPD2    H5 5850   4.471   3.656  10.742  0.0597  0.4652  0.0632
  391MPD2    N1 5851   4.428   3.647  11.220  0.0688  0.2100 -0.5780
  391MPD2    H7 5852   4.381   3.649  11.309 -0.0314 -0.5980 -0.6159
  392TMC3    C1 5853   4.384   3.670  10.514 -0.6391  0.1740  0.2881
  392TMC3    C2 5854   4.307   3.691  10.411  0.0893  0.3437  0.0370
  392TMC3    C3 5855   4.353   3.786  10.315 -0.1216 -0.4679 -0.8772
  392TMC3    C4 5856   4.503   3.731  10.542 -0.7528 -0.1691  0.2145
  392TMC3    C5 5857   4.540   3.821  10.445 -0.2273 -0.4798  0.7001
  392TMC3    C6 5858   4.468   3.860  10.326  0.9592  0.2625  0.7843
  392TMC3     C 5859   4.329   3.581  10.618 -0.0577  0.4334  0.4348
  392TMC3     O 5860   4.220   3.530  10.593  0.6147  0.6469 -0.2041
  392TMC3     H 5861   4.217   3.632  10.395 -1.0928  1.8351  1.1832
  392TMC3    H1 5862   4.568   3.719  10.628 -0.3815  3.6167  0.4399
  392TMC3    H2 5863   4.497   3.934  10.252  2.1767  0.3308  1.3380
  392TMC3    C7 5864   4.644   3.915  10.490 -0.5752  0.2623 -0.3335
  392TMC3    C8 5865   4.291   3.765  10.185 -0.3706 -0.4182  0.2595
  392TMC3    O1 5866   4.685   3.905  10.605  0.6556  0.6413  0.3924
  392TMC3    O2 5867   4.222   3.665  10.167  0.0222 -0.1318  0.1648
  393TMC3    C1 5868   4.155   1.721  10.325  0.2270 -0.4578  0.4025
  393TMC3    C2 5869   4.053   1.702  10.403 -1.2899 -0.4203 -0.5965
  393TMC3    C3 5870   4.020   1.570  10.430 -0.2311  0.0745 -1.0053
  393TMC3    C4 5871   4.236   1.620  10.282  0.0720 -0.3096 -0.1089
  393TMC3    C5 5872   4.198   1.489  10.297  0.5624 -0.3568  0.0671
  393TMC3    C6 5873   4.085   1.467  10.370  0.1755 -0.2089 -0.8410
  393TMC3     C 5874   4.152   1.848  10.252  0.1617  0.0357 -0.3756
  393TMC3     O 5875   4.038   1.884  10.221 -0.0449  0.6982  0.0174
  393TMC3     H 5876   3.988   1.783  10.434 -0.5404 -0.3662  0.8822
  393TMC3    H1 5877   4.318   1.639  10.213  0.5096  0.9554  0.7751
  393TMC3    H2 5878   4.042   1.368  10.376  0.4343 -0.2456  0.4356
  393TMC3    C7 5879   4.279   1.376  10.265  0.1245  0.1844  0.1713
  393TMC3    C8 5880   3.882   1.546  10.442  0.4460 -0.1859 -0.1770
  393TMC3    O1 5881   4.224   1.266  10.258 -0.1800  0.3464 -0.6594
  393TMC3    O2 5882   3.835   1.477  10.350  0.2620  0.2119 -0.6293
  394TMC3    C1 5883   0.618   2.489  10.982  0.5607  0.4401 -0.8476
  394TMC3    C2 5884   0.541   2.559  10.895 -0.1922  0.3267  0.2041
  394TMC3    C3 5885   0.609   2.632  10.800 -0.0995 -0.1151 -0.0671
  394TMC3    C4 5886   0.753   2.484  10.987 -0.2924 -0.6369 -0.3220
  394TMC3    C5 5887   0.817   2.554  10.885 -0.1109  0.0816 -0.3182
  394TMC3    C6 5888   0.749   2.627  10.794  0.2852 -0.5028  0.1360
  394TMC3     C 5889   0.547   2.410  11.080 -0.0275  0.2042  0.2696
  394TMC3     O 5890   0.441   2.351  11.051  0.0833  0.2260 -0.8526
  394TMC3     H 5891   0.437   2.529  10.888 -0.2158 -0.4527  3.8873
  394TMC3    H1 5892   0.797   2.418  11.060  0.9925  0.7587  0.1681
  394TMC3    H2 5893   0.797   2.661  10.703  0.3509 -1.1605 -0.0768
  394TMC3    C7 5894   0.943   2.505  10.842 -0.0439  0.9824  0.1803
  394TMC3    C8 5895   0.543   2.619  10.671 -0.4092  0.1434 -0.7828
  394TMC3    O1 5896   0.998   2.571  10.759 -0.1344  0.0587  0.0355
  394TMC3    O2 5897   0.434   2.669  10.653  0.1444 -0.1772  0.1103
  395TMC3    C1 5898   0.128   0.596  14.743 -0.1027 -0.0830  0.0831
  395TMC3    C2 5899   0.028   0.624  14.831 -0.0574 -1.0686  0.3635
  395TMC3    C3 5900   0.049   0.692  14.949  0.6555  0.6408  1.2977
  395TMC3    C4 5901   0.252   0.651  14.761  0.0113 -0.2695 -0.4416
  395TMC3    C5 5902   0.270   0.715  14.884 -0.0220  0.3351 -0.3151
  395TMC3    C6 5903   0.170   0.749  14.973 -0.5966 -0.1543 -0.2763
  395TMC3     C 5904   0.142   0.450  14.736  0.6190 -0.1459  0.3892
  395TMC3     O 5905   0.241   0.417  14.797  0.0095 -0.6485  0.5377
  395TMC3     H 5906   4.655   0.584  14.805 -0.7316  0.1870  1.0033
  395TMC3    H1 5907   0.338   0.621  14.702 -0.3844 -1.1790 -0.5470
  395TMC3    H2 5908   0.180   0.805  15.065  0.3536 -0.3741 -0.2442
  395TMC3    C7 5909   0.400   0.699  14.946  0.9735  0.0720 -0.2936
  395TMC3    C8 5910   4.708   0.648  15.070 -0.5341  0.0271  0.0402
  395TMC3    O1 5911   0.444   0.772  15.033  0.0559 -0.1745 -0.0699
  395TMC3    O2 5912   4.722   0.721  15.170  0.2367 -0.5106 -0.4808
  396MPD2     C 5913   4.201   1.012  17.196 -0.1961  1.0548  0.2707
  396MPD2    C1 5914   4.326   0.964  17.218 -0.1810  0.5812  0.3844
  396MPD2    C2 5915   4.431   1.042  17.161 -0.1186 -0.5248 -0.1212
  396MPD2    C3 5916   4.418   1.142  17.071  0.1503 -0.0644 -1.4787
  396MPD2    C4 5917   4.284   1.179  17.039  0.2836  0.0945  0.0071
  396MPD2    C5 5918   4.186   1.116  17.109 -0.1287  0.0234 -0.2982
  396MPD2     H 5919   4.531   1.012  17.191  0.6473  1.8404 -0.3205
  396MPD2    H1 5920   4.261   1.272  16.988  0.6273 -0.1609 -0.6108
  396MPD2    H2 5921   4.114   0.962  17.236  0.8058  1.1443  2.5456
  396MPD2    H3 5922   4.086   1.153  17.093 -1.3920 -3.5015 -0.7099
  396MPD2     N 5923   4.538   1.199  17.023  0.2578 -0.0411 -0.0124
  396MPD2    H5 5924   4.626   1.153  17.039  0.7215  0.2290 -1.7603
  396MPD2    N1 5925   4.358   0.851  17.298 -0.6104 -0.2986  1.1429
  396MPD2    H7 5926   4.454   0.830  17.322 -0.2107  1.3507  0.9493
  397TMC3    C1 5927   4.334   0.642  17.383 -0.8137  0.1422  0.3595
  397TMC3    C2 5928   4.453   0.626  17.311 -0.2594 -0.1731 -0.0905
  397TMC3    C3 5929   4.483   0.507  17.244 -0.1188  0.1114  0.7665
  397TMC3    C4 5930   4.246   0.539  17.388 -0.5386 -0.3937  0.4123
  397TMC3    C5 5931   4.282   0.418  17.336 -0.3274 -0.3926  0.4660
  397TMC3    C6 5932   4.393   0.404  17.256  0.4188  0.4770 -0.2365
  397TMC3     C 5933   4.265   0.764  17.356  0.0880 -0.5309  0.5850
  397TMC3     O 5934   4.148   0.759  17.356  0.1913 -0.2083 -0.4879
  397TMC3     H 5935   4.528   0.704  17.320  0.8956 -1.3472  0.4506
  397TMC3    H1 5936   4.162   0.536  17.458 -0.6502  2.0654  0.3996
  397TMC3    H2 5937   4.413   0.302  17.224 -2.0276  0.4967 -1.7988
  397TMC3    C7 5938   4.241   0.300  17.399  0.2439  0.1682 -0.3545
  397TMC3    C8 5939   4.589   0.510  17.142 -0.0065 -0.1710  0.2325
  397TMC3    O1 5940   4.183   0.220  17.323 -0.2709 -0.2045  0.7399
  397TMC3    O2 5941   4.626   0.616  17.096  0.3374 -0.1369 -0.0314
  398MPD2     C 5942   2.740   1.618  17.628 -0.7970 -0.0069 -0.1968
  398MPD2    C1 5943   2.767   1.550   0.044  0.2273 -0.0418 -0.3950
  398MPD2    C2 5944   2.878   1.587   0.119  0.3518 -0.0569  0.0553
  398MPD2    C3 5945   2.959   1.689   0.073  0.0485  0.0034  0.0309
  398MPD2    C4 5946   2.930   1.765  17.666 -0.1400  0.1940  0.0213
  398MPD2    C5 5947   2.822   1.720  17.590  0.1152 -0.6524  0.4273
  398MPD2     H 5948   2.898   1.536   0.213  0.3862 -1.4369 -0.6955
  398MPD2    H1 5949   2.995   1.845  17.631  0.8007 -1.7557 -2.7220
  398MPD2    H2 5950   2.668   1.589  17.553  1.1413 -2.2788 -1.1574
  398MPD2    H3 5951   2.804   1.773  17.497 -0.4134 -0.8281  0.4273
  398MPD2     N 5952   3.056   1.727   0.171  0.4453  0.0735 -0.1996
  398MPD2    H5 5953   3.046   1.684   0.263  2.7058  0.5904  0.2850
  398MPD2    N1 5954   2.701   1.430   0.082 -0.5415 -0.3973  0.9760
  398MPD2    H7 5955   2.729   1.392   0.172 -0.1510  0.9893  1.4430
  399TMC3    C1 5956   2.549   1.250   0.072  0.3025 -0.2698 -0.0343
  399TMC3    C2 5957   2.557   1.238   0.208 -0.0937  0.3332  0.0192
  399TMC3    C3 5958   2.496   1.133   0.270 -0.6838  0.3406  0.5009
  399TMC3    C4 5959   2.474   1.165  17.693 -0.3817  1.2762  0.5757
  399TMC3    C5 5960   2.405   1.054   0.058  0.0808 -0.5185 -0.3242
  399TMC3    C6 5961   2.420   1.043   0.195  0.4764 -0.1933 -0.4786
  399TMC3     C 5962   2.596   1.373   0.009 -0.6643  0.0331  0.7680
  399TMC3     O 5963   2.542   1.414  17.609 -0.7036  0.6737 -0.3599
  399TMC3     H 5964   2.594   1.318   0.271 -0.8359  2.6618 -2.4753
  399TMC3    H1 5965   2.450   1.198  17.593 -1.0747 -3.2977 -0.7657
  399TMC3    H2 5966   2.380   0.961   0.253 -1.9188 -0.8989 -3.1121
  399TMC3    C7 5967   2.344   0.941  17.691  0.1927 -0.1769 -0.5671
  399TMC3    C8 5968   2.553   1.073   0.398  0.3510  0.0742  0.5044
  399TMC3    O1 5969   2.290   0.856   0.060  0.0639  0.5559  0.3562
  399TMC3    O2 5970   2.475   0.997   0.455  0.3958 -0.0313  0.3069
  400TMC3    C1 5971   1.505   0.316  16.825 -0.5605 -1.0564  0.5257
  400TMC3    C2 5972   1.369   0.345  16.825 -0.0821  0.7941 -0.3797
  400TMC3    C3 5973   1.343   0.480  16.833  0.7123  0.2592 -0.0543
  400TMC3    C4 5974   1.606   0.407  16.840  0.4336  0.5362  0.4963
  400TMC3    C5 5975   1.571   0.537  16.851 -0.0289 -0.7644  0.2641
  400TMC3    C6 5976   1.442   0.577  16.843 -0.1543 -0.0016 -0.2411
  400TMC3     C 5977   1.536   0.173  16.847 -1.2932  0.7138  1.1645
  400TMC3     O 5978   1.451   0.088  16.821  0.0520  0.3862  0.3352
  400TMC3     H 5979   1.290   0.271  16.827  0.1020  0.5660 -1.4665
  400TMC3    H1 5980   1.711   0.384  16.829  0.2121 -0.2174 -0.0260
  400TMC3    H2 5981   1.426   0.683  16.834  0.2073  0.1984  1.3966
  400TMC3    C7 5982   1.671   0.626  16.802  0.1194  0.6290 -0.6350
  400TMC3    C8 5983   1.201   0.518  16.844  0.2114 -0.0440 -0.4357
  400TMC3    O1 5984   1.737   0.593  16.704 -0.0249  0.0648 -0.1621
  400TMC3    O2 5985   1.193   0.638  16.868  0.4497 -0.3910  0.3739
  401MPD2     C 5986   4.642   4.049   0.914  0.6603  0.4866 -0.5532
  401MPD2    C1 5987   4.678   3.938   0.983 -0.0025 -0.3371 -0.2647
  401MPD2    C2 5988   4.633   3.817   0.954  0.3991 -0.1983 -0.3190
  401MPD2    C3 5989   4.550   3.802   0.844 -0.0165  0.2627  0.5170
  401MPD2    C4 5990   4.496   3.914   0.783 -0.4159  0.1079 -0.1176
  401MPD2    C5 5991   4.547   4.036   0.815 -0.3992 -0.2626 -0.1167
  401MPD2     H 5992   4.666   3.729   1.008 -1.2139  0.2328  1.3460
  401MPD2    H1 5993   4.420   3.904   0.706  0.3659  1.4967 -1.0602
  401MPD2    H2 5994   4.682   4.147   0.937 -1.4315  1.1198  0.2827
  401MPD2    H3 5995   4.498   4.126   0.779  1.0179 -0.6379 -2.9170
  401MPD2     N 5996   4.515   3.673   0.806  0.3939  0.2649 -0.5351
  401MPD2    H5 5997   4.531   3.600   0.874 -0.0669  1.1657  0.5335
  401MPD2    N1 5998   0.054   3.940   1.090 -0.2900 -0.1022  0.2870
  401MPD2    H7 5999   0.078   3.855   1.141 -0.4358 -0.5023 -0.3058
  402TMC3    C1 6000   4.456   3.496   0.666 -0.0593  0.0171  0.1696
  402TMC3    C2 6001   4.413   3.432   0.777 -0.6561  0.0168 -0.0407
  402TMC3    C3 6002   4.418   3.297   0.779 -0.4685 -0.1622  0.6073
  402TMC3    C4 6003   4.512   3.441   0.556  0.5981  0.0748 -0.1785
  402TMC3    C5 6004   4.522   3.304   0.563  0.4022 -0.4518 -0.2587
  402TMC3    C6 6005   4.471   3.232   0.668 -0.5259 -0.1819 -0.3293
  402TMC3     C 6006   4.475   3.638   0.679  0.3470 -0.4262  0.3635
  402TMC3     O 6007   4.496   3.709   0.581  0.3348 -0.0484 -0.1893
  402TMC3     H 6008   4.351   3.477   0.854  0.0750 -0.0078  0.5675
  402TMC3    H1 6009   4.566   3.498   0.482 -0.1541  1.6286  0.4757
  402TMC3    H2 6010   4.474   3.124   0.662 -0.2370 -0.0788 -2.1256
  402TMC3    C7 6011   4.633   3.243   0.490 -0.8079 -0.7108  0.5289
  402TMC3    C8 6012   4.447   3.244   0.907 -0.4155  0.0491 -0.1647
  402TMC3    O1 6013   4.687   3.299   0.394  0.1847  0.3289  0.1116
  402TMC3    O2 6014   4.544   3.169   0.912 -0.1922 -0.4095  0.4949
  403MPD2     C 6015   2.608   2.108  13.625 -0.1875  0.1184 -0.4663
  403MPD2    C1 6016   2.716   2.052  13.559 -0.4600  0.2890  0.1670
  403MPD2    C2 6017   2.838   2.052  13.621 -0.6529 -0.0194 -0.8900
  403MPD2    C3 6018   2.844   2.090  13.751  0.2859  0.1671 -0.6330
  403MPD2    C4 6019   2.735   2.139  13.817 -0.4985 -1.0497  0.4763
  403MPD2    C5 6020   2.621   2.162  13.746 -0.7762  0.1277 -0.7678
  403MPD2     H 6021   2.928   2.011  13.575  1.2811  2.9252  0.2637
  403MPD2    H1 6022   2.732   2.167  13.922  1.0328 -0.8720  0.4799
  403MPD2    H2 6023   2.515   2.095  13.570 -0.1236  0.5094 -0.6675
  403MPD2    H3 6024   2.534   2.201  13.798 -0.2181  1.0740 -0.5358
  403MPD2     N 6025   2.967   2.073  13.820  0.4621  0.7466 -0.4672
  403MPD2    H5 6026   3.041   2.027  13.767  0.1511  1.5535 -1.5922
  403MPD2    N1 6027   2.698   1.987  13.433 -0.2744  0.4401  0.2590
  403MPD2    H7 6028   2.604   1.961  13.405  0.3987 -2.5365  0.8286
  404TMC3    C1 6029   2.782   1.843  13.270 -0.2767 -0.2013 -0.2938
  404TMC3    C2 6030   2.744   1.729  13.328  0.4160 -0.4835  0.0461
  404TMC3    C3 6031   2.742   1.616  13.250  0.3015 -0.4642  0.4052
  404TMC3    C4 6032   2.809   1.857  13.142 -0.2815 -0.1281  0.9416
  404TMC3    C5 6033   2.805   1.748  13.059  0.1899  0.4020  0.1211
  404TMC3    C6 6034   2.762   1.630  13.109 -1.3146 -0.5467  0.0572
  404TMC3     C 6035   2.805   1.959  13.350 -0.3290 -0.3430 -0.1317
  404TMC3     O 6036   2.924   2.000  13.340 -0.2079 -0.2107  0.3342
  404TMC3     H 6037   2.739   1.715  13.436  0.1994  1.5875  0.3021
  404TMC3    H1 6038   2.830   1.958  13.107 -0.6593 -0.4903 -0.2968
  404TMC3    H2 6039   2.754   1.533  13.061 -0.3911 -1.9039  2.6183
  404TMC3    C7 6040   2.780   1.770  12.912 -0.2479 -0.2866  0.5402
  404TMC3    C8 6041   2.830   1.508  13.304 -0.3274  0.4009 -0.0068
  404TMC3    O1 6042   2.843   1.866  12.870 -0.6996 -0.3298  0.5913
  404TMC3    O2 6043   2.911   1.462  13.229 -0.0289  0.1767 -0.0621
  405MPD2     C 6044   3.262   2.601  14.653 -0.1729 -0.4168  0.4528
  405MPD2    C1 6045   3.173   2.509  14.599 -0.1290  0.3510  0.6589
  405MPD2    C2 6046   3.043   2.509  14.645 -0.4680  0.3190 -0.2259
  405MPD2    C3 6047   2.999   2.609  14.729  0.4237 -0.4898  0.3898
  405MPD2    C4 6048   3.086   2.702  14.776  0.5567  0.8413 -0.9753
  405MPD2    C5 6049   3.219   2.693  14.741  0.4011  0.1681 -0.6197
  405MPD2     H 6050   2.975   2.432  14.609  2.5211 -2.1834 -0.5333
  405MPD2    H1 6051   3.063   2.789  14.837  1.3720  0.7794 -0.5742
  405MPD2    H2 6052   3.366   2.608  14.622 -0.7426  0.9595 -1.1136
  405MPD2    H3 6053   3.292   2.764  14.779  1.7721  0.3906 -3.6396
  405MPD2     N 6054   2.863   2.615  14.760  0.0011 -0.0282 -0.5381
  405MPD2    H5 6055   2.801   2.544  14.722  1.2379 -2.1760  1.4893
  405MPD2    N1 6056   3.222   2.414  14.505 -0.7348  0.2473  0.5967
  405MPD2    H7 6057   3.322   2.403  14.490 -0.8367 -1.5616  1.3641
  406TMC3    C1 6058   2.421   2.734  14.780 -0.3836 -0.2634 -0.3102
  406TMC3    C2 6059   2.386   2.601  14.764 -0.2995  0.3834 -0.8866
  406TMC3    C3 6060   2.495   2.510  14.774 -0.5436  0.5089  0.8980
  406TMC3    C4 6061   2.552   2.776  14.807 -0.1724  0.5029 -0.4635
  406TMC3    C5 6062   2.651   2.684  14.813  0.5931 -0.0921 -0.4695
  406TMC3    C6 6063   2.626   2.548  14.790 -0.2912 -0.1056  0.1224
  406TMC3     C 6064   2.316   2.832  14.781  0.2093 -0.0702  0.1481
  406TMC3     O 6065   2.355   2.942  14.731  0.0398 -0.3697  0.3131
  406TMC3     H 6066   2.281   2.577  14.753 -0.2579  0.0325 -0.4985
  406TMC3    H1 6067   2.562   2.881  14.829  1.7878  0.6429 -2.0437
  406TMC3    H2 6068   2.701   2.473  14.813  0.9652  0.8757 -0.7332
  406TMC3    C7 6069   2.794   2.719  14.823  0.0015  0.0915  0.2136
  406TMC3    C8 6070   2.474   2.372  14.732 -0.2761  0.0640 -0.1235
  406TMC3    O1 6071   2.827   2.824  14.877  0.2524 -0.3009 -0.3830
  406TMC3    O2 6072   2.378   2.312  14.780  0.7803  1.0108  0.3064
  407MPD2     C 6073   0.477   3.094   9.520 -0.7663  0.0624 -0.0417
  407MPD2    C1 6074   0.600   3.161   9.557 -0.0194  0.3061 -0.6140
  407MPD2    C2 6075   0.614   3.181   9.692 -0.1417  0.2823  0.2215
  407MPD2    C3 6076   0.534   3.116   9.790 -0.5725 -0.2805  0.3581
  407MPD2    C4 6077   0.426   3.045   9.751  0.3744 -0.2199 -0.0021
  407MPD2    C5 6078   0.399   3.037   9.616 -0.1400 -0.2919 -0.2391
  407MPD2     H 6079   0.691   3.243   9.737 -1.1296  0.0895  2.1829
  407MPD2    H1 6080   0.364   2.998   9.826  1.5206 -2.6780 -0.5969
  407MPD2    H2 6081   0.444   3.100   9.417 -0.3838 -3.2489 -0.3346
  407MPD2    H3 6082   0.306   2.989   9.586  0.4652 -0.9005 -1.1491
  407MPD2     N 6083   0.544   3.132   9.935 -0.4568 -0.0241  0.0146
  407MPD2    H5 6084   0.467   3.103   9.994 -1.8018  0.0005 -1.6987
  407MPD2    N1 6085   0.692   3.207   9.459 -0.3199 -0.3480 -0.4733
  407MPD2    H7 6086   0.776   3.257   9.485  0.4251 -1.2331 -1.1849
  408TMC3    C1 6087   0.803   3.209   9.254  0.1032  0.2985  0.4663
  408TMC3    C2 6088   0.893   3.110   9.223  0.2436  0.0377 -0.0659
  408TMC3    C3 6089   1.024   3.151   9.209  0.4620 -0.0318 -0.6404
  408TMC3    C4 6090   0.836   3.342   9.259  0.0712 -0.2810  0.2273
  408TMC3    C5 6091   0.965   3.372   9.238  0.5679  0.2920  0.7669
  408TMC3    C6 6092   1.058   3.282   9.212  0.2372  0.1494 -0.0910
  408TMC3     C 6093   0.689   3.158   9.330  0.0163  0.1987 -0.1193
  408TMC3     O 6094   0.616   3.076   9.272 -0.3344  0.4593  0.0307
  408TMC3     H 6095   0.854   3.010   9.241 -1.3871  0.3407 -1.8854
  408TMC3    H1 6096   0.778   3.418   9.310 -0.7829 -1.2165  0.6267
  408TMC3    H2 6097   1.156   3.314   9.177  0.1507  0.1943 -0.2902
  408TMC3    C7 6098   1.017   3.501   9.264  0.1453 -0.5704 -0.5781
  408TMC3    C8 6099   1.129   3.062   9.251 -0.1150  0.2613 -0.3827
  408TMC3    O1 6100   1.133   3.512   9.302  0.9069  0.6634  0.0943
  408TMC3    O2 6101   1.097   2.947   9.274 -0.1316 -0.1537  0.0999
  409MPD2     C 6102   0.217   0.188  17.473 -0.2732 -0.5322 -0.1290
  409MPD2    C1 6103   0.343   0.202  17.532 -1.0847 -0.0420 -0.6519
  409MPD2    C2 6104   0.439   0.288  17.484  0.5121  0.6119  0.1139
  409MPD2    C3 6105   0.409   0.363  17.371  0.4261 -0.7879  0.4379
  409MPD2    C4 6106   0.277   0.360  17.318 -0.0952 -0.2284 -0.1230
  409MPD2    C5 6107   0.187   0.272  17.367 -0.2547  0.8015 -0.8148
  409MPD2     H 6108   0.534   0.304  17.534  0.1209 -0.1220  1.0785
  409MPD2    H1 6109   0.245   0.421  17.235  1.4719 -0.0390 -0.5916
  409MPD2    H2 6110   0.131   0.127  17.499 -1.5900 -0.2644 -3.7913
  409MPD2    H3 6111   0.084   0.291  17.340  0.1362  0.9488 -2.1829
  409MPD2     N 6112   0.510   0.441  17.304  0.0281 -0.0909 -0.6690
  409MPD2    H5 6113   0.472   0.522  17.255  2.8304  1.6463 -0.0077
  409MPD2    N1 6114   0.371   0.122  17.648  0.1759  0.4159  0.0915
  409MPD2    H7 6115   0.466   0.136  17.680  0.0144 -1.5307  1.4336
  410TMC3    C1 6116   0.736   0.510  17.249  0.3810  0.0118 -0.2222
  410TMC3    C2 6117   0.871   0.485  17.253 -0.3241 -0.5278  0.2704
  410TMC3    C3 6118   0.963   0.582  17.210  0.6760 -0.7781 -0.5416
  410TMC3    C4 6119   0.697   0.641  17.227  0.2853  0.3007 -0.3188
  410TMC3    C5 6120   0.789   0.733  17.180  0.4326  0.1673  0.3462
  410TMC3    C6 6121   0.923   0.704  17.174  0.8380 -0.0086  0.3852
  410TMC3     C 6122   0.644   0.410  17.305  0.5635  0.4482  0.8985
  410TMC3     O 6123   0.696   0.309  17.348  0.4825 -0.1821  0.0868
  410TMC3     H 6124   0.909   0.395  17.301 -1.9827 -0.7191  1.2481
  410TMC3    H1 6125   0.591   0.657  17.241  0.2446  0.2091 -0.5184
  410TMC3    H2 6126   1.006   0.773  17.166 -0.4627  1.6509  1.2993
  410TMC3    C7 6127   0.753   0.843  17.091  0.5792 -0.3520 -0.5205
  410TMC3    C8 6128   1.104   0.549  17.196  0.2607  0.1547  0.3904
  410TMC3    O1 6129   0.843   0.920  17.069 -0.3552  0.2927  0.7022
  410TMC3    O2 6130   1.188   0.635  17.180 -0.4838 -0.4467  0.2160
  411MPD2     C 6131   0.839   0.750  14.681  0.1282 -0.3630  0.3698
  411MPD2    C1 6132   0.705   0.795  14.650 -0.2111 -0.0840  0.1492
  411MPD2    C2 6133   0.615   0.707  14.609 -0.2754 -0.2775 -0.0844
  411MPD2    C3 6134   0.642   0.573  14.596  0.1836 -0.4170  0.3669
  411MPD2    C4 6135   0.768   0.532  14.640  0.4075  0.0868  0.0635
  411MPD2    C5 6136   0.866   0.617  14.679  0.4250 -0.3393  0.5466
  411MPD2     H 6137   0.515   0.739  14.581 -1.3772 -2.8960  0.8362
  411MPD2    H1 6138   0.803   0.429  14.644 -0.7350 -0.3107 -0.0322
  411MPD2    H2 6139   0.922   0.817  14.701  0.7716 -0.9137 -0.4769
  411MPD2    H3 6140   0.963   0.574  14.700  0.0038 -1.7508 -0.3767
  411MPD2     N 6141   0.546   0.476  14.559 -0.0202 -0.1113 -0.1639
  411MPD2    H5 6142   0.577   0.379  14.565  2.5043  0.7479  0.6528
  411MPD2    N1 6143   0.664   0.933  14.650  0.4046  1.7316  0.3952
  411MPD2    H7 6144   0.569   0.951  14.620  0.5765  0.1154 -1.1864
  412TMC3    C1 6145   0.358   0.383  14.446  0.8833  0.0698  0.9634
  412TMC3    C2 6146   0.234   0.401  14.398  0.1343  0.1166  0.5890
  412TMC3    C3 6147   0.163   0.298  14.339 -0.6143  0.2027 -0.0185
  412TMC3    C4 6148   0.423   0.268  14.422 -0.8869 -0.8300  0.1503
  412TMC3    C5 6149   0.355   0.160  14.356 -0.2133 -0.1341 -0.5772
  412TMC3    C6 6150   0.232   0.180  14.312  0.1307  0.5222  0.4252
  412TMC3     C 6151   0.426   0.497  14.506  0.4497 -0.6618  1.5634
  412TMC3     O 6152   0.370   0.605  14.479 -0.1401 -0.4874 -0.4720
  412TMC3     H 6153   0.186   0.497  14.413 -0.2021 -0.0725  0.7192
  412TMC3    H1 6154   0.523   0.256  14.462 -1.3572 -2.8792  0.7430
  412TMC3    H2 6155   0.177   0.101  14.263  0.4118  0.6577 -0.1072
  412TMC3    C7 6156   0.432   0.114  14.244 -0.0434 -0.4270  0.3440
  412TMC3    C8 6157   0.098   0.336  14.220  0.3390  0.5024  0.0596
  412TMC3    O1 6158   0.396   0.167  14.145  0.4073  0.6078  0.7314
  412TMC3    O2 6159   0.005   0.414  14.226 -0.2762  0.1967  0.2709
  413MPD2     C 6160   2.189   4.052  15.451 -0.0881  0.2544 -0.5934
  413MPD2    C1 6161   2.106   3.952  15.408  0.1144  0.1811 -0.1270
  413MPD2    C2 6162   2.135   3.819  15.447  0.2461 -0.5611 -0.0510
  413MPD2    C3 6163   2.255   3.786  15.500  0.0115 -0.1704 -0.0252
  413MPD2    C4 6164   2.342   3.889  15.533  0.0140  0.0427 -0.2038
  413MPD2    C5 6165   2.309   4.015  15.507 -0.4235  0.3111  0.7443
  413MPD2     H 6166   2.061   3.744  15.422 -0.5285 -0.3652  1.6362
  413MPD2    H1 6167   2.435   3.870  15.586 -0.4344  0.8818  0.8654
  413MPD2    H2 6168   2.165   4.157  15.450  1.1366  0.5495  0.2844
  413MPD2    H3 6169   2.383   4.090  15.534  0.5971 -0.0687 -0.9965
  413MPD2     N 6170   2.270   3.652  15.536 -0.1908 -0.1183 -0.1657
  413MPD2    H5 6171   2.187   3.593  15.529 -1.0126  1.2528 -1.7154
  413MPD2    N1 6172   1.986   3.987  15.350  0.3991 -0.0850  0.1312
  413MPD2    H7 6173   1.953   4.082  15.366 -0.3625 -0.5823  1.6122
  414TMC3    C1 6174   2.355   3.456  15.653  0.6164 -0.6932 -0.1542
  414TMC3    C2 6175   2.456   3.400  15.723  0.1622  0.1191 -0.3108
  414TMC3    C3 6176   2.448   3.279  15.782  0.2061 -0.0044  0.9910
  414TMC3    C4 6177   2.243   3.389  15.620 -0.2128 -0.4402 -0.0276
  414TMC3    C5 6178   2.252   3.259  15.654 -0.1093  0.0244  0.0222
  414TMC3    C6 6179   2.343   3.204  15.747  0.5216 -0.3079 -0.3875
  414TMC3     C 6180   2.373   3.597  15.611 -0.0359  0.2090  0.6622
  414TMC3     O 6181   2.467   3.657  15.651 -0.0495 -0.4906  0.0910
  414TMC3     H 6182   2.545   3.460  15.736 -0.6863  1.2436  0.3185
  414TMC3    H1 6183   2.178   3.417  15.538  0.3619  1.3317  0.0997
  414TMC3    H2 6184   2.342   3.100  15.779 -0.9566 -0.4303 -0.8201
  414TMC3    C7 6185   2.141   3.182  15.591  0.0801 -0.2265  0.5541
  414TMC3    C8 6186   2.571   3.202  15.772 -0.0059 -0.1977  0.4682
  414TMC3    O1 6187   2.034   3.239  15.601  0.2861  0.4561  0.1104
  414TMC3    O2 6188   2.567   3.085  15.742  0.5467 -0.4942 -0.3028
  415TMC3    C1 6189   3.250   1.067   9.782 -0.0798  0.3297  0.8574
  415TMC3    C2 6190   3.376   1.097   9.727 -0.2094 -0.0737  0.4898
  415TMC3    C3 6191   3.399   1.073   9.595 -0.7213  0.1736 -0.1779
  415TMC3    C4 6192   3.151   1.000   9.705  0.0871 -0.0347  0.4819
  415TMC3    C5 6193   3.181   0.992   9.570  0.2466  0.0505  0.1773
  415TMC3    C6 6194   3.301   1.031   9.515  0.1083 -0.4756 -0.5774
  415TMC3     C 6195   3.212   1.088   9.917 -0.1537  0.2781  0.6638
  415TMC3     O 6196   3.105   1.038   9.953 -0.3914  0.1666  0.1219
  415TMC3     H 6197   3.458   1.142   9.782 -0.1256 -0.5820  0.7855
  415TMC3    H1 6198   3.055   0.964   9.740 -0.1152 -1.6764 -1.7436
  415TMC3    H2 6199   3.319   1.025   9.408 -0.2758  0.5115 -0.7004
  415TMC3    C7 6200   3.109   0.903   9.480  0.0510  0.1206  0.3630
  415TMC3    C8 6201   3.529   1.036   9.548  0.1048 -0.0781  0.1041
  415TMC3    O1 6202   3.165   0.847   9.388  0.2343 -0.1370  0.1054
  415TMC3    O2 6203   3.542   0.925   9.492 -0.7538  0.4933  0.3307
  416MPD2     C 6204   4.555   0.439  11.117  0.3128  0.7592  0.5200
  416MPD2    C1 6205   4.494   0.396  11.237  0.3497 -0.3342  0.4070
  416MPD2    C2 6206   4.481   0.258  11.249  0.4325  0.3988 -0.1388
  416MPD2    C3 6207   4.519   0.172  11.150 -0.0448  0.1899 -0.3629
  416MPD2    C4 6208   4.591   0.222  11.050 -0.7035  0.5069  0.1957
  416MPD2    C5 6209   4.612   0.354  11.032 -0.2425 -0.2199 -0.6420
  416MPD2     H 6210   4.428   0.214  11.333  0.7472  0.6727  0.2086
  416MPD2    H1 6211   4.618   0.156  10.968 -1.1291 -1.0062  1.2767
  416MPD2    H2 6212   4.567   0.545  11.099  0.3074  0.6524 -0.0932
  416MPD2    H3 6213   4.658   0.400  10.946  1.2976 -0.0475  0.2807
  416MPD2     N 6214   4.485   0.040  11.160  0.4040 -0.3621 -0.4088
  416MPD2    H5 6215   4.439   0.004  11.242  0.0320  0.2648 -0.3487
  416MPD2    N1 6216   4.430   0.483  11.332  0.7769 -0.1025  0.1283
  416MPD2    H7 6217   4.422   0.582  11.315 -2.2076 -0.8665 -2.8063
  417TMC3    C1 6218   4.293   0.537  11.523 -0.4302 -0.0143  0.0051
  417TMC3    C2 6219   4.260   0.497  11.649 -0.2097  0.4387  0.3343
  417TMC3    C3 6220   4.151   0.550  11.708  0.4990  0.4215 -0.4308
  417TMC3    C4 6221   4.211   0.625  11.457 -0.2083 -0.1885  0.0110
  417TMC3    C5 6222   4.091   0.655  11.511  1.2271 -0.5092 -0.1039
  417TMC3    C6 6223   4.052   0.614  11.639 -0.1981 -0.2673 -0.1193
  417TMC3     C 6224   4.384   0.441  11.459  0.1305 -0.2680  0.1657
  417TMC3     O 6225   4.400   0.341  11.530  0.2107  0.6844 -0.1532
  417TMC3     H 6226   4.323   0.430  11.705 -1.7734 -1.1431  0.1881
  417TMC3    H1 6227   4.233   0.658  11.356 -1.9606  1.9205  0.3495
  417TMC3    H2 6228   3.985   0.663  11.708  1.2211  1.2942  0.1753
  417TMC3    C7 6229   3.992   0.729  11.433  0.0146 -0.9090  0.1905
  417TMC3    C8 6230   4.130   0.531  11.850 -0.4743 -0.0660 -0.0179
  417TMC3    O1 6231   4.039   0.788  11.338 -0.5894  0.1297  0.0443
  417TMC3    O2 6232   4.015   0.529  11.888  0.2877 -0.2407  0.2008
  418TMC3    C1 6233   3.418   1.887   0.374 -0.3051  0.2644  0.0417
  418TMC3    C2 6234   3.347   1.897   0.261  0.1683  0.1337  0.1670
  418TMC3    C3 6235   3.213   1.869   0.277  0.3493  0.3993  0.1195
  418TMC3    C4 6236   3.357   1.865   0.493 -0.6167 -0.0756  0.1643
  418TMC3    C5 6237   3.223   1.853   0.501 -0.6619  0.5635  0.7341
  418TMC3    C6 6238   3.150   1.845   0.391 -1.0561 -0.0452  0.1582
  418TMC3     C 6239   3.564   1.868   0.363  0.2569 -0.1860 -0.0708
  418TMC3     O 6240   3.629   1.951   0.303 -0.1747  0.8841  0.1970
  418TMC3     H 6241   3.393   1.901   0.164  0.1978  1.5129  0.2270
  418TMC3    H1 6242   3.420   1.843   0.578 -0.2683 -0.6535 -0.2385
  418TMC3    H2 6243   3.042   1.835   0.390 -1.0543 -0.0419 -0.0912
  418TMC3    C7 6244   3.171   1.798   0.621  0.2266  0.1336  0.1464
  418TMC3    C8 6245   3.146   1.829   0.154 -0.0448  0.4169  0.1330
  418TMC3    O1 6246   3.066   1.736   0.609 -0.8099  0.1100  0.3467
  418TMC3    O2 6247   3.167   1.906   0.056  0.0653 -0.3510 -0.4463
  419MPD2     C 6248   1.636   0.202  12.384 -0.5081 -0.3418 -1.0685
  419MPD2    C1 6249   1.649   0.337  12.377  0.0606 -0.5084 -0.1177
  419MPD2    C2 6250   1.650   0.416  12.490 -0.1274 -0.5610  1.0117
  419MPD2    C3 6251   1.623   0.359  12.609 -0.1776 -0.2351 -0.6096
  419MPD2    C4 6252   1.587   0.225  12.611  0.4476  0.2048  0.6459
  419MPD2    C5 6253   1.607   0.149  12.502 -0.3022 -0.6993  0.1517
  419MPD2     H 6254   1.666   0.523  12.484  0.3745 -0.7241 -0.4371
  419MPD2    H1 6255   1.539   0.187  12.701 -0.6168  1.0496  0.4277
  419MPD2    H2 6256   1.638   0.139  12.295 -0.5711 -1.0058 -0.6011
  419MPD2    H3 6257   1.590   0.042  12.503 -1.9784 -0.4294 -1.9999
  419MPD2     N 6258   1.619   0.425  12.738 -0.6833 -0.3506  0.6445
  419MPD2    H5 6259   1.572   0.379  12.814 -1.6194 -1.3590 -0.5388
  419MPD2    N1 6260   1.642   0.411  12.260 -0.3833 -0.0995 -0.1242
  419MPD2    H7 6261   1.626   0.510  12.274 -1.4403  0.0151 -2.1379
  420TMC3    C1 6262   1.646   0.586  12.892  0.0379 -0.2908  0.1387
  420TMC3    C2 6263   1.596   0.711  12.918 -0.0159 -0.1527 -0.2267
  420TMC3    C3 6264   1.559   0.732  13.046 -0.3335 -0.0757  0.8362
  420TMC3    C4 6265   1.644   0.483  12.982 -0.2172 -0.2012  0.2309
  420TMC3    C5 6266   1.617   0.517  13.114 -0.9733  0.3594 -0.3834
  420TMC3    C6 6267   1.570   0.640  13.150 -0.2758 -0.4598 -0.0990
  420TMC3     C 6268   1.647   0.557  12.756  0.0024  0.4038  0.1238
  420TMC3     O 6269   1.672   0.649  12.674 -0.1342 -0.7328  0.2662
  420TMC3     H 6270   1.582   0.788  12.843  3.6815  1.5937  0.9220
  420TMC3    H1 6271   1.690   0.388  12.959 -1.5219 -1.2005  1.7233
  420TMC3    H2 6272   1.558   0.669  13.253 -0.2312  1.9054 -0.7555
  420TMC3    C7 6273   1.683   0.445  13.220 -0.2880 -0.1993 -0.0820
  420TMC3    C8 6274   1.455   0.835  13.063  0.3768 -0.5664 -0.1065
  420TMC3    O1 6275   1.620   0.442  13.326  0.2978  0.1018 -0.3179
  420TMC3    O2 6276   1.447   0.920  12.975  0.2834 -0.5148  0.5575
  421TMC3    C1 6277   3.145   2.112  13.955  0.0778  0.2984  0.0025
  421TMC3    C2 6278   3.193   2.228  14.011 -0.4170 -0.1150 -0.1057
  421TMC3    C3 6279   3.329   2.220  14.026 -0.4432  0.6241  0.3310
  421TMC3    C4 6280   3.213   2.008  13.903 -0.4417 -0.2023 -0.5634
  421TMC3    C5 6281   3.348   2.014  13.924  0.2080  0.2880 -0.0967
  421TMC3    C6 6282   3.412   2.114  13.987 -0.4639 -0.5366 -0.6242
  421TMC3     C 6283   3.006   2.127  13.935 -0.0652  0.0784 -0.6467
  421TMC3     O 6284   2.946   2.186  14.022  0.0441  0.2664 -0.4186
  421TMC3     H 6285   3.133   2.316  14.027  0.3291  0.2116  0.8434
  421TMC3    H1 6286   3.155   1.919  13.883  1.8326 -1.4028 -1.8014
  421TMC3    H2 6287   3.517   2.116  14.011 -0.7779 -0.5849  0.7832
  421TMC3    C7 6288   3.438   1.898  13.901  0.3017  0.6656 -0.0167
  421TMC3    C8 6289   3.401   2.340  14.069 -0.1395 -0.5198 -0.8010
  421TMC3    O1 6290   3.545   1.898  13.962 -0.0033 -0.2483  0.3731
  421TMC3    O2 6291   3.524   2.329  14.058  0.3805  0.3495  0.2708
  422TMC3    C1 6292   0.657   3.099  12.623  0.4503  0.7980  0.0018
  422TMC3    C2 6293   0.602   3.215  12.580 -0.8267  0.6309 -0.6678
  422TMC3    C3 6294   0.486   3.248  12.635 -0.1840 -0.3104  0.7097
  422TMC3    C4 6295   0.590   3.007  12.705  0.1777  0.2435  0.2007
  422TMC3    C5 6296   0.470   3.045  12.757  0.1575  0.2883  0.7523
  422TMC3    C6 6297   0.415   3.168  12.724 -0.1204 -0.7103  0.7779
  422TMC3     C 6298   0.754   3.042  12.533  0.1518 -0.5636 -0.2660
  422TMC3     O 6299   0.769   3.108  12.433 -0.0667  0.6457  0.5257
  422TMC3     H 6300   0.644   3.276  12.500  3.4728  0.1205  1.1925
  422TMC3    H1 6301   0.634   2.910  12.725 -0.5028  0.5166  3.1027
  422TMC3    H2 6302   0.317   3.192  12.762  0.9460 -0.0068  3.0799
  422TMC3    C7 6303   0.372   2.937  12.787  0.3331 -0.2063 -0.5056
  422TMC3    C8 6304   0.442   3.379  12.600  0.5590  0.6068  0.5206
  422TMC3    O1 6305   0.405   2.822  12.772  0.0320  0.2676  0.3370
  422TMC3    O2 6306   0.520   3.459  12.560 -0.2057  0.1014 -0.0717
  423MPD2     C 6307   1.750   4.150   0.769 -0.1867 -0.6330  0.0692
  423MPD2    C1 6308   1.812   4.038   0.813  0.4432 -0.5254 -0.0892
  423MPD2    C2 6309   1.917   3.993   0.740 -0.0074  0.5943  0.5300
  423MPD2    C3 6310   1.943   4.047   0.618  0.0816 -0.3261 -0.4106
  423MPD2    C4 6311   1.873   4.154   0.571  0.3482 -0.1716 -0.0849
  423MPD2    C5 6312   1.771   4.202   0.643  0.0200 -0.3185  0.8306
  423MPD2     H 6313   1.963   3.899   0.769 -0.1020  0.0255 -1.1214
  423MPD2    H1 6314   1.895   4.197   0.475 -1.6032  0.2392 -0.3568
  423MPD2    H2 6315   1.669   4.185   0.832  1.6547  2.5861  0.6097
  423MPD2    H3 6316   1.711   4.283   0.602 -0.4818 -0.8398  0.5318
  423MPD2     N 6317   2.041   3.993   0.528 -0.6600 -0.0273 -0.6060
  423MPD2    H5 6318   2.046   4.027   0.432  0.7748 -1.8652 -1.1950
  423MPD2    N1 6319   1.792   3.958   0.930 -0.1472  0.3239  0.1017
  423MPD2    H7 6320   1.835   3.866   0.937  0.1137  0.4996  0.7478
  424TMC3    C1 6321   1.694   3.908   1.145  0.0502 -0.1622  0.6455
  424TMC3    C2 6322   1.784   3.804   1.162  0.0340 -0.9885  0.6114
  424TMC3    C3 6323   1.808   3.761   1.290 -0.3718 -0.2143 -0.1186
  424TMC3    C4 6324   1.643   3.973   1.258 -0.1992 -0.4628  0.5197
  424TMC3    C5 6325   1.654   3.914   1.378 -0.0347 -0.3936  0.0496
  424TMC3    C6 6326   1.745   3.814   1.397  1.0364  0.4420 -0.4863
  424TMC3     C 6327   1.700   3.994   1.027 -0.5554 -0.0560 -0.5283
  424TMC3     O 6328   1.654   4.104   1.047 -0.0442 -0.0587 -0.8646
  424TMC3     H 6329   1.826   3.741   1.084 -0.5775  1.9986 -2.1723
  424TMC3    H1 6330   1.566   4.046   1.237  0.6890  0.6855  1.2852
  424TMC3    H2 6331   1.763   3.775   1.497  1.6627 -0.3216 -0.8988
  424TMC3    C7 6332   1.603   3.982   1.497  0.5741 -0.5252 -0.2976
  424TMC3    C8 6333   1.920   3.670   1.311  0.1700  0.8216  0.0347
  424TMC3    O1 6334   1.596   3.933   1.607 -0.8188  0.0930 -0.0761
  424TMC3    O2 6335   1.944   3.584   1.226 -0.7087  0.7658 -0.4194
  425MPD2     C 6336   1.353   3.606  17.373  0.5853  0.1909 -0.2814
  425MPD2    C1 6337   1.277   3.487  17.344  0.2496 -0.2181 -0.3850
  425MPD2    C2 6338   1.160   3.461  17.403 -0.5093 -0.5216 -0.6607
  425MPD2    C3 6339   1.112   3.551  17.497 -0.8603  0.0869  0.0348
  425MPD2    C4 6340   1.171   3.674  17.510  0.4306 -0.3697  0.5916
  425MPD2    C5 6341   1.294   3.701  17.451 -0.2076 -0.8661  0.5292
  425MPD2     H 6342   1.101   3.377  17.369  0.4655 -2.2110  1.8572
  425MPD2    H1 6343   1.134   3.745  17.583  0.3940  1.4221 -1.1747
  425MPD2    H2 6344   1.454   3.629  17.340  0.8433 -0.1185  0.2923
  425MPD2    H3 6345   1.342   3.794  17.479 -3.2781  0.6563  0.6836
  425MPD2     N 6346   0.999   3.523  17.573  0.6753 -0.0332 -0.4952
  425MPD2    H5 6347   0.936   3.457  17.528  2.6691 -1.7174 -0.7776
  425MPD2    N1 6348   1.341   3.392  17.249 -0.2611  0.2924  0.1905
  425MPD2    H7 6349   1.440   3.412  17.234  0.2378  0.5440  3.6332
  426TMC3    C1 6350   1.386   3.188  17.134  0.1586 -0.5613  0.5709
  426TMC3    C2 6351   1.354   3.120  17.025 -0.3490 -0.7310 -0.4678
  426TMC3    C3 6352   1.421   3.005  17.012  0.2076  0.0672 -0.3501
  426TMC3    C4 6353   1.469   3.142  17.232  0.5468 -0.0864  0.2536
  426TMC3    C5 6354   1.522   3.018  17.225 -0.6606  0.0516  0.8224
  426TMC3    C6 6355   1.504   2.951  17.110 -0.8672  0.4950 -0.3015
  426TMC3     C 6356   1.290   3.277  17.193 -0.2882 -0.4738 -0.0500
  426TMC3     O 6357   1.174   3.244  17.192 -0.1508  0.0981  0.0776
  426TMC3     H 6358   1.263   3.135  16.969 -0.9215 -3.2727 -0.1978
  426TMC3    H1 6359   1.497   3.192  17.324  1.9002 -0.8154  0.2413
  426TMC3    H2 6360   1.560   2.859  17.100 -0.0525  0.7848  1.5307
  426TMC3    C7 6361   1.475   2.921  17.324  0.3189  0.4146 -0.1756
  426TMC3    C8 6362   1.419   2.926  16.894  0.3119  0.5597 -0.3632
  426TMC3    O1 6363   1.467   2.803  17.287 -0.2750  0.1406 -0.9564
  426TMC3    O2 6364   1.449   2.811  16.897  0.0699 -0.1116  0.4245
  427MPD2     C 6365   4.509   1.384  15.406  0.1446 -0.3138  0.6046
  427MPD2    C1 6366   4.490   1.246  15.386  0.0946 -0.1457  0.8348
  427MPD2    C2 6367   4.361   1.201  15.389  0.0601  0.0373 -0.0763
  427MPD2    C3 6368   4.249   1.288  15.402 -0.3909  0.2038 -0.3145
  427MPD2    C4 6369   4.271   1.427  15.423 -0.2783 -0.4970  0.2308
  427MPD2    C5 6370   4.402   1.470  15.417 -0.7299 -0.0307 -0.5222
  427MPD2     H 6371   4.332   1.097  15.381  1.5220 -0.4328  0.8422
  427MPD2    H1 6372   4.192   1.497  15.447 -0.6727 -0.0047 -2.4928
  427MPD2    H2 6373   4.605   1.433  15.416 -0.9656  1.5719  1.9292
  427MPD2    H3 6374   4.423   1.576  15.426  1.1655 -0.4400 -0.2099
  427MPD2     N 6375   4.113   1.245  15.380  0.5378 -0.0240 -0.1621
  427MPD2    H5 6376   4.045   1.319  15.380  0.0631 -0.4573 -0.3474
  427MPD2    N1 6377   4.600   1.155  15.401  0.2187 -0.8233 -0.2208
  427MPD2    H7 6378   4.587   1.057  15.377 -1.4031 -0.8119  0.5810
  428TMC3    C1 6379   0.094   1.078  15.467  0.0147 -0.1164 -0.9705
  428TMC3    C2 6380   0.039   0.976  15.539 -0.7138 -0.2696 -0.3050
  428TMC3    C3 6381   0.120   0.886  15.605 -1.3015 -0.3039  0.0412
  428TMC3    C4 6382   0.231   1.086  15.459 -0.3956  0.5769  0.6215
  428TMC3    C5 6383   0.312   0.993  15.526 -0.3355  0.3532  0.6979
  428TMC3    C6 6384   0.258   0.895  15.603 -0.0814 -0.4663 -0.7857
  428TMC3     C 6385   0.002   1.195  15.443  0.0128 -0.3101  0.4728
  428TMC3     O 6386   0.046   1.303  15.478 -0.3058  0.0212  0.0269
  428TMC3     H 6387   4.659   0.977  15.567 -0.6593  0.1279 -0.1246
  428TMC3    H1 6388   0.272   1.167  15.400  1.6191 -0.8871  0.0233
  428TMC3    H2 6389   0.321   0.816  15.641 -1.5128 -0.8372  0.8328
  428TMC3    C7 6390   0.455   1.033  15.552  0.1807 -0.2724 -0.2011
  428TMC3    C8 6391   0.063   0.776  15.672  0.5893  0.3146  0.0446
  428TMC3    O1 6392   0.517   0.985  15.647 -0.3379 -0.6816 -0.1463
  428TMC3    O2 6393   4.685   0.792  15.733  0.7011 -0.6997 -0.0710
  429MPD2     C 6394   1.473   1.003   0.203  0.1912  0.2712 -0.2351
  429MPD2    C1 6395   1.388   1.017   0.096  0.7761  0.2700 -0.3473
  429MPD2    C2 6396   1.409   1.114   0.008  0.0658 -0.0647 -0.5843
  429MPD2    C3 6397   1.527   1.189   0.005  1.2577  0.1475 -0.2825
  429MPD2    C4 6398   1.616   1.171   0.107 -0.0214 -0.1107  0.7371
  429MPD2    C5 6399   1.585   1.082   0.206  0.6168  0.2412  0.4524
  429MPD2     H 6400   1.343   1.112  17.623  0.5156  3.8181 -0.9975
  429MPD2    H1 6401   1.703   1.235   0.113  1.6735 -2.1513 -2.2075
  429MPD2    H2 6402   1.473   0.932   0.285 -1.7296 -0.9639 -1.3317
  429MPD2    H3 6403   1.645   1.064   0.294 -0.9228 -1.4818  1.1484
  429MPD2     N 6404   1.565   1.267  17.596 -0.4693  0.5490  0.1592
  429MPD2    H5 6405   1.665   1.285  17.594  0.0697 -2.3177  1.0215
  429MPD2    N1 6406   1.266   0.951   0.092 -0.4627 -0.3421  0.3399
  429MPD2    H7 6407   1.199   0.972   0.018  0.1609 -0.9881 -0.4166
  430TMC3    C1 6408   1.560   1.337  17.373  0.1910 -0.2355 -0.5597
  430TMC3    C2 6409   1.508   1.431  17.293 -0.5889 -0.2575 -0.3787
  430TMC3    C3 6410   1.572   1.471  17.180 -0.4713 -0.0369 -0.0817
  430TMC3    C4 6411   1.673   1.273  17.342  0.5850  0.3262 -0.1969
  430TMC3    C5 6412   1.728   1.297  17.218 -1.1091 -0.6466  0.4923
  430TMC3    C6 6413   1.685   1.402  17.140 -0.8844  0.6985 -0.1333
  430TMC3     C 6414   1.482   1.301  17.496  0.1437  0.8279  0.4108
  430TMC3     O 6415   1.365   1.334  17.501  0.7239 -0.3068 -0.5756
  430TMC3     H 6416   1.412   1.476  17.319 -0.3928 -0.4671  0.7148
  430TMC3    H1 6417   1.728   1.208  17.409 -1.4757 -0.6317  0.5305
  430TMC3    H2 6418   1.723   1.428  17.042  0.3816 -2.7790 -0.5587
  430TMC3    C7 6419   1.728   1.173  17.145 -0.1370 -0.6674 -0.8695
  430TMC3    C8 6420   1.481   1.543  17.079 -0.0419  0.5546  0.3307
  430TMC3    O1 6421   1.662   1.082  17.189  0.3253 -0.0641  0.0718
  430TMC3    O2 6422   1.362   1.525  17.101 -0.7883  0.5452  0.1758
  431MPD2     C 6423   1.607   1.125  12.452 -0.2736  0.3093 -0.1153
  431MPD2    C1 6424   1.695   1.106  12.352  0.2036  0.7572  0.1035
  431MPD2    C2 6425   1.666   1.013  12.253  0.2553 -0.0413  0.0657
  431MPD2    C3 6426   1.552   0.941  12.262  0.0957  0.1946  0.1126
  431MPD2    C4 6427   1.461   0.965  12.361 -0.5909  0.2275  0.3757
  431MPD2    C5 6428   1.491   1.061  12.456 -0.0942 -0.2091 -0.7014
  431MPD2     H 6429   1.747   0.985  12.187 -0.6852  0.7007 -1.3935
  431MPD2    H1 6430   1.370   0.907  12.372 -1.0922  0.3769 -2.9803
  431MPD2    H2 6431   1.628   1.190  12.536  1.0077 -1.2919  0.7917
  431MPD2    H3 6432   1.420   1.087  12.534 -0.9987 -1.3789 -1.1363
  431MPD2     N 6433   1.535   0.837  12.165 -0.6905  0.5649  0.7093
  431MPD2    H5 6434   1.456   0.773  12.171 -0.2807 -0.2032 -2.3164
  431MPD2    N1 6435   1.820   1.172  12.344  0.4983  0.0923  0.1522
  431MPD2    H7 6436   1.885   1.130  12.279  0.2018 -0.0498 -0.0488
  432TMC3    C1 6437   1.620   0.693  12.008 -0.6755  0.2859 -0.2862
  432TMC3    C2 6438   1.702   0.682  11.899  0.3212 -0.0340 -0.5252
  432TMC3    C3 6439   1.736   0.556  11.854 -0.5019 -0.1161  0.4697
  432TMC3    C4 6440   1.570   0.583  12.075  0.3961 -0.5291  0.3108
  432TMC3    C5 6441   1.614   0.464  12.033  0.6562 -0.3118 -0.1814
  432TMC3    C6 6442   1.702   0.443  11.923 -0.1812  0.4722  0.0161
  432TMC3     C 6443   1.618   0.828  12.057 -0.1643 -0.8053  0.2783
  432TMC3     O 6444   1.661   0.918  11.986  0.2528  0.3862 -0.5005
  432TMC3     H 6445   1.723   0.760  11.826  0.0127  0.8708  0.3538
  432TMC3    H1 6446   1.504   0.589  12.161 -0.5259 -1.0645 -0.3552
  432TMC3    H2 6447   1.750   0.347  11.906  0.4706  0.6993  0.5899
  432TMC3    C7 6448   1.628   0.355  12.127  0.2670  0.3679 -0.6540
  432TMC3    C8 6449   1.866   0.542  11.789 -0.5504  0.4511 -0.3499
  432TMC3    O1 6450   1.660   0.244  12.087 -0.1770  0.4994 -0.5054
  432TMC3    O2 6451   1.866   0.524  11.667 -0.3527  0.4586 -0.2249
  433MPD2     C 6452   0.222   3.829  10.875 -0.4874 -0.2305  0.3045
  433MPD2    C1 6453   0.317   3.772  10.963 -0.1750 -0.2059 -0.2236
  433MPD2    C2 6454   0.391   3.855  11.047  1.1386 -0.8138  0.7584
  433MPD2    C3 6455   0.363   3.993  11.046 -0.3686 -0.1568 -0.1017
  433MPD2    C4 6456   0.260   4.042  10.960 -0.0606  0.2522 -0.1681
  433MPD2    C5 6457   0.192   3.957  10.879  0.4531 -0.5491 -0.1476
  433MPD2     H 6458   0.462   3.817  11.119 -0.2093 -1.2843  1.8346
  433MPD2    H1 6459   0.230   4.146  10.952  0.1797  0.3099 -0.3113
  433MPD2    H2 6460   0.170   3.770  10.801 -0.8730 -0.7945  1.0283
  433MPD2    H3 6461   0.113   3.979  10.808  1.1008  2.1045 -0.0401
  433MPD2     N 6462   0.442   4.077  11.128 -0.5244 -0.1678 -0.4830
  433MPD2    H5 6463   0.517   4.028  11.177 -1.0240  0.9023  1.3468
  433MPD2    N1 6464   0.342   3.632  10.951  0.3994 -0.2967 -0.4080
  433MPD2    H7 6465   0.294   3.584  10.876 -1.6926  0.3232  0.5428
  434TMC3    C1 6466   0.436   3.418  10.996  0.1053 -0.9352  0.4578
  434TMC3    C2 6467   0.532   3.343  11.054  0.0422 -0.1906  0.3594
  434TMC3    C3 6468   0.546   3.212  11.012 -0.6021  0.7892  0.4943
  434TMC3    C4 6469   0.362   3.376  10.887  0.6213  0.1180  0.1490
  434TMC3    C5 6470   0.372   3.244  10.860  0.3499  0.1047  0.5090
  434TMC3    C6 6471   0.464   3.158  10.916  0.4611  0.2511  0.1223
  434TMC3     C 6472   0.437   3.566  11.030 -0.2176 -0.7661  0.3921
  434TMC3     O 6473   0.497   3.606  11.127 -0.2524 -0.0144  0.1758
  434TMC3     H 6474   0.598   3.393  11.125 -0.3703  0.1433  0.5059
  434TMC3    H1 6475   0.277   3.420  10.836  3.1689  1.0768 -3.2438
  434TMC3    H2 6476   0.468   3.053  10.887 -1.0702  1.2072 -3.5593
  434TMC3    C7 6477   0.338   3.206  10.726 -0.1742 -0.6637 -0.1025
  434TMC3    C8 6478   0.685   3.159  11.020 -0.4797 -0.6427 -0.2581
  434TMC3    O1 6479   0.238   3.257  10.677  0.2452  0.0679 -0.1409
  434TMC3    O2 6480   0.722   3.075  10.942 -0.5760 -0.2416 -0.0901
  435MPD2     C 6481   2.443   4.315  15.646 -0.8537 -0.0471 -0.1589
  435MPD2    C1 6482   2.422   4.314  15.782 -0.5384  0.1916 -0.5916
  435MPD2    C2 6483   2.530   4.315  15.869  0.3431 -0.1262  0.4934
  435MPD2    C3 6484   2.654   4.290  15.817  0.6036  0.8420 -0.2856
  435MPD2    C4 6485   2.679   4.303  15.683  0.3044 -0.5225 -0.5865
  435MPD2    C5 6486   2.571   4.327  15.598  0.1843  0.4148 -0.7103
  435MPD2     H 6487   2.514   4.327  15.975  2.8629 -1.3638  1.0017
  435MPD2    H1 6488   2.780   4.291  15.645  0.9884 -0.0346  1.0638
  435MPD2    H2 6489   2.358   4.309  15.579  0.7969  1.5794 -2.4110
  435MPD2    H3 6490   2.589   4.325  15.491  0.4007 -0.3755 -0.6599
  435MPD2     N 6491   2.756   4.244  15.908  0.0182 -1.0858 -0.5975
  435MPD2    H5 6492   2.731   4.241  16.006 -2.1290 -0.4830 -1.1124
  435MPD2    N1 6493   2.289   4.321  15.840 -1.0125  0.3037 -0.3658
  435MPD2    H7 6494   2.279   4.328  15.940  3.1561  1.0757 -0.0134
  436TMC3    C1 6495   1.977   4.133  16.047 -0.2734  0.0645  0.4868
  436TMC3    C2 6496   2.064   4.220  15.982 -0.1026 -0.0721  0.2778
  436TMC3    C3 6497   2.088   4.197  15.851  0.0532  0.6976  0.4158
  436TMC3    C4 6498   1.927   4.021  15.982 -0.2073 -0.0326  0.6707
  436TMC3    C5 6499   1.954   4.006  15.846  0.1546  0.5418 -0.4907
  436TMC3    C6 6500   2.047   4.086  15.788  0.0498 -0.3335 -0.2552
  436TMC3     C 6501   1.955   4.153  16.188 -0.3933 -0.4976  0.6208
  436TMC3     O 6502   1.918   4.057  16.252  0.4667  0.2105  0.9283
  436TMC3     H 6503   2.108   4.307  16.031 -1.1645  0.9440 -0.5498
  436TMC3    H1 6504   1.859   3.958  16.037  2.1216 -2.5871  0.5891
  436TMC3    H2 6505   2.094   4.068  15.692  0.2459  0.5161 -0.3226
  436TMC3    C7 6506   1.880   3.914  15.757  1.0101 -0.2307  0.4298
  436TMC3    C8 6507   2.172   4.284  15.773 -0.2407  0.0608 -0.1546
  436TMC3    O1 6508   1.888   3.944  15.635  0.5105  0.2111 -0.0818
  436TMC3    O2 6509   2.145   4.295  15.652 -0.3054  0.6396 -0.2791
  437TMC3    C1 6510   1.106   1.703  12.719 -0.5893  0.0018  0.2740
  437TMC3    C2 6511   1.039   1.803  12.783 -0.1106  0.7779  0.5752
  437TMC3    C3 6512   1.029   1.922  12.722  0.3665  0.1639 -0.0423
  437TMC3    C4 6513   1.175   1.722  12.601  0.1415 -0.1142 -0.0111
  437TMC3    C5 6514   1.169   1.847  12.550 -0.1455  0.8447  0.2238
  437TMC3    C6 6515   1.109   1.949  12.613 -0.1367 -0.3560 -0.4500
  437TMC3     C 6516   1.163   1.594  12.801  0.1264  0.5394 -0.0313
  437TMC3     O 6517   1.248   1.524  12.749 -0.3406 -0.0971 -0.3862
  437TMC3     H 6518   0.988   1.785  12.877 -2.3622  1.4955 -0.5037
  437TMC3    H1 6519   1.225   1.647  12.542 -1.2901 -0.3446 -0.9320
  437TMC3    H2 6520   1.117   2.040  12.555  0.7618 -0.3173 -0.2712
  437TMC3    C7 6521   1.263   1.885  12.453 -0.0558  0.6013 -0.0326
  437TMC3    C8 6522   1.005   2.032  12.822 -0.8433  0.4871 -0.8265
  437TMC3    O1 6523   1.232   1.949  12.353 -0.2528  0.3185  0.0802
  437TMC3    O2 6524   0.978   2.005  12.941 -0.4808 -0.0821  0.4017
  438MPD2     C 6525   3.456   2.069  16.958  0.0757  0.2237  0.1319
  438MPD2    C1 6526   3.592   2.070  16.989  0.5479 -0.7876  0.5539
  438MPD2    C2 6527   3.622   2.030  17.114  0.5140 -0.0459  0.5458
  438MPD2    C3 6528   3.535   1.994  17.212 -0.1760 -0.3692 -0.2789
  438MPD2    C4 6529   3.400   2.008  17.176  0.3166  0.0213  1.1724
  438MPD2    C5 6530   3.364   2.032  17.049  0.8680  0.2950 -0.0905
  438MPD2     H 6531   3.729   2.027  17.131  0.4883  1.3916  0.9567
  438MPD2    H1 6532   3.316   2.003  17.245 -1.9113  1.2449 -1.4672
  438MPD2    H2 6533   3.419   2.100  16.860 -2.2837 -2.7649  0.0633
  438MPD2    H3 6534   3.260   2.026  17.019  1.0761 -2.8587 -0.2633
  438MPD2     N 6535   3.567   1.969  17.349 -0.0522 -0.4158 -0.1611
  438MPD2    H5 6536   3.496   1.954  17.421  1.2668 -0.6763  1.0738
  438MPD2    N1 6537   3.696   2.125  16.916 -0.1881  0.3171  0.3553
  438MPD2    H7 6538   3.776   2.132  16.979 -1.7977 -1.0776  2.5285
  439TMC3    C1 6539   3.815   2.258  16.756 -0.5947 -0.0601  0.2714
  439TMC3    C2 6540   3.829   2.290  16.624 -0.0265  0.6045  0.4429
  439TMC3    C3 6541   3.933   2.368  16.595  0.2242  0.3641 -0.1848
  439TMC3    C4 6542   3.892   2.307  16.859  0.0275 -0.7463  0.5985
  439TMC3    C5 6543   4.001   2.381  16.819  0.2213 -0.1738  0.1391
  439TMC3    C6 6544   4.023   2.416  16.691 -0.1986 -0.0675 -0.7066
  439TMC3     C 6545   3.701   2.168  16.785 -0.4154  0.3563 -0.2072
  439TMC3     O 6546   3.623   2.138  16.694  0.2162 -0.6465  0.0528
  439TMC3     H 6547   3.791   2.227  16.544 -1.0941  1.9840 -0.1383
  439TMC3    H1 6548   3.875   2.291  16.965  0.1154  0.9646  0.8639
  439TMC3    H2 6549   4.115   2.469  16.667 -0.3241 -1.0297 -3.2189
  439TMC3    C7 6550   4.115   2.377  16.915  0.6600 -0.0661 -0.1645
  439TMC3    C8 6551   3.994   2.342  16.464 -0.2066  0.6622  0.2402
  439TMC3    O1 6552   4.103   2.315  17.018  0.4670 -0.0214 -0.1584
  439TMC3    O2 6553   4.113   2.358  16.451  0.2520  0.0035  0.1757
  440MPD2     C 6554   2.413   2.586  15.187 -0.3095 -0.5575  0.1324
  440MPD2    C1 6555   2.438   2.719  15.142  1.0110  0.5457  0.3196
  440MPD2    C2 6556   2.570   2.765  15.137 -0.7829 -0.4383  0.4729
  440MPD2    C3 6557   2.672   2.676  15.168 -0.1429 -0.2367 -0.1600
  440MPD2    C4 6558   2.641   2.543  15.199 -0.5955  0.2935 -0.1849
  440MPD2    C5 6559   2.516   2.501  15.202 -0.5985 -0.1438 -0.1653
  440MPD2     H 6560   2.585   2.871  15.118 -1.5369 -0.9289 -2.8642
  440MPD2    H1 6561   2.718   2.469  15.218  1.1655  2.3551  0.7425
  440MPD2    H2 6562   2.311   2.556  15.207 -0.9489  1.6978  0.2373
  440MPD2    H3 6563   2.494   2.397  15.221  1.7573 -0.1653  2.5481
  440MPD2     N 6564   2.802   2.722  15.180 -0.3006  0.0778 -0.3017
  440MPD2    H5 6565   2.873   2.650  15.191 -2.1843 -1.3437  2.3979
  440MPD2    N1 6566   2.339   2.821  15.121  0.0478 -0.1795  0.1312
  440MPD2    H7 6567   2.368   2.912  15.089  0.2366 -0.1691  0.3335
  441TMC3    C1 6568   2.980   2.853  15.237 -0.1866 -0.3603 -0.2018
  441TMC3    C2 6569   3.007   2.940  15.341 -0.0691  0.6471  0.3207
  441TMC3    C3 6570   3.112   2.905  15.420 -0.4549  0.1968  0.3758
  441TMC3    C4 6571   3.063   2.743  15.208  0.1670  0.1416  0.1417
  441TMC3    C5 6572   3.170   2.707  15.291  0.0478  0.6424  0.1743
  441TMC3    C6 6573   3.192   2.790  15.397 -0.0476 -0.5663 -0.0791
  441TMC3     C 6574   2.842   2.852  15.198 -0.0223  0.2115  0.0329
  441TMC3     O 6575   2.780   2.955  15.225 -0.3994 -0.5371  0.1376
  441TMC3     H 6576   2.947   3.027  15.366 -2.2382 -0.2222 -1.8490
  441TMC3    H1 6577   3.025   2.666  15.142 -0.8467  1.2321 -0.5616
  441TMC3    H2 6578   3.265   2.757  15.471  1.5367  0.9510 -0.9559
  441TMC3    C7 6579   3.161   2.564  15.328  0.6825  0.3596 -0.1457
  441TMC3    C8 6580   3.140   2.986  15.537  0.3632 -0.1767  0.1190
  441TMC3    O1 6581   3.050   2.511  15.310  0.5246 -0.3830  0.1459
  441TMC3    O2 6582   3.252   3.037  15.552  0.5219 -0.3626  0.4413
  442MPD2     C 6583   1.013   3.415  16.913 -0.2151  0.3169  0.2050
  442MPD2    C1 6584   0.877   3.403  16.910  0.5126  0.3562 -0.3991
  442MPD2    C2 6585   0.810   3.326  16.813  0.1696  0.2573  0.1246
  442MPD2    C3 6586   0.892   3.247  16.725  0.3820  0.5081 -0.0719
  442MPD2    C4 6587   1.030   3.260  16.734 -0.5028  0.9141  0.3375
  442MPD2    C5 6588   1.090   3.342  16.822  0.6147  0.3597 -0.1877
  442MPD2     H 6589   0.703   3.312  16.806  0.3225 -1.2567  0.9104
  442MPD2    H1 6590   1.090   3.204  16.664  0.6344  1.0579  1.2103
  442MPD2    H2 6591   1.070   3.472  16.985  2.0348  1.8609 -2.8059
  442MPD2    H3 6592   1.197   3.353  16.828  0.2972  2.2087  2.0914
  442MPD2     N 6593   0.843   3.169  16.617  0.3691 -0.2991 -0.4106
  442MPD2    H5 6594   0.924   3.133  16.568  3.0606  3.2631  1.3982
  442MPD2    N1 6595   0.797   3.480  16.998 -0.2097  0.1267 -0.5939
  442MPD2    H7 6596   0.697   3.469  16.987 -0.4474  0.3273  1.3142
  443TMC3    C1 6597   0.728   3.626  17.179  0.3613 -0.1535  0.1523
  443TMC3    C2 6598   0.621   3.662  17.106 -0.4613  0.1350 -0.8036
  443TMC3    C3 6599   0.512   3.692  17.177 -0.2073 -0.9574 -0.2592
  443TMC3    C4 6600   0.736   3.636  17.315 -0.8160  0.2329  0.1508
  443TMC3    C5 6601   0.619   3.656  17.382  0.4246 -0.3921 -0.0557
  443TMC3    C6 6602   0.504   3.683  17.310 -0.1668  0.2771  0.1842
  443TMC3     C 6603   0.838   3.560  17.107 -0.0046 -0.0955 -0.1720
  443TMC3     O 6604   0.947   3.560  17.161  0.4987  0.2005  0.4171
  443TMC3     H 6605   0.614   3.658  16.998 -1.1528 -1.2978 -0.7044
  443TMC3    H1 6606   0.833   3.607  17.353 -1.7373 -3.5962 -0.4174
  443TMC3    H2 6607   0.404   3.679  17.352 -0.7337  0.3649 -1.1575
  443TMC3    C7 6608   0.597   3.626  17.523 -0.4126  0.0501  0.9713
  443TMC3    C8 6609   0.401   3.673  17.095  0.2546 -0.2354 -0.6292
  443TMC3    O1 6610   0.655   3.687  17.612  0.0575  0.0094  0.2483
  443TMC3    O2 6611   0.333   3.576  17.123  0.1670  0.3407 -0.1774
  444MPD2     C 6612   1.351   2.458  17.660 -0.2037 -0.2837  0.2017
  444MPD2    C1 6613   1.259   2.396  17.573  0.0206 -0.1933 -0.2828
  444MPD2    C2 6614   1.305   2.378  17.436 -0.2443  0.4107 -0.0830
  444MPD2    C3 6615   1.431   2.413  17.397 -0.2091 -0.0242 -0.1623
  444MPD2    C4 6616   1.521   2.482  17.482 -0.6241 -0.0699  0.0614
  444MPD2    C5 6617   1.475   2.496  17.614 -0.1599  0.9845  0.3413
  444MPD2     H 6618   1.233   2.336  17.366 -0.8705  0.2353  0.6795
  444MPD2    H1 6619   1.618   2.517  17.447 -0.6394 -0.2909 -0.2056
  444MPD2    H2 6620   1.326   2.467   0.064  1.5460  1.8843  0.4236
  444MPD2    H3 6621   1.552   2.525  17.685 -1.0201 -0.7237  1.9483
  444MPD2     N 6622   1.467   2.383  17.263 -0.5507 -0.2085  0.2963
  444MPD2    H5 6623   1.394   2.340  17.207 -0.6906  0.1163  0.2316
  444MPD2    N1 6624   1.128   2.367  17.613 -0.0057  0.1848 -0.5670
  444MPD2    H7 6625   1.105   2.394   0.008  0.0267 -0.5546 -0.3549
  445TMC3    C1 6626   1.577   2.362  17.067 -0.3014  0.0556 -0.3302
  445TMC3    C2 6627   1.464   2.404  17.002 -0.0665  0.6020 -1.2155
  445TMC3    C3 6628   1.474   2.384  16.865 -0.2434 -0.3875  0.3074
  445TMC3    C4 6629   1.686   2.306  16.998 -0.3576  0.8029  0.1280
  445TMC3    C5 6630   1.679   2.277  16.860 -0.1033 -0.6090  0.1538
  445TMC3    C6 6631   1.571   2.319  16.789  0.0702  0.7866  0.3662
  445TMC3     C 6632   1.590   2.399  17.203  0.1475  0.1630 -0.4209
  445TMC3     O 6633   1.703   2.408  17.253 -0.6081 -0.2156  0.7033
  445TMC3     H 6634   1.394   2.470  17.052  0.7606  0.0748  0.6419
  445TMC3    H1 6635   1.774   2.295  17.060  1.6747  3.4515 -2.3420
  445TMC3    H2 6636   1.553   2.297  16.684  1.9510  0.7209  0.0583
  445TMC3    C7 6637   1.789   2.215  16.791 -0.3682 -0.2296  0.4312
  445TMC3    C8 6638   1.370   2.441  16.789  0.5582 -0.5210  0.7450
  445TMC3    O1 6639   1.772   2.193  16.668 -0.1923 -0.0739  0.0814
  445TMC3    O2 6640   1.381   2.455  16.666  0.0154  0.2023  0.1838
  446MPD2     C 6641   0.441   3.175  11.428 -0.0303 -0.9286 -0.3758
  446MPD2    C1 6642   0.378   3.284  11.366 -0.4124  0.4788 -0.5008
  446MPD2    C2 6643   0.448   3.404  11.353 -0.5586  0.5766 -0.3110
  446MPD2    C3 6644   0.582   3.420  11.393  0.7651  0.4287 -0.5130
  446MPD2    C4 6645   0.642   3.313  11.470  0.9792 -0.5766 -0.7887
  446MPD2    C5 6646   0.564   3.193  11.479  0.0067  0.0940 -0.6113
  446MPD2     H 6647   0.395   3.483  11.301  1.2023  1.3564 -0.9381
  446MPD2    H1 6648   0.747   3.305  11.496  1.3702  0.2017 -2.1176
  446MPD2    H2 6649   0.397   3.078  11.450 -0.4033 -1.0547 -1.7021
  446MPD2    H3 6650   0.613   3.107  11.525  0.3776  0.8717  0.4610
  446MPD2     N 6651   0.647   3.538  11.349  0.4909  0.8081  0.1652
  446MPD2    H5 6652   0.597   3.599  11.285 -2.7188 -1.4307  0.5032
  446MPD2    N1 6653   0.238   3.277  11.326 -0.4243  0.3848  0.0309
  446MPD2    H7 6654   0.191   3.359  11.289 -1.3345  0.0975  0.5420
  447TMC3    C1 6655   0.833   3.665  11.286 -0.2340 -0.4682 -0.2620
  447TMC3    C2 6656   0.834   3.609  11.162  0.0713 -0.3256  0.2689
  447TMC3    C3 6657   0.957   3.596  11.094 -0.1466  0.6546  0.0380
  447TMC3    C4 6658   0.946   3.711  11.341  0.3366 -0.1750 -0.1917
  447TMC3    C5 6659   1.059   3.706  11.269  0.3124  0.4269  0.7670
  447TMC3    C6 6660   1.079   3.640  11.150  0.3976 -0.5413 -0.2492
  447TMC3     C 6661   0.775   3.575  11.385 -0.4546 -0.7373 -0.3301
  447TMC3     O 6662   0.854   3.518  11.456 -0.0528  0.2576  0.4412
  447TMC3     H 6663   0.741   3.567  11.125 -0.4187  0.0126  1.1242
  447TMC3    H1 6664   0.948   3.784  11.421  1.1236 -0.4193  0.0157
  447TMC3    H2 6665   1.170   3.636  11.091  0.9411  1.2732  0.4847
  447TMC3    C7 6666   1.176   3.754  11.341  0.2851  0.5489 -0.0313
  447TMC3    C8 6667   0.945   3.529  10.965  0.9594  0.0436 -0.1211
  447TMC3    O1 6668   1.164   3.782  11.461  0.0110  0.2537  0.2682
  447TMC3    O2 6669   0.829   3.505  10.932 -0.1991  0.2763 -0.0006
  448TMC3    C1 6670   3.837   3.956  16.856 -0.0952 -0.1978 -0.2449
  448TMC3    C2 6671   3.789   3.857  16.775  0.2272 -0.2971 -0.2450
  448TMC3    C3 6672   3.867   3.742  16.756  0.4543  0.4378 -0.4822
  448TMC3    C4 6673   3.939   3.936  16.938 -0.6780 -0.0663  0.2070
  448TMC3    C5 6674   4.002   3.810  16.935 -0.5445  0.2003 -0.0581
  448TMC3    C6 6675   3.964   3.712  16.847 -0.4178 -0.1946  0.1731
  448TMC3     C 6676   3.768   4.082  16.877 -0.4967 -0.3106 -0.0926
  448TMC3     O 6677   3.657   4.084  16.828 -0.1943  0.6194 -0.5961
  448TMC3     H 6678   3.706   3.882  16.710  1.4080  0.9338 -1.2655
  448TMC3    H1 6679   3.972   4.005  17.014  2.7927  0.0302 -1.4196
  448TMC3    H2 6680   4.028   3.627  16.827 -1.7124 -1.8316  2.9356
  448TMC3    C7 6681   4.123   3.797  17.005 -0.4860  0.0224  0.5791
  448TMC3    C8 6682   3.795   3.625  16.715  0.0068 -0.1141  0.7528
  448TMC3    O1 6683   4.179   3.900  17.040 -0.3403 -0.2473  0.0732
  448TMC3    O2 6684   3.816   3.524  16.781 -0.3077  0.2119  0.2702
  449MPD2     C 6685   0.519   2.251  14.274 -0.1501  0.0669 -0.5572
  449MPD2    C1 6686   0.466   2.251  14.145  0.3490  0.4391 -0.6781
  449MPD2    C2 6687   0.345   2.190  14.129  0.4253 -0.5275  0.3606
  449MPD2    C3 6688   0.275   2.136  14.238  0.0922  0.2640 -1.2230
  449MPD2    C4 6689   0.322   2.150  14.368  0.4374 -0.0429  0.3571
  449MPD2    C5 6690   0.447   2.199  14.380 -0.3754 -1.1091  0.5743
  449MPD2     H 6691   0.306   2.180  14.029 -0.3815  1.2219  0.4964
  449MPD2    H1 6692   0.261   2.122  14.453 -0.6847  2.2322  0.2859
  449MPD2    H2 6693   0.618   2.288  14.296  0.1767  0.0568 -1.9627
  449MPD2    H3 6694   0.501   2.213  14.473  0.7623 -1.1482 -0.0715
  449MPD2     N 6695   0.146   2.076  14.206 -0.3197 -0.1671 -0.0081
  449MPD2    H5 6696   0.115   2.073  14.109 -1.0857  2.0556  0.1552
  449MPD2    N1 6697   0.528   2.301  14.025 -0.5816  0.2243 -0.6182
  449MPD2    H7 6698   0.479   2.293  13.937 -1.1400  0.0230 -0.2898
  450TMC3    C1 6699   0.690   2.358  13.878  0.0795 -0.7103 -0.3766
  450TMC3    C2 6700   0.794   2.267  13.848  0.5437 -0.7521 -0.2300
  450TMC3    C3 6701   0.789   2.188  13.736 -0.6269 -0.4761  0.4000
  450TMC3    C4 6702   0.583   2.367  13.791 -0.8901 -0.3448  0.0836
  450TMC3    C5 6703   0.576   2.279  13.686 -0.8336  0.0033 -0.1666
  450TMC3    C6 6704   0.686   2.204  13.648  0.1689  0.0583 -0.2331
  450TMC3     C 6705   0.655   2.346  14.012 -0.1307  1.1165 -0.4255
  450TMC3     O 6706   0.741   2.361  14.097  0.4514 -0.1370 -0.5490
  450TMC3     H 6707   0.879   2.249  13.913  1.2970 -1.2441 -1.3565
  450TMC3    H1 6708   0.501   2.435  13.814 -0.5067 -0.5159  1.9262
  450TMC3    H2 6709   0.670   2.131  13.569  0.2880 -3.2861  2.8178
  450TMC3    C7 6710   0.456   2.206  13.704 -0.0350 -0.1669 -0.1642
  450TMC3    C8 6711   0.831   2.054  13.741 -0.1485  0.1958 -0.0536
  450TMC3    O1 6712   0.408   2.218  13.814 -0.3512  0.4545  0.0513
  450TMC3    O2 6713   0.813   2.002  13.851  0.6372  0.0887  0.1226
  451MPD2     C 6714   1.410   0.378   1.208 -1.2313 -0.1313  0.3162
  451MPD2    C1 6715   1.525   0.446   1.202  0.3734  0.2130 -0.2102
  451MPD2    C2 6716   1.644   0.388   1.149  0.4674  0.0297  0.4254
  451MPD2    C3 6717   1.635   0.263   1.097  1.0084  0.0705 -0.3116
  451MPD2    C4 6718   1.515   0.199   1.096 -0.5525  0.3266  0.0034
  451MPD2    C5 6719   1.404   0.257   1.147 -0.3930  0.7225 -0.4230
  451MPD2     H 6720   1.741   0.434   1.159  0.2002  0.2848  1.8345
  451MPD2    H1 6721   1.515   0.096   1.060 -2.6334 -0.2289  1.5798
  451MPD2    H2 6722   1.316   0.421   1.239 -0.2563  2.0316  0.2105
  451MPD2    H3 6723   1.308   0.212   1.123 -0.0770 -1.0161  1.5350
  451MPD2     N 6724   1.753   0.185   1.059  0.4124  0.2034 -0.2209
  451MPD2    H5 6725   1.744   0.084   1.067  0.3579  0.4150  2.3869
  451MPD2    N1 6726   1.526   0.575   1.247  0.1093 -0.3774 -0.3851
  451MPD2    H7 6727   1.433   0.607   1.273 -0.8205 -2.0180 -1.6624
  452TMC3    C1 6728   1.949   0.117   0.954 -0.6193  0.2974 -0.0765
  452TMC3    C2 6729   1.960   0.005   1.034 -0.6859 -0.1331  0.2242
  452TMC3    C3 6730   2.053   4.635   1.000 -0.2858 -0.2761 -0.0711
  452TMC3    C4 6731   2.017   0.125   0.832 -0.5771 -0.0227 -0.0431
  452TMC3    C5 6732   2.091   0.015   0.790  0.7537  0.1821  0.9076
  452TMC3    C6 6733   2.111   4.633   0.873  0.0606  0.1875 -0.0503
  452TMC3     C 6734   1.861   0.231   0.990 -0.8345  0.2106  0.3376
  452TMC3     O 6735   1.890   0.346   0.955 -0.1038 -0.3234  0.1650
  452TMC3     H 6736   1.902   4.712   1.124  0.1970 -0.3902  0.7419
  452TMC3    H1 6737   1.991   0.214   0.775  0.3863  2.0448  2.7315
  452TMC3    H2 6738   2.165   4.552   0.825  1.0458  1.1222 -0.5016
  452TMC3    C7 6739   2.099   4.721   0.651  0.3030 -0.9611  0.0087
  452TMC3    C8 6740   2.098   4.552   1.103  0.0367 -0.2937 -0.3322
  452TMC3    O1 6741   2.132   0.090   0.581  0.4233  0.0710  0.2044
  452TMC3    O2 6742   2.016   4.526   1.187 -0.5731 -0.4370  0.0441
  453TMC3    C1 6743   2.780   3.031  11.694 -0.4115  0.3375 -0.1096
  453TMC3    C2 6744   2.730   2.933  11.769 -0.0634  1.0475  0.3510
  453TMC3    C3 6745   2.718   2.805  11.717  0.1782  0.1756  0.2844
  453TMC3    C4 6746   2.837   3.005  11.574 -0.0134  0.2097 -0.5025
  453TMC3    C5 6747   2.838   2.879  11.528  0.4735 -0.0380 -0.2609
  453TMC3    C6 6748   2.778   2.776  11.596  0.3302  0.3648 -1.0780
  453TMC3     C 6749   2.837   3.152  11.765 -0.1222  0.7253  0.0169
  453TMC3     O 6750   2.863   3.244  11.688  0.3652 -0.4953 -0.1373
  453TMC3     H 6751   2.682   2.964  11.861  0.2623 -1.9409  1.5295
  453TMC3    H1 6752   2.879   3.085  11.513  0.2579 -0.7711 -1.5932
  453TMC3    H2 6753   2.777   2.679  11.547  1.2597  0.0014 -0.3670
  453TMC3    C7 6754   2.926   2.839  11.421 -0.5120  0.1722  0.0510
  453TMC3    C8 6755   2.645   2.710  11.796  0.2332 -0.1966 -0.5619
  453TMC3    O1 6756   2.953   2.719  11.404 -0.1702  0.0392  0.1320
  453TMC3    O2 6757   2.581   2.744  11.894 -0.8418  0.0191  0.7206
  454MPD2     C 6758   1.787   2.587  16.268 -0.4650  0.0784 -1.0621
  454MPD2    C1 6759   1.704   2.504  16.192  0.3937  0.4648 -0.4998
  454MPD2    C2 6760   1.668   2.380  16.245 -0.5260  0.2786 -0.9694
  454MPD2    C3 6761   1.697   2.347  16.372 -0.1408  0.0259 -0.0089
  454MPD2    C4 6762   1.775   2.430  16.448  1.0027  0.4626 -0.1986
  454MPD2    C5 6763   1.827   2.544  16.387  0.9055  0.5112  0.3021
  454MPD2     H 6764   1.606   2.314  16.185 -1.0948 -0.0198 -0.0579
  454MPD2    H1 6765   1.802   2.392  16.546  0.2426 -1.6233 -0.7812
  454MPD2    H2 6766   1.836   2.676  16.230  0.6442 -0.3437 -0.6391
  454MPD2    H3 6767   1.901   2.603  16.440  1.4826  0.3179 -0.2913
  454MPD2     N 6768   1.629   2.232  16.430 -0.4054  0.4123  0.3222
  454MPD2    H5 6769   1.668   2.197  16.517  1.4198  0.7116 -0.3774
  454MPD2    N1 6770   1.668   2.534  16.056  0.2946 -0.3075  0.4266
  454MPD2    H7 6771   1.618   2.464  16.003 -0.7304 -0.3106  1.4022
  455TMC3    C1 6772   1.413   2.236  16.327  0.0096  0.1855  0.0647
  455TMC3    C2 6773   1.390   2.361  16.375 -0.4219  0.4829  0.1815
  455TMC3    C3 6774   1.306   2.445  16.308 -0.2241  0.7352 -1.0089
  455TMC3    C4 6775   1.355   2.193  16.217  0.3100 -0.0439  0.5780
  455TMC3    C5 6776   1.264   2.272  16.147 -0.1321  0.4486 -0.0927
  455TMC3    C6 6777   1.241   2.401  16.194 -0.3430  0.4341 -0.0467
  455TMC3     C 6778   1.526   2.160  16.375  0.0765 -0.0823  0.1731
  455TMC3     O 6779   1.488   2.044  16.396  0.6573 -0.1089 -0.8624
  455TMC3     H 6780   1.454   2.400  16.453  0.0968  0.8649 -0.4363
  455TMC3    H1 6781   1.392   2.096  16.183 -1.5516 -0.4333 -0.3118
  455TMC3    H2 6782   1.159   2.462  16.157  0.0347 -0.3007 -2.0853
  455TMC3    C7 6783   1.206   2.231  16.023 -0.0814 -0.3257  0.3930
  455TMC3    C8 6784   1.314   2.585  16.329  0.1297  0.2675 -0.9202
  455TMC3    O1 6785   1.240   2.120  15.976 -0.0730  0.0523  0.5679
  455TMC3    O2 6786   1.262   2.660  16.248  0.2780  0.2810 -0.0347
  456MPD2     C 6787   4.051   2.508  15.935  0.2267 -0.0228  0.5528
  456MPD2    C1 6788   4.144   2.513  16.035 -0.1889 -0.1995 -0.2308
  456MPD2    C2 6789   4.108   2.554  16.163 -0.6307 -0.1516  0.0484
  456MPD2    C3 6790   3.974   2.594  16.182  0.0600  0.2094  0.1363
  456MPD2    C4 6791   3.884   2.595  16.080  0.3570  0.1934  0.2489
  456MPD2    C5 6792   3.927   2.549  15.960 -0.4610 -0.5637  0.9599
  456MPD2     H 6793   4.182   2.564  16.242  0.3839 -0.5441 -0.8521
  456MPD2    H1 6794   3.778   2.618  16.083  0.4603  0.5261  1.2331
  456MPD2    H2 6795   4.089   2.477  15.838  0.4496 -0.9639  0.9330
  456MPD2    H3 6796   3.865   2.543  15.871  0.3551  0.4156  0.3305
  456MPD2     N 6797   3.935   2.650  16.310 -0.0653  0.0745  0.0255
  456MPD2    H5 6798   4.017   2.652  16.370  0.4836  0.8015 -0.7655
  456MPD2    N1 6799   4.271   2.460  16.001  0.4634 -0.2644 -0.3339
  456MPD2    H7 6800   4.274   2.425  15.906 -1.4160 -0.4840 -0.3059
  457TMC3    C1 6801   3.832   2.788  16.469 -0.6880  0.7328 -0.0905
  457TMC3    C2 6802   3.757   2.898  16.481 -0.2907  1.0587  0.2463
  457TMC3    C3 6803   3.762   2.961  16.602 -0.4453  0.2997 -0.2404
  457TMC3    C4 6804   3.937   2.759  16.555 -0.1924 -1.0828 -0.7054
  457TMC3    C5 6805   3.952   2.841  16.663 -0.4929  0.4731 -0.6158
  457TMC3    C6 6806   3.858   2.936  16.694 -0.1392  0.8707  0.7781
  457TMC3     C 6807   3.816   2.713  16.343 -0.2454 -0.3784 -0.3545
  457TMC3     O 6808   3.710   2.722  16.276  0.2206 -0.1099 -0.4966
  457TMC3     H 6809   3.675   2.913  16.411 -0.1445  0.7162  0.0012
  457TMC3    H1 6810   4.008   2.682  16.527  1.7065  0.9888 -1.5146
  457TMC3    H2 6811   3.867   2.992  16.786 -1.9278  2.2040  0.1169
  457TMC3    C7 6812   4.069   2.826  16.743 -0.1186 -0.1208 -0.1043
  457TMC3    C8 6813   3.725   3.102  16.601 -0.2852 -0.2327  0.2503
  457TMC3    O1 6814   4.115   2.710  16.749  0.0292  0.0516 -0.6962
  457TMC3    O2 6815   3.741   3.152  16.711  0.1146  0.7452  0.5260
  458MPD2     C 6816   1.735   1.818  12.263 -0.9720  1.1641  0.8550
  458MPD2    C1 6817   1.743   1.785  12.400  0.6166  0.7295  0.6624
  458MPD2    C2 6818   1.626   1.786  12.475 -0.7012 -0.2906  0.7237
  458MPD2    C3 6819   1.503   1.823  12.415 -0.2166 -0.1125 -0.1507
  458MPD2    C4 6820   1.506   1.855  12.279  0.1343  0.2047  0.3982
  458MPD2    C5 6821   1.617   1.851  12.204 -0.3804 -0.1896 -0.7044
  458MPD2     H 6822   1.635   1.761  12.580  0.2659 -1.1954  0.4244
  458MPD2    H1 6823   1.410   1.869  12.229  1.3659  0.7444 -1.8166
  458MPD2    H2 6824   1.826   1.824  12.205 -0.0848  1.8180  2.3063
  458MPD2    H3 6825   1.606   1.862  12.096 -0.5695 -1.4326 -0.8171
  458MPD2     N 6826   1.378   1.817  12.487  0.8989  0.2548  0.0334
  458MPD2    H5 6827   1.388   1.800  12.587 -2.3919  2.0365  0.6480
  458MPD2    N1 6828   1.870   1.758  12.443 -0.4778 -0.6379  0.0580
  458MPD2    H7 6829   1.946   1.767  12.377  0.2916  1.8942  1.2540
  459TMC3    C1 6830   2.043   1.723  12.603 -0.4771 -0.3649  0.1882
  459TMC3    C2 6831   2.105   1.826  12.537  0.2426  0.1789  0.3472
  459TMC3    C3 6832   2.217   1.873  12.598 -0.7277 -0.2049 -0.1583
  459TMC3    C4 6833   2.079   1.681  12.724 -0.8305  0.3377 -0.3414
  459TMC3    C5 6834   2.195   1.727  12.775 -0.3037  0.4382 -0.3548
  459TMC3    C6 6835   2.273   1.824  12.715 -0.3576  0.4988  0.5660
  459TMC3     C 6836   1.901   1.710  12.564 -0.5963  0.4679  0.1894
  459TMC3     O 6837   1.827   1.666  12.652 -0.1391  0.0958  0.3705
  459TMC3     H 6838   2.074   1.864  12.440  0.7446 -1.8071 -0.6027
  459TMC3    H1 6839   2.020   1.597  12.760 -3.1186  1.2134 -2.0940
  459TMC3    H2 6840   2.380   1.840  12.728  0.0327 -2.7414  1.2623
  459TMC3    C7 6841   2.250   1.655  12.896 -0.0238  0.1254  0.4271
  459TMC3    C8 6842   2.295   1.972  12.534  0.0024 -0.0429 -1.1016
  459TMC3    O1 6843   2.362   1.675  12.944  0.2755  0.9095 -0.2210
  459TMC3    O2 6844   2.416   1.972  12.547 -0.1634 -0.3182  0.3036
  460MPD2     C 6845   1.213   3.460  10.728 -0.3974 -0.6796  0.5187
  460MPD2    C1 6846   1.089   3.460  10.779  0.1139 -0.9792  0.3250
  460MPD2    C2 6847   0.987   3.414  10.695  0.2521 -0.1072  0.9392
  460MPD2    C3 6848   1.008   3.377  10.572  0.2204 -0.5085  0.6244
  460MPD2    C4 6849   1.136   3.376  10.519  1.0871  0.0719  0.1279
  460MPD2    C5 6850   1.234   3.427  10.597 -0.8717  0.2290  0.0686
  460MPD2     H 6851   0.886   3.427  10.731  0.1086  0.2950  0.4008
  460MPD2    H1 6852   1.167   3.345  10.419  1.0624  1.0478 -0.1843
  460MPD2    H2 6853   1.300   3.492  10.785 -0.0104 -1.4753  0.3777
  460MPD2    H3 6854   1.337   3.426  10.563  0.3258  0.0913  3.7133
  460MPD2     N 6855   0.897   3.339  10.496 -0.0223  0.3424  0.2187
  460MPD2    H5 6856   0.811   3.334  10.551  0.9759 -0.1842  1.7449
  460MPD2    N1 6857   1.067   3.501  10.908  0.0272  0.4284  0.1513
  460MPD2    H7 6858   1.144   3.507  10.974 -0.1476 -0.8356  0.4761
  461TMC3    C1 6859   0.762   3.258  10.318 -0.3721 -0.2466  0.5906
  461TMC3    C2 6860   0.751   3.176  10.205  0.8164 -0.3232 -0.5427
  461TMC3    C3 6861   0.632   3.183  10.138 -0.5490  0.0795 -0.9384
  461TMC3    C4 6862   0.666   3.341  10.360  0.0722  0.4270  0.7209
  461TMC3    C5 6863   0.552   3.344  10.284 -0.1323  0.2778 -0.3081
  461TMC3    C6 6864   0.537   3.272  10.173 -0.1402  0.0181  1.1063
  461TMC3     C 6865   0.896   3.291  10.367 -0.4577  0.4125 -0.1990
  461TMC3     O 6866   0.988   3.246  10.299  0.5997 -0.4826 -0.2022
  461TMC3     H 6867   0.834   3.113  10.177  1.7257  0.5299  0.2266
  461TMC3    H1 6868   0.680   3.415  10.438  0.4073  1.0100  0.1056
  461TMC3    H2 6869   0.448   3.287  10.113  0.5156  0.9949  0.3751
  461TMC3    C7 6870   0.483   3.471  10.275 -0.7150  0.3659 -0.0446
  461TMC3    C8 6871   0.656   3.178   9.997 -0.1169 -0.2288  0.3676
  461TMC3    O1 6872   0.454   3.528  10.169  0.2211 -0.7811 -0.1655
  461TMC3    O2 6873   0.767   3.197   9.954 -0.4534  0.0537  0.0655
  462TMC3    C1 6874   0.987   0.155   0.092 -0.3015  0.7220 -0.1889
  462TMC3    C2 6875   0.888   0.087   0.025  0.6724  0.1851 -0.5211
  462TMC3    C3 6876   0.874   4.680   0.035 -0.0165  0.9220 -0.3461
  462TMC3    C4 6877   1.070   0.079   0.182  0.4970  0.7550  0.2016
  462TMC3    C5 6878   1.050   4.668   0.188 -0.5326 -0.6048  0.0285
  462TMC3    C6 6879   0.951   4.606   0.119  0.6082 -0.4265 -0.0975
  462TMC3     C 6880   1.044   0.284   0.046  0.0490  0.1781  0.2370
  462TMC3     O 6881   1.151   0.313   0.102  0.4562 -0.2039  0.6456
  462TMC3     H 6882   0.828   0.141  17.654 -1.4058 -0.9626  0.3476
  462TMC3    H1 6883   1.153   0.127   0.232 -0.3678  2.5109 -0.0119
  462TMC3    H2 6884   0.948   4.498   0.114  1.5036 -0.3360 -3.1154
  462TMC3    C7 6885   1.114   4.596   0.300  0.4166 -0.5109 -0.6898
  462TMC3    C8 6886   0.829   4.611  17.622  0.5447 -0.0230  1.0681
  462TMC3    O1 6887   1.044   4.510   0.361 -0.4494 -0.5713  0.1234
  462TMC3    O2 6888   0.724   4.658  17.579  0.7787  0.8622  0.3360
  463MPD2     C 6889   1.727   4.398   1.686 -0.3693 -0.6091 -0.2085
  463MPD2    C1 6890   1.767   4.269   1.686 -0.4899  0.5454 -0.6773
  463MPD2    C2 6891   1.836   4.224   1.575  0.0217 -0.2230  0.1558
  463MPD2    C3 6892   1.857   4.299   1.461  0.1306 -0.1788  0.2640
  463MPD2    C4 6893   1.814   4.427   1.464  0.2522 -0.6101  0.0230
  463MPD2    C5 6894   1.742   4.475   1.576 -0.6266  0.7117 -0.4527
  463MPD2     H 6895   1.869   4.121   1.576 -0.7436 -0.4837 -1.7165
  463MPD2    H1 6896   1.837   4.499   1.386 -1.1919 -0.6876 -0.4839
  463MPD2    H2 6897   1.659   4.438   1.760 -0.5070 -1.2311 -0.0070
  463MPD2    H3 6898   1.716   4.580   1.577 -0.7263  0.6854 -0.0182
  463MPD2     N 6899   1.940   4.262   1.358  0.5889 -0.3637 -0.5322
  463MPD2    H5 6900   1.962   4.332   1.288  1.5654 -1.0920 -0.9595
  463MPD2    N1 6901   1.730   4.181   1.788  0.9301 -0.0328  0.2129
  463MPD2    H7 6902   1.753   4.083   1.778  0.4644 -0.1489  0.3054
  464TMC3    C1 6903   1.609   4.084   1.958 -0.8303  0.5886 -0.2833
  464TMC3    C2 6904   1.473   4.067   1.972 -0.4442  0.6751 -0.1032
  464TMC3    C3 6905   1.424   3.940   1.971 -0.1873  0.0930 -0.0318
  464TMC3    C4 6906   1.690   3.983   1.944 -0.0026 -0.2677  0.3123
  464TMC3    C5 6907   1.643   3.856   1.937 -0.9963  0.1492  0.0465
  464TMC3    C6 6908   1.505   3.833   1.944  0.3587 -0.3754 -0.2688
  464TMC3     C 6909   1.652   4.211   1.900 -0.6811 -0.1978  0.5782
  464TMC3     O 6910   1.584   4.310   1.941 -0.0844 -0.0351 -0.8911
  464TMC3     H 6911   1.410   4.154   1.988 -1.1587  0.3189 -1.0219
  464TMC3    H1 6912   1.798   3.995   1.940  0.1630 -1.6968  0.7400
  464TMC3    H2 6913   1.463   3.733   1.953  0.8364 -0.5911 -0.4278
  464TMC3    C7 6914   1.718   3.756   1.864  0.2103 -0.0222  0.2940
  464TMC3    C8 6915   1.283   3.916   1.952  0.2298  0.4594 -0.3137
  464TMC3    O1 6916   1.841   3.754   1.862  0.1049  0.4402 -0.0121
  464TMC3    O2 6917   1.249   3.807   1.907  0.4055 -0.2230 -0.7103
  465MPD2     C 6918   3.103   2.398  16.532  0.1823  0.3294  0.3911
  465MPD2    C1 6919   3.089   2.430  16.667 -0.7033  0.1558  0.0122
  465MPD2    C2 6920   2.971   2.492  16.708 -0.1418 -0.4690 -0.4238
  465MPD2    C3 6921   2.859   2.510  16.627 -0.0144  0.1159 -0.3351
  465MPD2    C4 6922   2.872   2.477  16.490  0.0069  1.0223 -0.0987
  465MPD2    C5 6923   2.998   2.427  16.448 -0.1011  0.0353  0.3565
  465MPD2     H 6924   2.961   2.551  16.798  0.2108  1.9142 -1.9745
  465MPD2    H1 6925   2.780   2.467  16.434  1.1829  1.1084 -2.0463
  465MPD2    H2 6926   3.192   2.348  16.495 -0.6958  1.4767 -3.2490
  465MPD2    H3 6927   2.999   2.389  16.347  0.2721  0.4807  0.1987
  465MPD2     N 6928   2.737   2.558  16.677 -0.3774 -0.0331  0.5461
  465MPD2    H5 6929   2.736   2.576  16.777 -2.0095 -2.8093  1.0072
  465MPD2    N1 6930   3.195   2.419  16.758  0.7009  0.1696 -0.0899
  465MPD2    H7 6931   3.277   2.375  16.716 -1.0122 -0.7261 -2.5259
  466TMC3    C1 6932   2.446   2.688  16.904 -0.6358 -0.3468  1.3044
  466TMC3    C2 6933   2.376   2.791  16.848  0.1510  0.7850 -0.2887
  466TMC3    C3 6934   2.380   2.806  16.714 -0.1207  0.5917  0.3126
  466TMC3    C4 6935   2.499   2.586  16.827  0.6670  0.4053  0.1396
  466TMC3    C5 6936   2.503   2.602  16.690 -0.0022  0.1560 -0.1615
  466TMC3    C6 6937   2.439   2.711  16.636 -0.7014 -0.6107  0.0192
  466TMC3     C 6938   2.455   2.671  17.049  0.0949 -0.3969  0.5083
  466TMC3     O 6939   2.541   2.589  17.088 -0.4995  0.3258 -0.1728
  466TMC3     H 6940   2.326   2.869  16.905  2.0920  2.2807 -0.6026
  466TMC3    H1 6941   2.566   2.509  16.865  0.1678  0.3594  0.9369
  466TMC3    H2 6942   2.426   2.709  16.528  2.1540  1.9054 -0.3845
  466TMC3    C7 6943   2.619   2.572  16.611 -0.5404 -0.8614  0.0662
  466TMC3    C8 6944   2.377   2.946  16.662  0.3123 -0.4269 -0.1236
  466TMC3    O1 6945   2.589   2.548  16.494 -0.2449  0.3526 -0.0652
  466TMC3    O2 6946   2.387   2.947  16.541 -0.1894  0.1040 -0.8381
  467TMC3    C1 6947   4.205   0.950  13.542  0.0983  0.8824 -0.2690
  467TMC3    C2 6948   4.213   1.045  13.442 -0.6572  0.1832 -0.6930
  467TMC3    C3 6949   4.100   1.120  13.425 -0.1582  0.2767 -0.0434
  467TMC3    C4 6950   4.086   0.932  13.611  0.3209 -0.1420  0.2942
  467TMC3    C5 6951   3.977   1.006  13.589 -0.3717 -0.7709  0.3126
  467TMC3    C6 6952   3.982   1.100  13.485 -0.0345 -0.2853  0.5377
  467TMC3     C 6953   4.318   0.870  13.577 -0.3398 -0.0091  0.2187
  467TMC3     O 6954   4.338   0.817  13.689 -0.2417  0.3887 -0.1652
  467TMC3     H 6955   4.310   1.065  13.399  0.6735 -3.2425  0.6664
  467TMC3    H1 6956   4.076   0.860  13.692  0.7000 -0.2976  0.2049
  467TMC3    H2 6957   3.904   1.173  13.469  1.5834  0.7889 -2.4104
  467TMC3    C7 6958   3.863   0.968  13.663  0.6587  0.6140 -0.0200
  467TMC3    C8 6959   4.117   1.250  13.358 -0.7793 -0.5019  0.0905
  467TMC3    O1 6960   3.874   0.882  13.746 -0.0342  0.6270  0.3582
  467TMC3    O2 6961   4.063   1.340  13.416  0.2332 -0.0646  0.2427
  468MPD2     C 6962   3.043   3.771  10.689  0.1909 -0.2879  0.4072
  468MPD2    C1 6963   3.017   3.742  10.816  0.2727  0.0242  0.6965
  468MPD2    C2 6964   2.992   3.607  10.851  0.5010 -0.7892  0.3428
  468MPD2    C3 6965   2.984   3.508  10.753  0.0170 -0.7271  0.6991
  468MPD2    C4 6966   3.013   3.544  10.624  0.2739  0.5000 -0.0938
  468MPD2    C5 6967   3.050   3.676  10.592 -0.2544 -0.5824  0.4539
  468MPD2     H 6968   2.977   3.578  10.955 -1.9850  0.0906  0.2243
  468MPD2    H1 6969   3.001   3.470  10.546 -0.6934  0.4123  0.1392
  468MPD2    H2 6970   3.085   3.864  10.652  0.2533 -0.7726 -0.7313
  468MPD2    H3 6971   3.082   3.705  10.493 -0.7229  3.3478  1.4538
  468MPD2     N 6972   2.960   3.372  10.785 -0.6061  1.0804  0.4693
  468MPD2    H5 6973   2.969   3.314  10.702  1.0035 -1.0528  2.1270
  468MPD2    N1 6974   3.025   3.836  10.924  0.2860  0.1391 -0.1170
  468MPD2    H7 6975   3.006   3.802  11.017 -1.2619  1.3360 -0.0043
  469TMC3    C1 6976   3.085   4.038  11.023 -0.1423  0.1207  0.2665
  469TMC3    C2 6977   3.147   3.963  11.129  0.4171 -0.2230 -0.8517
  469TMC3    C3 6978   3.193   4.037  11.234  0.1199  0.2303  0.1194
  469TMC3    C4 6979   3.070   4.173  11.025 -0.1071  0.0336  0.2432
  469TMC3    C5 6980   3.113   4.240  11.137 -0.6103  0.2747 -0.1836
  469TMC3    C6 6981   3.177   4.180  11.246  0.5106 -0.7922 -0.3600
  469TMC3     C 6982   3.047   3.973  10.904 -0.7176 -0.4202 -0.5157
  469TMC3     O 6983   3.031   4.035  10.798 -0.3969  0.0079  0.4868
  469TMC3     H 6984   3.164   3.857  11.116 -0.8803 -0.5000 -0.2477
  469TMC3    H1 6985   3.031   4.232  10.943  0.9116 -1.1007 -1.0501
  469TMC3    H2 6986   3.255   4.230  11.303 -0.6546  1.1925 -0.4886
  469TMC3    C7 6987   3.091   4.387  11.140 -0.3366  0.0204  0.3737
  469TMC3    C8 6988   3.284   3.971  11.328 -0.0826 -0.1749 -0.0212
  469TMC3    O1 6989   3.039   4.429  11.040  0.3189 -0.1344 -0.3998
  469TMC3    O2 6990   3.328   3.865  11.283  0.1099  0.5449 -0.1852
  470TMC3    C1 6991   0.338   0.170   0.655  0.5447 -0.4287 -0.9874
  470TMC3    C2 6992   0.418   0.281   0.660 -0.3782 -0.2233  0.3281
  470TMC3    C3 6993   0.365   0.391   0.720 -0.6241  0.3811 -0.7922
  470TMC3    C4 6994   0.225   0.159   0.724 -0.4280  0.1652  0.8793
  470TMC3    C5 6995   0.187   0.268   0.801  0.4488 -0.8063  0.1131
  470TMC3    C6 6996   0.256   0.386   0.800  0.4550  0.5461  0.1814
  470TMC3     C 6997   0.396   0.045   0.596 -0.0139  0.3961  0.0277
  470TMC3     O 6998   0.520   0.030   0.595 -0.1423  0.1253  0.2485
  470TMC3     H 6999   0.515   0.276   0.612  0.2622 -1.1755  1.7121
  470TMC3    H1 7000   0.169   0.066   0.725  0.5389 -0.4544 -1.3050
  470TMC3    H2 7001   0.208   0.477   0.834 -2.0111  0.2533 -2.5267
  470TMC3    C7 7002   0.067   0.251   0.890  0.0113 -0.2109  0.1104
  470TMC3    C8 7003   0.450   0.502   0.750  0.2260 -0.4023 -0.0980
  470TMC3    O1 7004   4.724   0.147   0.877 -0.0301  0.4014 -0.0005
  470TMC3    O2 7005   0.422   0.569   0.847 -0.0299  0.3995  0.3683
  471MPD2     C 7006   1.381   1.615  16.576  0.1005  0.0560 -0.1742
  471MPD2    C1 7007   1.296   1.580  16.680 -0.2336  0.0089  0.0761
  471MPD2    C2 7008   1.347   1.575  16.810 -0.2103  0.0561 -0.1742
  471MPD2    C3 7009   1.479   1.613  16.839 -0.2121  0.0429 -0.3137
  471MPD2    C4 7010   1.557   1.648  16.736 -0.0662 -0.5706  0.4412
  471MPD2    C5 7011   1.513   1.653  16.608 -0.1740  0.9576 -0.5426
  471MPD2     H 7012   1.281   1.544  16.890 -0.1640 -1.5083 -0.7579
  471MPD2    H1 7013   1.657   1.688  16.755 -0.8474  0.3702  2.6657
  471MPD2    H2 7014   1.362   1.616  16.470  1.3155  0.4979 -0.3941
  471MPD2    H3 7015   1.580   1.689  16.531  1.6809 -0.0115  0.6338
  471MPD2     N 7016   1.544   1.594  16.965  0.4466 -0.4272 -0.3455
  471MPD2    H5 7017   1.643   1.620  16.965 -0.1618  1.9552  0.6971
  471MPD2    N1 7018   1.167   1.538  16.658 -0.5000 -0.1651 -0.0008
  471MPD2    H7 7019   1.113   1.515  16.740  1.4810 -0.1291  1.3135
  472TMC3    C1 7020   0.972   1.483  16.542  0.3494  0.2144  0.4715
  472TMC3    C2 7021   0.910   1.466  16.424 -0.5247 -0.0138  0.2554
  472TMC3    C3 7022   0.787   1.423  16.428 -0.4487  0.0204 -0.5604
  472TMC3    C4 7023   0.920   1.443  16.661 -0.6240 -0.0927  0.4053
  472TMC3    C5 7024   0.792   1.387  16.667  0.0761  0.8711 -0.7538
  472TMC3    C6 7025   0.719   1.387  16.549 -0.0440  1.0416  0.7446
  472TMC3     C 7026   1.106   1.538  16.534 -0.4808 -0.1088 -0.1935
  472TMC3     O 7027   1.147   1.577  16.427  0.1962  0.1394 -0.0191
  472TMC3     H 7028   0.953   1.506  16.334  0.5203 -1.5537  0.0675
  472TMC3    H1 7029   0.971   1.453  16.756  1.3965 -0.0293 -0.6942
  472TMC3    H2 7030   0.611   1.376  16.551  0.0085  0.4160  0.3278
  472TMC3    C7 7031   0.759   1.290  16.771 -0.1715 -0.8540  0.1689
  472TMC3    C8 7032   0.717   1.405  16.301  0.1309  0.1297 -0.0300
  472TMC3    O1 7033   0.832   1.272  16.867  0.3740  0.2556  0.6465
  472TMC3    O2 7034   0.740   1.482  16.206 -0.1371  0.7496  0.3856
  473MPD2     C 7035   0.509   3.773  14.146 -0.0838 -0.4932 -0.6841
  473MPD2    C1 7036   0.635   3.824  14.112  0.5216  0.2068 -0.1174
  473MPD2    C2 7037   0.716   3.873  14.209 -0.5525  0.1309 -0.2218
  473MPD2    C3 7038   0.676   3.876  14.340  0.3691 -0.3324  0.0001
  473MPD2    C4 7039   0.554   3.824  14.372 -0.4174  0.2760  0.1354
  473MPD2    C5 7040   0.472   3.766  14.278  0.3182  0.8792  0.4367
  473MPD2     H 7041   0.816   3.908  14.183 -0.1342  0.9066  2.3946
  473MPD2    H1 7042   0.510   3.814  14.471 -1.1750  0.1663 -0.2191
  473MPD2    H2 7043   0.442   3.735  14.069  0.4472  0.6809 -1.7261
  473MPD2    H3 7044   0.374   3.732  14.307  0.6643  0.5753  1.2483
  473MPD2     N 7045   0.751   3.923  14.451 -0.3660 -0.7371  0.7800
  473MPD2    H5 7046   0.697   3.931  14.537  1.0561  0.6492  1.5414
  473MPD2    N1 7047   0.686   3.826  13.981  0.1580  0.3483 -0.0721
  473MPD2    H7 7048   0.780   3.862  13.971  0.2297  0.4693  1.0689
  474TMC3    C1 7049   0.929   4.002  14.583  0.0802  0.3931  0.4148
  474TMC3    C2 7050   0.841   4.067  14.671 -0.3673  0.1525  0.6334
  474TMC3    C3 7051   0.888   4.099  14.799  0.1383  0.0870 -0.0903
  474TMC3    C4 7052   1.052   3.963  14.622 -0.9618  0.1624  0.4071
  474TMC3    C5 7053   1.100   4.002  14.746  0.0269  0.1423 -0.1315
  474TMC3    C6 7054   1.015   4.065  14.831  0.1813 -0.3834 -0.7553
  474TMC3     C 7055   0.886   3.951  14.451  0.5764 -0.2685 -0.8985
  474TMC3     O 7056   0.968   3.927  14.363  0.0307  0.7884  0.4727
  474TMC3     H 7057   0.743   4.102  14.641 -0.1254  0.6841  0.4685
  474TMC3    H1 7058   1.118   3.912  14.553  1.4448  4.3625 -0.4111
  474TMC3    H2 7059   1.053   4.095  14.929 -0.9784  1.1102 -0.7761
  474TMC3    C7 7060   1.245   4.015  14.763  0.0921  0.0227 -0.3931
  474TMC3    C8 7061   0.834   4.223  14.848 -0.1808 -0.1297 -0.4058
  474TMC3    O1 7062   1.322   3.965  14.683 -0.3934  0.6033  0.7544
  474TMC3    O2 7063   0.839   4.254  14.966 -0.3292 -0.1369 -0.5385
  475MPD2     C 7064   4.712   1.163  10.108  0.6458 -0.4940  0.9337
  475MPD2    C1 7065   0.021   1.278  10.174  0.3649  0.4589 -0.0094
  475MPD2    C2 7066   4.643   1.353  10.223 -0.2854 -0.6135 -0.3326
  475MPD2    C3 7067   4.508   1.315  10.214  0.6372  0.6685 -0.9804
  475MPD2    C4 7068   4.478   1.202  10.144 -0.0669  0.2949  0.4962
  475MPD2    C5 7069   4.579   1.122  10.095 -0.1789  0.0462 -0.3096
  475MPD2     H 7070   4.675   1.442  10.275 -1.2015 -0.1296 -0.6026
  475MPD2    H1 7071   4.378   1.167  10.117  0.7254 -0.0237 -2.0166
  475MPD2    H2 7072   0.065   1.089  10.093 -1.1498 -2.1528 -0.0865
  475MPD2    H3 7073   4.546   1.031  10.047  1.5650 -0.4819 -0.5220
  475MPD2     N 7074   4.412   1.407  10.263 -0.0081 -0.3318 -0.8828
  475MPD2    H5 7075   4.452   1.492  10.302 -0.6226  0.4938 -2.0362
  475MPD2    N1 7076   0.160   1.309  10.179 -0.4496  0.6781  0.0797
  475MPD2    H7 7077   0.230   1.238  10.160 -1.8508 -0.5030 -0.6200
  476TMC3    C1 7078   0.143   1.553  10.218  0.1771 -0.0925  0.4797
  476TMC3    C2 7079   0.112   1.603  10.097 -0.1523  0.5770  0.0350
  476TMC3    C3 7080   0.048   1.726  10.093  0.3212 -1.0009 -0.5481
  476TMC3    C4 7081   0.105   1.608  10.336 -0.4191  0.1609  0.4768
  476TMC3    C5 7082   0.036   1.726  10.332 -0.4531 -0.5293  0.0868
  476TMC3    C6 7083   0.013   1.791  10.210 -0.4306  0.0459 -0.1281
  476TMC3     C 7084   0.217   1.428  10.220  0.8263  0.2134 -0.0231
  476TMC3     O 7085   0.336   1.442  10.225  0.1486 -0.3118  0.3605
  476TMC3     H 7086   0.148   1.549  10.010  0.1000  1.3296 -0.3293
  476TMC3    H1 7087   0.104   1.557  10.432  2.3676 -2.0225 -0.6763
  476TMC3    H2 7088   4.652   1.856  10.197  0.3472  1.2708  0.9243
  476TMC3    C7 7089   4.634   1.730  10.404 -0.6059  1.1454 -0.2201
  476TMC3    C8 7090   4.659   1.750  10.008  0.1225  0.1822 -0.0524
  476TMC3    O1 7091   4.568   1.630  10.387 -0.1153 -0.5301  0.3467
  476TMC3    O2 7092   4.627   1.860   9.964  0.0088 -0.1171 -0.3805
  477MPD2     C 7093   1.763   3.245  11.855 -0.6587  0.6110  0.5501
  477MPD2    C1 7094   1.637   3.234  11.903 -0.7444  0.9650 -0.1676
  477MPD2    C2 7095   1.609   3.137  11.995  0.7119 -0.7134  0.7068
  477MPD2    C3 7096   1.706   3.053  12.037  1.5178  0.3643 -0.2890
  477MPD2    C4 7097   1.839   3.077  12.001  0.3576  0.6355  0.8936
  477MPD2    C5 7098   1.861   3.177  11.918 -0.2191  0.7717 -0.3466
  477MPD2     H 7099   1.506   3.114  12.023 -0.0314  0.6809 -0.9254
  477MPD2    H1 7100   1.927   3.030  12.043  0.8139  1.2168  0.6022
  477MPD2    H2 7101   1.785   3.314  11.775  2.8275 -1.0451  0.0653
  477MPD2    H3 7102   1.962   3.188  11.880  0.4320 -0.4779  1.0217
  477MPD2     N 7103   1.668   2.942  12.114 -0.2707 -0.1806  0.2261
  477MPD2    H5 7104   1.570   2.924  12.134 -0.1224  0.6523  1.6815
  477MPD2    N1 7105   1.536   3.319  11.840  0.2938 -0.1704  0.5389
  477MPD2    H7 7106   1.559   3.373  11.757  1.6342 -1.4468  0.0844
  478TMC3    C1 7107   1.329   3.406  11.785  0.2195 -0.8442 -0.5724
  478TMC3    C2 7108   1.239   3.486  11.839 -0.0138  0.6948  0.1684
  478TMC3    C3 7109   1.157   3.551  11.752  0.1900  0.0960  0.0751
  478TMC3    C4 7110   1.345   3.385  11.649 -0.7050 -0.4304 -0.0841
  478TMC3    C5 7111   1.248   3.437  11.564  0.3543  0.6034 -0.4346
  478TMC3    C6 7112   1.150   3.521  11.614  0.0516  0.1421  0.1074
  478TMC3     C 7113   1.403   3.327  11.884  0.4141 -0.0329  0.6711
  478TMC3     O 7114   1.350   3.292  11.989 -0.0828  0.3507 -0.8137
  478TMC3     H 7115   1.226   3.490  11.947 -0.8309 -0.7396  0.1231
  478TMC3    H1 7116   1.429   3.324  11.617 -0.8723 -0.5471 -0.3070
  478TMC3    H2 7117   1.076   3.567  11.550 -0.5964  0.7983  1.3577
  478TMC3    C7 7118   1.255   3.390  11.427 -0.7701 -0.5274  0.2479
  478TMC3    C8 7119   1.063   3.634  11.817  0.1129  0.7455 -0.8475
  478TMC3    O1 7120   1.365   3.372  11.373  0.4087  0.7592  0.1310
  478TMC3    O2 7121   1.041   3.615  11.937 -0.0734 -0.4653 -0.5598
  479MPD2     C 7122   0.673   1.134  15.286  0.4077 -0.6470 -0.2738
  479MPD2    C1 7123   0.637   1.101  15.416 -0.3470 -0.4965 -0.0999
  479MPD2    C2 7124   0.734   1.122  15.513  0.3181  0.1497 -0.1241
  479MPD2    C3 7125   0.864   1.170  15.478 -0.4163 -0.3720  0.0071
  479MPD2    C4 7126   0.902   1.187  15.345 -0.1427 -0.1447  0.9347
  479MPD2    C5 7127   0.800   1.170  15.252  0.3495  1.3196 -0.0608
  479MPD2     H 7128   0.708   1.110  15.617  1.2565 -2.2202 -0.1624
  479MPD2    H1 7129   0.997   1.236  15.324 -0.0708 -1.1815 -1.2244
  479MPD2    H2 7130   0.603   1.116  15.205  0.5201  1.9989 -0.9567
  479MPD2    H3 7131   0.821   1.177  15.146 -0.0736 -0.0646 -0.2478
  479MPD2     N 7132   0.952   1.212  15.571  0.2184  0.0567  0.0418
  479MPD2    H5 7133   1.048   1.210  15.537  0.7551  3.2332  1.3531
  479MPD2    N1 7134   0.506   1.076  15.432  0.1190 -0.0987 -0.2601
  479MPD2    H7 7135   0.454   1.060  15.346  0.0212  1.2430 -0.4552
  480TMC3    C1 7136   0.650   1.286  15.916  0.0862  0.2489 -0.4089
  480TMC3    C2 7137   0.581   1.386  15.849  1.1622  0.3436 -0.0915
  480TMC3    C3 7138   0.630   1.431  15.736 -0.0477  0.6693  0.5628
  480TMC3    C4 7139   0.769   1.237  15.875 -0.1471 -0.3575  0.1475
  480TMC3    C5 7140   0.815   1.284  15.753 -0.1102  0.2749  0.2337
  480TMC3    C6 7141   0.742   1.373  15.683 -0.7023 -0.2481 -0.0867
  480TMC3     C 7142   0.566   1.182  15.964  0.0217 -0.3876 -0.4971
  480TMC3     O 7143   0.614   1.080  16.009 -0.4326  0.2423  0.4292
  480TMC3     H 7144   0.506   1.439  15.906 -0.1310 -1.7836  0.1713
  480TMC3    H1 7145   0.821   1.149  15.911  2.1454  1.6227  1.7181
  480TMC3    H2 7146   0.775   1.407  15.586  2.3804 -2.2686  0.2575
  480TMC3    C7 7147   0.937   1.226  15.712 -0.5272  0.2420  0.3208
  480TMC3    C8 7148   0.518   1.443  15.641  0.6185  0.5718  0.4650
  480TMC3    O1 7149   1.023   1.225  15.799 -0.7028 -0.1027  0.0852
  480TMC3    O2 7150   0.415   1.443  15.704 -0.1128  0.0708  0.2944
  481MPD2     C 7151   2.425   0.257  14.216 -0.2293  0.2243 -0.5114
  481MPD2    C1 7152   2.299   0.233  14.260 -0.9448  0.3431  0.3073
  481MPD2    C2 7153   2.286   0.238  14.399 -0.3829  0.5539  0.1907
  481MPD2    C3 7154   2.393   0.266  14.486  0.0291  0.5459  0.7830
  481MPD2    C4 7155   2.516   0.291  14.433  0.0180 -0.0938  0.2666
  481MPD2    C5 7156   2.530   0.286  14.297 -0.3782 -0.0826  0.1599
  481MPD2     H 7157   2.188   0.211  14.437 -1.1362  1.5025 -1.0520
  481MPD2    H1 7158   2.591   0.324  14.504 -1.5201  0.2497  1.7110
  481MPD2    H2 7159   2.452   0.254  14.111  0.0626  1.3498 -0.4626
  481MPD2    H3 7160   2.625   0.321  14.258 -0.3616  1.3974  1.5520
  481MPD2     N 7161   2.396   0.261  14.627 -0.2864  0.4516 -0.0334
  481MPD2    H5 7162   2.486   0.282  14.669 -2.1325  1.3406  3.4673
  481MPD2    N1 7163   2.198   0.209  14.163 -0.8026 -0.5081  0.1367
  481MPD2    H7 7164   2.220   0.211  14.064 -1.3818 -1.8884 -0.0277
  482TMC3    C1 7165   1.988   0.138  14.075  0.4157 -0.0717  0.5453
  482TMC3    C2 7166   1.856   0.119  14.095  0.1747  0.2593 -0.3082
  482TMC3    C3 7167   1.782   0.122  13.987  0.2165 -0.0593  0.6918
  482TMC3    C4 7168   2.038   0.157  13.944  0.0037 -0.2338 -0.3342
  482TMC3    C5 7169   1.952   0.165  13.841 -0.2645 -0.5794 -0.3079
  482TMC3    C6 7170   1.819   0.138  13.854  0.3571  0.6315  1.1836
  482TMC3     C 7171   2.071   0.164  14.195  0.5738 -0.2707 -0.0155
  482TMC3     O 7172   2.024   0.131  14.305  0.2378  0.5231 -0.2354
  482TMC3     H 7173   1.820   0.105  14.196  1.4196  2.6993  0.4750
  482TMC3    H1 7174   2.141   0.183  13.924  0.4432 -0.1750  1.9332
  482TMC3    H2 7175   1.755   0.163  13.771  1.1271  0.2026  0.4518
  482TMC3    C7 7176   2.008   0.161  13.710 -0.1849  0.3438  0.1047
  482TMC3    C8 7177   1.634   0.115  14.012 -0.1077 -0.2898  0.0762
  482TMC3    O1 7178   2.122   0.117  13.706 -0.7308 -0.3019 -0.2096
  482TMC3    O2 7179   1.597   0.130  14.124 -0.3133  0.2458  0.4098
  483TMC3    C1 7180   0.230   4.015   1.219 -0.8644  0.4210 -0.9230
  483TMC3    C2 7181   0.344   4.087   1.210 -0.3899 -0.6359  0.1938
  483TMC3    C3 7182   0.416   4.105   1.332  0.4178  0.0015 -0.2027
  483TMC3    C4 7183   0.181   3.967   1.337  0.7591 -0.4396 -0.2311
  483TMC3    C5 7184   0.264   3.965   1.449  0.5865 -0.3385 -0.0614
  483TMC3    C6 7185   0.380   4.030   1.445 -1.1549 -0.3189 -0.0255
  483TMC3     C 7186   0.139   4.047   1.114  0.2293 -0.6491  0.6306
  483TMC3     O 7187   0.172   4.137   1.038 -0.2029 -0.0844 -0.5785
  483TMC3     H 7188   0.369   4.153   1.128 -0.7199 -0.4021  0.2773
  483TMC3    H1 7189   0.090   3.909   1.327  0.2008  0.1500  1.3767
  483TMC3    H2 7190   0.438   4.022   1.536  1.1820 -0.5278 -1.5218
  483TMC3    C7 7191   0.265   3.854   1.542  0.1340 -0.4914  0.4623
  483TMC3    C8 7192   0.555   4.149   1.311  0.3742 -0.9137 -0.0051
  483TMC3    O1 7193   0.348   3.836   1.630  0.4240  0.2922  0.5830
  483TMC3    O2 7194   0.584   4.164   1.193 -0.0885 -0.1377 -0.1555
  484MPD2     C 7195   2.173   2.269  12.372 -0.2938  0.0563  0.0916
  484MPD2    C1 7196   2.266   2.184  12.416  0.4724  0.3643  0.6910
  484MPD2    C2 7197   2.400   2.214  12.392 -0.0241  0.4686 -0.2591
  484MPD2    C3 7198   2.431   2.317  12.304  0.4788  0.8297 -0.0396
  484MPD2    C4 7199   2.337   2.400  12.254 -0.3029 -0.2983  0.3152
  484MPD2    C5 7200   2.204   2.367  12.280 -0.4517  0.3551 -0.3017
  484MPD2     H 7201   2.472   2.146  12.435 -0.8372 -0.6443 -0.6466
  484MPD2    H1 7202   2.359   2.477  12.181 -2.7569 -2.1777 -2.3940
  484MPD2    H2 7203   2.068   2.259  12.398  0.0750 -0.9900  1.1599
  484MPD2    H3 7204   2.132   2.430  12.230 -0.6560 -1.4525 -2.2849
  484MPD2     N 7205   2.566   2.351  12.271  0.4791  0.1520  0.4073
  484MPD2    H5 7206   2.572   2.433  12.213 -0.0225  0.7887  1.2468
  484MPD2    N1 7207   2.218   2.074  12.487 -0.4807  0.2318 -0.3380
  484MPD2    H7 7208   2.117   2.068  12.498 -0.4416 -2.9985 -1.8713
  485TMC3    C1 7209   2.794   2.376  12.277 -0.1575  0.0728 -0.1722
  485TMC3    C2 7210   2.909   2.406  12.347 -0.8498 -0.1484 -0.4272
  485TMC3    C3 7211   3.017   2.472  12.294 -0.7008 -0.2919  0.7220
  485TMC3    C4 7212   2.785   2.421  12.147 -0.4646 -0.0145 -0.2659
  485TMC3    C5 7213   2.898   2.486  12.098 -0.0298  0.1321  0.0600
  485TMC3    C6 7214   3.007   2.525  12.168 -0.2138  0.7380 -0.6169
  485TMC3     C 7215   2.678   2.308  12.338  0.3384  1.5918  0.1302
  485TMC3     O 7216   2.693   2.240  12.438 -0.4632  0.4615  0.1952
  485TMC3     H 7217   2.908   2.371  12.449 -1.0885  0.1060 -0.3427
  485TMC3    H1 7218   2.715   2.375  12.077 -0.9899  1.0489 -0.4346
  485TMC3    H2 7219   3.095   2.566  12.120 -1.1676  2.1856 -1.1179
  485TMC3    C7 7220   2.940   2.429  11.974 -1.1244 -0.1904  0.1996
  485TMC3    C8 7221   3.149   2.416  12.300 -1.3301  0.1333 -0.1394
  485TMC3    O1 7222   2.962   2.309  11.983  0.5512 -0.1187 -0.9127
  485TMC3    O2 7223   3.243   2.443  12.222  0.2233 -0.7089 -0.3169
  486MPD2     C 7224   0.085   0.734  12.854 -0.1917 -0.4938 -0.8233
  486MPD2    C1 7225   4.712   0.694  12.771  0.1676 -0.3705  0.8889
  486MPD2    C2 7226   4.623   0.785  12.715  0.1151  0.3303 -0.2546
  486MPD2    C3 7227   4.632   0.920  12.750 -0.8464 -0.7731 -0.0434
  486MPD2    C4 7228   0.001   0.957  12.843  0.1878  0.6619 -0.1366
  486MPD2    C5 7229   0.079   0.863  12.893  0.0567  0.0903 -0.0064
  486MPD2     H 7230   4.559   0.757  12.632  2.1893  1.7408 -2.3681
  486MPD2    H1 7231   0.019   1.056  12.884 -2.2704  0.5919  1.1382
  486MPD2    H2 7232   0.163   0.667  12.888 -1.6519 -0.7416  2.0324
  486MPD2    H3 7233   0.157   0.889  12.965 -1.5970  1.4890  1.2784
  486MPD2     N 7234   4.550   1.018  12.691 -0.6217  0.2688 -0.4423
  486MPD2    H5 7235   4.488   0.975  12.623 -2.2648 -0.8801  1.7761
  486MPD2    N1 7236   4.719   0.558  12.748  0.1728 -0.5660 -0.1587
  486MPD2    H7 7237   0.075   0.517  12.794 -1.0497 -3.0770 -0.2318
  487TMC3    C1 7238   4.650   0.347  12.682 -0.0966  0.4496 -1.3222
  487TMC3    C2 7239   4.540   0.268  12.661  0.0683 -0.1459 -0.0595
  487TMC3    C3 7240   4.532   0.138  12.714 -0.6396  0.5872 -0.1080
  487TMC3    C4 7241   0.030   0.296  12.753  0.4623  0.4166  0.5656
  487TMC3    C5 7242   0.018   0.171  12.805  0.3274  0.2837 -0.2264
  487TMC3    C6 7243   4.644   0.087  12.773  0.2288  0.0916  0.8363
  487TMC3     C 7244   4.624   0.485  12.680  0.4602  0.1026  0.0146
  487TMC3     O 7245   4.516   0.522  12.639 -0.0465  0.4118 -0.1953
  487TMC3     H 7246   4.457   0.315  12.610  0.1130  1.4755  1.3528
  487TMC3    H1 7247   0.118   0.351  12.784  1.2477  0.9809 -2.7160
  487TMC3    H2 7248   4.628   4.717  12.823 -2.1921  0.6216  1.0901
  487TMC3    C7 7249   0.111   0.141  12.907  0.5151  0.6041 -0.3856
  487TMC3    C8 7250   4.424   0.118  12.803  0.2950 -0.1789  0.7731
  487TMC3    O1 7251   0.137   0.236  12.983 -0.2032  0.3050  0.0671
  487TMC3    O2 7252   4.467   0.092  12.918 -0.3568 -0.2018  0.4857
  488MPD2     C 7253   0.210   2.662  16.794  0.0278  0.0544  0.3607
  488MPD2    C1 7254   0.245   2.783  16.847  0.4432  1.1009 -0.0770
  488MPD2    C2 7255   0.256   2.801  16.982 -0.6756  0.9418  0.3736
  488MPD2    C3 7256   0.241   2.697  17.064  0.2293  0.0427  0.3876
  488MPD2    C4 7257   0.211   2.574  17.012  0.3054 -0.0271  0.5366
  488MPD2    C5 7258   0.192   2.560  16.879  0.1071 -0.0878 -0.3827
  488MPD2     H 7259   0.289   2.899  17.014  0.1361  1.1258 -1.0165
  488MPD2    H1 7260   0.195   2.484  17.070  2.8295  0.1972  1.5649
  488MPD2    H2 7261   0.199   2.659  16.686 -0.9760  3.2505  0.3968
  488MPD2    H3 7262   0.159   2.468  16.832 -1.0301  0.0466  0.1647
  488MPD2     N 7263   0.265   2.727  17.199  0.2761 -0.2213  0.0792
  488MPD2    H5 7264   0.310   2.817  17.219 -1.1313  0.0175  2.1763
  488MPD2    N1 7265   0.254   2.904  16.767 -0.6326  0.1060  0.2213
  488MPD2    H7 7266   0.255   2.989  16.822 -0.5148  0.6417 -0.6207
  489TMC3    C1 7267   0.263   2.709  17.433  0.3567  0.1381  0.4789
  489TMC3    C2 7268   0.242   2.845  17.438  0.5199 -0.4476  0.0306
  489TMC3    C3 7269   0.290   2.906  17.549  0.2891 -0.0067 -0.2021
  489TMC3    C4 7270   0.301   2.630  17.546  0.2498  0.0664  0.1726
  489TMC3    C5 7271   0.343   2.700  17.653  0.1382  0.3054 -0.2789
  489TMC3    C6 7272   0.339   2.842  17.657  0.2266 -0.0440  0.1172
  489TMC3     C 7273   0.249   2.636  17.302 -0.1708 -0.7398 -0.1023
  489TMC3     O 7274   0.241   2.515  17.296 -0.1906  0.3142  0.2544
  489TMC3     H 7275   0.191   2.899  17.359  0.8029 -1.7277 -1.0393
  489TMC3    H1 7276   0.303   2.524  17.525  2.7932  0.9177 -3.7578
  489TMC3    H2 7277   0.381   2.893   0.042 -0.7232  1.1875 -0.1587
  489TMC3    C7 7278   0.409   2.635   0.067 -1.0119  0.3542  0.2111
  489TMC3    C8 7279   0.288   3.047  17.551  1.1331 -0.2812  0.3285
  489TMC3    O1 7280   0.468   2.715   0.142  0.1378 -0.1152 -0.5541
  489TMC3    O2 7281   0.268   3.107  17.445  0.6163  0.3943  0.2822
  490MPD2     C 7282   1.214   1.771  17.331 -0.3806  0.2538 -0.3923
  490MPD2    C1 7283   1.184   1.748  17.455 -0.1713 -0.0425  0.0766
  490MPD2    C2 7284   1.233   1.833  17.555  0.4310 -0.4391  0.2594
  490MPD2    C3 7285   1.302   1.949  17.530  0.3612 -0.5910  0.0877
  490MPD2    C4 7286   1.337   1.965  17.400 -0.4585 -0.1390  0.0212
  490MPD2    C5 7287   1.292   1.879  17.308  0.3810  0.7894 -0.1574
  490MPD2     H 7288   1.213   1.800  17.656 -0.6686 -1.9130 -0.4500
  490MPD2    H1 7289   1.397   2.043  17.354 -1.0348  0.6242  0.5562
  490MPD2    H2 7290   1.191   1.711  17.243  0.2251  0.7287 -0.8767
  490MPD2    H3 7291   1.337   1.893  17.210 -0.1552  0.1780 -0.4923
  490MPD2     N 7292   1.356   2.028  17.630  0.3666  0.0476 -0.3982
  490MPD2    H5 7293   1.437   2.084  17.604  1.6186 -0.3955  2.5418
  490MPD2    N1 7294   1.113   1.635  17.490  0.7816  0.1011 -0.2589
  490MPD2    H7 7295   1.101   1.615  17.589  0.5616 -1.4077 -0.5859
  491TMC3    C1 7296   1.027   1.414  17.484 -0.1990  0.5591  0.2484
  491TMC3    C2 7297   1.003   1.424  17.617 -0.4278 -0.3307  0.3731
  491TMC3    C3 7298   0.905   1.345  17.670 -0.2635 -0.0672 -0.4040
  491TMC3    C4 7299   0.945   1.336  17.403 -0.0558 -0.4493 -0.0965
  491TMC3    C5 7300   0.852   1.258  17.461  0.0965  0.3804 -0.1319
  491TMC3    C6 7301   0.820   1.271  17.593  0.0299  0.5693 -0.2936
  491TMC3     C 7302   1.076   1.533  17.412  0.2528 -0.4358 -0.7323
  491TMC3     O 7303   1.088   1.518  17.294  0.4627 -0.2548  0.1356
  491TMC3     H 7304   1.052   1.487  17.690  1.8501 -1.4753 -0.1856
  491TMC3    H1 7305   0.956   1.320  17.297  0.2549 -1.1182  0.0417
  491TMC3    H2 7306   0.727   1.235  17.636  1.4349 -0.8482  1.5761
  491TMC3    C7 7307   0.749   1.210  17.373 -1.2068  0.3918 -0.1630
  491TMC3    C8 7308   0.828   1.414   0.073  0.3951  0.1548 -0.2732
  491TMC3    O1 7309   0.745   1.262  17.261  0.5615  0.4793 -0.2429
  491TMC3    O2 7310   0.709   1.429   0.054  0.0499  0.1233 -0.2635
  492MPD2     C 7311   1.402   2.047  11.247 -0.5691  0.3910  0.2295
  492MPD2    C1 7312   1.330   1.935  11.208 -0.7032 -0.4990  0.1135
  492MPD2    C2 7313   1.233   1.883  11.296 -0.3286 -0.2754  0.1573
  492MPD2    C3 7314   1.208   1.939  11.426 -0.2539  0.3461 -0.5298
  492MPD2    C4 7315   1.277   2.053  11.458 -0.2329  0.1006 -0.5454
  492MPD2    C5 7316   1.374   2.102  11.375 -0.6830 -0.4494  0.6910
  492MPD2     H 7317   1.167   1.801  11.270  0.4659 -0.8222 -0.1152
  492MPD2    H1 7318   1.256   2.100  11.553 -0.3498 -1.3526  0.1514
  492MPD2    H2 7319   1.483   2.084  11.185 -0.1367 -3.8935 -1.7588
  492MPD2    H3 7320   1.427   2.192  11.406 -1.6566  0.4191 -0.1685
  492MPD2     N 7321   1.101   1.892  11.507 -0.1408 -0.5593  0.4659
  492MPD2    H5 7322   1.076   1.940  11.593 -1.0485 -1.5964  0.7839
  492MPD2    N1 7323   1.364   1.881  11.081  0.1992  0.4410  0.5807
  492MPD2    H7 7324   1.456   1.904  11.044 -0.2012  1.7091  0.3959
  493TMC3    C1 7325   1.357   1.747  10.891 -0.1948 -0.6084 -0.2972
  493TMC3    C2 7326   1.482   1.789  10.872  0.0180  0.4691 -0.1305
  493TMC3    C3 7327   1.534   1.789  10.745 -0.5597 -0.0998 -0.5485
  493TMC3    C4 7328   1.279   1.710  10.786  0.5544 -0.0579  0.0351
  493TMC3    C5 7329   1.334   1.712  10.657 -0.4819 -0.6931  0.2905
  493TMC3    C6 7330   1.465   1.749  10.630 -0.1098 -0.4772  0.3149
  493TMC3     C 7331   1.285   1.796  11.014 -0.4668 -0.6240  0.7118
  493TMC3     O 7332   1.168   1.776  11.026  0.3687 -0.4871  0.7083
  493TMC3     H 7333   1.551   1.805  10.954 -0.5416  1.3410  0.1798
  493TMC3    H1 7334   1.176   1.682  10.802  0.5452  1.4298  2.5216
  493TMC3    H2 7335   1.516   1.720  10.538 -1.2220 -1.0040 -0.1331
  493TMC3    C7 7336   1.234   1.690  10.549 -0.6594  0.0697 -0.2518
  493TMC3    C8 7337   1.655   1.871  10.741 -0.6769  0.0491  0.3691
  493TMC3    O1 7338   1.135   1.626  10.582 -0.2154  0.5869  0.5446
  493TMC3    O2 7339   1.730   1.865  10.837 -0.3211 -0.4860  0.8552
  494TMC3    C1 7340   1.484   3.595   0.761 -0.1900  0.2163  0.1956
  494TMC3    C2 7341   1.531   3.467   0.739  0.2558 -0.4089  0.2761
  494TMC3    C3 7342   1.601   3.464   0.630 -0.2352 -0.5548 -0.0742
  494TMC3    C4 7343   1.473   3.697   0.667  0.0098 -0.3653 -0.2417
  494TMC3    C5 7344   1.542   3.680   0.546  0.4208  0.2202  0.0644
  494TMC3    C6 7345   1.610   3.563   0.536 -0.5363  0.2278 -0.6110
  494TMC3     C 7346   1.408   3.625   0.888  0.3405 -0.9017  0.0328
  494TMC3     O 7347   1.311   3.702   0.874 -0.2110 -0.6273  0.1528
  494TMC3     H 7348   1.551   3.395   0.818  1.3197  1.1942  1.4776
  494TMC3    H1 7349   1.418   3.786   0.693  0.7675 -0.4357  1.5596
  494TMC3    H2 7350   1.666   3.553   0.444  3.6481 -1.4692  2.1011
  494TMC3    C7 7351   1.606   3.789   0.483  0.4795  0.4886 -0.0096
  494TMC3    C8 7352   1.672   3.343   0.593 -0.1257  0.4765  0.2579
  494TMC3    O1 7353   1.720   3.767   0.449  0.6213  0.0914  0.0244
  494TMC3    O2 7354   1.730   3.285   0.681  0.4593  0.1560  0.1635
  495TMC3    C1 7355   0.646   1.154  14.712  0.6850  0.2724 -0.4758
  495TMC3    C2 7356   0.534   1.160  14.636 -0.2537 -0.4738  0.4030
  495TMC3    C3 7357   0.441   1.259  14.666  0.7520 -0.5629 -0.1155
  495TMC3    C4 7358   0.673   1.240  14.812 -0.4853  0.6443  0.4306
  495TMC3    C5 7359   0.582   1.330  14.844  0.9790 -0.2299  0.1460
  495TMC3    C6 7360   0.469   1.347  14.766  0.2648 -0.6507 -0.0411
  495TMC3     C 7361   0.733   1.042  14.695  0.8424 -0.2796 -0.2797
  495TMC3     O 7362   0.846   1.054  14.739 -0.2697 -0.2188 -0.0489
  495TMC3     H 7363   0.522   1.086  14.558 -1.6778  0.6167 -0.4180
  495TMC3    H1 7364   0.761   1.223  14.873  0.3863 -1.2037 -1.3346
  495TMC3    H2 7365   0.407   1.432  14.791 -0.3710 -1.5232  1.3897
  495TMC3    C7 7366   0.594   1.386  14.974  0.2054 -0.6447 -0.3898
  495TMC3    C8 7367   0.304   1.215  14.676 -0.1526  0.1178  0.1271
  495TMC3    O1 7368   0.702   1.386  15.032  0.0381  0.3402  0.4352
  495TMC3    O2 7369   0.245   1.242  14.776  0.1518  0.2229 -0.6430
  496MPD2     C 7370   3.026   1.216  15.796 -0.0238 -0.1384  0.1051
  496MPD2    C1 7371   2.932   1.265  15.711  0.3153 -0.9110 -0.3317
  496MPD2    C2 7372   2.793   1.287  15.742  0.3573 -0.4050  0.7297
  496MPD2    C3 7373   2.755   1.250  15.865  0.7248  0.5781 -0.1131
  496MPD2    C4 7374   2.853   1.219  15.957 -0.5393 -0.6393  0.7282
  496MPD2    C5 7375   2.984   1.203  15.926 -0.0164 -0.5357  0.2171
  496MPD2     H 7376   2.724   1.304  15.660  1.3486 -0.1388 -0.0428
  496MPD2    H1 7377   2.831   1.194  16.060 -1.6956  0.2538  0.6944
  496MPD2    H2 7378   3.127   1.192  15.765 -0.3415 -0.3316 -0.7784
  496MPD2    H3 7379   3.050   1.180  16.008  3.0413 -2.2273 -2.7018
  496MPD2     N 7380   2.628   1.230  15.906 -0.2574 -0.1235 -0.5286
  496MPD2    H5 7381   2.607   1.198  16.000  1.6279 -1.6293 -0.6197
  496MPD2    N1 7382   2.979   1.267  15.576  0.2694  0.5232 -0.5412
  496MPD2    H7 7383   3.071   1.237  15.544 -0.5460 -0.9989 -1.4435
  497TMC3    C1 7384   2.394   1.194  15.906  0.1033  0.7339  0.3166
  497TMC3    C2 7385   2.309   1.113  15.839 -0.5440  0.6006  0.0882
  497TMC3    C3 7386   2.204   1.066  15.909  0.5657  0.3273 -0.5716
  497TMC3    C4 7387   2.384   1.227  16.036  0.3675  0.0535 -0.1853
  497TMC3    C5 7388   2.289   1.161  16.109 -0.3438  0.6410 -0.4410
  497TMC3    C6 7389   2.197   1.078  16.044  0.5311 -0.1948 -0.2421
  497TMC3     C 7390   2.516   1.232  15.829 -0.3862 -0.6294 -0.0515
  497TMC3     O 7391   2.501   1.237  15.707  0.0363 -0.0005  0.1561
  497TMC3     H 7392   2.334   1.087  15.737  0.3259 -1.6059  0.8479
  497TMC3    H1 7393   2.448   1.293  16.095 -0.4544  0.6279  0.0660
  497TMC3    H2 7394   2.130   1.016  16.103 -0.1374 -0.7665 -1.6018
  497TMC3    C7 7395   2.280   1.163  16.254 -0.4338 -0.3074  0.1702
  497TMC3    C8 7396   2.136   0.948  15.857 -0.0838 -0.5862  0.6940
  497TMC3    O1 7397   2.169   1.134  16.302  0.7876  0.2449 -0.3468
  497TMC3    O2 7398   2.083   0.877  15.941  0.2707 -0.1867 -0.0175
  498MPD2     C 7399   4.040   1.078   9.534  1.0736  0.1465  1.1840
  498MPD2    C1 7400   3.988   1.205   9.548 -0.0362  0.2991  0.0134
  498MPD2    C2 7401   3.852   1.217   9.561  0.6377  0.0306  0.1635
  498MPD2    C3 7402   3.766   1.110   9.568 -0.0570 -0.9425 -0.2101
  498MPD2    C4 7403   3.820   0.982   9.561  0.0515  0.1573 -0.0900
  498MPD2    C5 7404   3.959   0.967   9.552  0.0428  0.3707  0.1712
  498MPD2     H 7405   3.803   1.313   9.571 -0.5338 -0.5488  0.0294
  498MPD2    H1 7406   3.759   0.895   9.581  0.7816  0.1039  1.8470
  498MPD2    H2 7407   4.144   1.062   9.508  1.0752 -1.1008  1.9761
  498MPD2    H3 7408   4.001   0.868   9.545  1.5376  0.9563  1.0005
  498MPD2     N 7409   3.626   1.132   9.578  0.0536 -0.0126 -0.0255
  498MPD2    H5 7410   3.591   1.227   9.586 -0.6919 -0.3016  0.1477
  498MPD2    N1 7411   4.061   1.325   9.555 -0.1506 -0.0800 -0.4033
  498MPD2    H7 7412   4.007   1.411   9.559  0.4259  0.1991  1.7671
  499TMC3    C1 7413   4.270   1.446   9.550 -0.1640 -0.8194  0.0038
  499TMC3    C2 7414   4.398   1.441   9.609  0.6643 -0.5055  0.1166
  499TMC3    C3 7415   4.472   1.553   9.630 -0.4071  0.2993  0.2345
  499TMC3    C4 7416   4.208   1.564   9.516 -0.5628 -0.0114  0.0190
  499TMC3    C5 7417   4.285   1.678   9.543  0.0790  0.3631  0.1503
  499TMC3    C6 7418   4.415   1.675   9.596 -0.2016  0.3512 -0.0667
  499TMC3     C 7419   4.196   1.322   9.519 -0.0653  0.3939  0.8429
  499TMC3     O 7420   4.273   1.238   9.492 -0.0136  0.1566 -0.3391
  499TMC3     H 7421   4.442   1.342   9.598 -0.4135 -0.9895  0.1223
  499TMC3    H1 7422   4.107   1.555   9.477 -0.9894 -0.3428  1.1894
  499TMC3    H2 7423   4.461   1.771   9.613 -1.0660  0.7624 -0.0687
  499TMC3    C7 7424   4.245   1.810   9.484  0.3339  0.3286 -0.0287
  499TMC3    C8 7425   4.617   1.546   9.649  0.4010 -0.1266 -0.1887
  499TMC3    O1 7426   4.339   1.883   9.449 -0.3112  0.2907 -0.1082
  499TMC3    O2 7427   4.665   1.658   9.632 -0.3808  0.3083  0.3811
  500MPD2     C 7428   0.781   2.203  10.071 -0.2109  0.5200  0.1797
  500MPD2    C1 7429   0.732   2.324  10.087 -0.2406  0.0087  0.5583
  500MPD2    C2 7430   0.611   2.354  10.022 -0.5907 -0.0815  0.1248
  500MPD2    C3 7431   0.534   2.250   9.960  0.1396  0.6755 -0.1567
  500MPD2    C4 7432   0.589   2.124   9.959  0.1022 -0.2273  0.0371
  500MPD2    C5 7433   0.720   2.104   9.998  0.0273  0.8750 -0.3216
  500MPD2     H 7434   0.566   2.451  10.037 -0.5975  0.1956 -1.7473
  500MPD2    H1 7435   0.536   2.038   9.919  2.7752 -2.1868  0.7008
  500MPD2    H2 7436   0.876   2.169  10.110  0.1751 -0.3385 -1.5132
  500MPD2    H3 7437   0.764   2.005   9.991 -1.2160  0.3064  0.0368
  500MPD2     N 7438   0.407   2.259   9.904  0.1179  0.5056 -0.1141
  500MPD2    H5 7439   0.366   2.174   9.868 -1.1267  0.3789  1.6251
  500MPD2    N1 7440   0.791   2.427  10.166  0.1090  0.0774 -0.2134
  500MPD2    H7 7441   0.757   2.523  10.164  1.2494  0.4977  0.5490
  501TMC3    C1 7442   0.946   2.546  10.309 -0.0879  0.2861 -0.0135
  501TMC3    C2 7443   0.843   2.632  10.324  0.2972 -0.0174 -0.3390
  501TMC3    C3 7444   0.881   2.755  10.371  0.3379 -0.3893 -0.4129
  501TMC3    C4 7445   1.064   2.554  10.379  0.1845  0.2726  0.6091
  501TMC3    C5 7446   1.093   2.672  10.438  0.1871  0.5813  0.6828
  501TMC3    C6 7447   1.009   2.776  10.421  0.7450 -0.6971  0.3910
  501TMC3     C 7448   0.913   2.419  10.237  0.2498  0.4815 -0.2320
  501TMC3     O 7449   0.984   2.323  10.243 -0.0763  0.2421  0.0247
  501TMC3     H 7450   0.742   2.609  10.294  1.1835 -1.9230 -1.8445
  501TMC3    H1 7451   1.134   2.472  10.367 -0.6979 -0.8838  3.3199
  501TMC3    H2 7452   1.027   2.874  10.465  2.5189 -0.9117  0.1366
  501TMC3    C7 7453   1.216   2.682  10.504  0.9216  0.0521 -0.2809
  501TMC3    C8 7454   0.784   2.857  10.412 -0.1633 -0.7119 -0.3456
  501TMC3    O1 7455   1.280   2.581  10.512 -0.6309  0.2018  0.0273
  501TMC3    O2 7456   0.816   2.936  10.495  0.6187  0.1091  0.6375
  502TMC3    C1 7457   4.653   2.190  15.089 -0.1830  0.3267 -0.2583
  502TMC3    C2 7458   4.618   2.310  15.042  0.2864 -0.2664  0.5290
  502TMC3    C3 7459   4.487   2.310  14.999  0.6554  0.6538  0.6461
  502TMC3    C4 7460   4.576   2.079  15.082  0.3738  0.1705 -1.2018
  502TMC3    C5 7461   4.445   2.085  15.033  0.2310  0.0652 -0.0393
  502TMC3    C6 7462   4.396   2.201  15.000  0.4245 -0.2635  0.0089
  502TMC3     C 7463   0.029   2.193  15.193 -0.2846  0.1248 -0.0034
  502TMC3     O 7464   0.123   2.262  15.168  0.3346 -0.3049 -0.6245
  502TMC3     H 7465   4.685   2.394  15.050 -0.1020 -0.0376  1.4161
  502TMC3    H1 7466   4.622   1.984  15.105  0.2712  0.1836 -0.9475
  502TMC3    H2 7467   4.293   2.214  14.969  0.3724  2.4253  1.3263
  502TMC3    C7 7468   4.365   1.971  15.071 -0.1458  0.3671 -0.5865
  502TMC3    C8 7469   4.434   2.439  14.949  0.0679  0.3451 -0.2401
  502TMC3    O1 7470   4.423   1.865  15.096 -0.2390 -0.1065 -0.2857
  502TMC3    O2 7471   4.519   2.522  14.931  0.2600 -0.1475  0.2332
  503MPD2     C 7472   2.001   2.946  16.708 -0.0530  0.2286 -0.0770
  503MPD2    C1 7473   1.977   2.919  16.837  0.0601  0.4185 -0.2317
  503MPD2    C2 7474   2.000   2.790  16.884 -0.0941  0.2521 -0.3638
  503MPD2    C3 7475   2.027   2.687  16.805  0.4632  0.2296 -0.0833
  503MPD2    C4 7476   2.027   2.712  16.674 -0.8563 -0.6280  0.4032
  503MPD2    C5 7477   2.027   2.842  16.626  0.8444 -0.3823 -0.8920
  503MPD2     H 7478   1.985   2.765  16.988 -0.0829 -0.2012 -0.4713
  503MPD2    H1 7479   2.052   2.630  16.607 -1.5567 -0.2968 -0.2474
  503MPD2    H2 7480   2.004   3.046  16.667 -0.5835 -0.0386 -0.7734
  503MPD2    H3 7481   2.052   2.860  16.522  0.5060  2.5595 -0.4666
  503MPD2     N 7482   2.040   2.559  16.859 -0.2924 -0.1819  0.0251
  503MPD2    H5 7483   2.024   2.545  16.958 -3.4127 -0.8963 -0.5688
  503MPD2    N1 7484   1.939   3.016  16.926  0.6174 -0.4310  0.1111
  503MPD2    H7 7485   1.916   2.995  17.023 -0.6670 -0.7546 -0.2708
  504TMC3    C1 7486   2.129   2.338  16.853 -0.3148  0.1979  0.2199
  504TMC3    C2 7487   2.099   2.314  16.986 -0.1394 -0.3655  0.6403
  504TMC3    C3 7488   2.189   2.244  17.060 -0.0263 -0.3643 -0.2966
  504TMC3    C4 7489   2.241   2.289  16.793  0.5423 -0.5168  0.2189
  504TMC3    C5 7490   2.325   2.220  16.872 -0.3427 -0.4881 -0.6899
  504TMC3    C6 7491   2.308   2.198  17.008 -0.9225 -0.5348 -0.1529
  504TMC3     C 7492   2.063   2.446  16.782 -0.2503  0.3789  0.3202
  504TMC3     O 7493   2.057   2.426  16.661 -0.1012 -0.3341 -0.3548
  504TMC3     H 7494   2.015   2.357  17.038  0.9662  0.3367  1.8370
  504TMC3    H1 7495   2.284   2.324  16.700 -2.0021 -0.0114 -0.7441
  504TMC3    H2 7496   2.378   2.134  17.062 -1.4429 -0.3293  0.7638
  504TMC3    C7 7497   2.461   2.218  16.825 -0.2134 -0.0792 -0.2894
  504TMC3    C8 7498   2.135   2.183  17.180 -1.3385  0.8483  0.1139
  504TMC3    O1 7499   2.484   2.222  16.705  0.9263  0.5405  0.5202
  504TMC3    O2 7500   2.016   2.172  17.183  0.1229 -0.1711 -0.2690
  505MPD2     C 7501   2.228   1.090  10.274  0.6813  0.4900  0.2987
  505MPD2    C1 7502   2.319   1.026  10.194 -0.2233  0.7341 -0.3969
  505MPD2    C2 7503   2.445   1.000  10.243 -0.7260 -0.0367  0.6166
  505MPD2    C3 7504   2.477   1.017  10.378 -0.0497  0.0061 -0.5590
  505MPD2    C4 7505   2.382   1.077  10.455  0.7295  0.3099  0.1933
  505MPD2    C5 7506   2.262   1.127  10.400 -0.0596 -0.8996 -0.2697
  505MPD2     H 7507   2.518   0.947  10.182  0.6800  2.1467  0.4125
  505MPD2    H1 7508   2.399   1.110  10.557 -1.7257  0.5809  0.5114
  505MPD2    H2 7509   2.129   1.110  10.235  0.9985 -0.1688 -0.8265
  505MPD2    H3 7510   2.189   1.169  10.468 -0.1940 -1.8622  0.1839
  505MPD2     N 7511   2.608   0.968  10.423 -0.7464  0.2609 -0.1509
  505MPD2    H5 7512   2.664   0.923  10.351 -0.3442  0.3317  0.1238
  505MPD2    N1 7513   2.274   0.981  10.073  0.1285  0.1759 -0.1470
  505MPD2    H7 7514   2.179   1.001  10.045 -0.5597 -0.9268  1.4665
  506TMC3    C1 7515   2.279   0.853   9.879  0.8952 -0.1141  0.8137
  506TMC3    C2 7516   2.337   0.850   9.752 -0.2036 -0.3248  0.6113
  506TMC3    C3 7517   2.330   0.730   9.679 -0.2267 -0.3911  0.3685
  506TMC3    C4 7518   2.225   0.739   9.923  0.1261 -0.0275  0.2200
  506TMC3    C5 7519   2.234   0.624   9.853  0.7593 -0.4638 -0.3347
  506TMC3    C6 7520   2.285   0.611   9.730  0.1394 -0.4509 -0.1830
  506TMC3     C 7521   2.358   0.918   9.981  0.2896 -0.4799 -0.5645
  506TMC3     O 7522   2.478   0.912   9.966 -0.4455  0.2048 -0.1115
  506TMC3     H 7523   2.365   0.946   9.711  0.0215 -0.3934  0.6063
  506TMC3    H1 7524   2.175   0.740  10.019 -1.3809  0.7631 -0.5737
  506TMC3    H2 7525   2.292   0.525   9.665  3.0582  0.3821 -1.0097
  506TMC3    C7 7526   2.269   0.501   9.929  0.3313  0.1180  0.8253
  506TMC3    C8 7527   2.408   0.713   9.564 -0.0658 -0.2327  0.2489
  506TMC3    O1 7528   2.280   0.400   9.863  0.3606  0.2585 -0.0002
  506TMC3    O2 7529   2.374   0.638   9.474  0.2638  0.1108 -0.1308
  507TMC3    C1 7530   3.306   2.045  14.566 -0.5929 -0.5356  0.8508
  507TMC3    C2 7531   3.205   1.960  14.528 -0.5836 -0.4759 -0.4408
  507TMC3    C3 7532   3.122   1.990  14.421 -0.3901  0.3110  0.0957
  507TMC3    C4 7533   3.323   2.150  14.486  0.1799  0.3514  0.2637
  507TMC3    C5 7534   3.232   2.195  14.396 -0.6822  0.4300 -0.2044
  507TMC3    C6 7535   3.139   2.103  14.349  0.5040 -0.2466  0.4998
  507TMC3     C 7536   3.292   2.095  14.701 -0.4720  0.3853 -0.6556
  507TMC3     O 7537   3.388   2.151  14.747 -0.7203  0.1776 -0.1363
  507TMC3     H 7538   3.184   1.876  14.592  0.8776  1.4328  2.5384
  507TMC3    H1 7539   3.385   2.228  14.529  0.4700  0.1657  0.1887
  507TMC3    H2 7540   3.074   2.125  14.265 -0.5524 -2.9901  0.5979
  507TMC3    C7 7541   3.155   2.304  14.462  0.5066  0.3670  0.3224
  507TMC3    C8 7542   2.986   1.947  14.446 -0.7903 -0.0490 -0.6746
  507TMC3    O1 7543   3.035   2.297  14.435  0.4572  0.7075  0.5940
  507TMC3    O2 7544   2.962   1.829  14.458  0.5108  0.0834 -0.1321
  508MPD2     C 7545   4.254   4.334  15.983 -0.4546  0.0803 -0.2683
  508MPD2    C1 7546   4.185   4.443  16.017 -0.1908  0.1951  0.2596
  508MPD2    C2 7547   4.139   4.531  15.921  0.0196 -0.1793  0.1112
  508MPD2    C3 7548   4.165   4.506  15.788 -0.7433  0.0728  0.5752
  508MPD2    C4 7549   4.238   4.394  15.749  0.2712  0.2572 -0.3682
  508MPD2    C5 7550   4.281   4.311  15.854 -0.1072 -0.2037  0.8266
  508MPD2     H 7551   4.088   4.624  15.942 -1.3577 -1.1416  1.0142
  508MPD2    H1 7552   4.263   4.381  15.644  2.4601  0.5534  0.1196
  508MPD2    H2 7553   4.299   4.269  16.058 -0.7982  0.5539  0.3499
  508MPD2    H3 7554   4.356   4.242  15.817  0.9107  0.3747  1.8037
  508MPD2     N 7555   4.110   4.593  15.693 -0.1044 -0.9662  0.1066
  508MPD2    H5 7556   4.060   4.674  15.727 -1.3880 -1.5495 -0.4048
  508MPD2    N1 7557   4.165   4.478  16.154  0.9521  0.2806  0.0060
  508MPD2    H7 7558   4.216   4.435  16.231 -0.7572 -0.8186  0.5092
  509TMC3    C1 7559   3.876   0.129  15.509 -0.1388  0.2756  0.0598
  509TMC3    C2 7560   3.901   0.174  15.383  0.4826 -0.4486  0.3730
  509TMC3    C3 7561   3.992   0.105  15.304  0.0825 -0.4908 -0.1923
  509TMC3    C4 7562   3.933   0.019  15.563  0.4787  1.0771  0.0118
  509TMC3    C5 7563   4.027   4.681  15.489  0.6875  0.0930 -0.0195
  509TMC3    C6 7564   4.054   0.001  15.360  0.5458  0.4027 -0.1636
  509TMC3     C 7565   3.826   0.219  15.608 -0.0296 -0.8129 -0.1525
  509TMC3     O 7566   3.875   0.212  15.722 -0.1440  0.2476  0.4165
  509TMC3     H 7567   3.857   0.269  15.353 -0.5325 -0.3764  2.0670
  509TMC3    H1 7568   3.902   4.720  15.664  0.1282  0.3338 -0.2699
  509TMC3    H2 7569   4.145   4.684  15.319  0.3870 -0.8136  0.7513
  509TMC3    C7 7570   4.106   4.576  15.555  0.8615  0.4598 -0.3769
  509TMC3    C8 7571   4.078   0.205  15.237  0.2543 -0.3830 -0.1701
  509TMC3    O1 7572   4.150   4.489  15.481 -0.2795  0.4577  0.6782
  509TMC3    O2 7573   4.048   0.240  15.122  0.1289 -0.4360 -0.1835
  510MPD2     C 7574   2.045   1.531  14.286  0.3196  0.1363  0.1886
  510MPD2    C1 7575   2.093   1.464  14.396  0.8743  0.0865 -0.1412
  510MPD2    C2 7576   2.231   1.421  14.390 -0.5807 -0.1066  0.2184
  510MPD2    C3 7577   2.310   1.459  14.282  0.0108 -0.5102 -0.7375
  510MPD2    C4 7578   2.253   1.524  14.175  0.7526  0.2267  0.0909
  510MPD2    C5 7579   2.125   1.564  14.184  0.2148 -0.2002 -0.1108
  510MPD2     H 7580   2.276   1.365  14.471  0.4455  1.0192  0.4166
  510MPD2    H1 7581   2.304   1.555  14.085  0.4889  0.4446  0.0180
  510MPD2    H2 7582   1.941   1.560  14.275 -0.1189 -1.2687  0.6132
  510MPD2    H3 7583   2.070   1.612  14.104 -0.7198 -1.4888 -0.2494
  510MPD2     N 7584   2.449   1.431  14.291 -0.6749 -0.1827 -0.4133
  510MPD2    H5 7585   2.483   1.381  14.372 -1.0766 -1.9541 -1.3405
  510MPD2    N1 7586   1.995   1.422  14.495  0.1738  0.1083  0.2168
  510MPD2    H7 7587   1.900   1.456  14.483  0.1786  0.0988  0.1487
  511TMC3    C1 7588   1.891   1.267  14.647  0.2033  0.6635 -1.0016
  511TMC3    C2 7589   1.804   1.363  14.700 -0.4503 -0.1069 -0.1534
  511TMC3    C3 7590   1.715   1.319  14.799 -0.8049 -0.9155 -0.0918
  511TMC3    C4 7591   1.881   1.137  14.676  0.8645  0.0083  0.0981
  511TMC3    C5 7592   1.794   1.096  14.778 -0.4531 -0.1034 -0.6544
  511TMC3    C6 7593   1.699   1.186  14.828  0.7912  0.5519  0.1660
  511TMC3     C 7594   2.011   1.309  14.572 -0.3578 -0.6197  0.0505
  511TMC3     O 7595   2.108   1.237  14.585  0.1832  0.0308 -0.7889
  511TMC3     H 7596   1.816   1.470  14.686  4.2125 -0.2632  2.5625
  511TMC3    H1 7597   1.947   1.065  14.629 -2.8737 -2.4694 -1.3064
  511TMC3    H2 7598   1.623   1.155  14.898 -0.7925 -0.8533 -2.1563
  511TMC3    C7 7599   1.766   0.952  14.788 -0.0251 -0.1786 -0.0538
  511TMC3    C8 7600   1.644   1.411  14.895  0.6059 -0.3489  0.7136
  511TMC3    O1 7601   1.764   0.895  14.680  0.0005 -0.3922  1.0175
  511TMC3    O2 7602   1.617   1.518  14.846  0.7981 -0.1639 -0.2685
  512TMC3    C1 7603   0.483   0.583  13.113 -0.2950 -0.3313 -0.2349
  512TMC3    C2 7604   0.561   0.501  13.188 -0.5958  0.1775 -0.4859
  512TMC3    C3 7605   0.596   0.386  13.136 -0.1962  0.3221  0.0027
  512TMC3    C4 7606   0.427   0.544  12.996 -0.6067  0.3400  1.1223
  512TMC3    C5 7607   0.459   0.413  12.966  1.0267  0.5664  0.2955
  512TMC3    C6 7608   0.536   0.332  13.034  0.0038  0.5404  0.8174
  512TMC3     C 7609   0.415   0.689  13.186  0.1870  0.3303  0.1175
  512TMC3     O 7610   0.394   0.660  13.305 -0.1878 -0.1933 -0.2594
  512TMC3     H 7611   0.574   0.512  13.295  1.8596 -0.7409 -0.6849
  512TMC3    H1 7612   0.359   0.605  12.938 -0.5338  0.8335  1.5474
  512TMC3    H2 7613   0.564   0.231  13.005  0.5035  1.0569 -0.4750
  512TMC3    C7 7614   0.411   0.374  12.833  0.1113 -0.7722  0.2149
  512TMC3    C8 7615   0.696   0.313  13.211  0.1703 -0.4209  0.5714
  512TMC3    O1 7616   0.347   0.459  12.767  0.2104 -0.1266  0.0237
  512TMC3    O2 7617   0.704   0.192  13.189  0.2325  0.0554 -0.2402
  513MPD2     C 7618   2.536   0.722  13.763  0.0651  0.8211  0.1014
  513MPD2    C1 7619   2.564   0.647  13.652 -0.6175 -0.1253 -0.3169
  513MPD2    C2 7620   2.687   0.595  13.632  0.1795 -0.3420 -0.2506
  513MPD2    C3 7621   2.768   0.577  13.733 -0.4639 -0.2215 -0.3610
  513MPD2    C4 7622   2.740   0.655  13.851 -0.9434 -0.3323  1.0236
  513MPD2    C5 7623   2.623   0.723  13.869 -0.6757  0.2952  0.7667
  513MPD2     H 7624   2.713   0.536  13.545 -1.1881 -0.0811 -0.8423
  513MPD2    H1 7625   2.809   0.657  13.934  0.9594  1.9844 -0.6004
  513MPD2    H2 7626   2.439   0.769  13.777 -1.0234 -1.1840 -0.7526
  513MPD2    H3 7627   2.601   0.775  13.961 -0.9779  1.7780 -0.1319
  513MPD2     N 7628   2.878   0.499  13.712 -1.1793 -0.6623 -0.3548
  513MPD2    H5 7629   2.886   0.463  13.617 -1.8786 -0.6195 -0.4290
  513MPD2    N1 7630   2.475   0.643  13.539  0.0249 -0.2947  0.5492
  513MPD2    H7 7631   2.396   0.707  13.538  1.2764  1.1830 -3.8674
  514TMC3    C1 7632   2.386   0.591  13.327  0.6569  0.0034 -0.5737
  514TMC3    C2 7633   2.404   0.718  13.278 -0.2183  0.7752 -0.4271
  514TMC3    C3 7634   2.416   0.730  13.141 -0.6160 -0.6521  0.4323
  514TMC3    C4 7635   2.380   0.482  13.244 -0.0726  0.1939 -0.3281
  514TMC3    C5 7636   2.405   0.494  13.111 -0.0137  0.1749  0.3464
  514TMC3    C6 7637   2.424   0.620  13.061 -0.3892 -0.1871  0.2042
  514TMC3     C 7638   2.479   0.561  13.426 -0.0366  0.0049 -0.4231
  514TMC3     O 7639   2.548   0.454  13.415 -0.2442 -0.1587  0.0364
  514TMC3     H 7640   2.425   0.803  13.342  2.3058 -0.1027 -0.0738
  514TMC3    H1 7641   2.356   0.383  13.282  2.1880 -0.3641 -0.3674
  514TMC3    H2 7642   2.440   0.633  12.955  0.2269  1.1933  0.4709
  514TMC3    C7 7643   2.476   0.384  13.050 -0.4782  0.3600 -0.1555
  514TMC3    C8 7644   2.404   0.870  13.095 -0.6503 -0.3681  0.0368
  514TMC3    O1 7645   2.466   0.377  12.930 -0.7981  0.3979  0.3136
  514TMC3    O2 7646   2.395   0.958  13.178  1.0297 -0.3477  0.1617
  515MPD2     C 7647   0.451   2.859  14.667  0.5448 -0.3997  0.3709
  515MPD2    C1 7648   0.435   2.732  14.713 -0.4006 -0.8912  0.6986
  515MPD2    C2 7649   0.531   2.678  14.807  0.0982  0.4017 -0.3720
  515MPD2    C3 7650   0.644   2.751  14.842  1.2016  0.1196  0.5360
  515MPD2    C4 7651   0.657   2.878  14.792 -0.6593 -0.5022  0.4196
  515MPD2    C5 7652   0.562   2.929  14.703 -0.2166  0.0382 -0.2512
  515MPD2     H 7653   0.519   2.576  14.841  2.4009  0.0860 -0.4718
  515MPD2    H1 7654   0.748   2.930  14.821  0.4769 -3.1485  1.5986
  515MPD2    H2 7655   0.378   2.908  14.604  1.7409  1.8956  0.7536
  515MPD2    H3 7656   0.572   3.032  14.670 -0.0575 -0.1869 -0.9214
  515MPD2     N 7657   0.748   2.713  14.936 -1.1060 -0.1113  0.2396
  515MPD2    H5 7658   0.829   2.773  14.943  1.2077 -3.1243 -0.3646
  515MPD2    N1 7659   0.328   2.645  14.685  0.7903  0.3725  0.3535
  515MPD2    H7 7660   0.332   2.573  14.757  4.2734  1.2145  0.9943
  516TMC3    C1 7661   0.141   2.555  14.588 -0.0611  0.0560 -0.4596
  516TMC3    C2 7662   0.064   2.555  14.473  0.2150 -0.6826  0.7239
  516TMC3    C3 7663   0.016   2.428  14.431 -0.0264 -0.3678 -0.0536
  516TMC3    C4 7664   0.163   2.440  14.662  0.2458  0.4193  0.3416
  516TMC3    C5 7665   0.097   2.326  14.622  0.2071 -0.1273 -0.0423
  516TMC3    C6 7666   0.035   2.310  14.504 -0.8206  0.2324 -0.4533
  516TMC3     C 7667   0.224   2.667  14.601  0.2251  0.4763 -0.5363
  516TMC3     O 7668   0.220   2.753  14.515  0.1377 -0.5494 -0.0160
  516TMC3     H 7669   0.030   2.647  14.427  0.4299 -0.4779  0.9746
  516TMC3    H1 7670   0.200   2.455  14.763  3.7938  2.8952 -1.3297
  516TMC3    H2 7671   4.721   2.215  14.471 -0.7687  0.6158 -1.5942
  516TMC3    C7 7672   0.109   2.212  14.711 -0.2371  0.6071  0.2329
  516TMC3    C8 7673   0.019   2.415  14.295 -0.2959 -0.5677 -0.3892
  516TMC3    O1 7674   0.162   2.240  14.819  0.7779 -0.1019  0.4723
  516TMC3    O2 7675   4.677   2.328  14.241  0.3564 -0.3295  0.1429
  517MPD2     C 7676   0.694   3.608   0.678  0.1396  0.0823  0.0405
  517MPD2    C1 7677   0.799   3.637   0.602  0.4631 -0.4443 -0.6857
  517MPD2    C2 7678   0.906   3.710   0.634  0.3240 -1.1700 -0.2701
  517MPD2    C3 7679   0.912   3.755   0.765 -0.5806  0.6324 -0.2680
  517MPD2    C4 7680   0.809   3.720   0.853 -0.3268  0.3575 -0.2806
  517MPD2    C5 7681   0.701   3.647   0.808  0.4870  1.3947  0.3850
  517MPD2     H 7682   0.978   3.735   0.558 -1.1610 -0.5185 -1.4755
  517MPD2    H1 7683   0.811   3.751   0.957 -1.8332  0.8434 -0.3932
  517MPD2    H2 7684   0.610   3.544   0.653 -1.2119  1.8827 -0.0317
  517MPD2    H3 7685   0.613   3.643   0.871 -0.2822 -0.0802 -0.8032
  517MPD2     N 7686   1.019   3.836   0.820 -0.0493  0.0352  0.1692
  517MPD2    H5 7687   1.014   3.856   0.920  0.7809  0.3213  0.1581
  517MPD2    N1 7688   0.798   3.588   0.467 -0.4856  0.2945  0.1004
  517MPD2    H7 7689   0.890   3.592   0.423 -0.5364 -0.4334 -0.0693
  518TMC3    C1 7690   0.744   3.473   0.266 -0.2595 -0.1567 -0.0216
  518TMC3    C2 7691   0.705   3.346   0.227 -0.5126  0.6735 -0.9879
  518TMC3    C3 7692   0.747   3.299   0.108 -0.2782  0.4210 -0.1606
  518TMC3    C4 7693   0.814   3.559   0.179 -0.2540  0.3051 -0.6834
  518TMC3    C5 7694   0.858   3.496   0.066 -0.0042 -0.2131  0.3902
  518TMC3    C6 7695   0.835   3.368   0.031  0.0831  0.4229 -0.3983
  518TMC3     C 7696   0.707   3.514   0.402  0.2076  0.0246 -0.0453
  518TMC3     O 7697   0.594   3.478   0.429  0.5288 -0.3314  0.2105
  518TMC3     H 7698   0.635   3.290   0.288 -0.7425  0.7573 -1.1744
  518TMC3    H1 7699   0.847   3.658   0.207 -1.3438 -0.0004  1.6404
  518TMC3    H2 7700   0.895   3.326  17.652  1.1822 -1.9834  1.7012
  518TMC3    C7 7701   0.966   3.565  17.698  0.7558  0.3835  0.3324
  518TMC3    C8 7702   0.716   3.163   0.080 -0.0571  0.3934 -0.1565
  518TMC3    O1 7703   1.025   3.652   0.061  0.7236 -0.3206  0.5533
  518TMC3    O2 7704   0.686   3.087   0.170  0.0223 -0.0179 -0.0590
  519MPD2     C 7705   2.065   2.434  14.429 -0.4064  0.0385 -0.2655
  519MPD2    C1 7706   1.995   2.377  14.319  0.0213  0.3587  0.5484
  519MPD2    C2 7707   2.065   2.292  14.238  0.0852 -0.2729  0.6581
  519MPD2    C3 7708   2.194   2.250  14.266  0.5884 -0.3949  0.1319
  519MPD2    C4 7709   2.258   2.303  14.377 -0.8692 -0.6058 -0.5051
  519MPD2    C5 7710   2.196   2.402  14.452  0.3011 -0.3837  0.0636
  519MPD2     H 7711   2.015   2.244  14.154  0.3034  0.4870  0.1007
  519MPD2    H1 7712   2.360   2.280  14.407 -0.4705  1.1641 -0.4684
  519MPD2    H2 7713   2.022   2.513  14.489  1.0849  2.6278 -2.6598
  519MPD2    H3 7714   2.250   2.454  14.530 -0.5056  2.4450 -1.2618
  519MPD2     N 7715   2.264   2.160  14.184  1.0909 -0.0394  0.4717
  519MPD2    H5 7716   2.358   2.144  14.217  1.7952 -1.0028 -1.9849
  519MPD2    N1 7717   1.855   2.390  14.301  0.0224  0.9286  0.3195
  519MPD2    H7 7718   1.809   2.455  14.364 -2.7228 -0.3922 -0.3282
  520TMC3    C1 7719   2.317   2.013  14.001  0.5750 -0.4721 -0.1458
  520TMC3    C2 7720   2.252   1.937  13.908 -0.0629 -0.0503  0.6198
  520TMC3    C3 7721   2.320   1.827  13.853  0.2071 -0.1027 -0.0996
  520TMC3    C4 7722   2.442   1.982  14.045 -0.3021  0.2581 -0.2608
  520TMC3    C5 7723   2.498   1.861  13.991  0.7395  0.2165 -0.7514
  520TMC3    C6 7724   2.441   1.785  13.894 -0.0666  0.0685 -0.7312
  520TMC3     C 7725   2.235   2.124  14.052  0.0149  0.1179  0.4343
  520TMC3     O 7726   2.139   2.148  13.982 -0.3539 -0.1406 -0.3366
  520TMC3     H 7727   2.153   1.967  13.873  0.0953  2.1684  2.1027
  520TMC3    H1 7728   2.499   2.047  14.112  0.9189 -0.9462 -0.1258
  520TMC3    H2 7729   2.476   1.686  13.867  1.8164  0.6092 -0.2684
  520TMC3    C7 7730   2.637   1.837  14.022 -0.3755  0.3676 -0.0247
  520TMC3    C8 7731   2.271   1.762  13.733 -0.7563 -0.0543 -0.1086
  520TMC3    O1 7732   2.681   1.862  14.133  0.0184 -0.4489  0.3097
  520TMC3    O2 7733   2.355   1.706  13.662  0.0644 -0.6582  0.6228
  521MPD2     C 7734   3.133   0.455   0.057 -0.3103  0.0156  0.7110
  521MPD2    C1 7735   3.073   0.370  17.671 -0.2632  0.2677 -0.2245
  521MPD2    C2 7736   3.130   0.365  17.544  0.1821  0.2426  0.2039
  521MPD2    C3 7737   3.233   0.451  17.504  0.3335  0.3046 -0.2800
  521MPD2    C4 7738   3.289   0.541  17.596 -0.0616  0.3331  1.0215
  521MPD2    C5 7739   3.236   0.543   0.019 -0.5387  0.1182 -0.1684
  521MPD2     H 7740   3.101   0.287  17.475  0.3296  1.4880 -1.2578
  521MPD2    H1 7741   3.361   0.621  17.583 -0.1306  0.4881  1.6273
  521MPD2    H2 7742   3.106   0.474   0.160 -1.3241  0.2747  0.3944
  521MPD2    H3 7743   3.273   0.615   0.091 -0.5958 -0.3786  0.3629
  521MPD2     N 7744   3.273   0.444  17.368 -0.3263 -0.6145 -0.1389
  521MPD2    H5 7745   3.227   0.375  17.309  0.2052 -2.2969  1.4241
  521MPD2    N1 7746   2.960   0.304   0.004 -0.0008 -0.2692 -0.2206
  521MPD2    H7 7747   2.919   0.335   0.091  0.8312 -0.8260  0.3716
  522TMC3    C1 7748   3.377   0.485  17.164 -0.5161 -0.0272 -0.2121
  522TMC3    C2 7749   3.491   0.533  17.102  0.0090  0.6806 -0.6996
  522TMC3    C3 7750   3.521   0.492  16.975 -0.0304  0.3368 -0.9375
  522TMC3    C4 7751   3.298   0.393  17.104  0.4349 -0.3962  0.3511
  522TMC3    C5 7752   3.328   0.348  16.974 -0.2408 -0.8023 -0.4448
  522TMC3    C6 7753   3.437   0.404  16.906 -0.4534  0.3320  0.6669
  522TMC3     C 7754   3.365   0.518  17.304 -0.8794 -0.7677  0.3392
  522TMC3     O 7755   3.440   0.598  17.355  0.3449  0.5497 -0.1730
  522TMC3     H 7756   3.553   0.604  17.157 -0.7244 -0.1351  1.1770
  522TMC3    H1 7757   3.230   0.333  17.163  1.8527 -3.2134 -0.8648
  522TMC3    H2 7758   3.455   0.387  16.801 -2.4226  0.1453  0.3639
  522TMC3    C7 7759   3.289   0.218  16.919 -0.3067 -0.7872  0.5343
  522TMC3    C8 7760   3.635   0.547  16.909  0.2751  0.1760  0.5336
  522TMC3    O1 7761   3.365   0.165  16.840 -0.5943 -0.4088 -0.7864
  522TMC3    O2 7762   3.676   0.660  16.938  0.1477 -0.0239  0.0924
  523MPD2     C 7763   0.442   3.701  10.548  0.0237  0.1315  0.5935
  523MPD2    C1 7764   0.466   3.668  10.420 -0.6800  0.4595 -0.2790
  523MPD2    C2 7765   0.480   3.765  10.328 -0.2804 -0.6645  0.1614
  523MPD2    C3 7766   0.496   3.898  10.364  0.7277  0.1271  0.1316
  523MPD2    C4 7767   0.474   3.931  10.497 -0.8481 -0.6872 -0.3853
  523MPD2    C5 7768   0.437   3.828  10.585 -0.0076 -0.1205  0.3088
  523MPD2     H 7769   0.483   3.742  10.222  1.0098 -3.6320  0.8528
  523MPD2    H1 7770   0.481   4.030  10.540  0.3509 -2.0279  2.5368
  523MPD2    H2 7771   0.419   3.623  10.619  1.2201 -2.2787 -1.6542
  523MPD2    H3 7772   0.412   3.849  10.688 -1.8579 -1.1448  0.0674
  523MPD2     N 7773   0.542   4.001  10.275  0.5284 -0.0720 -1.4582
  523MPD2    H5 7774   0.566   4.089  10.319 -1.9598 -0.5693  0.9112
  523MPD2    N1 7775   0.464   3.528  10.396  0.2022  0.2120  0.4962
  523MPD2    H7 7776   0.476   3.469  10.478  1.3918  0.2342  0.3309
  524TMC3    C1 7777   0.597   4.113  10.078  0.7397 -0.7005  0.8770
  524TMC3    C2 7778   0.583   4.104   9.944  0.4421  0.0849  0.0351
  524TMC3    C3 7779   0.594   4.213   9.869 -0.4539  0.2252  0.3549
  524TMC3    C4 7780   0.604   4.235  10.136  0.2045  0.2555  0.5012
  524TMC3    C5 7781   0.590   4.345  10.056 -0.1635 -0.0504  0.4825
  524TMC3    C6 7782   0.597   4.338   9.923 -0.3303  0.4402 -0.0620
  524TMC3     C 7783   0.565   3.988  10.143 -0.6323  0.0283  0.4890
  524TMC3     O 7784   0.573   3.886  10.072 -0.9315  0.5708 -0.1686
  524TMC3     H 7785   0.613   4.008   9.904 -0.7995 -0.8956  1.4274
  524TMC3    H1 7786   0.606   4.249  10.244  1.0556 -1.1515  0.6668
  524TMC3    H2 7787   0.590   4.424   9.857  1.1377 -0.3125 -1.1865
  524TMC3    C7 7788   0.550   4.463  10.129  0.4322  0.1477  1.4503
  524TMC3    C8 7789   0.622   4.199   9.727  0.2829 -0.4466 -0.5120
  524TMC3    O1 7790   0.516   4.447  10.245  0.3861 -0.2024  0.5551
  524TMC3    O2 7791   0.669   4.297   9.672 -0.1631  0.0806 -1.1191
  525MPD2     C 7792   3.557   1.779  14.466  0.0185  0.7858 -0.1937
  525MPD2    C1 7793   3.641   1.838  14.557  0.2014 -0.5086 -0.1493
  525MPD2    C2 7794   3.712   1.956  14.530 -0.2674 -0.2605  0.4559
  525MPD2    C3 7795   3.713   1.998  14.401 -0.5996  0.0148  0.1756
  525MPD2    C4 7796   3.635   1.934  14.307 -0.4028  0.4674 -0.6358
  525MPD2    C5 7797   3.557   1.828  14.339 -0.1190 -0.7683  0.1895
  525MPD2     H 7798   3.755   2.017  14.608 -1.7260 -0.1524  1.1771
  525MPD2    H1 7799   3.634   1.960  14.202 -1.6739  0.7146 -0.5650
  525MPD2    H2 7800   3.502   1.688  14.484  3.6135 -1.3044  0.1657
  525MPD2    H3 7801   3.490   1.784  14.266 -2.5584  1.1534  1.2493
  525MPD2     N 7802   3.771   2.126  14.365 -0.3077  0.0161 -0.3190
  525MPD2    H5 7803   3.769   2.157  14.269 -0.3040  1.5542  0.1740
  525MPD2    N1 7804   3.651   1.782  14.689 -0.2902 -0.6224 -0.2568
  525MPD2    H7 7805   3.729   1.807  14.749 -0.9408  1.2585 -0.1918
  526TMC3    C1 7806   3.600   1.630  14.868  0.9528  0.0411  0.1551
  526TMC3    C2 7807   3.504   1.557  14.939  0.4448  0.5619  0.4039
  526TMC3    C3 7808   3.540   1.526  15.065  0.6238  0.0867 -0.1912
  526TMC3    C4 7809   3.725   1.668  14.918  0.1484  1.0075 -0.2803
  526TMC3    C5 7810   3.751   1.629  15.046 -0.1528  0.1024 -0.6225
  526TMC3    C6 7811   3.660   1.562  15.123 -0.0916 -0.0540  0.5525
  526TMC3     C 7812   3.558   1.694  14.743  0.8660 -0.1270  0.3514
  526TMC3     O 7813   3.446   1.676  14.703 -0.1692 -0.1725  0.2783
  526TMC3     H 7814   3.414   1.528  14.886 -0.0890 -1.1322  2.2308
  526TMC3    H1 7815   3.806   1.690  14.850  0.7259  0.0432  0.1010
  526TMC3    H2 7816   3.661   1.547  15.230 -1.4868  0.8860  0.7043
  526TMC3    C7 7817   3.881   1.584  15.071 -0.1781 -0.4266 -0.6294
  526TMC3    C8 7818   3.441   1.486  15.156 -0.0363  0.7919  0.5226
  526TMC3    O1 7819   3.894   1.485  15.142 -0.4380 -0.1167  0.2000
  526TMC3    O2 7820   3.483   1.407  15.240  0.6428  0.0980  0.3666
  527MPD2     C 7821   1.288   4.353   1.652  1.1323  0.2966 -0.1985
  527MPD2    C1 7822   1.357   4.396   1.547 -0.1103 -0.4274  0.9849
  527MPD2    C2 7823   1.453   4.319   1.488  0.2558  0.3402 -0.4861
  527MPD2    C3 7824   1.489   4.191   1.541 -0.2076  0.4287 -0.0858
  527MPD2    C4 7825   1.408   4.146   1.642  0.0126  0.1234 -0.7084
  527MPD2    C5 7826   1.315   4.224   1.692 -0.0925  0.8976  0.0756
  527MPD2     H 7827   1.509   4.352   1.402  0.1964  1.2388 -0.1795
  527MPD2    H1 7828   1.399   4.051   1.694  0.6808 -0.3321 -1.4224
  527MPD2    H2 7829   1.213   4.409   1.707  0.5113  0.1178 -0.8702
  527MPD2    H3 7830   1.251   4.191   1.773 -0.9649  1.1301 -0.5088
  527MPD2     N 7831   1.571   4.110   1.463 -0.1225  0.0991 -0.3524
  527MPD2    H5 7832   1.608   4.152   1.378  3.3076  1.3967  1.7916
  527MPD2    N1 7833   1.327   4.526   1.505  0.1338 -0.2618  0.6143
  527MPD2    H7 7834   1.254   4.570   1.560 -1.3731 -1.1353 -0.7074
  528TMC3    C1 7835   1.365   0.018   1.410 -0.0057  0.4230  0.4040
  528TMC3    C2 7836   1.475   0.096   1.441 -0.3071  0.7824  0.1715
  528TMC3    C3 7837   1.452   0.204   1.514 -0.2863  0.6566 -0.1418
  528TMC3    C4 7838   1.236   0.061   1.440  0.0682  0.0723  0.2127
  528TMC3    C5 7839   1.226   0.177   1.502  0.4389 -0.0133  0.9047
  528TMC3    C6 7840   1.329   0.239   1.564 -0.4077  0.0744  0.6420
  528TMC3     C 7841   1.403   4.604   1.423 -0.7216  0.2283 -0.2964
  528TMC3     O 7842   1.509   4.571   1.367  0.3144  0.2568 -0.1048
  528TMC3     H 7843   1.576   0.063   1.420 -0.1816  0.7510  0.8186
  528TMC3    H1 7844   1.151   0.009   1.398  0.7800  0.8664 -2.1960
  528TMC3    H2 7845   1.314   0.334   1.614  1.1510  0.5219  0.2648
  528TMC3    C7 7846   1.092   0.236   1.511 -0.4797 -0.0061  0.1805
  528TMC3    C8 7847   1.569   0.235   1.596  0.3256 -0.6001  0.1163
  528TMC3    O1 7848   0.989   0.206   1.444  0.4530 -0.0356 -0.5157
  528TMC3    O2 7849   1.678   0.233   1.538  0.1076  0.1975 -0.5910
  529MPD2     C 7850   4.059   3.195   0.531 -0.9916 -0.0764 -0.0305
  529MPD2    C1 7851   4.175   3.124   0.495 -0.1008  0.0168  0.5160
  529MPD2    C2 7852   4.229   3.157   0.369 -0.1589 -0.1786  0.7412
  529MPD2    C3 7853   4.165   3.243   0.282  0.0825  0.7351 -0.9467
  529MPD2    C4 7854   4.046   3.309   0.321  0.9631  0.6231 -0.2947
  529MPD2    C5 7855   3.999   3.286   0.446  0.5264 -0.1800  0.1714
  529MPD2     H 7856   4.315   3.096   0.341 -0.2562 -1.0663  2.3548
  529MPD2    H1 7857   3.994   3.379   0.257  0.5790  0.2243 -0.4142
  529MPD2    H2 7858   4.011   3.165   0.623  0.4559 -1.8623  0.1478
  529MPD2    H3 7859   3.918   3.341   0.492  1.2028  0.9397  0.0154
  529MPD2     N 7860   4.186   3.245   0.145  0.4176 -0.3590 -0.1595
  529MPD2    H5 7861   4.128   3.308   0.090 -0.3607 -1.2522 -0.3527
  529MPD2    N1 7862   4.237   3.030   0.575  0.3898 -0.1432  0.1450
  529MPD2    H7 7863   4.310   2.977   0.529 -0.4120  0.1952 -1.4994
  530TMC3    C1 7864   4.264   2.879   0.746 -0.5831 -0.3734  0.7827
  530TMC3    C2 7865   4.298   2.871   0.876  0.0596 -0.2601  0.4890
  530TMC3    C3 7866   4.301   2.747   0.933  0.7789 -0.4133  1.6193
  530TMC3    C4 7867   4.214   2.773   0.679  0.2066 -1.1220 -0.1562
  530TMC3    C5 7868   4.209   2.654   0.746 -0.7733 -0.4617  0.2876
  530TMC3    C6 7869   4.252   2.637   0.874  0.4018 -1.1677  0.9339
  530TMC3     C 7870   4.210   3.003   0.707 -0.3716 -0.8202  0.9514
  530TMC3     O 7871   4.147   3.075   0.782 -0.0666  0.0247 -0.1414
  530TMC3     H 7872   4.313   2.959   0.937 -4.0187  0.9425 -0.2426
  530TMC3    H1 7873   4.180   2.786   0.577  0.5120  3.6767  0.3522
  530TMC3    H2 7874   4.252   2.545   0.932  0.5683 -1.1958  0.8878
  530TMC3    C7 7875   4.170   2.539   0.673 -0.8174  0.1733 -0.6524
  530TMC3    C8 7876   4.300   2.751   1.080  0.2737 -0.4610  0.3483
  530TMC3    O1 7877   4.145   2.569   0.555  0.0863  0.2295 -0.0149
  530TMC3    O2 7878   4.234   2.839   1.134 -0.4360 -0.2853 -0.3404
  531MPD2     C 7879   2.930   0.143  13.092 -0.0384 -0.3530 -0.2872
  531MPD2    C1 7880   2.896   0.202  13.213  0.2264 -0.0968 -0.8243
  531MPD2    C2 7881   2.770   0.259  13.225  0.2839  0.0847  0.3079
  531MPD2    C3 7882   2.681   0.261  13.119  0.7963  0.7548 -0.5211
  531MPD2    C4 7883   2.706   0.200  12.997  0.0303  0.3807 -0.1149
  531MPD2    C5 7884   2.839   0.153  12.987  0.1712  0.2768 -1.1597
  531MPD2     H 7885   2.747   0.329  13.305  2.0973 -0.5585  1.3963
  531MPD2    H1 7886   2.642   0.205  12.909  0.6864  0.7777 -0.5687
  531MPD2    H2 7887   3.030   0.106  13.071  0.8457  1.9204 -0.1975
  531MPD2    H3 7888   2.880   0.121  12.892 -0.4182 -0.9688 -0.9880
  531MPD2     N 7889   2.563   0.334  13.141 -0.5583 -0.8484 -0.1245
  531MPD2    H5 7890   2.554   0.376  13.234 -1.8019 -0.4031 -0.4454
  531MPD2    N1 7891   2.999   0.211  13.309  0.1448  0.6045  0.2243
  531MPD2    H7 7892   3.084   0.157  13.297 -1.1946 -1.3456 -0.4205
  532TMC3    C1 7893   3.099   0.284  13.518  0.4886 -0.2218 -0.7912
  532TMC3    C2 7894   3.094   0.387  13.614  0.2033  0.0901 -0.7093
  532TMC3    C3 7895   3.057   0.355  13.746 -0.3147  0.4132 -0.0442
  532TMC3    C4 7896   3.109   0.155  13.567  0.8487 -0.2814  0.1264
  532TMC3    C5 7897   3.104   0.130  13.703 -0.2867 -0.3497  0.4671
  532TMC3    C6 7898   3.070   0.232  13.796  0.2605 -0.6715  0.2943
  532TMC3     C 7899   3.002   0.309  13.413 -0.8326  0.0284 -0.4121
  532TMC3     O 7900   2.926   0.405  13.435  0.1418 -0.5573 -0.8215
  532TMC3     H 7901   3.094   0.491  13.582  2.0049  0.7641  1.4619
  532TMC3    H1 7902   3.138   0.081  13.493  1.3745 -1.0403  1.0845
  532TMC3    H2 7903   3.063   0.207  13.901  1.1652 -0.3915  0.4249
  532TMC3    C7 7904   3.155   0.009  13.761  0.0145  0.7415  0.0678
  532TMC3    C8 7905   2.972   0.453  13.799 -0.3331 -0.0393  0.0459
  532TMC3    O1 7906   3.148   0.003  13.883  0.1440  0.2754 -0.1804
  532TMC3    O2 7907   2.995   0.490  13.915 -0.3298 -0.0687 -0.5560
  533TMC3    C1 7908   3.854   2.335  14.397  0.1110 -0.3563  0.2274
  533TMC3    C2 7909   3.969   2.406  14.431  0.6918  0.0895 -0.0818
  533TMC3    C3 7910   3.943   2.533  14.476 -0.3518  0.3725  0.8302
  533TMC3    C4 7911   3.726   2.383  14.400 -0.2403  0.6405  0.3600
  533TMC3    C5 7912   3.709   2.507  14.445 -0.6993  0.2061 -0.1868
  533TMC3    C6 7913   3.819   2.590  14.474  0.2198 -0.8913  0.4371
  533TMC3     C 7914   3.851   2.205  14.442  0.0608 -0.0197  0.6076
  533TMC3     O 7915   3.901   2.180  14.548  0.2865 -0.6070  0.0010
  533TMC3     H 7916   4.067   2.365  14.453 -0.2237 -1.9727  0.1035
  533TMC3    H1 7917   3.640   2.338  14.353 -0.8066  1.4387  0.6381
  533TMC3    H2 7918   3.802   2.692  14.507 -2.2244 -1.0353 -0.3655
  533TMC3    C7 7919   3.604   2.513  14.539  0.3392  0.8168 -0.7606
  533TMC3    C8 7920   4.048   2.624  14.498  0.4138  0.0277 -0.3887
  533TMC3    O1 7921   3.522   2.421  14.549  0.9176 -0.0881 -0.1878
  533TMC3    O2 7922   4.021   2.719  14.571 -0.3603 -0.4424 -0.0213
  534MPD2     C 7923   1.796   3.520   1.695 -0.2698 -0.1702 -0.3596
  534MPD2    C1 7924   1.664   3.562   1.721 -0.3172  0.3027  0.7415
  534MPD2    C2 7925   1.555   3.490   1.674  0.1346 -0.5320  0.4985
  534MPD2    C3 7926   1.581   3.368   1.608 -0.7066 -1.1405 -0.2034
  534MPD2    C4 7927   1.712   3.330   1.578 -0.1226 -0.2988 -0.0342
  534MPD2    C5 7928   1.820   3.402   1.620 -0.2382 -0.1727  0.1799
  534MPD2     H 7929   1.454   3.516   1.703 -0.8367 -0.3319 -3.0352
  534MPD2    H1 7930   1.735   3.243   1.518  0.8091 -0.8143  1.0619
  534MPD2    H2 7931   1.886   3.572   1.728  0.1478 -0.8479 -0.4252
  534MPD2    H3 7932   1.924   3.372   1.609  0.1069  0.8826  0.5144
  534MPD2     N 7933   1.476   3.280   1.575  0.6439 -0.5445 -0.7448
  534MPD2    H5 7934   1.495   3.187   1.539 -0.8520 -0.6161 -1.3847
  534MPD2    N1 7935   1.630   3.676   1.794  0.5685 -0.3488  0.1683
  534MPD2    H7 7936   1.531   3.688   1.812  1.0459  1.3652  1.5886
  535TMC3    C1 7937   1.259   3.200   1.528 -0.7389  0.3105  0.1604
  535TMC3    C2 7938   1.134   3.176   1.578  0.1861  0.3280  0.2895
  535TMC3    C3 7939   1.034   3.124   1.491  0.6097  0.1564 -0.2837
  535TMC3    C4 7940   1.284   3.185   1.396  0.1975 -0.3630  0.1733
  535TMC3    C5 7941   1.184   3.132   1.316  1.3705 -0.0777 -0.2241
  535TMC3    C6 7942   1.062   3.095   1.363 -0.4988 -0.0339  0.1154
  535TMC3     C 7943   1.342   3.299   1.598  0.4112  0.1407 -0.1027
  535TMC3     O 7944   1.275   3.383   1.660  0.1771  0.4172  0.1173
  535TMC3     H 7945   1.115   3.188   1.684  1.8396 -2.2874  0.8645
  535TMC3    H1 7946   1.370   3.237   1.355  0.3340 -1.8090 -1.3698
  535TMC3    H2 7947   0.994   3.048   1.293 -1.1189  1.2019 -0.1220
  535TMC3    C7 7948   1.217   3.133   1.176 -0.4968 -0.1958 -0.5063
  535TMC3    C8 7949   0.908   3.070   1.544 -0.8061 -0.2157  0.0358
  535TMC3    O1 7950   1.305   3.054   1.138 -0.0149  0.1621  0.4718
  535TMC3    O2 7951   0.850   2.981   1.480  0.1809  0.2864  0.5716
  536MPD2     C 7952   0.439   1.656  16.481 -1.1967  0.3204 -0.4967
  536MPD2    C1 7953   0.308   1.604  16.496  0.3032  0.1611  0.7450
  536MPD2    C2 7954   0.218   1.652  16.403  0.0340  0.2791  0.4623
  536MPD2    C3 7955   0.246   1.740  16.302 -0.0877  0.9046  0.6129
  536MPD2    C4 7956   0.379   1.777  16.290 -0.3545  0.0816  0.2138
  536MPD2    C5 7957   0.478   1.733  16.371 -0.1052 -0.0941 -0.4533
  536MPD2     H 7958   0.117   1.613  16.398 -0.4400  1.5812  0.1207
  536MPD2    H1 7959   0.404   1.853  16.217 -1.6562  0.6341  0.3426
  536MPD2    H2 7960   0.514   1.621  16.551 -1.0115 -0.8048 -1.2629
  536MPD2    H3 7961   0.582   1.762  16.359  0.7427 -2.1527  2.1364
  536MPD2     N 7962   0.148   1.811  16.229 -0.1469 -0.2260 -0.6730
  536MPD2    H5 7963   0.178   1.880  16.161  0.7838 -1.5893 -1.6269
  536MPD2    N1 7964   0.280   1.532  16.616  0.1029 -0.6847 -0.7390
  536MPD2    H7 7965   0.362   1.519  16.675  0.5365 -0.7243 -1.3480
  537TMC3    C1 7966   0.130   1.430  16.775 -0.3235  0.3303  0.5532
  537TMC3    C2 7967   0.231   1.361  16.841 -0.5837 -0.2667  0.4732
  537TMC3    C3 7968   0.193   1.290  16.952  0.2663  0.3413 -0.3315
  537TMC3    C4 7969   4.725   1.433  16.824 -0.7649 -0.1383 -0.4109
  537TMC3    C5 7970   4.693   1.347  16.923 -0.1756  0.3852  0.5650
  537TMC3    C6 7971   0.064   1.289  17.001  0.6118 -0.3071 -0.3666
  537TMC3     C 7972   0.152   1.491  16.646  0.1756  1.1115  0.3820
  537TMC3     O 7973   0.048   1.501  16.580  0.4189 -0.5152 -0.1048
  537TMC3     H 7974   0.331   1.369  16.802 -2.3104 -1.3366 -4.1654
  537TMC3    H1 7975   4.652   1.484  16.763  0.1220  0.9050 -0.5862
  537TMC3    H2 7976   0.043   1.227  17.088 -0.2852  2.5787  1.4528
  537TMC3    C7 7977   4.555   1.322  16.958 -0.0345  0.1865  0.1453
  537TMC3    C8 7978   0.297   1.256  17.040 -0.0413 -0.2271 -0.5223
  537TMC3    O1 7979   4.467   1.401  16.919 -0.1667 -0.2774 -0.2378
  537TMC3    O2 7980   0.397   1.325  17.031 -0.5788 -0.2819 -0.8181
  538TMC3    C1 7981   1.191   4.289  11.514 -0.1825  0.5611 -0.0932
  538TMC3    C2 7982   1.298   4.230  11.454 -0.6772  0.1279  0.0332
  538TMC3    C3 7983   1.289   4.209  11.314 -1.0857 -0.5387 -0.1018
  538TMC3    C4 7984   1.075   4.317  11.451 -0.0021  0.0282  0.4487
  538TMC3    C5 7985   1.078   4.309  11.316 -0.1298  0.5411  0.1133
  538TMC3    C6 7986   1.179   4.251  11.245  0.3006  0.4350  0.4114
  538TMC3     C 7987   1.196   4.332  11.653 -0.0233 -0.0133  0.6076
  538TMC3     O 7988   1.090   4.354  11.707 -0.8380 -0.5541  0.3164
  538TMC3     H 7989   1.386   4.197  11.508  1.1679  0.0919 -2.9559
  538TMC3    H1 7990   0.986   4.352  11.504 -1.0780  0.1176 -1.4187
  538TMC3    H2 7991   1.174   4.259  11.137 -1.6878 -2.3416  0.3021
  538TMC3    C7 7992   0.992   4.391  11.234 -0.2170  0.6429  0.0132
  538TMC3    C8 7993   1.411   4.231  11.243  0.1621  0.7469  0.0556
  538TMC3    O1 7994   0.962   4.352  11.121 -0.5081 -0.1698 -0.1637
  538TMC3    O2 7995   1.503   4.256  11.319 -0.4054  0.1880 -0.6300
  539MPD2     C 7996   0.871   3.851  11.891  0.5082  0.2208  1.2775
  539MPD2    C1 7997   0.925   3.835  11.762 -0.5276  0.7746  0.0139
  539MPD2    C2 7998   0.892   3.928  11.669  0.4966 -0.2477 -0.4149
  539MPD2    C3 7999   0.785   4.010  11.693 -1.0070 -0.1440 -0.2245
  539MPD2    C4 8000   0.738   4.027  11.825 -0.2491  0.2935  0.1890
  539MPD2    C5 8001   0.781   3.952  11.926  0.0555 -0.4134  0.5968
  539MPD2     H 8002   0.941   3.930  11.572  0.2724 -0.2703 -0.5295
  539MPD2    H1 8003   0.674   4.111  11.847  0.0962  0.1169  1.8378
  539MPD2    H2 8004   0.901   3.788  11.975  1.1527 -0.8938  0.2133
  539MPD2    H3 8005   0.737   3.966  12.024  0.1406 -1.0997  0.7282
  539MPD2     N 8006   0.732   4.099  11.598  0.2245 -0.4609 -0.9499
  539MPD2    H5 8007   0.658   4.159  11.633  0.1532 -1.7519  1.1606
  539MPD2    N1 8008   1.022   3.737  11.732  0.3286  0.6185  0.5189
  539MPD2    H7 8009   1.064   3.739  11.640  1.9774  1.1550  1.2741
  540TMC3    C1 8010   0.695   4.208  11.391 -0.3925 -0.1969 -0.1885
  540TMC3    C2 8011   0.614   4.164  11.288  0.3387  0.1984 -0.2408
  540TMC3    C3 8012   0.515   4.257  11.249  0.0261  0.8691  0.1379
  540TMC3    C4 8013   0.675   4.328  11.455  0.5981 -0.2588  0.2336
  540TMC3    C5 8014   0.566   4.402  11.411  0.1382 -0.2340  0.2763
  540TMC3    C6 8015   0.487   4.370  11.311 -0.3893  0.2293 -0.4414
  540TMC3     C 8016   0.766   4.109  11.462  0.6049 -0.0244 -0.0588
  540TMC3     O 8017   0.832   4.034  11.389  0.0428  0.4799 -0.3859
  540TMC3     H 8018   0.643   4.079  11.228 -0.1292 -0.9953  1.2198
  540TMC3    H1 8019   0.744   4.364  11.530 -0.9286 -0.8914  1.9474
  540TMC3    H2 8020   0.389   4.412  11.292 -0.5061  0.5697  0.8701
  540TMC3    C7 8021   0.537   4.524  11.486 -0.2714 -0.8796 -0.2637
  540TMC3    C8 8022   0.423   4.205  11.153 -0.7507 -0.0172 -0.1333
  540TMC3    O1 8023   0.575   4.530  11.603  0.0432 -0.4126  0.2909
  540TMC3    O2 8024   0.336   4.287  11.113  0.3784  0.0182 -0.7585
  541MPD2     C 8025   4.395   0.584  13.138 -0.3437 -0.6010 -0.3472
  541MPD2    C1 8026   4.265   0.616  13.177 -0.3490  0.4165 -0.2896
  541MPD2    C2 8027   4.176   0.671  13.077  0.3233 -0.2618  0.0367
  541MPD2    C3 8028   4.217   0.687  12.945  0.0781  0.1923 -0.4004
  541MPD2    C4 8029   4.349   0.659  12.915  0.3108 -0.6683  0.2437
  541MPD2    C5 8030   4.430   0.604  13.011  0.4496  0.3306 -0.6365
  541MPD2     H 8031   4.072   0.677  13.110 -0.6731  2.7485 -3.6222
  541MPD2    H1 8032   4.389   0.676  12.815  0.7836  1.5523  0.8094
  541MPD2    H2 8033   4.465   0.529  13.201  2.4161  1.2885 -1.7763
  541MPD2    H3 8034   4.530   0.579  12.976  0.4017  0.9613 -1.2299
  541MPD2     N 8035   4.128   0.717  12.835 -0.5954 -0.9265  0.2372
  541MPD2    H5 8036   4.167   0.723  12.741 -0.3231 -2.1710  0.2739
  541MPD2    N1 8037   4.227   0.585  13.308 -0.0664 -0.7469  0.5907
  541MPD2    H7 8038   4.301   0.535  13.355  1.1009  0.1715 -0.2747
  542TMC3    C1 8039   3.918   0.742  12.723  0.0626 -0.5420 -0.0567
  542TMC3    C2 8040   3.977   0.692  12.611  0.3245  0.3976 -0.0396
  542TMC3    C3 8041   3.899   0.704  12.498  0.5063 -0.2337 -0.3066
  542TMC3    C4 8042   3.799   0.814  12.723  1.2708 -0.5956  1.0396
  542TMC3    C5 8043   3.729   0.821  12.599 -0.0589  0.1310  0.1363
  542TMC3    C6 8044   3.778   0.761  12.487  0.1626 -0.3154  0.3310
  542TMC3     C 8045   3.996   0.738  12.847  0.5744 -0.0362  0.4866
  542TMC3     O 8046   3.943   0.772  12.948  0.0025  0.6050  0.0710
  542TMC3     H 8047   4.067   0.632  12.617 -0.5265 -0.9073 -0.3712
  542TMC3    H1 8048   3.745   0.848  12.811  2.4820  0.6697  1.2971
  542TMC3    H2 8049   3.723   0.769  12.394  0.4389 -2.0955  0.0233
  542TMC3    C7 8050   3.594   0.879  12.592 -0.0993  0.6802 -0.0622
  542TMC3    C8 8051   3.967   0.678  12.367 -0.3758 -0.6446  0.3101
  542TMC3    O1 8052   3.529   0.862  12.492  0.0762  0.2002 -0.5017
  542TMC3    O2 8053   3.893   0.680  12.267 -0.7315  0.2139  0.1928
  543TMC3    C1 8054   3.703   1.948  17.539 -0.3604 -0.2620  0.2946
  543TMC3    C2 8055   3.668   1.817  17.560  0.5135 -0.4979  0.2413
  543TMC3    C3 8056   3.722   1.755  17.670 -0.1951 -0.3935  0.8305
  543TMC3    C4 8057   3.788   2.014  17.624 -0.1195  0.4938 -0.0531
  543TMC3    C5 8058   3.837   1.955   0.033 -0.2985 -0.0795  1.3451
  543TMC3    C6 8059   3.798   1.827   0.066 -0.5289  0.4213 -0.1245
  543TMC3     C 8060   3.684   2.011  17.409 -0.1135 -0.5166 -0.4599
  543TMC3     O 8061   3.773   2.079  17.357 -0.2100  0.6717 -0.4049
  543TMC3     H 8062   3.610   1.766  17.484 -0.3271  0.0924  0.4869
  543TMC3    H1 8063   3.813   2.115  17.592  0.0235  0.5020  0.0873
  543TMC3    H2 8064   3.850   1.781   0.149 -1.0861  0.8510  0.4625
  543TMC3    C7 8065   3.939   2.017   0.110 -0.0047  0.3601 -0.3915
  543TMC3    C8 8066   3.746   1.611  17.649  0.8835  0.2416  0.2008
  543TMC3    O1 8067   4.009   1.950   0.188 -0.2169 -0.1440 -1.0476
  543TMC3    O2 8068   3.723   1.575  17.533  0.3889  0.0859 -0.1027
  544MPD2     C 8069   3.986   1.171   0.057 -0.1995  0.0784  0.2891
  544MPD2    C1 8070   3.910   1.209  17.647  0.3505  0.2521  0.4379
  544MPD2    C2 8071   3.851   1.337  17.640  0.1126  0.3267  0.0760
  544MPD2    C3 8072   3.870   1.419   0.051 -0.4014 -0.4639 -0.2037
  544MPD2    C4 8073   3.951   1.384   0.154  0.3432  0.0121 -0.1473
  544MPD2    C5 8074   4.006   1.257   0.162 -0.6889  0.0232  0.3641
  544MPD2     H 8075   3.800   1.364  17.548  1.7237  1.9387 -0.3339
  544MPD2    H1 8076   3.967   1.455   0.234 -1.1164  0.6026 -0.3744
  544MPD2    H2 8077   4.042   1.079   0.072  2.3388  1.7177  0.8031
  544MPD2    H3 8078   4.047   1.215   0.254 -0.6464 -0.3175  0.1923
  544MPD2     N 8079   3.823   1.552   0.048  0.0430  0.7299 -0.2242
  544MPD2    H5 8080   3.841   1.614   0.127  0.7437 -1.9714  1.7166
  544MPD2    N1 8081   3.908   1.112  17.547 -1.3450  0.3961  0.0276
  544MPD2    H7 8082   3.949   1.022  17.569  1.1169  1.0477 -1.9364
  545TMC3    C1 8083   3.839   0.984  17.361 -0.9141 -0.0983 -0.1278
  545TMC3    C2 8084   3.841   0.982  17.222  0.2197  0.1559  0.1333
  545TMC3    C3 8085   3.857   0.862  17.162 -0.3703 -0.3619  0.0085
  545TMC3    C4 8086   3.848   0.866  17.431 -0.2646  0.7974 -0.2980
  545TMC3    C5 8087   3.865   0.753  17.362 -0.0452  0.4784 -0.1732
  545TMC3    C6 8088   3.875   0.749  17.232  0.0878 -0.0287  0.4357
  545TMC3     C 8089   3.840   1.111  17.427  0.0724  0.3092  0.0458
  545TMC3     O 8090   3.789   1.195  17.353  0.2008  0.6085 -0.1611
  545TMC3     H 8091   3.841   1.067  17.155  1.4974 -0.0025 -0.0628
  545TMC3    H1 8092   3.827   0.873  17.537 -0.0962  2.0374 -0.3443
  545TMC3    H2 8093   3.866   0.649  17.191 -2.0105  0.5412 -0.5145
  545TMC3    C7 8094   3.876   0.631  17.439  0.6121  0.5500  0.1601
  545TMC3    C8 8095   3.918   0.859  17.031 -0.2521 -0.1388 -0.5057
  545TMC3    O1 8096   3.830   0.532  17.386  0.2196  0.1142 -0.4956
  545TMC3    O2 8097   3.883   0.951  16.956  0.0285  0.3560 -0.4676
  546MPD2     C 8098   0.460   1.669  17.328 -0.2375  0.3474  0.4335
  546MPD2    C1 8099   0.393   1.785  17.348 -0.1264 -0.7029  0.6095
  546MPD2    C2 8100   0.452   1.891  17.417 -0.0389  0.2252  0.1500
  546MPD2    C3 8101   0.588   1.887  17.449  0.1533  0.8903 -1.0440
  546MPD2    C4 8102   0.654   1.768  17.418  0.4236 -0.0858  0.9118
  546MPD2    C5 8103   0.590   1.657  17.368 -0.3363 -0.2421 -0.3084
  546MPD2     H 8104   0.405   1.988  17.432 -0.9276 -0.3745  1.2493
  546MPD2    H1 8105   0.761   1.749  17.425  0.4452 -0.1531  0.4037
  546MPD2    H2 8106   0.418   1.586  17.273 -0.1429  0.7579 -0.2599
  546MPD2    H3 8107   0.652   1.574  17.338 -0.8024 -1.1159  1.1121
  546MPD2     N 8108   0.654   1.992  17.507 -0.2629  0.4224 -0.9974
  546MPD2    H5 8109   0.747   1.975  17.543 -1.5810 -1.1645  1.6855
  546MPD2    N1 8110   0.260   1.793  17.301 -0.3107 -0.5492 -0.1610
  546MPD2    H7 8111   0.232   1.705  17.259  1.0756  0.3264 -2.9091
  547TMC3    C1 8112   0.036   1.888  17.277 -0.5658  0.3484 -0.1685
  547TMC3    C2 8113   4.702   1.997  17.222 -0.5677  0.2399  0.7823
  547TMC3    C3 8114   4.568   2.003  17.234 -0.2770  0.0172 -0.2680
  547TMC3    C4 8115   4.694   1.786  17.341 -0.0279  0.2979  0.4108
  547TMC3    C5 8116   4.566   1.781  17.326  0.1278  0.4412 -0.4341
  547TMC3    C6 8117   4.498   1.894  17.283  0.0325  0.0730  0.1098
  547TMC3     C 8118   0.180   1.907  17.307  0.1323  0.0351  0.6425
  547TMC3     O 8119   0.210   2.025  17.332 -0.1309  0.3300 -1.1063
  547TMC3     H 8120   0.038   2.070  17.170 -0.7929 -1.0776 -1.3308
  547TMC3    H1 8121   0.018   1.695  17.372  2.0408  1.6729  1.1821
  547TMC3    H2 8122   4.394   1.913  17.306  0.0108  0.3225 -0.1891
  547TMC3    C7 8123   4.507   1.694  17.422 -0.0337  0.1974  0.4236
  547TMC3    C8 8124   4.489   2.099  17.164 -0.3632  0.1083 -0.2307
  547TMC3    O1 8125   4.582   1.663  17.514 -0.2233  0.0302  0.3100
  547TMC3    O2 8126   4.378   2.054  17.132 -0.0619 -0.2239 -0.0463
  548MPD2     C 8127   4.555   2.491  12.367 -0.9110  0.3424 -0.2305
  548MPD2    C1 8128   4.590   2.418  12.481  0.9875  0.3201  0.0044
  548MPD2    C2 8129   4.680   2.322  12.473 -0.3952 -0.2392 -0.8605
  548MPD2    C3 8130   0.024   2.290  12.360 -0.0219  0.5616  0.3905
  548MPD2    C4 8131   4.715   2.360  12.245 -0.1071 -0.2135  0.2344
  548MPD2    C5 8132   4.619   2.460  12.252 -0.4217 -0.1457  0.2296
  548MPD2     H 8133   4.701   2.264  12.563 -0.2669  3.8402  1.7607
  548MPD2    H1 8134   0.043   2.348  12.152 -0.3184  3.5034 -0.3763
  548MPD2    H2 8135   4.492   2.578  12.369 -1.7099 -0.2636  0.6825
  548MPD2    H3 8136   4.600   2.527  12.168 -4.1805 -1.6311 -0.1084
  548MPD2     N 8137   0.096   2.171  12.356  0.2601 -0.2904 -0.0544
  548MPD2    H5 8138   0.118   2.130  12.446  0.2512  1.1917  0.6239
  548MPD2    N1 8139   4.510   2.445  12.597  0.0923 -0.0544 -0.4543
  548MPD2    H7 8140   4.431   2.507  12.585 -0.8222 -0.4239  3.5471
  549TMC3    C1 8141   4.389   2.401  12.791 -0.4873  0.0325  0.1414
  549TMC3    C2 8142   4.324   2.520  12.772  0.0685  0.1654 -0.3414
  549TMC3    C3 8143   4.187   2.511  12.786  0.5367  0.3022  0.1149
  549TMC3    C4 8144   4.317   2.286  12.840 -0.2183  0.1512  0.8001
  549TMC3    C5 8145   4.184   2.283  12.842  0.2549  0.0909 -0.3703
  549TMC3    C6 8146   4.116   2.396  12.810  0.5664 -0.2143 -0.0202
  549TMC3     C 8147   4.506   2.370  12.710 -0.1581  0.3098  1.1892
  549TMC3     O 8148   4.562   2.263  12.744 -0.0393 -0.1120 -0.0095
  549TMC3     H 8149   4.373   2.615  12.754  1.2576 -0.1161  1.3729
  549TMC3    H1 8150   4.375   2.195  12.850 -1.0500 -0.8032 -2.8399
  549TMC3    H2 8151   4.008   2.397  12.822  0.5828 -0.1765  0.1294
  549TMC3    C7 8152   4.108   2.162  12.852  0.1315  0.2244 -0.3972
  549TMC3    C8 8153   4.108   2.617  12.730  0.4021 -0.0345  0.7646
  549TMC3    O1 8154   3.985   2.182  12.866 -0.1093 -0.5742  0.5867
  549TMC3    O2 8155   4.018   2.576  12.664  0.4861 -0.1475 -0.2886
  550TMC3    C1 8156   3.452   0.536  12.749 -0.0837  0.2056  0.0858
  550TMC3    C2 8157   3.402   0.565  12.873  0.0004 -0.3030 -0.1159
  550TMC3    C3 8158   3.279   0.626  12.887  0.5582  0.0856 -0.3649
  550TMC3    C4 8159   3.384   0.576  12.638  0.3831  0.3284  0.3862
  550TMC3    C5 8160   3.263   0.636  12.653  0.6153 -0.1758 -0.2529
  550TMC3    C6 8161   3.211   0.663  12.774  1.0384 -0.1642 -0.6739
  550TMC3     C 8162   3.586   0.474  12.730  0.8614  0.1035  0.5283
  550TMC3     O 8163   3.671   0.500  12.813  0.1572 -0.5817  0.2729
  550TMC3     H 8164   3.457   0.544  12.964  1.1159 -1.8417 -1.1421
  550TMC3    H1 8165   3.417   0.557  12.536 -2.0960 -0.7341 -0.2023
  550TMC3    H2 8166   3.116   0.715  12.777  0.9383 -0.3830 -0.1137
  550TMC3    C7 8167   3.188   0.698  12.537 -0.0016 -0.0230  0.0410
  550TMC3    C8 8168   3.255   0.696  13.013  0.1812 -0.1526 -0.0162
  550TMC3    O1 8169   3.072   0.727  12.555 -0.5885 -0.1100 -0.2574
  550TMC3    O2 8170   3.339   0.677  13.103  0.2986 -0.1001 -0.3292
  551TMC3    C1 8171   1.016   3.172  13.493  0.2903  0.6263  0.2632
  551TMC3    C2 8172   1.100   3.228  13.400  0.8591  0.0913 -0.0984
  551TMC3    C3 8173   1.125   3.358  13.412  0.7280  0.2131 -0.4688
  551TMC3    C4 8174   0.953   3.243  13.595  0.4166  0.6768 -0.2036
  551TMC3    C5 8175   0.980   3.377  13.599 -0.1018 -0.0681  0.2705
  551TMC3    C6 8176   1.066   3.437  13.511  0.2439 -0.0806  0.4436
  551TMC3     C 8177   0.954   3.043  13.452  0.3632  0.5254 -0.6556
  551TMC3     O 8178   0.970   3.009  13.333  0.1789  1.0919  0.3068
  551TMC3     H 8179   1.142   3.162  13.325  0.2745 -0.2610 -0.1202
  551TMC3    H1 8180   0.866   3.205  13.647  1.2162 -0.0042  0.6551
  551TMC3    H2 8181   1.096   3.541  13.518  2.1252 -0.6444  0.6748
  551TMC3    C7 8182   0.936   3.441  13.727  0.6476  0.8678 -0.1974
  551TMC3    C8 8183   1.212   3.417  13.308 -0.3001 -0.6861  0.0815
  551TMC3    O1 8184   0.888   3.375  13.816 -0.0019 -0.2882 -0.4476
  551TMC3    O2 8185   1.172   3.517  13.251  0.4042  0.2965 -0.4741
  552MPD2     C 8186   2.969   0.328  14.382 -0.3787  0.0676  0.6691
  552MPD2    C1 8187   3.045   0.214  14.373  0.6236  0.0344 -0.0316
  552MPD2    C2 8188   3.150   0.194  14.463  0.0150  0.1268  0.1374
  552MPD2    C3 8189   3.185   0.298  14.550 -0.0346  0.8017 -0.6389
  552MPD2    C4 8190   3.120   0.420  14.543  0.1615  0.5687 -0.3224
  552MPD2    C5 8191   3.011   0.436  14.457  0.1736  0.0806 -0.0629
  552MPD2     H 8192   3.196   0.097  14.467  0.3767  0.2607 -0.6819
  552MPD2    H1 8193   3.146   0.509  14.599 -1.3427  1.8011 -1.5514
  552MPD2    H2 8194   2.876   0.341  14.328  1.5819  2.3296 -2.1565
  552MPD2    H3 8195   2.956   0.529  14.457 -1.4427 -0.8757 -0.0354
  552MPD2     N 8196   3.272   0.289  14.657  0.0111 -0.4563 -0.6155
  552MPD2    H5 8197   3.288   0.375  14.707  0.4616 -2.3109  2.4083
  552MPD2    N1 8198   3.011   0.115  14.281  0.1396  0.2428 -0.4666
  552MPD2    H7 8199   3.058   0.025  14.282 -0.0367  0.1005 -3.3411
  553TMC3    C1 8200   2.899   4.710  14.115  0.2614 -0.1794  0.2641
  553TMC3    C2 8201   2.849   4.702  13.988  0.2428  0.0091 -0.2164
  553TMC3    C3 8202   2.851   4.582  13.927  0.3895 -0.1818 -0.2967
  553TMC3    C4 8203   2.958   4.595  14.177  0.0721 -0.0634 -0.2937
  553TMC3    C5 8204   2.964   4.483  14.095 -0.0188  0.3177  0.2361
  553TMC3    C6 8205   2.911   4.470  13.975 -0.4371 -0.0484 -0.3577
  553TMC3     C 8206   2.918   0.117  14.177 -0.8813  0.2120  0.1508
  553TMC3     O 8207   2.847   0.209  14.136  0.1310 -0.2618 -0.2304
  553TMC3     H 8208   2.792   0.060  13.948  1.0098  0.7953  0.3225
  553TMC3    H1 8209   2.988   4.597  14.281 -2.4683 -0.1063  0.4200
  553TMC3    H2 8210   2.937   4.384  13.914 -0.1961  0.6039 -1.1780
  553TMC3    C7 8211   3.076   4.392  14.128  0.8763  0.0121  0.1248
  553TMC3    C8 8212   2.841   4.593  13.783  0.2396 -0.5096 -0.1491
  553TMC3    O1 8213   3.060   4.279  14.095  0.5561  0.4845 -0.0374
  553TMC3    O2 8214   2.915   4.518  13.721  0.4504  0.1148  0.0642
  554TMC3    C1 8215   4.581   3.820  11.563 -0.6829  0.5496 -0.2365
  554TMC3    C2 8216   4.520   3.753  11.455  0.1401 -0.6387  1.0844
  554TMC3    C3 8217   4.597   3.752  11.343 -0.6196  0.1665  0.0900
  554TMC3    C4 8218   4.690   3.905  11.556  1.0965 -0.0339  0.1374
  554TMC3    C5 8219   0.038   3.895  11.440  0.0180 -0.7922  0.0246
  554TMC3    C6 8220   4.718   3.820  11.334  0.0499 -0.5365  0.6396
  554TMC3     C 8221   4.559   3.763  11.695 -0.1678  0.6370  0.1106
  554TMC3     O 8222   4.443   3.752  11.712 -0.5899 -0.3023 -0.6869
  554TMC3     H 8223   4.425   3.700  11.455  0.3367 -0.9847 -0.4689
  554TMC3    H1 8224   0.003   3.951  11.646  0.2477 -0.3090  0.6346
  554TMC3    H2 8225   0.053   3.818  11.244  0.1501  1.8464  0.6670
  554TMC3    C7 8226   0.096   4.020  11.391 -0.6173 -0.2201  0.0781
  554TMC3    C8 8227   4.553   3.705  11.212  0.3912 -0.5199  0.0913
  554TMC3    O1 8228   0.118   4.033  11.275  0.0653  0.6362 -0.3174
  554TMC3    O2 8229   4.642   3.691  11.131 -0.7978 -0.1466  0.4758
  555TMC3    C1 8230   3.559   3.769  15.431  0.1940  0.5737  0.5840
  555TMC3    C2 8231   3.615   3.858  15.513 -0.6905  0.3532  0.1799
  555TMC3    C3 8232   3.709   3.822  15.601  1.1126 -0.0082  0.9319
  555TMC3    C4 8233   3.608   3.640  15.436 -0.1594  0.5732 -0.0355
  555TMC3    C5 8234   3.703   3.602  15.526 -0.4609  0.4511 -0.1508
  555TMC3    C6 8235   3.749   3.692  15.612  0.0309  0.2280  0.2165
  555TMC3     C 8236   3.431   3.807  15.383  1.1529 -0.0193  0.2581
  555TMC3     O 8237   3.370   3.911  15.415 -0.2200 -0.4499 -0.2437
  555TMC3     H 8238   3.582   3.961  15.511  0.3561  0.6938  0.5221
  555TMC3    H1 8239   3.573   3.560  15.372 -2.2258  0.1866  1.5736
  555TMC3    H2 8240   3.814   3.665  15.694  0.0361  1.4284  0.6111
  555TMC3    C7 8241   3.756   3.470  15.501  0.4263  0.6847 -0.3794
  555TMC3    C8 8242   3.719   3.907  15.717  0.3415  0.2694  0.7298
  555TMC3    O1 8243   3.695   3.400  15.430  0.2550  0.2594 -0.2483
  555TMC3    O2 8244   3.644   4.006  15.723  0.1411 -0.1267 -0.7344
  556MPD2     C 8245   1.695   0.423  10.473 -0.4389  0.5306 -0.6027
  556MPD2    C1 8246   1.684   0.353  10.588  0.0567 -0.3296  0.0219
  556MPD2    C2 8247   1.637   0.222  10.586  0.2741 -0.0164  0.3339
  556MPD2    C3 8248   1.596   0.166  10.466  0.2776 -0.0902 -0.3617
  556MPD2    C4 8249   1.593   0.244  10.354  0.2068 -0.0226  0.2196
  556MPD2    C5 8250   1.649   0.365  10.356  0.0398 -0.3913  0.0798
  556MPD2     H 8251   1.645   0.171  10.682  2.5180  2.2793  1.3635
  556MPD2    H1 8252   1.560   0.204  10.259 -1.2769  1.2071  0.2110
  556MPD2    H2 8253   1.740   0.521  10.476  1.1955 -0.2567  0.4679
  556MPD2    H3 8254   1.652   0.417  10.261 -0.6695 -0.7742 -0.1566
  556MPD2     N 8255   1.550   0.031  10.460 -0.1427  0.2476  0.4307
  556MPD2    H5 8256   1.540   4.694  10.539 -0.4258 -0.8542 -0.4693
  556MPD2    N1 8257   1.727   0.405  10.710  0.2060  0.4228 -0.2456
  556MPD2    H7 8258   1.717   0.352  10.796 -1.3247  1.9842  0.5453
  557TMC3    C1 8259   1.484   4.551  10.366 -0.1186 -0.8971 -0.4762
  557TMC3    C2 8260   1.408   4.486  10.269 -0.0040  0.3558  0.5297
  557TMC3    C3 8261   1.406   4.349  10.266  0.5535 -0.0313 -0.7216
  557TMC3    C4 8262   1.534   4.482  10.468 -0.6746 -0.0620  0.2012
  557TMC3    C5 8263   1.518   4.347  10.467  0.6684 -0.3050 -0.4245
  557TMC3    C6 8264   1.451   4.278  10.370  0.1186  0.0643  0.4719
  557TMC3     C 8265   1.498   4.696  10.350  0.2976  0.3443  0.1779
  557TMC3     O 8266   1.483   0.003  10.233  0.2688  0.3820  0.7161
  557TMC3     H 8267   1.381   4.540  10.180  0.1449  0.0455  0.2950
  557TMC3    H1 8268   1.571   4.524  10.561  2.2217 -0.2756 -0.8477
  557TMC3    H2 8269   1.444   4.171  10.381  1.1914  0.0978  1.4412
  557TMC3    C7 8270   1.496   4.288  10.596  0.8040  0.0948  0.0912
  557TMC3    C8 8271   1.362   4.283  10.144  0.5284 -0.3204  0.2000
  557TMC3    O1 8272   1.396   4.229  10.621  0.0671  0.4918 -0.1544
  557TMC3    O2 8273   1.264   4.339  10.091  0.7414  0.4146  0.3453
  558TMC3    C1 8274   0.208   2.360   9.834 -0.1064  0.2553  0.9547
  558TMC3    C2 8275   0.104   2.439   9.878 -0.1605 -0.1007  0.2492
  558TMC3    C3 8276   4.725   2.455   9.794 -0.1264 -0.1612 -0.0197
  558TMC3    C4 8277   0.224   2.314   9.706  0.0844 -0.0846  0.4623
  558TMC3    C5 8278   0.114   2.331   9.630 -0.3587 -0.6841  0.4003
  558TMC3    C6 8279   4.723   2.394   9.674  0.5190  0.1645  0.2937
  558TMC3     C 8280   0.328   2.374   9.906  0.5899  0.4068 -0.5250
  558TMC3     O 8281   0.346   2.482   9.958 -0.0361 -0.2181  0.1106
  558TMC3     H 8282   0.108   2.485   9.976  1.5900 -0.8036  0.5094
  558TMC3    H1 8283   0.320   2.276   9.672  0.7957  1.1856  1.0244
  558TMC3    H2 8284   4.635   2.418   9.617  1.5301  1.7181 -0.6318
  558TMC3    C7 8285   0.150   2.319   9.489 -0.8580 -0.3003  0.1445
  558TMC3    C8 8286   4.607   2.526   9.832 -0.0636 -0.6967 -0.3651
  558TMC3    O1 8287   0.267   2.308   9.461  0.0376 -0.5076 -0.3318
  558TMC3    O2 8288   4.528   2.564   9.745 -0.1198 -0.1548 -0.9810
  559MPD2     C 8289   4.456   3.290  10.495 -0.4050 -0.9972  0.2240
  559MPD2    C1 8290   4.373   3.215  10.573  0.2063 -0.2782  0.0950
  559MPD2    C2 8291   4.410   3.199  10.705 -0.5319  0.3832 -0.3256
  559MPD2    C3 8292   4.527   3.245  10.750  0.4969 -0.3585 -0.1375
  559MPD2    C4 8293   4.608   3.325  10.669  0.0036 -0.0154  1.1907
  559MPD2    C5 8294   4.575   3.341  10.539  0.6187  0.4077 -0.7767
  559MPD2     H 8295   4.336   3.166  10.778  0.4770  0.2149  0.6123
  559MPD2    H1 8296   4.708   3.350  10.703  0.6388 -0.1942 -0.5157
  559MPD2    H2 8297   4.436   3.314  10.391 -0.9438 -0.4379  0.4579
  559MPD2    H3 8298   4.631   3.401  10.468  0.7567 -0.0769 -1.0760
  559MPD2     N 8299   4.543   3.251  10.892  0.0450  0.2716 -0.4094
  559MPD2    H5 8300   4.473   3.204  10.948  0.4986  0.0815 -0.0032
  559MPD2    N1 8301   4.250   3.177  10.519  0.0654  0.1565  0.3966
  559MPD2    H7 8302   4.207   3.235  10.448  3.0568  0.2041 -1.3490
  560TMC3    C1 8303   4.619   3.303  11.108  0.1816 -0.6384 -0.3952
  560TMC3    C2 8304   4.501   3.248  11.151 -0.0254 -0.7996 -0.5534
  560TMC3    C3 8305   4.516   3.171  11.262  0.2507 -0.0050  0.4924
  560TMC3    C4 8306   0.012   3.275  11.165 -0.2148  0.0185  0.4556
  560TMC3    C5 8307   0.022   3.189  11.270  0.7678  0.5365 -0.1794
  560TMC3    C6 8308   4.637   3.148  11.329  0.4294 -0.3288 -1.2727
  560TMC3     C 8309   4.639   3.319  10.963 -0.2772 -0.3760  0.1497
  560TMC3     O 8310   0.014   3.376  10.921  0.1569  0.2503  0.1823
  560TMC3     H 8311   4.400   3.269  11.116 -0.9753 -1.4335  1.7652
  560TMC3    H1 8312   0.103   3.302  11.113 -0.0236 -2.0691 -0.2846
  560TMC3    H2 8313   4.649   3.084  11.416 -1.6322 -0.3861 -1.0445
  560TMC3    C7 8314   0.152   3.164  11.326  0.4530 -0.2871 -0.4489
  560TMC3    C8 8315   4.435   3.054  11.237 -0.4560  0.7695 -0.9072
  560TMC3    O1 8316   0.169   3.056  11.381  0.2258  0.8839 -0.2791
  560TMC3    O2 8317   4.440   3.041  11.118  0.0359  0.3205 -0.2396
  561TMC3    C1 8318   2.513   2.188  11.502  0.7140  0.1519  0.1842
  561TMC3    C2 8319   2.429   2.122  11.590 -0.3228 -0.2273 -0.3975
  561TMC3    C3 8320   2.330   2.197  11.646  1.0385 -1.4433 -0.1428
  561TMC3    C4 8321   2.499   2.321  11.467 -0.2196  0.3465  0.0503
  561TMC3    C5 8322   2.401   2.397  11.532  0.2614  0.5142 -0.3477
  561TMC3    C6 8323   2.308   2.333  11.615 -0.3078 -0.0259 -0.0610
  561TMC3     C 8324   2.600   2.098  11.418  0.1363  0.1985 -0.3498
  561TMC3     O 8325   2.585   1.979  11.438  0.5247 -0.0222 -0.0508
  561TMC3     H 8326   2.448   2.021  11.626 -0.4534 -0.5804 -1.3353
  561TMC3    H1 8327   2.559   2.358  11.384 -2.5000  4.8091  0.4343
  561TMC3    H2 8328   2.236   2.391  11.672 -1.4634  0.0101 -1.5811
  561TMC3    C7 8329   2.394   2.546  11.526 -0.0766 -0.3896 -0.0375
  561TMC3    C8 8330   2.253   2.137  11.758 -0.3996 -0.1750  0.1976
  561TMC3    O1 8331   2.312   2.603  11.595  0.0768 -0.3789  0.4081
  561TMC3    O2 8332   2.278   2.018  11.779 -0.2231 -0.1318 -0.5202
  562TMC3    C1 8333   3.949   4.526  16.640 -0.1459  0.1180 -0.1494
  562TMC3    C2 8334   3.828   4.588  16.614  0.5703  0.0012  0.3664
  562TMC3    C3 8335   3.737   4.503  16.563  0.2480 -0.1160 -0.3088
  562TMC3    C4 8336   3.982   4.398  16.602  0.4362 -0.0166  0.2502
  562TMC3    C5 8337   3.879   4.319  16.546 -0.1330  0.0056 -0.2844
  562TMC3    C6 8338   3.756   4.366  16.542 -0.1178 -0.5342 -0.2819
  562TMC3     C 8339   4.053   4.607  16.696 -0.2295  0.0332 -0.1268
  562TMC3     O 8340   4.162   4.554  16.718 -0.6624 -0.2211  0.2194
  562TMC3     H 8341   3.794   4.685  16.646  1.0448 -0.5055  2.4175
  562TMC3    H1 8342   4.084   4.363  16.611  0.9175  1.8919  2.1636
  562TMC3    H2 8343   3.676   4.296  16.518 -1.3168  0.5099  0.6549
  562TMC3    C7 8344   3.898   4.179  16.506  0.7601 -0.7404 -0.0361
  562TMC3    C8 8345   3.601   4.555  16.570  0.0835 -0.1388  0.1730
  562TMC3    O1 8346   3.825   4.121  16.433 -0.3083 -0.0620 -0.0309
  562TMC3    O2 8347   3.581   4.652  16.643 -0.3858 -0.1134  0.1358
  563MPD2     C 8348   1.584   0.239  15.704  0.5640  0.1651 -0.4638
  563MPD2    C1 8349   1.547   0.326  15.803 -0.6573  0.1650 -0.4648
  563MPD2    C2 8350   1.651   0.389  15.872 -0.9697 -0.0357 -0.5189
  563MPD2    C3 8351   1.782   0.360  15.854 -0.0820 -0.3336  0.5774
  563MPD2    C4 8352   1.818   0.286  15.743  0.2955 -0.7084 -0.0111
  563MPD2    C5 8353   1.715   0.225  15.668 -1.1939  0.1615 -0.6653
  563MPD2     H 8354   1.621   0.467  15.941 -1.5486  1.7196 -2.7462
  563MPD2    H1 8355   1.915   0.238  15.732  0.4090 -0.2735 -0.9093
  563MPD2    H2 8356   1.502   0.198  15.645  0.2561  0.4555 -0.2373
  563MPD2    H3 8357   1.734   0.158  15.585  2.0571 -0.9823  0.9810
  563MPD2     N 8358   1.878   0.424  15.935 -0.3894 -0.4250  0.1473
  563MPD2    H5 8359   1.845   0.482  16.011  0.5409 -0.0312  0.2557
  563MPD2    N1 8360   1.407   0.352  15.832 -0.1435 -0.1253 -0.4903
  563MPD2    H7 8361   1.340   0.300  15.775  0.8135  0.8774 -2.5449
  564TMC3    C1 8362   1.223   0.472  15.911  0.2794  0.8434  0.0692
  564TMC3    C2 8363   1.135   0.371  15.953  0.2123 -0.3122  0.2997
  564TMC3    C3 8364   1.038   0.402  16.040  0.1912 -1.3842 -0.4159
  564TMC3    C4 8365   1.192   0.594  15.965  0.5436  0.7196  0.3572
  564TMC3    C5 8366   1.097   0.617  16.053  0.0920  0.0748 -0.9466
  564TMC3    C6 8367   1.006   0.529  16.084 -0.1560 -0.4483 -0.1813
  564TMC3     C 8368   1.358   0.441  15.923 -0.1852  0.4358 -0.1070
  564TMC3     O 8369   1.416   0.522  15.993  0.5335 -0.0754 -0.3327
  564TMC3     H 8370   1.171   0.269  15.945  2.4358  0.5433 -0.6015
  564TMC3    H1 8371   1.248   0.681  15.931 -0.7843  1.5560  0.2970
  564TMC3    H2 8372   0.924   0.543  16.155  0.8037 -1.6131  1.1459
  564TMC3    C7 8373   1.144   0.685  16.168  0.4548 -0.0580  0.3021
  564TMC3    C8 8374   0.985   0.290  16.126  0.0856 -0.3531  0.2308
  564TMC3    O1 8375   1.062   0.723  16.252  0.1339 -0.3984 -0.2343
  564TMC3    O2 8376   0.920   0.335  16.223  0.5768 -0.2803  0.4109
  565TMC3    C1 8377   2.488   1.840  10.279  0.4665  0.2444 -0.4336
  565TMC3    C2 8378   2.409   1.778  10.369  0.0616  0.3974 -0.1999
  565TMC3    C3 8379   2.296   1.713  10.310 -0.6091  0.1653 -0.0051
  565TMC3    C4 8380   2.462   1.856  10.146 -0.1017 -0.2026  0.3363
  565TMC3    C5 8381   2.349   1.799  10.099  0.4858 -0.0212  0.1407
  565TMC3    C6 8382   2.262   1.725  10.176 -0.6970 -0.0420  0.2587
  565TMC3     C 8383   2.578   1.940  10.335  0.0906  0.3506  0.1056
  565TMC3     O 8384   2.647   2.007  10.258 -0.5588 -0.3490 -0.3357
  565TMC3     H 8385   2.450   1.767  10.469  0.1492  1.1962 -0.1491
  565TMC3    H1 8386   2.523   1.919  10.082 -1.6871  2.0612  1.0575
  565TMC3    H2 8387   2.155   1.718  10.161 -0.4508  0.9582 -2.1040
  565TMC3    C7 8388   2.294   1.841   9.972  0.1720 -0.2526  0.6304
  565TMC3    C8 8389   2.206   1.643  10.400 -0.1090  0.2212  0.4643
  565TMC3    O1 8390   2.345   1.935   9.914  0.5908  0.2414  0.0051
  565TMC3    O2 8391   2.223   1.668  10.519 -0.0981 -0.3328 -0.3369
  566MPD2     C 8392   2.672   2.923  14.426 -0.2921 -0.5723 -0.0704
  566MPD2    C1 8393   2.732   3.031  14.367 -0.3488 -0.0927  0.1481
  566MPD2    C2 8394   2.647   3.112  14.285 -0.1712 -0.1976 -0.7841
  566MPD2    C3 8395   2.513   3.086  14.267  0.5280 -0.0329  0.3362
  566MPD2    C4 8396   2.455   2.981  14.342  0.1369  0.2846  0.5523
  566MPD2    C5 8397   2.532   2.903  14.423  0.1241  0.4499  0.1226
  566MPD2     H 8398   2.695   3.198  14.240  1.1125 -0.5527 -0.0815
  566MPD2    H1 8399   2.353   2.946  14.337  0.1261  0.3214  0.5200
  566MPD2    H2 8400   2.737   2.851  14.474  1.2809 -0.3495 -1.8528
  566MPD2    H3 8401   2.480   2.818  14.465 -1.5588  1.5672  0.2956
  566MPD2     N 8402   2.430   3.159  14.177 -0.0606 -0.0064  0.2555
  566MPD2    H5 8403   2.335   3.131  14.200  0.5041 -0.0634  2.5484
  566MPD2    N1 8404   2.876   3.027  14.373  0.5349  0.4290  0.9222
  566MPD2    H7 8405   2.919   2.951  14.425  0.5868  0.3727  0.7962
  567TMC3    C1 8406   3.101   3.093  14.328 -0.3057  0.1484 -0.2855
  567TMC3    C2 8407   3.183   3.121  14.223 -0.0398 -0.1833 -0.0176
  567TMC3    C3 8408   3.319   3.124  14.242 -0.7226 -0.6455  0.6940
  567TMC3    C4 8409   3.152   3.068  14.451  0.3086 -0.5039 -0.1789
  567TMC3    C5 8410   3.292   3.071  14.466  0.8863 -1.4016  0.7078
  567TMC3    C6 8411   3.374   3.109  14.361  0.0771  0.1570 -0.8541
  567TMC3     C 8412   2.958   3.116  14.305  0.6355 -0.0650 -0.6860
  567TMC3     O 8413   2.933   3.214  14.236 -0.5954  0.8727 -0.3113
  567TMC3     H 8414   3.133   3.144  14.129 -0.6198 -1.3360  0.0122
  567TMC3    H1 8415   3.085   3.051  14.534  0.8582 -0.8249  0.1966
  567TMC3    H2 8416   3.482   3.111  14.373  0.3298  1.7146 -3.3088
  567TMC3    C7 8417   3.356   3.058  14.594 -0.2386  0.0392  0.4516
  567TMC3    C8 8418   3.388   3.205  14.143  0.5211  0.2559  0.1330
  567TMC3    O1 8419   3.476   3.062  14.602  0.5771  0.2289  0.2570
  567TMC3    O2 8420   3.321   3.295  14.091  0.1757  0.5514 -0.3727
  568MPD2     C 8421   0.371   4.105  17.141 -0.9133  0.0874 -0.4456
  568MPD2    C1 8422   0.484   4.107  17.062  0.0721  0.4661 -0.3697
  568MPD2    C2 8423   0.494   4.200  16.963  0.6838 -0.3377 -0.0740
  568MPD2    C3 8424   0.398   4.299  16.946 -0.1296 -0.1906  0.4790
  568MPD2    C4 8425   0.290   4.311  17.042 -0.9812  0.0383  0.5373
  568MPD2    C5 8426   0.279   4.208  17.131  0.2384  0.2441  0.0140
  568MPD2     H 8427   0.583   4.205  16.902 -0.9939 -1.0616 -2.5564
  568MPD2    H1 8428   0.220   4.394  17.047  0.3936  1.1284  1.8732
  568MPD2    H2 8429   0.334   4.028  17.209 -1.7189 -0.3962 -1.4245
  568MPD2    H3 8430   0.198   4.216  17.203 -0.7760 -1.1608 -0.9922
  568MPD2     N 8431   0.422   4.405  16.854 -0.5091 -0.0159  0.1196
  568MPD2    H5 8432   0.500   4.402  16.789 -0.8123  0.6554 -0.2788
  568MPD2    N1 8433   0.590   4.021  17.095 -0.1249 -0.2030 -0.2521
  568MPD2    H7 8434   0.595   3.989  17.192  0.1434  2.0433  0.4736
  569TMC3    C1 8435   0.411   4.610  16.749 -0.4868  0.3210 -0.2062
  569TMC3    C2 8436   0.413   0.022  16.782  0.4263  0.3763 -0.0902
  569TMC3    C3 8437   0.502   0.105  16.709  0.0508  0.0944 -0.4424
  569TMC3    C4 8438   0.477   4.562  16.633  0.2102  0.4840 -0.0666
  569TMC3    C5 8439   0.555   4.645  16.562 -0.2145 -0.7514 -0.1760
  569TMC3    C6 8440   0.569   0.049  16.599 -0.0721  0.5497  0.1477
  569TMC3     C 8441   0.359   4.520  16.838  0.1159  0.6733  0.2539
  569TMC3     O 8442   0.277   4.571  16.910  0.1269 -0.2027  0.4414
  569TMC3     H 8443   0.364   0.059  16.872  2.4066  2.7858  0.0076
  569TMC3    H1 8444   0.449   4.465  16.593  0.9945  0.2121  0.0411
  569TMC3    H2 8445   0.622   0.122  16.538  0.5303  0.1613  0.1983
  569TMC3    C7 8446   0.636   4.586  16.451 -0.2092 -0.7637 -0.2349
  569TMC3    C8 8447   0.540   0.234  16.753 -0.0378  0.4240 -0.0171
  569TMC3    O1 8448   0.638   4.465  16.430 -0.1299 -0.4900  0.5910
  569TMC3    O2 8449   0.454   0.308  16.797 -0.6765  0.0451 -0.0241
  570TMC3    C1 8450   0.279   3.043  16.577 -0.1108  0.7307  0.0914
  570TMC3    C2 8451   0.315   3.055  16.444  0.3834  0.4163 -0.6113
  570TMC3    C3 8452   0.324   3.183  16.394 -0.5969 -0.0665 -0.0655
  570TMC3    C4 8453   0.220   3.151  16.647  1.0173  0.5312  0.5065
  570TMC3    C5 8454   0.226   3.271  16.585 -0.2801  0.1328  0.1828
  570TMC3    C6 8455   0.281   3.291  16.460  0.2365 -0.0129 -0.2065
  570TMC3     C 8456   0.261   2.908  16.631 -0.8415 -0.0994 -0.9042
  570TMC3     O 8457   0.266   2.822  16.540 -0.4828 -0.1454  0.2945
  570TMC3     H 8458   0.361   2.973  16.389 -2.5950 -1.9834  0.4729
  570TMC3    H1 8459   0.165   3.145  16.741  0.3433  1.6148  0.1788
  570TMC3    H2 8460   0.307   3.390  16.425 -0.4046  0.2349  0.0172
  570TMC3    C7 8461   0.243   3.381  16.677  0.3950 -0.2075  0.5583
  570TMC3    C8 8462   0.404   3.203  16.269 -0.2172 -0.0705  0.4295
  570TMC3    O1 8463   0.272   3.347  16.793  0.1696  0.3512 -0.2155
  570TMC3    O2 8464   0.460   3.310  16.258 -0.4792  0.0175  0.3209
  571MPD2     C 8465   3.556   0.115  17.145  0.3915 -0.2215  1.3915
  571MPD2    C1 8466   3.463   0.088  17.245  0.7453 -0.1589  0.0715
  571MPD2    C2 8467   3.471   0.158  17.363 -0.2862  1.0001 -0.0778
  571MPD2    C3 8468   3.577   0.246  17.385 -0.0986  0.4312  0.1840
  571MPD2    C4 8469   3.670   0.268  17.284 -0.1676 -0.2960  0.4064
  571MPD2    C5 8470   3.662   0.202  17.167  0.0235  0.8746  0.3055
  571MPD2     H 8471   3.405   0.133  17.445  0.2152 -0.5091 -0.1257
  571MPD2    H1 8472   3.754   0.336  17.285 -0.9702  0.6859  2.4442
  571MPD2    H2 8473   3.560   0.064  17.050  0.5549  0.9917  0.7519
  571MPD2    H3 8474   3.740   0.205  17.092  1.3501 -3.1840  1.5112
  571MPD2     N 8475   3.604   0.315  17.508  0.3393  0.0549  0.6346
  571MPD2    H5 8476   3.671   0.391  17.495  1.3641 -0.5393  2.3993
  571MPD2    N1 8477   3.354   4.723  17.220 -0.6313  0.0944 -0.1491
  571MPD2    H7 8478   3.356   4.668  17.135 -0.1206 -2.0180  1.2469
  572TMC3    C1 8479   3.581   0.390   0.026 -0.3835 -0.1612 -0.0630
  572TMC3    C2 8480   3.570   0.354   0.161 -0.4613 -0.7529  0.3868
  572TMC3    C3 8481   3.605   0.442   0.259  0.7225  0.2299  0.4407
  572TMC3    C4 8482   3.621   0.521  17.697  0.0184 -0.1524  0.2797
  572TMC3    C5 8483   3.652   0.608   0.100 -0.1720  0.0320 -0.0824
  572TMC3    C6 8484   3.649   0.567   0.229  0.7477 -0.7986  0.0143
  572TMC3     C 8485   3.537   0.297  17.624 -0.2140  0.4401 -0.7570
  572TMC3     O 8486   3.468   0.203  17.655 -0.2009  0.1448 -0.7550
  572TMC3     H 8487   3.555   0.250   0.188  0.6249 -0.9280  0.3386
  572TMC3    H1 8488   3.617   0.566  17.599 -0.5896  0.6847  0.6893
  572TMC3    H2 8489   3.658   0.636   0.312  0.0536  0.3527 -0.8789
  572TMC3    C7 8490   3.635   0.756   0.066 -0.4335  0.6278 -0.5695
  572TMC3    C8 8491   3.618   0.389   0.390 -0.1961 -0.6155  0.3169
  572TMC3    O1 8492   3.579   0.783  17.660  0.2890 -0.3158  0.2320
  572TMC3    O2 8493   3.701   0.440   0.460  0.2185 -0.3602 -0.3395
  573MPD2     C 8494   3.726   0.814   1.066 -0.0384  0.3958 -0.4821
  573MPD2    C1 8495   3.845   0.877   1.093 -0.1653  0.4089  0.2126
  573MPD2    C2 8496   3.953   0.834   1.022 -1.4725 -0.0310 -0.1583
  573MPD2    C3 8497   3.948   0.724   0.935 -0.2315  0.7014  0.1827
  573MPD2    C4 8498   3.828   0.651   0.922  0.0307  0.3248  0.3637
  573MPD2    C5 8499   3.720   0.706   0.988  0.5610  0.6686 -0.0031
  573MPD2     H 8500   4.035   0.904   1.035 -2.8613  1.4851  0.4232
  573MPD2    H1 8501   3.825   0.564   0.858 -0.9126  0.2082  0.5700
  573MPD2    H2 8502   3.634   0.853   1.108  0.1166  0.8672 -0.5796
  573MPD2    H3 8503   3.628   0.650   0.989  0.5487  0.6934  0.4369
  573MPD2     N 8504   4.045   0.683   0.842  0.1089 -0.4952  0.3315
  573MPD2    H5 8505   4.017   0.609   0.778 -1.6834 -0.3628  0.9436
  573MPD2    N1 8506   3.835   0.990   1.177  0.5079 -0.0534  0.1993
  573MPD2    H7 8507   3.742   1.000   1.215 -0.6940 -1.4213 -2.4134
  574TMC3    C1 8508   4.238   0.694   0.697  0.4237 -0.2295 -0.0034
  574TMC3    C2 8509   4.186   0.597   0.617 -0.4385  0.7698  0.1737
  574TMC3    C3 8510   4.224   0.586   0.489  0.0155  0.3277 -0.3708
  574TMC3    C4 8511   4.344   0.766   0.655 -0.0277 -0.7471 -0.1081
  574TMC3    C5 8512   4.380   0.758   0.523 -0.1266  0.1719  0.7767
  574TMC3    C6 8513   4.323   0.667   0.440 -0.0207 -0.4895  1.1025
  574TMC3     C 8514   4.175   0.727   0.832 -0.4017  0.9182 -0.1062
  574TMC3     O 8515   4.242   0.801   0.902 -0.7421 -0.0113  0.3788
  574TMC3     H 8516   4.115   0.532   0.667  1.3011 -2.4081 -1.4641
  574TMC3    H1 8517   4.388   0.843   0.717 -2.5850  1.2703 -0.7886
  574TMC3    H2 8518   4.359   0.651   0.339 -0.8935 -1.7495  0.9798
  574TMC3    C7 8519   4.515   0.792   0.474  0.4452  0.1436 -0.1634
  574TMC3    C8 8520   4.157   0.497   0.395  0.7377  0.0080 -0.2337
  574TMC3    O1 8521   4.559   0.744   0.370 -0.1164 -0.0320  0.1434
  574TMC3    O2 8522   4.115   0.386   0.432 -0.4052 -0.0601  0.7260
  575TMC3    C1 8523   1.727   1.602  11.134  0.4871 -0.6021  0.1394
  575TMC3    C2 8524   1.657   1.486  11.159 -0.1684  0.8568 -0.4215
  575TMC3    C3 8525   1.684   1.373  11.075 -0.2729 -0.5813  0.7416
  575TMC3    C4 8526   1.804   1.617  11.019 -0.3944 -0.1450  0.0769
  575TMC3    C5 8527   1.816   1.509  10.934 -0.7243 -0.1792 -0.1044
  575TMC3    C6 8528   1.755   1.389  10.960  0.6076  0.2709  0.0914
  575TMC3     C 8529   1.711   1.698  11.239  0.7615 -0.3360  0.0859
  575TMC3     O 8530   1.610   1.690  11.309  0.3416  0.1544 -0.0004
  575TMC3     H 8531   1.606   1.490  11.254 -1.8872 -0.7587 -1.2842
  575TMC3    H1 8532   1.846   1.712  10.988  1.4319 -0.9512  0.0624
  575TMC3    H2 8533   1.775   1.298  10.905 -1.7801 -0.4114  0.3645
  575TMC3    C7 8534   1.888   1.525  10.808 -0.4950 -0.3377 -0.0525
  575TMC3    C8 8535   1.706   1.247  11.135 -0.2545 -0.3246  0.1858
  575TMC3    O1 8536   1.965   1.617  10.789  0.5363  0.3402 -0.3934
  575TMC3    O2 8537   1.731   1.154  11.058 -0.0660 -0.1700  0.3235
  576MPD2     C 8538   1.309   2.782  12.720 -0.5543  0.0967  0.0500
  576MPD2    C1 8539   1.321   2.836  12.596  0.1213 -0.6094  0.6012
  576MPD2    C2 8540   1.247   2.955  12.564 -0.2465  0.0954 -0.1811
  576MPD2    C3 8541   1.168   3.023  12.657 -0.1392  0.0839  0.2151
  576MPD2    C4 8542   1.171   2.973  12.779 -0.2798  0.4303  0.5966
  576MPD2    C5 8543   1.237   2.856  12.810  0.0578 -0.0207  0.0467
  576MPD2     H 8544   1.246   3.005  12.468  1.1309  1.4918  0.5435
  576MPD2    H1 8545   1.129   3.016  12.869 -1.2592  1.2062 -0.2416
  576MPD2    H2 8546   1.342   2.684  12.753 -0.4849  0.5415  1.2988
  576MPD2    H3 8547   1.230   2.814  12.909  4.3435 -0.3420  0.1914
  576MPD2     N 8548   1.097   3.146  12.628 -0.1042 -0.3642 -0.3791
  576MPD2    H5 8549   1.088   3.174  12.531 -2.6694  3.1350  0.9067
  576MPD2    N1 8550   1.412   2.783  12.504 -0.3659 -0.1417 -0.1096
  576MPD2    H7 8551   1.417   2.836  12.417  0.8098 -0.3100 -0.1384
  577TMC3    C1 8552   1.584   2.657  12.410  0.8579 -0.4356  0.8246
  577TMC3    C2 8553   1.641   2.536  12.397 -0.1904  0.9176  0.2748
  577TMC3    C3 8554   1.743   2.518  12.305  0.5548 -0.6102  0.2071
  577TMC3    C4 8555   1.612   2.761  12.327 -0.6429 -0.2444 -0.0866
  577TMC3    C5 8556   1.702   2.739  12.232  0.4595 -0.2907 -0.0372
  577TMC3    C6 8557   1.770   2.624  12.219 -1.0324 -0.1890  0.0853
  577TMC3     C 8558   1.488   2.668  12.519 -0.1136  0.4838  0.2150
  577TMC3     O 8559   1.497   2.581  12.604  0.4359 -0.0115  0.1722
  577TMC3     H 8560   1.620   2.450  12.460  1.3599 -0.5569 -1.2314
  577TMC3    H1 8561   1.575   2.862  12.342  0.5120  0.2682 -0.7408
  577TMC3    H2 8562   1.851   2.619  12.147 -0.6887 -4.1430  0.7562
  577TMC3    C7 8563   1.762   2.845  12.154  0.1907 -0.2740  0.3743
  577TMC3    C8 8564   1.789   2.384  12.270  0.8021  1.0556  0.2756
  577TMC3    O1 8565   1.881   2.831  12.136  0.3521  0.0595 -0.4946
  577TMC3    O2 8566   1.769   2.297  12.356 -0.1581  0.7056 -0.1937
  578MPD2     C 8567   4.280   3.346   1.221  0.5607 -0.1453 -0.1912
  578MPD2    C1 8568   4.378   3.280   1.142 -0.0689 -0.0318 -0.4019
  578MPD2    C2 8569   4.479   3.211   1.203 -0.3215 -0.0678  0.0453
  578MPD2    C3 8570   4.481   3.205   1.341 -0.7040  0.2433  0.2716
  578MPD2    C4 8571   4.385   3.270   1.421 -0.0825  0.1662  0.0038
  578MPD2    C5 8572   4.287   3.345   1.360 -0.4339  0.1349  0.1604
  578MPD2     H 8573   4.561   3.177   1.140  0.3787 -1.1386  1.5330
  578MPD2    H1 8574   4.396   3.270   1.529 -0.8420 -1.3337  0.0718
  578MPD2    H2 8575   4.193   3.394   1.177 -0.5475  0.1731  2.3348
  578MPD2    H3 8576   4.202   3.378   1.420 -2.3797 -0.8969 -2.0436
  578MPD2     N 8577   4.582   3.122   1.395 -0.4221  0.2249 -0.5469
  578MPD2    H5 8578   4.643   3.079   1.327 -0.7987  2.7054 -2.4365
  578MPD2    N1 8579   4.362   3.295   1.001 -0.3569 -0.7430  0.3605
  578MPD2    H7 8580   4.285   3.355   0.976  0.9616  1.1230  0.8154
  579TMC3    C1 8581   0.010   3.036   1.551  0.0471 -0.1074 -0.0761
  579TMC3    C2 8582   0.090   3.066   1.655 -0.1734 -0.4459  0.1807
  579TMC3    C3 8583   0.196   2.986   1.688  0.4897  0.3152 -0.1832
  579TMC3    C4 8584   0.044   2.935   1.463  0.3799 -0.5750 -0.9417
  579TMC3    C5 8585   0.158   2.860   1.498 -0.0966  0.4359 -0.8586
  579TMC3    C6 8586   0.229   2.881   1.608 -0.3254  0.2717  0.0719
  579TMC3     C 8587   4.611   3.112   1.532  0.1178  0.0473 -0.1339
  579TMC3     O 8588   4.558   3.159   1.631 -0.1695  0.3756  0.4971
  579TMC3     H 8589   0.073   3.153   1.718 -0.6307  1.1839 -2.2178
  579TMC3    H1 8590   4.705   2.906   1.381 -0.4203 -0.0719 -0.4924
  579TMC3    H2 8591   0.316   2.820   1.626 -1.0052 -0.0176  2.3209
  579TMC3    C7 8592   0.202   2.748   1.417  0.3376 -0.4756 -0.0426
  579TMC3    C8 8593   0.299   3.032   1.773 -0.0856 -0.7132 -0.4925
  579TMC3    O1 8594   0.280   2.668   1.466  0.1829  0.6087  0.7472
  579TMC3    O2 8595   0.263   3.091   1.873  0.4467  0.3241 -0.0866
  580TMC3    C1 8596   3.766   1.672  11.805 -0.0372  0.1667 -0.5172
  580TMC3    C2 8597   3.783   1.670  11.669 -0.2647 -0.1985 -0.4176
  580TMC3    C3 8598   3.777   1.550  11.604 -0.4335 -0.5857 -0.0691
  580TMC3    C4 8599   3.731   1.559  11.872 -0.1108 -0.4891  0.4157
  580TMC3    C5 8600   3.710   1.446  11.802  0.1397  0.2519 -0.6253
  580TMC3    C6 8601   3.729   1.440  11.665 -0.0797 -0.3539  0.3602
  580TMC3     C 8602   3.820   1.785  11.879  0.0581  0.1720  0.7740
  580TMC3     O 8603   3.874   1.866  11.803 -0.1423  0.2745 -0.2333
  580TMC3     H 8604   3.827   1.757  11.620 -2.4555  1.0896 -0.0899
  580TMC3    H1 8605   3.690   1.574  11.971 -1.0318  1.4148 -0.2518
  580TMC3    H2 8606   3.736   1.343  11.617  1.7216 -0.1040  0.1118
  580TMC3    C7 8607   3.722   1.328  11.874  0.4412 -0.1957  0.1950
  580TMC3    C8 8608   3.877   1.526  11.498 -0.7101 -1.0166  0.2212
  580TMC3    O1 8609   3.685   1.221  11.824  0.3644 -0.0647  0.5595
  580TMC3    O2 8610   3.865   1.428  11.427 -0.6473 -0.5307 -0.3395
  581MPD2     C 8611   2.610   1.549  14.729 -0.5168 -0.0336 -0.0844
  581MPD2    C1 8612   2.521   1.604  14.808  0.2636  0.9560  0.1131
  581MPD2    C2 8613   2.416   1.679  14.758 -0.7436  0.5117 -0.0658
  581MPD2    C3 8614   2.407   1.702  14.622 -0.1808 -0.2746 -0.9594
  581MPD2    C4 8615   2.508   1.648  14.540  0.7133 -0.2196 -0.5707
  581MPD2    C5 8616   2.617   1.576  14.595  0.0054  0.4230  0.1735
  581MPD2     H 8617   2.348   1.730  14.827 -1.1153  2.9879 -2.2643
  581MPD2    H1 8618   2.516   1.673  14.435 -1.3345 -1.7997 -1.0992
  581MPD2    H2 8619   2.679   1.475  14.767  1.7120  1.2016 -1.6944
  581MPD2    H3 8620   2.702   1.560  14.530  1.8160 -0.3313  2.7490
  581MPD2     N 8621   2.300   1.778  14.568 -0.4944  0.6624 -0.3246
  581MPD2    H5 8622   2.234   1.818  14.634 -3.4922 -1.1649 -2.1905
  581MPD2    N1 8623   2.543   1.576  14.942  0.0217  0.5322 -0.1681
  581MPD2    H7 8624   2.600   1.494  14.956 -0.9999 -0.3602 -1.2633
  582TMC3    C1 8625   2.535   1.581  15.170  0.1654 -0.3274  0.6555
  582TMC3    C2 8626   2.553   1.655  15.287  0.8804  0.3700 -0.1993
  582TMC3    C3 8627   2.560   1.583  15.401 -0.4160 -0.5338  0.2004
  582TMC3    C4 8628   2.486   1.454  15.178  0.1577 -0.1469  0.1948
  582TMC3    C5 8629   2.462   1.398  15.302 -0.1375  0.6423  0.9735
  582TMC3    C6 8630   2.519   1.455  15.412  0.4910  0.4339  0.2136
  582TMC3     C 8631   2.517   1.656  15.046  0.2636  0.0459  0.7823
  582TMC3     O 8632   2.468   1.774  15.051  0.0359 -0.4199  0.4680
  582TMC3     H 8633   2.574   1.761  15.297 -0.4316  0.6755 -0.6195
  582TMC3    H1 8634   2.473   1.400  15.085 -0.4225 -1.6357  1.1403
  582TMC3    H2 8635   2.528   1.406  15.509  0.5250 -0.4716 -0.2425
  582TMC3    C7 8636   2.317   1.377  15.322  0.4668 -0.7730  0.7411
  582TMC3    C8 8637   2.574   1.653  15.530  0.0025  0.5444  0.9930
  582TMC3    O1 8638   2.275   1.402  15.431  0.0653  0.3249  0.3882
  582TMC3    O2 8639   2.524   1.764  15.530  0.0280 -0.3051  0.2546
  583MPD2     C 8640   2.264   3.452  17.218  0.4723  0.0602  0.1913
  583MPD2    C1 8641   2.193   3.545  17.142  0.1072 -0.3739 -1.2859
  583MPD2    C2 8642   2.128   3.642  17.207 -0.3708 -0.6153  0.3921
  583MPD2    C3 8643   2.143   3.662  17.339 -0.0211  0.2152 -0.0437
  583MPD2    C4 8644   2.224   3.580  17.412  0.3310 -0.5558  0.5730
  583MPD2    C5 8645   2.276   3.470  17.354  0.0982  0.2657 -0.4898
  583MPD2     H 8646   2.076   3.705  17.137 -0.1941 -0.7718  0.1182
  583MPD2    H1 8647   2.242   3.587  17.518  3.5521 -0.7548  0.0659
  583MPD2    H2 8648   2.326   3.372  17.178  0.2627 -0.1078  0.2030
  583MPD2    H3 8649   2.334   3.404  17.417  0.0733  1.1305  0.4273
  583MPD2     N 8650   2.085   3.782  17.392  0.1977 -0.6392 -0.0212
  583MPD2    H5 8651   2.025   3.829  17.324 -0.7112 -0.5019  0.8710
  583MPD2    N1 8652   2.204   3.547  17.002  0.3675 -0.4917  0.2605
  583MPD2    H7 8653   2.174   3.634  16.958 -0.0802 -0.9995 -0.4464
  584TMC3    C1 8654   2.025   3.940  17.565 -0.5113 -0.7942 -0.2625
  584TMC3    C2 8655   2.011   4.045  17.480 -0.2544  0.4725 -0.7688
  584TMC3    C3 8656   1.981   4.167  17.528 -0.0583 -0.1434  0.5821
  584TMC3    C4 8657   2.016   3.964  17.698 -0.3609  0.0909 -0.1343
  584TMC3    C5 8658   1.979   4.083   0.046  0.0841 -0.3446 -0.3692
  584TMC3    C6 8659   1.959   4.185  17.662 -0.3947  0.2099 -0.0475
  584TMC3     C 8660   2.086   3.817  17.528  0.3689  0.1332  0.0368
  584TMC3     O 8661   2.140   3.758  17.621 -0.0398  0.4229  0.2581
  584TMC3     H 8662   2.039   4.037  17.375  0.3859  3.2382 -0.8116
  584TMC3    H1 8663   2.042   3.883   0.064 -0.0591 -0.7699 -1.2778
  584TMC3    H2 8664   1.936   4.282   0.002 -0.1100  0.0847  0.4016
  584TMC3    C7 8665   1.907   4.085   0.169  0.0610 -0.2300  0.6327
  584TMC3    C8 8666   1.986   4.292  17.454 -0.5560  0.4461 -0.1447
  584TMC3    O1 8667   1.949   4.019   0.259  0.4536  0.0292 -0.6194
  584TMC3    O2 8668   1.954   4.282  17.337 -0.3977  0.5270 -0.1447
  585MPD2     C 8669   1.339   2.530   0.757  0.0661  0.1996  1.0971
  585MPD2    C1 8670   1.303   2.542   0.618 -0.1712  0.1554  0.2573
  585MPD2    C2 8671   1.301   2.428   0.546  0.4692 -0.3000  0.7799
  585MPD2    C3 8672   1.325   2.299   0.600 -0.2482 -0.2673 -0.2329
  585MPD2    C4 8673   1.338   2.290   0.739 -0.0481 -0.2008  0.0242
  585MPD2    C5 8674   1.356   2.402   0.808 -0.6217  0.3524 -0.1390
  585MPD2     H 8675   1.285   2.436   0.439 -0.5519 -1.0583  0.8771
  585MPD2    H1 8676   1.346   2.199   0.798 -0.3464 -0.1498  0.1413
  585MPD2    H2 8677   1.359   2.613   0.823 -1.7148 -1.5254  3.8209
  585MPD2    H3 8678   1.373   2.392   0.915 -1.2244 -3.1974 -0.3598
  585MPD2     N 8679   1.324   2.192   0.510 -1.0045 -0.7033  0.2909
  585MPD2    H5 8680   1.302   2.215   0.414  3.2610  0.2668 -0.4178
  585MPD2    N1 8681   1.276   2.669   0.562 -0.3446  0.1333 -0.0554
  585MPD2    H7 8682   1.291   2.748   0.623 -0.3546 -0.4367  0.6938
  586TMC3    C1 8683   1.418   2.008   0.399  0.1292 -0.1890  0.4135
  586TMC3    C2 8684   1.554   1.974   0.374  0.0013  0.1627  0.3889
  586TMC3    C3 8685   1.599   1.976   0.245 -0.0019 -0.2049  0.1558
  586TMC3    C4 8686   1.344   2.055   0.292 -0.1538 -0.8986  0.2309
  586TMC3    C5 8687   1.392   2.064   0.167 -0.1049 -0.4971 -1.1879
  586TMC3    C6 8688   1.517   2.020   0.142  0.8173 -0.4940 -0.5471
  586TMC3     C 8689   1.396   2.074   0.528 -0.7553  0.1351 -0.6399
  586TMC3     O 8690   1.449   2.028   0.632 -0.2319 -0.0468  0.6148
  586TMC3     H 8691   1.623   1.950   0.454  0.2274  0.0590  0.1617
  586TMC3    H1 8692   1.238   2.071   0.310  0.0613 -0.0776  0.8288
  586TMC3    H2 8693   1.557   2.015   0.041  1.7033 -3.0283 -0.0888
  586TMC3    C7 8694   1.301   2.035   0.058  1.0493 -0.5532  0.2030
  586TMC3    C8 8695   1.729   1.917   0.206 -0.3039  0.3949 -0.6735
  586TMC3    O1 8696   1.186   2.006   0.083 -0.7856  0.0013  0.5130
  586TMC3    O2 8697   1.774   1.936   0.092 -0.0640  0.1971 -0.1428
  587TMC3    C1 8698   3.992   1.245  16.583  0.3859  0.6647  0.0778
  587TMC3    C2 8699   3.945   1.357  16.517  0.4727 -0.5410 -0.2659
  587TMC3    C3 8700   4.035   1.460  16.493 -0.9815  0.2177  0.9573
  587TMC3    C4 8701   4.123   1.234  16.627  0.9242 -0.7553 -0.1776
  587TMC3    C5 8702   4.209   1.340  16.600  0.6169 -0.9269  0.0535
  587TMC3    C6 8703   4.168   1.446  16.523  0.2848 -0.3396 -1.0220
  587TMC3     C 8704   3.901   1.135  16.601  0.5085  0.1122 -0.8829
  587TMC3     O 8705   3.942   1.020  16.581  0.8319 -0.7283 -0.2631
  587TMC3     H 8706   3.840   1.360  16.490 -0.1124 -1.6983  1.8606
  587TMC3    H1 8707   4.147   1.139  16.675 -2.4020 -1.5550 -0.1074
  587TMC3    H2 8708   4.228   1.535  16.513  1.0048 -0.7178 -0.1481
  587TMC3    C7 8709   4.352   1.310  16.609 -0.1625 -0.3774 -0.6247
  587TMC3    C8 8710   3.997   1.562  16.396 -0.4397 -0.3312  0.4584
  587TMC3    O1 8711   4.424   1.380  16.544 -1.1663 -0.1757  0.4962
  587TMC3    O2 8712   4.087   1.626  16.343 -0.7204  0.0580 -0.5589
  588TMC3    C1 8713   1.103   3.246   9.718 -0.3367 -0.0947  0.1034
  588TMC3    C2 8714   1.093   3.117   9.697  0.1560 -0.1554  0.1102
  588TMC3    C3 8715   1.172   3.035   9.766 -0.0523  0.2044 -0.9119
  588TMC3    C4 8716   1.196   3.298   9.799 -0.0285  0.5910 -0.6693
  588TMC3    C5 8717   1.281   3.214   9.874  0.5193  0.6839  0.4048
  588TMC3    C6 8718   1.267   3.079   9.857 -0.4083  0.0459 -0.1443
  588TMC3     C 8719   0.994   3.330   9.669 -0.4057 -0.0759 -0.1111
  588TMC3     O 8720   0.943   3.304   9.557  0.4811  0.3662  0.1107
  588TMC3     H 8721   1.015   3.079   9.631 -0.4801  0.3629  0.5711
  588TMC3    H1 8722   1.210   3.405   9.804  1.2623  0.3898  0.2089
  588TMC3    H2 8723   1.304   3.008   9.929 -1.7396 -1.0161 -0.5020
  588TMC3    C7 8724   1.338   3.263   9.995 -0.1722 -0.3172 -0.2319
  588TMC3    C8 8725   1.177   2.903   9.713  0.6619  0.2677  0.0105
  588TMC3    O1 8726   1.435   3.202  10.042  0.2943 -0.5322 -0.2052
  588TMC3    O2 8727   1.094   2.873   9.631 -0.4375  0.4410  0.1705
  589TMC3    C1 8728   0.363   1.300   0.976 -0.1390  0.1266  0.6580
  589TMC3    C2 8729   0.463   1.346   1.059  0.2073 -0.4588  0.4218
  589TMC3    C3 8730   0.583   1.285   1.046  0.1263 -0.2519  0.1285
  589TMC3    C4 8731   0.377   1.208   0.883 -0.7327 -0.2311 -0.2312
  589TMC3    C5 8732   0.504   1.156   0.866 -0.4497 -0.7466 -0.3737
  589TMC3    C6 8733   0.613   1.192   0.949  0.1730 -0.0193 -0.2891
  589TMC3     C 8734   0.248   1.386   0.949 -0.2816  0.3032 -0.9184
  589TMC3     O 8735   0.179   1.361   0.854 -0.4677 -0.3093 -0.2716
  589TMC3     H 8736   0.448   1.409   1.147 -0.1006 -0.4357  0.3522
  589TMC3    H1 8737   0.298   1.176   0.817 -0.5066  0.4751 -0.8319
  589TMC3    H2 8738   0.703   1.132   0.936 -0.8800 -1.4869 -0.7949
  589TMC3    C7 8739   0.504   1.030   0.802  0.4363  0.0429 -0.1048
  589TMC3    C8 8740   0.686   1.314   1.147 -0.4127  0.4902 -0.8057
  589TMC3    O1 8741   0.409   0.956   0.817 -0.4667 -0.1958  0.3670
  589TMC3    O2 8742   0.655   1.398   1.231  0.8878  0.1678  0.1159
  590MPD2     C 8743   4.666   4.554  16.497 -0.2782 -0.3462  0.2427
  590MPD2    C1 8744   4.611   4.679  16.478  0.5445  0.7685  0.2598
  590MPD2    C2 8745   4.702   0.051  16.463 -0.7888  0.1372  0.0651
  590MPD2    C3 8746   0.112   0.042  16.451  0.6396  0.9974 -0.3982
  590MPD2    C4 8747   0.158   4.640  16.479 -0.3662 -0.5042 -0.2826
  590MPD2    C5 8748   0.075   4.536  16.501 -0.2380  0.4871  0.1218
  590MPD2     H 8749   4.662   0.149  16.439  1.7199  1.1992  0.1691
  590MPD2    H1 8750   0.264   4.619  16.487 -0.6080 -0.7542  2.5172
  590MPD2    H2 8751   4.601   4.468  16.503 -0.7325  0.0599  1.1639
  590MPD2    H3 8752   0.109   4.434  16.492 -0.7142  0.3293  0.1219
  590MPD2     N 8753   0.194   0.146  16.405  0.3373  0.2142 -0.1532
  590MPD2    H5 8754   0.282   0.111  16.371  0.4859 -0.6779  1.1743
  590MPD2    N1 8755   4.472   4.701  16.469  0.0475 -0.2706 -0.3424
  590MPD2    H7 8756   4.416   4.618  16.486  1.1288 -0.9932 -0.2953
  591TMC3    C1 8757   0.236   0.364  16.301 -0.3662 -0.5099  0.4712
  591TMC3    C2 8758   0.363   0.334  16.272 -0.5838  0.6868  0.3569
  591TMC3    C3 8759   0.427   0.402  16.173 -0.4877 -0.5827 -0.3576
  591TMC3    C4 8760   0.179   0.466  16.232  0.6440  0.3992 -0.2735
  591TMC3    C5 8761   0.258   0.550  16.153  0.0034  0.1894  0.3059
  591TMC3    C6 8762   0.385   0.516  16.112  0.6349 -0.5738 -0.0338
  591TMC3     C 8763   0.156   0.276  16.384  0.0400 -0.0615  0.1179
  591TMC3     O 8764   0.061   0.335  16.428  0.2158 -0.3621 -0.0400
  591TMC3     H 8765   0.410   0.254  16.329 -0.4934 -0.4713 -1.3381
  591TMC3    H1 8766   0.076   0.496  16.251  0.9869 -0.0362  2.3060
  591TMC3    H2 8767   0.426   0.572  16.028 -1.7116 -0.3090 -0.9831
  591TMC3    C7 8768   0.184   0.661  16.097 -0.0428 -0.3931 -0.4307
  591TMC3    C8 8769   0.531   0.324  16.112 -0.1517  0.1150 -0.0156
  591TMC3    O1 8770   0.064   0.666  16.112 -0.3118  0.1116  0.3207
  591TMC3    O2 8771   0.531   0.206  16.139 -0.2298  0.3231 -0.0234
  592MPD2     C 8772   0.197   1.703  11.308  0.4818 -0.5064  0.5056
  592MPD2    C1 8773   0.192   1.717  11.445 -0.0908  0.0914 -0.0251
  592MPD2    C2 8774   0.112   1.627  11.514 -0.1384 -0.3978 -0.3899
  592MPD2    C3 8775   0.048   1.524  11.441  0.4625  0.1679 -0.1708
  592MPD2    C4 8776   0.055   1.520  11.298 -0.0976 -0.5840 -0.7350
  592MPD2    C5 8777   0.130   1.611  11.228 -0.0002  0.2442  0.1266
  592MPD2     H 8778   0.120   1.625  11.622 -0.6392 -1.9075 -0.3719
  592MPD2    H1 8779   0.005   1.450  11.232 -1.5183  2.3618 -2.7650
  592MPD2    H2 8780   0.263   1.774  11.260  0.8733  0.2228  2.1230
  592MPD2    H3 8781   0.153   1.607  11.122  2.1021 -1.0301  0.6192
  592MPD2     N 8782   4.703   1.419  11.507 -0.0821  0.3128 -0.2904
  592MPD2    H5 8783   4.704   1.431  11.608 -1.7138 -0.3266 -0.2125
  592MPD2    N1 8784   0.281   1.806  11.500 -0.2667 -0.0518  0.5131
  592MPD2    H7 8785   0.335   1.862  11.435  0.2380  1.4868  2.2645
  593TMC3    C1 8786   0.387   1.922  11.674  0.7771 -0.1769  0.5295
  593TMC3    C2 8787   0.371   1.986  11.786 -0.2325  0.3981  0.5413
  593TMC3    C3 8788   0.462   2.079  11.820  0.4598  0.7338 -0.3164
  593TMC3    C4 8789   0.478   1.965  11.577 -0.2488  0.1718 -0.4515
  593TMC3    C5 8790   0.570   2.063  11.618  0.5406 -0.0406  0.1937
  593TMC3    C6 8791   0.561   2.126  11.742 -0.5519  0.7163 -0.1619
  593TMC3     C 8792   0.281   1.831  11.632 -0.0585 -0.1070  1.1307
  593TMC3     O 8793   0.221   1.783  11.724 -0.0670 -0.1823  0.4818
  593TMC3     H 8794   0.297   1.950  11.857  0.4345  1.2208  1.6687
  593TMC3    H1 8795   0.491   1.921  11.479  4.5336 -0.5279  0.5030
  593TMC3    H2 8796   0.622   2.211  11.769  3.1637 -2.2038  0.7213
  593TMC3    C7 8797   0.701   2.078  11.556  0.2636 -0.4220 -0.0624
  593TMC3    C8 8798   0.482   2.104  11.957 -0.3826  0.1939 -0.4063
  593TMC3    O1 8799   0.795   2.126  11.616  0.5673 -0.0334 -0.2222
  593TMC3    O2 8800   0.377   2.119  12.015  0.1432 -0.4194 -0.5358
  594MPD2     C 8801   3.616   0.742  14.754  0.3062  0.6320 -1.2397
  594MPD2    C1 8802   3.688   0.648  14.816  0.1561  0.3730 -0.3910
  594MPD2    C2 8803   3.820   0.683  14.856  0.0743 -0.2730 -0.0175
  594MPD2    C3 8804   3.864   0.815  14.851  0.3347  0.0016 -0.3046
  594MPD2    C4 8805   3.788   0.905  14.780  0.1399  0.5353 -0.2722
  594MPD2    C5 8806   3.669   0.867  14.728 -0.1014  0.1818 -0.0638
  594MPD2     H 8807   3.881   0.611  14.910 -1.7027 -1.0046  1.0121
  594MPD2    H1 8808   3.813   1.010  14.770  0.1004  0.4604 -1.1368
  594MPD2    H2 8809   3.521   0.723  14.705 -0.2053 -0.5995  0.2148
  594MPD2    H3 8810   3.613   0.938  14.670 -0.9473 -1.2014 -0.9379
  594MPD2     N 8811   3.995   0.857  14.893 -0.2966  0.3904  0.1528
  594MPD2    H5 8812   4.026   0.954  14.883 -1.6804  0.8109  0.0116
  594MPD2    N1 8813   3.638   0.516  14.833  0.7900  0.3950  0.1925
  594MPD2    H7 8814   3.539   0.499  14.818  0.8420  0.9855 -0.8668
  595TMC3    C1 8815   4.407   0.895  14.875 -0.5452  0.2295  0.1090
  595TMC3    C2 8816   4.306   0.806  14.898 -0.0097 -0.0711  0.7614
  595TMC3    C3 8817   4.208   0.837  14.985 -0.1587  0.8638  0.0633
  595TMC3    C4 8818   4.385   1.027  14.901  0.1188  0.4343  0.2752
  595TMC3    C5 8819   4.282   1.056  14.984  0.3210 -0.4408 -0.1361
  595TMC3    C6 8820   4.197   0.965  15.034 -0.3467  0.2595  0.6701
  595TMC3     C 8821   4.499   0.858  14.773  0.1655  0.6202 -0.6146
  595TMC3     O 8822   4.467   0.759  14.708 -0.0219 -0.2319  0.4258
  595TMC3     H 8823   4.307   0.700  14.876  1.9799  0.4071 -1.4378
  595TMC3    H1 8824   4.444   1.102  14.849 -2.0242  1.4002 -0.7616
  595TMC3    H2 8825   4.111   0.992  15.094 -0.9994  0.2170 -0.2454
  595TMC3    C7 8826   4.225   1.187  14.993 -0.1159 -0.4260 -0.1475
  595TMC3    C8 8827   4.080   0.778  14.965 -0.3281 -0.4539  0.3293
  595TMC3    O1 8828   4.111   1.195  15.028  0.3982 -0.1222 -0.0276
  595TMC3    O2 8829   4.078   0.652  14.973  0.4369  0.3035 -0.1777
  596MPD2     C 8830   2.972   3.360  16.963 -0.2190 -0.0254 -0.0423
  596MPD2    C1 8831   2.978   3.475  16.882 -0.3182  0.0296  0.7092
  596MPD2    C2 8832   2.984   3.459  16.750  0.6454 -0.0885 -0.0003
  596MPD2    C3 8833   2.992   3.335  16.683 -0.2271 -0.2306 -0.5808
  596MPD2    C4 8834   2.968   3.225  16.763 -0.5865 -0.2079 -0.5148
  596MPD2    C5 8835   2.969   3.236  16.899  0.0204  0.2029 -0.4375
  596MPD2     H 8836   3.000   3.551  16.695 -0.6352 -0.1372 -0.4571
  596MPD2    H1 8837   2.976   3.126  16.719 -0.4806 -0.7041  0.6331
  596MPD2    H2 8838   2.977   3.366  17.071  0.2645 -2.8289  0.1049
  596MPD2    H3 8839   2.977   3.144  16.956  0.3962  0.6522  0.2264
  596MPD2     N 8840   2.977   3.319  16.544 -0.4526 -0.3655 -0.0381
  596MPD2    H5 8841   2.959   3.226  16.507  0.6867 -0.0708 -1.3454
  596MPD2    N1 8842   2.983   3.607  16.932 -0.5066  0.5524 -0.0429
  596MPD2    H7 8843   3.004   3.678  16.863 -0.6586  2.2372  1.6716
  597TMC3    C1 8844   2.911   3.779  17.069 -0.5483 -0.2980 -0.2678
  597TMC3    C2 8845   2.928   3.872  16.966 -0.2999  0.0586  0.4443
  597TMC3    C3 8846   2.876   4.003  16.984 -0.1711 -0.8856  0.0211
  597TMC3    C4 8847   2.861   3.821  17.192 -0.1198 -1.0283 -0.4407
  597TMC3    C5 8848   2.807   3.950  17.200  0.3987  0.0144  0.8932
  597TMC3    C6 8849   2.824   4.052  17.104 -0.2304  1.2801  0.6969
  597TMC3     C 8850   2.951   3.643  17.057 -1.1354  0.1831  0.3451
  597TMC3     O 8851   2.914   3.571  17.148 -0.3683 -0.2238  0.2380
  597TMC3     H 8852   2.965   3.849  16.867 -1.1016 -0.2423  0.2126
  597TMC3    H1 8853   2.847   3.754  17.276 -0.6658 -0.5077 -0.1185
  597TMC3    H2 8854   2.770   4.145  17.110 -1.8078  0.3125  1.3007
  597TMC3    C7 8855   2.724   3.965  17.319 -0.0338 -0.0116 -0.2175
  597TMC3    C8 8856   2.906   4.107  16.883 -0.1347 -0.2891 -0.1765
  597TMC3    O1 8857   2.756   3.907  17.422  0.1925 -0.0521 -0.0838
  597TMC3    O2 8858   2.888   4.223  16.926  0.4772 -0.2083  0.3757
  598TMC3    C1 8859   1.484   0.615  15.617  0.0696 -0.2606 -0.6484
  598TMC3    C2 8860   1.354   0.573  15.593  0.6040  0.3441  0.0743
  598TMC3    C3 8861   1.345   0.468  15.507 -0.2408  0.3583 -0.4490
  598TMC3    C4 8862   1.593   0.580  15.547  0.7397 -0.0410 -0.7847
  598TMC3    C5 8863   1.563   0.485  15.451 -0.3405  0.5642  0.1184
  598TMC3    C6 8864   1.445   0.420  15.431 -0.4332 -0.4021  0.5227
  598TMC3     C 8865   1.515   0.712  15.721  0.1580 -0.1606  0.8743
  598TMC3     O 8866   1.630   0.707  15.766 -0.0560 -0.4935  0.3529
  598TMC3     H 8867   1.274   0.610  15.656 -0.5764 -0.1664 -1.1315
  598TMC3    H1 8868   1.689   0.627  15.566 -0.0876  0.9797  0.8277
  598TMC3    H2 8869   1.424   0.350  15.352 -3.5625  0.1026  0.9112
  598TMC3    C7 8870   1.645   0.473  15.333 -0.6227 -0.5252 -0.8410
  598TMC3    C8 8871   1.210   0.431  15.475  0.2433 -0.3391  0.2401
  598TMC3    O1 8872   1.645   0.355  15.289 -0.7329 -0.0365  0.1541
  598TMC3    O2 8873   1.120   0.452  15.559 -0.2704 -0.1694  0.0535
  599MPD2     C 8874   1.230   3.116  15.897  0.2752  0.1237 -0.1179
  599MPD2    C1 8875   1.209   2.986  15.934 -0.2191 -0.1348 -0.1717
  599MPD2    C2 8876   1.094   2.957  16.009  0.6916 -0.0386  0.3127
  599MPD2    C3 8877   1.009   3.058  16.047 -0.4415 -0.7327  0.2199
  599MPD2    C4 8878   1.032   3.188  16.016 -0.4001 -0.2746  0.0056
  599MPD2    C5 8879   1.142   3.223  15.932 -0.4840  0.0684  0.4937
  599MPD2     H 8880   1.076   2.857  16.047 -0.2787 -0.4306 -1.1611
  599MPD2    H1 8881   0.962   3.270  16.029  1.9672  1.8233 -0.3415
  599MPD2    H2 8882   1.323   3.141  15.847  1.6209 -1.9079  1.3565
  599MPD2    H3 8883   1.164   3.326  15.906  0.4086 -0.5575 -1.2299
  599MPD2     N 8884   0.896   3.035  16.129  0.8254  0.2500 -0.3436
  599MPD2    H5 8885   0.849   3.121  16.155 -0.6679 -0.2238 -1.4191
  599MPD2    N1 8886   1.303   2.892  15.896 -0.6933 -0.0028  0.0397
  599MPD2    H7 8887   1.382   2.941  15.855 -1.3693  1.9739  1.1173
  600TMC3    C1 8888   0.736   2.926  16.285 -1.1013  0.0809  0.8101
  600TMC3    C2 8889   0.677   2.811  16.336 -0.2433 -0.2177 -0.6509
  600TMC3    C3 8890   0.629   2.803  16.465 -0.4905 -0.0444 -0.1493
  600TMC3    C4 8891   0.754   3.032  16.372  0.8623 -0.1703 -0.9149
  600TMC3    C5 8892   0.703   3.030  16.494  0.4274  0.2919  0.3504
  600TMC3    C6 8893   0.642   2.912  16.545  0.3232  0.8148  0.0541
  600TMC3     C 8894   0.845   2.917  16.182  0.5152 -0.6219  0.9432
  600TMC3     O 8895   0.903   2.810  16.181  0.0838 -0.1426 -0.2543
  600TMC3     H 8896   0.697   2.719  16.281  3.3063 -0.4992  1.1219
  600TMC3    H1 8897   0.833   3.104  16.349  0.7881  0.4972  0.8983
  600TMC3    H2 8898   0.600   2.924  16.644  0.2139  1.1441 -0.0334
  600TMC3    C7 8899   0.709   3.142  16.585 -0.5754  0.2176  0.0379
  600TMC3    C8 8900   0.567   2.676  16.517  0.3280  0.1120 -0.3086
  600TMC3    O1 8901   0.610   3.166  16.653  0.0730  0.3566 -0.0419
  600TMC3    O2 8902   0.568   2.653  16.635 -0.4224 -0.3491  0.4482
  601MPD2     C 8903   3.622   1.242   0.219  0.6761  0.3923 -0.0214
  601MPD2    C1 8904   3.572   1.191   0.102 -0.4847  0.4936 -0.2671
  601MPD2    C2 8905   3.588   1.054   0.085 -0.1838 -0.6828  0.3131
  601MPD2    C3 8906   3.668   0.976   0.175  0.6008  0.3449  0.0197
  601MPD2    C4 8907   3.721   1.045   0.283  0.0449  0.0007  0.3624
  601MPD2    C5 8908   3.691   1.170   0.307  0.4050  0.2131 -0.4600
  601MPD2     H 8909   3.539   1.013  17.699  0.5011  0.1851 -0.4885
  601MPD2    H1 8910   3.773   0.991   0.361  1.3320  0.5875 -0.0724
  601MPD2    H2 8911   3.629   1.347   0.245 -1.2499  0.6694 -0.5971
  601MPD2    H3 8912   3.736   1.222   0.391 -2.0079 -0.0065  0.9642
  601MPD2     N 8913   3.689   0.838   0.166 -0.2784 -0.6940 -0.3760
  601MPD2    H5 8914   3.746   0.798   0.240 -0.7914  2.5005  1.7521
  601MPD2    N1 8915   3.477   1.260   0.020 -0.5521 -0.2758 -0.4071
  601MPD2    H7 8916   3.445   1.217  17.635 -2.2197  1.1046 -0.4853
  602TMC3    C1 8917   3.365   1.421  17.611  0.5052 -0.1518 -0.2969
  602TMC3    C2 8918   3.386   1.541  17.551 -0.3766  1.0853 -0.3430
  602TMC3    C3 8919   3.315   1.571  17.440  0.3410 -0.0060  0.1726
  602TMC3    C4 8920   3.263   1.340  17.578  0.0019  0.4483 -0.2252
  602TMC3    C5 8921   3.176   1.381  17.485  0.4135 -0.9464  1.1229
  602TMC3    C6 8922   3.205   1.491  17.404  0.7415 -0.3265 -0.0688
  602TMC3     C 8923   3.439   1.389   0.025  0.2735 -0.1062  0.1586
  602TMC3     O 8924   3.473   1.483   0.096  0.0907 -0.0253  0.2085
  602TMC3     H 8925   3.462   1.610  17.583 -1.4016  1.7825  0.5832
  602TMC3    H1 8926   3.240   1.255  17.641  4.3031  0.4591  1.3947
  602TMC3    H2 8927   3.152   1.507  17.311 -1.7955  0.3833  1.5109
  602TMC3    C7 8928   3.050   1.311  17.476  0.1394 -0.0231  0.3840
  602TMC3    C8 8929   3.293   1.716  17.432  0.8608  0.4157 -0.2148
  602TMC3    O1 8930   3.035   1.195  17.517  0.2457  0.4005  0.6407
  602TMC3    O2 8931   3.358   1.800  17.493  0.3414 -0.1075 -0.1123
  603TMC3    C1 8932   1.377   0.970  10.800  0.1636  0.3841  0.2280
  603TMC3    C2 8933   1.358   1.004  10.931  0.4388 -0.1247 -0.0018
  603TMC3    C3 8934   1.393   1.125  10.975  0.6654 -0.0343 -0.4448
  603TMC3    C4 8935   1.413   1.065  10.715 -0.4391 -0.2160  0.6658
  603TMC3    C5 8936   1.441   1.185  10.762  0.8821  0.2299 -0.7238
  603TMC3    C6 8937   1.414   1.230  10.892  0.0140  0.4236  0.0158
  603TMC3     C 8938   1.372   0.827  10.755 -0.0702 -0.0243 -0.1535
  603TMC3     O 8939   1.351   0.804  10.638  0.1396  0.0141 -0.6446
  603TMC3     H 8940   1.344   0.925  11.004 -0.7909  2.3507  2.4566
  603TMC3    H1 8941   1.443   1.028  10.618  0.2767  1.8590  0.0923
  603TMC3    H2 8942   1.470   1.316  10.924  1.1765 -0.1346 -0.5152
  603TMC3    C7 8943   1.485   1.277  10.668  0.1885  0.1492  0.4181
  603TMC3    C8 8944   1.383   1.153  11.118  0.2552 -0.3529  0.8482
  603TMC3    O1 8945   1.580   1.347  10.701 -0.6296 -0.0091  0.3489
  603TMC3    O2 8946   1.404   1.055  11.192 -0.1712 -0.4300  0.3143
  604MPD2     C 8947   1.939   4.466  16.610 -0.4697 -0.6968 -0.9156
  604MPD2    C1 8948   1.907   4.541  16.497 -0.3522 -0.0325  0.1209
  604MPD2    C2 8949   1.904   4.478  16.369 -0.0086  0.3837  0.3154
  604MPD2    C3 8950   1.933   4.343  16.355 -0.0254 -0.3393  0.1029
  604MPD2    C4 8951   1.963   4.264  16.471 -0.4441 -0.7864 -0.0638
  604MPD2    C5 8952   1.965   4.330  16.593  0.3867 -0.2644  0.5387
  604MPD2     H 8953   1.887   4.541  16.283  1.7180  1.4763  0.7637
  604MPD2    H1 8954   1.994   4.161  16.459 -1.1808 -1.0771  0.5123
  604MPD2    H2 8955   1.944   4.516  16.706  3.5305 -0.8645 -1.0196
  604MPD2    H3 8956   1.979   4.273  16.684 -2.2545  0.2343  1.2664
  604MPD2     N 8957   1.949   4.289  16.220  0.0407 -0.2216 -0.3842
  604MPD2    H5 8958   1.952   4.354  16.142 -0.0787 -1.1285 -1.1350
  604MPD2    N1 8959   1.883   4.683  16.521  0.1186  0.1634 -0.4393
  604MPD2    H7 8960   1.910   4.720  16.611  0.0122  0.0045 -0.3419
  605TMC3    C1 8961   1.853   0.192  16.465 -0.1216 -0.7788 -0.1361
  605TMC3    C2 8962   1.898   0.234  16.585  0.2150 -0.1190 -0.1629
  605TMC3    C3 8963   1.925   0.369  16.600  0.2495 -0.2555  0.3623
  605TMC3    C4 8964   1.829   0.274  16.360 -0.4314  0.3327 -0.2847
  605TMC3    C5 8965   1.849   0.409  16.384 -0.1653  0.1935 -0.0989
  605TMC3    C6 8966   1.907   0.458  16.501  0.2432 -0.2396 -0.3284
  605TMC3     C 8967   1.843   0.045  16.427  0.0994 -0.1893 -0.2014
  605TMC3     O 8968   1.770   0.019  16.332  0.0978  0.3344 -0.0285
  605TMC3     H 8969   1.904   0.164  16.668  2.9127 -0.0035 -0.2573
  605TMC3    H1 8970   1.797   0.233  16.265 -1.5749 -0.1193  0.3078
  605TMC3    H2 8971   1.918   0.565  16.517 -2.3773  0.1857 -1.2391
  605TMC3    C7 8972   1.739   0.490  16.332 -0.3497 -0.7458 -0.0448
  605TMC3    C8 8973   2.019   0.404  16.708  0.2314 -0.7939 -0.1812
  605TMC3    O1 8974   1.715   0.466  16.216  0.1380  0.2547 -0.4894
  605TMC3    O2 8975   2.044   0.305  16.769  0.8109 -0.4693  0.5765
  606TMC3    C1 8976   3.388   3.458  16.742  0.5742 -0.4774 -0.2215
  606TMC3    C2 8977   3.450   3.544  16.830 -0.4098  0.2671 -0.7255
  606TMC3    C3 8978   3.495   3.498  16.952  0.4245 -0.7446  0.8374
  606TMC3    C4 8979   3.349   3.331  16.778  0.3629  0.0898  0.4589
  606TMC3    C5 8980   3.404   3.287  16.893 -0.0338  0.2146 -0.4931
  606TMC3    C6 8981   3.470   3.367  16.982  0.2355 -0.1079 -0.0503
  606TMC3     C 8982   3.352   3.514  16.623  0.7582 -0.1895 -0.2476
  606TMC3     O 8983   3.336   3.636  16.626 -0.5656  0.3338 -0.2770
  606TMC3     H 8984   3.477   3.639  16.787  0.1293  0.6977  0.5874
  606TMC3    H1 8985   3.303   3.260  16.710  2.8823 -0.0634 -1.1020
  606TMC3    H2 8986   3.499   3.332  17.080 -0.5487  1.3662  0.7000
  606TMC3    C7 8987   3.370   3.153  16.928 -0.5602  0.7495 -0.6385
  606TMC3    C8 8988   3.604   3.570  17.015 -0.4401 -0.0518 -0.4884
  606TMC3    O1 8989   3.381   3.070  16.835  0.2922  0.0099 -0.5796
  606TMC3    O2 8990   3.629   3.684  16.977  1.0035 -0.9795 -0.6893
  607MPD2     C 8991   0.398   1.395  11.676  0.1186 -0.0939 -0.3935
  607MPD2    C1 8992   0.452   1.469  11.776 -0.6527 -0.2534  0.2941
  607MPD2    C2 8993   0.425   1.444  11.908 -0.8234  0.1357  0.2097
  607MPD2    C3 8994   0.358   1.331  11.946 -1.1184 -0.6651 -0.5391
  607MPD2    C4 8995   0.300   1.252  11.851  0.5177 -0.2417  0.9768
  607MPD2    C5 8996   0.318   1.288  11.719 -0.0373 -0.3547 -0.4942
  607MPD2     H 8997   0.469   1.515  11.979 -1.0919  1.9968 -1.4790
  607MPD2    H1 8998   0.257   1.158  11.882  0.7753 -0.2913  1.1896
  607MPD2    H2 8999   0.407   1.413  11.569  0.7796  1.7952 -0.0133
  607MPD2    H3 9000   0.283   1.220  11.641  2.9608 -0.7955 -1.4525
  607MPD2     N 9001   0.343   1.316  12.086  0.3367  0.2453 -0.6017
  607MPD2    H5 9002   0.390   1.384  12.145 -1.8219  3.1080 -2.2055
  607MPD2    N1 9003   0.541   1.571  11.745  0.5572 -0.0302  0.2984
  607MPD2    H7 9004   0.573   1.613  11.832  0.6716 -0.5052  0.4817
  608TMC3    C1 9005   0.701   1.703  11.662  0.0606  0.6272 -0.1511
  608TMC3    C2 9006   0.721   1.751  11.792  0.6129  0.5609  0.0082
  608TMC3    C3 9007   0.849   1.795  11.814  0.4704 -0.0414 -0.4209
  608TMC3    C4 9008   0.796   1.700  11.562 -0.1573  0.3981  0.0544
  608TMC3    C5 9009   0.910   1.770  11.587  0.4668  0.4791  0.3456
  608TMC3    C6 9010   0.943   1.823  11.714  0.0526 -0.9196  0.0439
  608TMC3     C 9011   0.591   1.618  11.626  0.9574  0.1307 -0.7540
  608TMC3     O 9012   0.554   1.586  11.516  0.8691 -0.0249  0.0948
  608TMC3     H 9013   0.647   1.761  11.870 -0.6874 -3.3281 -0.7553
  608TMC3    H1 9014   0.772   1.680  11.458  0.8320 -1.0683  0.0992
  608TMC3    H2 9015   1.038   1.872  11.731 -0.0015 -0.3365 -1.3042
  608TMC3    C7 9016   1.013   1.780  11.486 -0.2327 -0.3809 -0.6720
  608TMC3    C8 9017   0.891   1.815  11.954 -0.7318  0.3127 -0.9057
  608TMC3    O1 9018   1.008   1.696  11.391 -0.2605  0.3101  0.3456
  608TMC3    O2 9019   0.951   1.920  11.979  0.7751  0.2490  0.2807
  609TMC3    C1 9020   4.450   0.305   9.257 -0.1458 -0.5294  0.8425
  609TMC3    C2 9021   4.433   0.372   9.140  0.9635  0.4439  0.0173
  609TMC3    C3 9022   4.513   0.330   9.034  0.1522  0.5540  0.0731
  609TMC3    C4 9023   4.520   0.187   9.262  0.1533  0.4498 -0.5777
  609TMC3    C5 9024   4.562   0.135   9.147 -0.7445 -0.6401 -0.1146
  609TMC3    C6 9025   4.569   0.204   9.036 -0.8069  0.5566  0.4385
  609TMC3     C 9026   4.366   0.324   9.377  0.1812  0.2477  0.0387
  609TMC3     O 9027   4.326   0.221   9.428 -0.4618  0.1751  0.5808
  609TMC3     H 9028   4.361   0.453   9.139  0.7106  0.2216  0.3494
  609TMC3    H1 9029   4.529   0.142   9.360  0.6003 -0.6047 -1.1110
  609TMC3    H2 9030   4.616   0.159   8.950 -2.0234  0.6765 -0.2963
  609TMC3    C7 9031   4.619   4.724   9.155  0.1572 -0.0232 -0.4398
  609TMC3    C8 9032   4.540   0.416   8.917  0.4012 -0.2880  0.6381
  609TMC3    O1 9033   4.691   4.700   9.256 -0.3260 -0.4059  0.2178
  609TMC3    O2 9034   4.576   0.355   8.818 -0.1045  0.1733 -0.3169
  610TMC3    C1 9035   0.808   1.366  12.756 -0.2476  0.0990  0.0113
  610TMC3    C2 9036   0.871   1.414  12.646  0.5486 -0.5711  0.1103
  610TMC3    C3 9037   0.982   1.358  12.603  0.0204 -0.5044 -0.2413
  610TMC3    C4 9038   0.871   1.271  12.840 -0.1735  1.2335 -0.2610
  610TMC3    C5 9039   0.998   1.240  12.795  0.3381 -0.1374  0.2541
  610TMC3    C6 9040   1.053   1.269  12.676  0.1605  0.4158  0.4801
  610TMC3     C 9041   0.699   1.442  12.802  0.3225 -0.3122 -0.4548
  610TMC3     O 9042   0.641   1.502  12.712  0.1718  0.5017 -0.2118
  610TMC3     H 9043   0.822   1.488  12.584  0.2811 -1.8332 -1.1887
  610TMC3    H1 9044   0.817   1.226  12.922  0.4041  0.6441 -0.1997
  610TMC3    H2 9045   1.151   1.233  12.647 -0.2209 -0.8531  0.7937
  610TMC3    C7 9046   1.069   1.147  12.874 -0.0858  0.0949 -0.9670
  610TMC3    C8 9047   1.039   1.412  12.482  0.1599 -0.3673 -0.4488
  610TMC3    O1 9048   1.178   1.111  12.830 -0.6552 -0.0952  0.4825
  610TMC3    O2 9049   0.965   1.462  12.401 -0.1280  0.0590  0.3264
  611MPD2     C 9050   0.651   0.769  10.273  0.3963 -0.6420  0.5304
  611MPD2    C1 9051   0.567   0.880  10.254  0.0854  0.0741  0.1629
  611MPD2    C2 9052   0.620   0.995  10.190 -0.7683 -0.3249  0.5632
  611MPD2    C3 9053   0.750   0.997  10.147  0.3716  0.1929  0.2710
  611MPD2    C4 9054   0.834   0.893  10.174 -0.1294  0.0492  0.4788
  611MPD2    C5 9055   0.785   0.782  10.238  0.1978 -0.0410  0.1872
  611MPD2     H 9056   0.565   1.088  10.175 -0.9434 -0.3086  1.3014
  611MPD2    H1 9057   0.935   0.889  10.136 -0.2425  1.2505  0.0581
  611MPD2    H2 9058   0.612   0.679  10.318  0.3854 -0.2332  1.3423
  611MPD2    H3 9059   0.844   0.693  10.253  2.7198  1.4972 -0.6181
  611MPD2     N 9060   0.821   1.100  10.078 -0.1534 -0.0369  0.2989
  611MPD2    H5 9061   0.914   1.076  10.045 -0.8245 -0.9741 -0.9138
  611MPD2    N1 9062   0.447   0.879  10.332 -0.1221  0.5299  0.5990
  611MPD2    H7 9063   0.429   0.804  10.399 -0.5247  0.3523  0.2861
  612TMC3    C1 9064   0.855   1.310   9.970  0.3061 -0.3836 -0.0896
  612TMC3    C2 9065   0.984   1.329  10.011 -0.1028 -0.3922 -0.4322
  612TMC3    C3 9066   1.046   1.450   9.971 -0.7706 -0.5749 -0.4531
  612TMC3    C4 9067   0.791   1.404   9.890 -0.3047 -0.4615  0.4036
  612TMC3    C5 9068   0.864   1.515   9.853 -0.3088  0.2504  0.2265
  612TMC3    C6 9069   0.987   1.540   9.890  0.0147  0.4088 -0.3818
  612TMC3     C 9070   0.759   1.217  10.031  0.4020 -0.1261  0.2002
  612TMC3     O 9071   0.657   1.267  10.068 -0.1386  0.6174  0.4293
  612TMC3     H 9072   1.030   1.262  10.083  0.7712  0.3436 -0.3023
  612TMC3    H1 9073   0.691   1.392   9.852 -0.7854  0.1710  1.4825
  612TMC3    H2 9074   1.040   1.628   9.855  0.1220  1.0873  1.5182
  612TMC3    C7 9075   0.783   1.616   9.783  1.1335 -0.1663 -0.2146
  612TMC3    C8 9076   1.179   1.468  10.023  0.1567  0.1624 -0.3550
  612TMC3    O1 9077   0.662   1.609   9.800  0.4223 -0.1722  0.1335
  612TMC3    O2 9078   1.256   1.532   9.953  0.1900 -0.0358 -0.1131
  613MPD2     C 9079   4.646   4.211  16.695 -0.3872  0.2537  0.2262
  613MPD2    C1 9080   4.652   4.075  16.678 -0.0890 -0.2385  0.4339
  613MPD2    C2 9081   4.670   3.996  16.788 -0.7219 -0.5147  1.2966
  613MPD2    C3 9082   4.671   4.045  16.918  0.3134  0.0386  0.0162
  613MPD2    C4 9083   4.663   4.179  16.934 -0.0966  0.1466  0.2268
  613MPD2    C5 9084   4.644   4.259  16.821  0.3659  0.1316  0.3647
  613MPD2     H 9085   4.687   3.892  16.767 -0.5864 -0.1949 -0.1569
  613MPD2    H1 9086   4.673   4.231  17.029 -1.2096 -0.7583  0.8363
  613MPD2    H2 9087   4.645   4.279  16.611 -1.7626 -0.8834 -0.6658
  613MPD2    H3 9088   4.625   4.365  16.834 -0.2728  0.4213 -2.9973
  613MPD2     N 9089   4.694   3.961  17.035  0.1831 -0.1831 -0.3543
  613MPD2    H5 9090   0.001   4.012  17.117  2.5439  0.4707 -1.6815
  613MPD2    N1 9091   4.624   4.029  16.549  0.0428  0.6249  0.2609
  613MPD2    H7 9092   4.620   4.091  16.469 -0.3933  0.5780  0.2482
  614TMC3    C1 9093   4.552   3.886  16.373  0.7458  0.7430 -0.2717
  614TMC3    C2 9094   4.568   3.757  16.341 -0.1860 -0.4180 -0.0094
  614TMC3    C3 9095   4.467   3.701  16.276  0.4095  0.6741  0.7124
  614TMC3    C4 9096   4.447   3.960  16.338  1.0352  0.3599  0.3747
  614TMC3    C5 9097   4.354   3.908  16.257  0.0033  0.2441 -0.3058
  614TMC3    C6 9098   4.361   3.767  16.235  0.7569  0.1530 -0.0388
  614TMC3     C 9099   4.596   3.896  16.515  0.4965  0.1765  0.5181
  614TMC3     O 9100   4.604   3.785  16.571 -0.1997  0.6052  0.1204
  614TMC3     H 9101   4.659   3.700  16.362  0.0457  1.0810  3.0487
  614TMC3    H1 9102   4.438   4.059  16.380 -1.3161  0.2034  0.2041
  614TMC3    H2 9103   4.278   3.726  16.180  0.8494  1.0260 -0.8348
  614TMC3    C7 9104   4.251   3.987  16.218 -0.1869  0.3937  0.1616
  614TMC3    C8 9105   4.439   3.574  16.334  0.4553  0.1845 -0.0470
  614TMC3    O1 9106   4.231   4.092  16.277  0.2378 -0.0608  0.2104
  614TMC3    O2 9107   4.341   3.520  16.287  0.5477  0.4707  0.3459
  615MPD2     C 9108   3.779   0.067  15.997  0.5612  0.3857  0.3552
  615MPD2    C1 9109   3.672   0.155  16.001  1.0063  0.1317 -0.1730
  615MPD2    C2 9110   3.567   0.139  15.910 -0.5467 -0.4442  0.2733
  615MPD2    C3 9111   3.573   0.039  15.816 -0.4624 -0.0153 -0.4061
  615MPD2    C4 9112   3.676   4.678  15.817  0.3543  0.2630 -0.1646
  615MPD2    C5 9113   3.778   4.684  15.912  0.1112 -0.4866 -0.0635
  615MPD2     H 9114   3.491   0.215  15.924  0.4799  0.4029  1.2805
  615MPD2    H1 9115   3.676   4.603  15.738 -0.2273 -1.0433  1.0878
  615MPD2    H2 9116   3.857   0.076  16.072  0.4024 -0.8160  0.6596
  615MPD2    H3 9117   3.852   4.605  15.917  1.0170  0.3009 -1.1632
  615MPD2     N 9118   3.482   0.033  15.708  0.2475 -0.1733 -0.2342
  615MPD2    H5 9119   3.516   4.714  15.623  3.1706  2.7090 -0.5626
  615MPD2    N1 9120   3.680   0.272  16.081  0.0809 -0.0620 -0.3546
  615MPD2    H7 9121   3.600   0.332  16.098  0.2526 -0.0546  0.4141
  616TMC3    C1 9122   3.757   0.462  16.189  0.1971  0.4652  0.3243
  616TMC3    C2 9123   3.842   0.573  16.180 -0.6838 -0.5292  0.5092
  616TMC3    C3 9124   3.807   0.679  16.264  0.3285  0.0441  0.0419
  616TMC3    C4 9125   3.644   0.453  16.267  0.1809  0.4406  0.2894
  616TMC3    C5 9126   3.626   0.560  16.349 -0.3238  0.6972  1.1803
  616TMC3    C6 9127   3.701   0.677  16.344 -0.3323  0.4916 -0.1516
  616TMC3     C 9128   3.795   0.347  16.117  0.4232 -0.7178  0.1663
  616TMC3     O 9129   3.913   0.321  16.086  0.2835  0.0482 -0.0769
  616TMC3     H 9130   3.930   0.562  16.117 -1.4591  0.3578 -0.7249
  616TMC3    H1 9131   3.583   0.365  16.285 -0.5560  0.9706  0.3829
  616TMC3    H2 9132   3.672   0.763  16.403  0.1100  1.1120 -0.8311
  616TMC3    C7 9133   3.501   0.581  16.420 -0.8401  0.0918  0.4423
  616TMC3    C8 9134   3.886   0.800  16.267 -0.2854 -0.2721 -0.1154
  616TMC3    O1 9135   3.469   0.695  16.433 -0.1868 -0.5122  0.2772
  616TMC3    O2 9136   3.829   0.901  16.305  0.1980 -0.4831  0.5224
  617MPD2     C 9137   1.217   3.279  14.036  0.3194  0.2171 -0.2343
  617MPD2    C1 9138   1.332   3.209  14.060  0.3147 -0.0059 -0.0105
  617MPD2    C2 9139   1.312   3.088  14.128  0.1377  0.3226 -0.0388
  617MPD2    C3 9140   1.188   3.051  14.186  0.0312  0.0131 -0.2019
  617MPD2    C4 9141   1.076   3.121  14.159  0.8865  0.0180  0.5644
  617MPD2    C5 9142   1.090   3.235  14.082 -0.7754  0.2291 -0.5916
  617MPD2     H 9143   1.402   3.030  14.144 -0.8187 -1.0985  0.2201
  617MPD2    H1 9144   0.973   3.092  14.174  0.8881 -1.4141 -2.0161
  617MPD2    H2 9145   1.218   3.377  13.991  1.0684 -0.2608 -1.2668
  617MPD2    H3 9146   1.001   3.292  14.060  0.1539  0.4393 -3.8327
  617MPD2     N 9147   1.167   2.930  14.245  0.0212 -0.1772 -0.1445
  617MPD2    H5 9148   1.070   2.900  14.255  0.6009 -1.7618  0.8205
  617MPD2    N1 9149   1.457   3.257  14.016  0.7326 -0.0137  0.3851
  617MPD2    H7 9150   1.466   3.336  13.952 -0.6365 -0.9061 -0.8983
  618TMC3    C1 9151   1.685   3.224  13.975  0.1429 -0.4278  0.1339
  618TMC3    C2 9152   1.810   3.192  14.034 -0.2369 -0.3856 -0.2585
  618TMC3    C3 9153   1.902   3.115  13.972  0.3576 -1.0392  0.3374
  618TMC3    C4 9154   1.667   3.193  13.844  0.1022 -0.7583  0.1162
  618TMC3    C5 9155   1.771   3.119  13.779 -0.1315 -0.0680  0.9044
  618TMC3    C6 9156   1.887   3.078  13.838  0.3410 -0.1984 -0.3066
  618TMC3     C 9157   1.574   3.204  14.064  0.1595  0.2663  0.1682
  618TMC3     O 9158   1.599   3.141  14.168 -0.2494 -0.5563  0.0857
  618TMC3     H 9159   1.820   3.215  14.140 -0.4536 -3.2998  0.3980
  618TMC3    H1 9160   1.576   3.213  13.787  0.2927 -0.2219  0.0001
  618TMC3    H2 9161   1.947   3.002  13.789  1.8603  1.0647 -0.4073
  618TMC3    C7 9162   1.760   3.120  13.641  0.2387 -0.1694  0.3563
  618TMC3    C8 9163   1.976   3.026  14.059  0.5870 -0.0972  0.1868
  618TMC3    O1 9164   1.648   3.143  13.599  0.0696 -0.5069  0.1390
  618TMC3    O2 9165   1.959   3.031  14.182  0.5241 -0.3394 -0.1190
  619MPD2     C 9166   2.631   4.291  13.841 -0.7465 -0.1527  1.0889
  619MPD2    C1 9167   2.615   4.343  13.715 -0.4898  0.0603  0.0399
  619MPD2    C2 9168   2.495   4.415  13.688  0.1489 -0.4919  0.5784
  619MPD2    C3 9169   2.398   4.427  13.788  0.4260 -0.0880 -0.4678
  619MPD2    C4 9170   2.410   4.371  13.908  0.4969  0.0856 -0.4680
  619MPD2    C5 9171   2.524   4.304  13.930 -0.0643 -0.0798 -0.2195
  619MPD2     H 9172   2.473   4.447  13.587 -1.3288  0.5866  1.2486
  619MPD2    H1 9173   2.330   4.373  13.982 -0.3443  1.2505 -1.4079
  619MPD2    H2 9174   2.722   4.241  13.871  1.0547  2.3584 -0.2097
  619MPD2    H3 9175   2.540   4.263  14.028  1.2411 -1.6826 -1.1084
  619MPD2     N 9176   2.261   4.466  13.764 -0.8206  0.0613 -0.6771
  619MPD2    H5 9177   2.194   4.448  13.838 -1.4605 -1.3424 -1.5863
  619MPD2    N1 9178   2.696   4.316  13.603  0.5531 -1.1422  0.4491
  619MPD2    H7 9179   2.662   4.361  13.519 -0.7289 -2.6037  0.1829
  620TMC3    C1 9180   2.883   4.261  13.460  0.4630 -0.4687  0.2638
  620TMC3    C2 9181   2.843   4.368  13.380 -0.3107  0.7998  0.2662
  620TMC3    C3 9182   2.948   4.430  13.304 -0.0276 -0.6670  0.4921
  620TMC3    C4 9183   3.015   4.215  13.457  0.1590 -0.2353 -0.1242
  620TMC3    C5 9184   3.104   4.279  13.380  0.7153  0.0578 -0.5523
  620TMC3    C6 9185   3.074   4.387  13.302 -0.4824  0.3559  0.2415
  620TMC3     C 9186   2.816   4.249  13.590 -0.0043  0.3682 -0.2891
  620TMC3     O 9187   2.881   4.186  13.674  0.3295  0.3405 -0.7612
  620TMC3     H 9188   2.741   4.404  13.371 -0.1063  0.6985 -2.4370
  620TMC3    H1 9189   3.038   4.125  13.513  0.8838 -0.1177 -0.2283
  620TMC3    H2 9190   3.147   4.428  13.234 -0.6923  1.6136  0.7790
  620TMC3    C7 9191   3.240   4.237  13.370  0.6655  0.3089 -0.0041
  620TMC3    C8 9192   2.931   4.550  13.221  0.9674  0.2316 -0.3957
  620TMC3    O1 9193   3.291   4.217  13.261 -0.4035  0.0850  0.2940
  620TMC3    O2 9194   3.004   4.563  13.126  0.6002 -0.0961  0.0622
  621MPD2     C 9195   3.712   3.710  10.394  0.5533  0.3382 -0.5948
  621MPD2    C1 9196   3.746   3.687  10.261 -0.5112 -0.0878  0.5035
  621MPD2    C2 9197   3.796   3.794  10.194 -0.0774  0.1460 -0.4989
  621MPD2    C3 9198   3.813   3.916  10.244 -0.2242  0.4566  0.2707
  621MPD2    C4 9199   3.761   3.938  10.375  0.0631 -0.1200 -0.5873
  621MPD2    C5 9200   3.717   3.834  10.447 -0.0780  0.2991 -0.9508
  621MPD2     H 9201   3.845   3.775  10.099 -1.7734  1.4286 -1.6335
  621MPD2    H1 9202   3.779   4.033  10.425 -1.7052  0.6741 -1.4652
  621MPD2    H2 9203   3.663   3.639  10.459 -0.4829  2.2339  0.6974
  621MPD2    H3 9204   3.680   3.857  10.546 -1.5263 -0.8335 -1.2344
  621MPD2     N 9205   3.876   4.018  10.170 -0.2198 -0.9111  0.3684
  621MPD2    H5 9206   3.916   3.989  10.081  0.0144  1.8199 -0.4015
  621MPD2    N1 9207   3.730   3.562  10.190  0.3312 -0.8944 -0.5603
  621MPD2    H7 9208   3.753   3.566  10.091  0.8781 -2.2312 -0.4941
  622TMC3    C1 9209   3.666   3.338  10.140 -0.4209 -0.0630  0.2379
  622TMC3    C2 9210   3.580   3.244  10.170 -0.6847 -0.2989  0.0378
  622TMC3    C3 9211   3.555   3.146  10.077 -0.1443  0.1217  0.8104
  622TMC3    C4 9212   3.726   3.342  10.016  0.0945 -0.5721  0.1066
  622TMC3    C5 9213   3.696   3.254   9.917  0.0107  0.0718  0.2533
  622TMC3    C6 9214   3.617   3.149   9.950 -0.0657 -0.1825 -0.3836
  622TMC3     C 9215   3.673   3.448  10.236  0.3682 -0.0609  0.3235
  622TMC3     O 9216   3.646   3.420  10.355  0.1207 -0.1100 -0.7015
  622TMC3     H 9217   3.541   3.250  10.271 -0.9241  0.2844 -0.0861
  622TMC3    H1 9218   3.794   3.423   9.997 -1.5668  1.0697  1.1451
  622TMC3    H2 9219   3.599   3.070   9.878 -0.2061 -0.0811 -0.4587
  622TMC3    C7 9220   3.741   3.267   9.778 -0.7603 -0.0210  0.3144
  622TMC3    C8 9221   3.469   3.029  10.097  0.3365  0.0766  0.4571
  622TMC3    O1 9222   3.717   3.166   9.714 -0.2500  0.4710  0.4606
  622TMC3    O2 9223   3.503   2.923  10.048  0.0264 -0.3070  0.4386
  623MPD2     C 9224   2.208   0.034  16.297  0.0475 -1.2436  1.1479
  623MPD2    C1 9225   2.228   0.154  16.358  0.5607 -0.3121 -0.1292
  623MPD2    C2 9226   2.235   0.155  16.499  0.0796 -0.7453 -0.6157
  623MPD2    C3 9227   2.228   0.042  16.575 -0.2787  0.3679 -0.1997
  623MPD2    C4 9228   2.229   4.646  16.505 -0.3410  0.6936 -0.0399
  623MPD2    C5 9229   2.220   4.644  16.367  1.0882 -0.0842  1.1153
  623MPD2     H 9230   2.241   0.246  16.558  2.6162 -0.6154 -1.0691
  623MPD2    H1 9231   2.234   4.548  16.552  1.3153 -0.6196 -2.9336
  623MPD2    H2 9232   2.199   0.024  16.189 -2.6513  0.3668  1.2172
  623MPD2    H3 9233   2.211   4.551  16.314  0.1205  0.5528  0.1543
  623MPD2     N 9234   2.248   0.060  16.719 -0.1988  0.0961  1.0266
  623MPD2    H5 9235   2.245   0.155  16.756  1.0409  1.2104 -1.7245
  623MPD2    N1 9236   2.220   0.271  16.279 -0.0678 -0.5022 -0.6185
  623MPD2    H7 9237   2.200   0.254  16.180 -0.0119 -1.2351 -0.4993
  624TMC3    C1 9238   2.534   0.014  17.059  0.1877 -0.1990 -0.7355
  624TMC3    C2 9239   2.489   0.122  17.122 -0.3078 -0.2942 -0.1990
  624TMC3    C3 9240   2.370   0.173  17.085  0.0460 -0.2296 -0.1386
  624TMC3    C4 9241   2.461   4.680  16.958  0.4251 -0.1935  0.3801
  624TMC3    C5 9242   2.333   0.001  16.929 -0.0665 -0.0782  0.1361
  624TMC3    C6 9243   2.291   0.116  16.988  1.1732 -0.5546 -0.4076
  624TMC3     C 9244   2.683   4.723  17.073  0.2867  1.2763  0.0416
  624TMC3     O 9245   2.737   0.068  17.159  0.1050  1.2809  0.4571
  624TMC3     H 9246   2.546   0.161  17.206  2.1824 -2.0896 -1.0510
  624TMC3    H1 9247   2.501   4.602  16.895 -2.8567  0.1950 -2.1698
  624TMC3    H2 9248   2.194   0.151  16.956  0.8389 -0.7710  0.3523
  624TMC3    C7 9249   2.276   4.685  16.805 -0.1761  0.9483 -0.5619
  624TMC3    C8 9250   2.323   0.304  17.128 -1.0013 -0.5551 -0.2214
  624TMC3    O1 9251   2.300   4.568  16.775 -0.4708 -0.2240 -0.0224
  624TMC3    O2 9252   2.203   0.323  17.155  0.3815 -0.0605  0.1820
  625MPD2     C 9253   2.414   1.453   0.480  0.4652 -0.4804 -0.4562
  625MPD2    C1 9254   2.544   1.504   0.491 -0.2106  0.2360 -0.2441
  625MPD2    C2 9255   2.633   1.444   0.577 -0.7012 -0.1155 -0.3744
  625MPD2    C3 9256   2.601   1.333   0.653 -0.0815 -0.4455  0.5561
  625MPD2    C4 9257   2.473   1.288   0.641  0.3180  0.7147  0.7468
  625MPD2    C5 9258   2.381   1.353   0.562  1.1602  0.9307 -0.2938
  625MPD2     H 9259   2.733   1.485   0.570 -0.7379  0.2166  1.0135
  625MPD2    H1 9260   2.426   1.207   0.696 -2.9509  2.0197 -0.0840
  625MPD2    H2 9261   2.331   1.478   0.416 -1.6277 -0.1005  2.3669
  625MPD2    H3 9262   2.284   1.307   0.551  2.7307 -2.3348 -0.6127
  625MPD2     N 9263   2.694   1.271   0.741  0.4323  0.3318 -0.4725
  625MPD2    H5 9264   2.787   1.310   0.742  0.6382 -0.1554 -0.9349
  625MPD2    N1 9265   2.597   1.613   0.420 -0.3539 -0.0247 -0.4033
  625MPD2    H7 9266   2.697   1.633   0.425 -0.1602 -1.2126  0.4484
  626TMC3    C1 9267   2.597   1.787   0.262 -1.3158  0.9760  0.3179
  626TMC3    C2 9268   2.535   1.837   0.153 -0.7367  0.2422  0.5800
  626TMC3    C3 9269   2.592   1.941   0.090  0.4121 -0.2910 -0.4859
  626TMC3    C4 9270   2.707   1.846   0.317 -0.7687  0.2463  0.3228
  626TMC3    C5 9271   2.758   1.957   0.252 -0.8300 -0.4882  0.5652
  626TMC3    C6 9272   2.715   1.997   0.129 -0.2429  0.7536  0.0401
  626TMC3     C 9273   2.520   1.685   0.341 -0.1650  0.0613  0.7268
  626TMC3     O 9274   2.398   1.699   0.319  0.0153 -0.7674  0.3541
  626TMC3     H 9275   2.454   1.776   0.114 -0.6731  0.8316 -0.4904
  626TMC3    H1 9276   2.760   1.810   0.404 -1.1654  2.2101  1.3921
  626TMC3    H2 9277   2.763   2.079   0.076 -2.7858 -0.0496 -3.4544
  626TMC3    C7 9278   2.853   2.035   0.324 -0.2785 -0.1224 -0.8524
  626TMC3    C8 9279   2.512   1.991  17.684 -0.1590 -0.3839  0.6029
  626TMC3    O1 9280   2.948   2.089   0.270 -0.1214  0.0412 -0.2755
  626TMC3    O2 9281   2.570   2.003  17.574  0.7780 -0.1492  0.3173
  627MPD2     C 9282   1.712   1.749  13.972 -0.0215 -0.2395 -0.3264
  627MPD2    C1 9283   1.698   1.776  14.107  0.0583 -0.3335 -0.0293
  627MPD2    C2 9284   1.587   1.718  14.175  0.0966 -0.0182 -0.2527
  627MPD2    C3 9285   1.507   1.620  14.111 -0.7225 -0.4949 -0.0555
  627MPD2    C4 9286   1.527   1.598  13.969 -0.2548  0.2421  0.0793
  627MPD2    C5 9287   1.628   1.662  13.908 -0.6571  0.0127  0.3285
  627MPD2     H 9288   1.568   1.737  14.280 -0.7346  0.3993 -0.4745
  627MPD2    H1 9289   1.474   1.535  13.898  1.1074 -1.4556  0.5575
  627MPD2    H2 9290   1.787   1.792  13.906 -1.6553  1.6683 -0.9490
  627MPD2    H3 9291   1.649   1.647  13.803  3.6820 -2.4603  1.5472
  627MPD2     N 9292   1.401   1.568  14.183 -0.1309 -0.6793  0.4277
  627MPD2    H5 9293   1.400   1.587  14.282  0.7225 -2.6381  0.8209
  627MPD2    N1 9294   1.787   1.851  14.186  0.2142 -0.0505  0.2231
  627MPD2    H7 9295   1.759   1.861  14.283  1.1478  0.3628  0.4495
  628TMC3    C1 9296   1.976   1.934  14.268  0.0883  0.3611 -0.8187
  628TMC3    C2 9297   2.108   1.896  14.286 -0.4235 -0.5398  0.3766
  628TMC3    C3 9298   2.162   1.888  14.414 -0.1221  0.4863 -0.4769
  628TMC3    C4 9299   1.906   1.977  14.371  0.0261  0.1184 -0.5022
  628TMC3    C5 9300   1.964   1.983  14.495 -0.4974 -0.2513 -0.7698
  628TMC3    C6 9301   2.086   1.928  14.520  0.1180 -0.4580  0.3933
  628TMC3     C 9302   1.912   1.881  14.151 -0.3545  0.4161  0.6391
  628TMC3     O 9303   1.973   1.840  14.057 -0.5317  0.8241  0.1213
  628TMC3     H 9304   2.168   1.851  14.208 -1.6462  0.5512 -1.2113
  628TMC3    H1 9305   1.808   2.019  14.350 -0.5688 -0.5313  0.9395
  628TMC3    H2 9306   2.127   1.936  14.620  0.8709 -3.0603  0.2959
  628TMC3    C7 9307   1.943   2.102  14.570 -0.1022 -0.5190 -0.1738
  628TMC3    C8 9308   2.286   1.821  14.441  0.1264 -0.6471 -1.0016
  628TMC3    O1 9309   2.042   2.131  14.635  0.2850  0.8837 -0.3241
  628TMC3    O2 9310   2.369   1.839  14.355 -0.4454 -0.5125 -0.5476
  629MPD2     C 9311   4.317   1.058  16.267 -0.4378 -0.1467 -0.2805
  629MPD2    C1 9312   4.343   0.923  16.271 -1.3383 -0.5455  0.4456
  629MPD2    C2 9313   4.241   0.826  16.259  0.0451 -0.4934  0.6600
  629MPD2    C3 9314   4.112   0.869  16.248 -0.1307 -0.0198  0.2596
  629MPD2    C4 9315   4.087   1.004  16.231  0.0241 -0.7244 -0.2214
  629MPD2    C5 9316   4.189   1.100  16.246  0.1657  0.3473 -0.9090
  629MPD2     H 9317   4.261   0.721  16.279  1.3805 -0.8982 -2.7933
  629MPD2    H1 9318   3.985   1.042  16.238 -0.2568 -1.5755  0.3273
  629MPD2    H2 9319   4.396   1.132  16.276  0.0176 -0.2786 -3.0400
  629MPD2    H3 9320   4.155   1.203  16.251  0.4318  0.4376 -0.9662
  629MPD2     N 9321   4.016   0.768  16.251  0.2471  0.0844  0.0544
  629MPD2    H5 9322   4.043   0.671  16.236  1.9619  0.4834  0.5741
  629MPD2    N1 9323   4.478   0.888  16.303 -0.4099 -0.3333  0.4397
  629MPD2    H7 9324   4.543   0.965  16.293  1.3719 -1.8433  0.3947
  630TMC3    C1 9325   4.656   0.772  16.404  0.1547  0.4628  0.3575
  630TMC3    C2 9326   0.026   0.857  16.361  0.6873 -0.0725 -0.2483
  630TMC3    C3 9327   0.153   0.847  16.415  0.3743  0.2788 -0.3959
  630TMC3    C4 9328   4.679   0.671  16.488 -0.1837 -0.0911  0.5241
  630TMC3    C5 9329   0.078   0.657  16.533 -0.3897 -0.3856  0.2850
  630TMC3    C6 9330   0.178   0.748  16.506 -0.2973 -0.4634  0.1229
  630TMC3     C 9331   4.521   0.765  16.350  0.3977  0.5019  0.4296
  630TMC3     O 9332   4.452   0.670  16.368  0.5711 -0.5333  0.2624
  630TMC3     H 9333   0.007   0.911  16.268  1.9569 -1.6003 -1.3778
  630TMC3    H1 9334   4.604   0.596  16.507  0.8865 -0.9424  1.3524
  630TMC3    H2 9335   0.275   0.738  16.553  0.5431 -1.1637 -1.7414
  630TMC3    C7 9336   0.093   0.600  16.669 -0.3864  0.9856 -0.6853
  630TMC3    C8 9337   0.248   0.954  16.400  0.2766  0.1302  0.1979
  630TMC3    O1 9338   0.147   0.666  16.758 -0.5958 -0.5144  0.0360
  630TMC3    O2 9339   0.351   0.936  16.466 -0.1795 -0.2812 -0.3480
  631MPD2     C 9340   2.736   0.747  15.365 -0.6675  0.7277 -0.2785
  631MPD2    C1 9341   2.862   0.772  15.306  0.1248  0.2291  0.2971
  631MPD2    C2 9342   2.962   0.677  15.309 -0.5265  0.5627 -0.5517
  631MPD2    C3 9343   2.934   0.561  15.377  0.0797  0.2781 -0.6246
  631MPD2    C4 9344   2.809   0.535  15.423 -0.6841  0.2545 -0.8007
  631MPD2    C5 9345   2.705   0.624  15.413 -0.3653  0.5303  0.0596
  631MPD2     H 9346   3.061   0.688  15.265 -0.3030  0.3282 -0.1049
  631MPD2    H1 9347   2.779   0.441  15.466  0.2228 -0.1419 -1.0293
  631MPD2    H2 9348   2.657   0.821  15.361 -2.9062 -1.8127 -3.2708
  631MPD2    H3 9349   2.609   0.607  15.461 -0.6079  1.1765 -0.1967
  631MPD2     N 9350   3.038   0.465  15.395 -0.5546 -0.0956  0.5311
  631MPD2    H5 9351   3.134   0.489  15.370 -0.0662 -1.5237  1.0226
  631MPD2    N1 9352   2.880   0.906  15.263  0.1017 -0.0707  0.4158
  631MPD2    H7 9353   2.810   0.974  15.289 -0.5348 -0.7276  0.4225
  632TMC3    C1 9354   2.995   1.093  15.217  0.1059  0.2403 -0.3065
  632TMC3    C2 9355   2.972   1.140  15.340 -0.0168 -1.1688 -1.0578
  632TMC3    C3 9356   2.939   1.274  15.341  0.4419 -0.4985  0.3663
  632TMC3    C4 9357   2.980   1.153  15.096 -0.1220 -1.0093  0.1413
  632TMC3    C5 9358   2.943   1.285  15.105  0.9698 -0.4051  0.7816
  632TMC3    C6 9359   2.916   1.346  15.226  0.6144 -0.6585  0.3548
  632TMC3     C 9360   2.999   0.949  15.215  0.4857 -0.0662 -0.1492
  632TMC3     O 9361   3.088   0.896  15.154 -0.9746  0.7363 -0.2212
  632TMC3     H 9362   2.987   1.074  15.424  1.8020 -3.7863 -3.4517
  632TMC3    H1 9363   2.985   1.102  15.000  0.1781 -1.2948  0.3090
  632TMC3    H2 9364   2.891   1.451  15.215  2.1172 -0.3258  0.0697
  632TMC3    C7 9365   2.915   1.365  14.986 -0.1815 -0.1376  0.3452
  632TMC3    C8 9366   2.915   1.340  15.474  0.3081 -0.4533 -0.1747
  632TMC3    O1 9367   2.831   1.448  15.002 -0.0397  0.2076 -0.9849
  632TMC3    O2 9368   2.832   1.427  15.481 -0.0586  0.5471 -0.2344
  633MPD2     C 9369   2.578   3.493   0.066  0.6700 -0.5471 -0.3909
  633MPD2    C1 9370   2.657   3.460  17.662  0.2288  0.9384 -0.5195
  633MPD2    C2 9371   2.734   3.351  17.678 -0.7559 -0.0825  0.8423
  633MPD2    C3 9372   2.730   3.265   0.086 -0.1213  1.0905 -0.3438
  633MPD2    C4 9373   2.659   3.303   0.199 -0.2391 -0.2028  0.1867
  633MPD2    C5 9374   2.595   3.426   0.186 -0.4908 -0.9124 -0.5494
  633MPD2     H 9375   2.805   3.336  17.597 -1.3821  2.1098 -0.1126
  633MPD2    H1 9376   2.657   3.243   0.289 -2.3148  1.8885  1.5464
  633MPD2    H2 9377   2.512   3.579   0.060  1.2429 -0.1780 -1.4321
  633MPD2    H3 9378   2.538   3.459   0.273  1.2448  0.9082 -0.1021
  633MPD2     N 9379   2.789   3.133   0.084  0.2324 -0.3304  0.4909
  633MPD2    H5 9380   2.761   3.069   0.158 -2.3957 -1.6659 -1.6326
  633MPD2    N1 9381   2.660   3.527  17.537 -0.0212 -0.1836 -0.3105
  633MPD2    H7 9382   2.725   3.489  17.468  1.8428  2.8001 -0.1913
  634TMC3    C1 9383   2.564   3.621  17.344  0.0295  0.0036 -0.0191
  634TMC3    C2 9384   2.627   3.524  17.268  0.1597 -0.1486 -0.2788
  634TMC3    C3 9385   2.622   3.537  17.133 -0.5126 -0.5659 -0.6782
  634TMC3    C4 9386   2.495   3.718  17.285 -0.9056  0.0459  0.0932
  634TMC3    C5 9387   2.492   3.729  17.150 -0.8434 -0.6790  0.4156
  634TMC3    C6 9388   2.551   3.636  17.074  0.7090  0.4974  0.2595
  634TMC3     C 9389   2.562   3.612  17.490 -0.4837  0.4656  0.4687
  634TMC3     O 9390   2.488   3.686  17.551 -0.1983 -0.2983  0.7840
  634TMC3     H 9391   2.671   3.439  17.319  0.1884 -1.0653 -1.8256
  634TMC3    H1 9392   2.443   3.786  17.352 -1.0235  1.1162 -1.0838
  634TMC3    H2 9393   2.542   3.647  16.966  1.8884 -0.2460  0.0855
  634TMC3    C7 9394   2.415   3.826  17.069 -0.0386 -0.1422 -0.7722
  634TMC3    C8 9395   2.630   3.408  17.054  0.3738  0.9404  0.6915
  634TMC3    O1 9396   2.399   3.803  16.948 -0.3071  0.4082 -0.4913
  634TMC3    O2 9397   2.614   3.307  17.121  0.6935 -0.7348  0.1546
  635TMC3    C1 9398   3.145   4.624  17.232  0.1860  0.3825  0.6632
  635TMC3    C2 9399   3.200   4.517  17.170  0.0895  0.9215  0.2987
  635TMC3    C3 9400   3.116   4.411  17.148  0.6477  0.0679  0.2352
  635TMC3    C4 9401   3.019   4.624  17.284 -0.5199 -0.0696  0.2136
  635TMC3    C5 9402   2.944   4.517  17.261 -0.5551  0.7199  0.0086
  635TMC3    C6 9403   2.985   4.408  17.194  0.8074 -0.3529 -0.1774
  635TMC3     C 9404   3.237   4.722  17.290  1.0385 -0.0266 -0.8269
  635TMC3     O 9405   3.200   0.061  17.384 -0.1658 -0.0544 -0.4016
  635TMC3     H 9406   3.305   4.501  17.152 -0.0059  0.3035  0.2821
  635TMC3    H1 9407   2.978   4.709  17.337  1.7596  1.0316  0.2140
  635TMC3    H2 9408   2.922   4.320  17.190  0.3595 -0.0582  0.4813
  635TMC3    C7 9409   2.840   4.497  17.358 -0.3374  0.4372  0.7422
  635TMC3    C8 9410   3.175   4.299  17.078  0.3645 -0.5134 -0.0197
  635TMC3    O1 9411   2.767   4.400  17.341 -0.5717 -0.0613 -0.1589
  635TMC3    O2 9412   3.273   4.320  17.005 -0.4241  0.2815 -0.3966
  636MPD2     C 9413   3.990   3.894  16.472 -0.2613  0.2896  0.9198
  636MPD2    C1 9414   4.049   3.989  16.558  0.8584  0.3352 -0.7367
  636MPD2    C2 9415   4.156   3.951  16.633 -0.7565 -0.5154  0.5607
  636MPD2    C3 9416   4.202   3.817  16.622  0.8371 -0.3662  0.1848
  636MPD2    C4 9417   4.143   3.723  16.542  0.7288 -0.4793  0.0707
  636MPD2    C5 9418   4.038   3.762  16.463 -0.2625 -0.2593  0.5421
  636MPD2     H 9419   4.213   4.014  16.700 -0.2239 -0.4488  0.0406
  636MPD2    H1 9420   4.186   3.624  16.540  2.6503  0.3346  1.4014
  636MPD2    H2 9421   3.915   3.909  16.395  3.0425  2.2587 -1.8733
  636MPD2    H3 9422   4.004   3.698  16.382  0.6378  1.2946 -1.0437
  636MPD2     N 9423   4.301   3.789  16.714 -0.3455  0.2591 -0.2952
  636MPD2    H5 9424   4.350   3.862  16.765  2.3814 -1.6862 -0.1499
  636MPD2    N1 9425   4.008   4.127  16.575 -0.3480 -0.6633 -0.1011
  636MPD2    H7 9426   4.062   4.176  16.645 -1.9524  1.1365 -0.1498
  637TMC3    C1 9427   4.428   3.647  16.859 -0.4156  0.3163 -0.1825
  637TMC3    C2 9428   4.516   3.748  16.887  0.0887  0.2316 -0.5530
  637TMC3    C3 9429   4.642   3.731  16.935 -0.2168 -0.2533  0.1196
  637TMC3    C4 9430   4.475   3.518  16.875 -0.3907 -0.2524  0.2375
  637TMC3    C5 9431   4.606   3.503  16.917 -1.0266 -0.0396 -0.2140
  637TMC3    C6 9432   4.684   3.603  16.956  0.5316  0.2980  0.0217
  637TMC3     C 9433   4.319   3.661  16.765  0.0427  0.2439 -0.7076
  637TMC3     O 9434   4.251   3.560  16.758  0.3863  0.1737  0.0166
  637TMC3     H 9435   4.488   3.852  16.873 -3.6013 -0.3688  2.2554
  637TMC3    H1 9436   4.413   3.433  16.848  0.4919 -1.0263  0.6632
  637TMC3    H2 9437   0.061   3.594  16.993 -0.1534  0.0276  1.8671
  637TMC3    C7 9438   4.675   3.372  16.921  0.2975 -0.3564 -0.2771
  637TMC3    C8 9439   4.696   3.820  17.040 -0.2470 -0.5007  0.8712
  637TMC3    O1 9440   0.024   3.358  17.016  0.1936  0.7438 -0.4623
  637TMC3    O2 9441   0.018   3.760  17.134  0.7618  0.2802 -0.2381
  638MPD2     C 9442   3.616   2.730  14.833 -0.2142  0.1540 -0.0173
  638MPD2    C1 9443   3.590   2.614  14.763 -0.2178 -0.0236 -0.0304
  638MPD2    C2 9444   3.539   2.503  14.831  1.2580  0.2710 -0.3186
  638MPD2    C3 9445   3.521   2.493  14.970  0.4736 -0.5514 -0.5017
  638MPD2    C4 9446   3.551   2.611  15.035 -0.0443 -0.2549 -0.0981
  638MPD2    C5 9447   3.600   2.722  14.971 -0.4003 -0.1203 -0.4890
  638MPD2     H 9448   3.537   2.409  14.777 -0.3654  0.0080  0.1951
  638MPD2    H1 9449   3.518   2.628  15.137 -1.2545  0.8021 -0.6706
  638MPD2    H2 9450   3.661   2.823  14.800  1.3723 -0.2425  1.0712
  638MPD2    H3 9451   3.608   2.818  15.020 -2.5723 -0.7562  1.1007
  638MPD2     N 9452   3.498   2.369  15.040  0.6163 -0.7235 -0.5449
  638MPD2    H5 9453   3.464   2.295  14.980  0.4494 -1.9769  1.1010
  638MPD2    N1 9454   3.628   2.612  14.629 -0.1860  0.1488 -0.3866
  638MPD2    H7 9455   3.693   2.688  14.609  0.1183 -0.5611 -2.1000
  639TMC3    C1 9456   3.503   2.207  15.203 -0.2419 -0.2845  0.4622
  639TMC3    C2 9457   3.388   2.141  15.176  0.0303 -0.8223 -0.5026
  639TMC3    C3 9458   3.379   2.011  15.203  0.2148 -0.8158  0.2213
  639TMC3    C4 9459   3.595   2.149  15.284 -0.5817 -0.0560  0.3216
  639TMC3    C5 9460   3.576   2.016  15.312 -0.2032  0.3676  0.0337
  639TMC3    C6 9461   3.469   1.942  15.276 -0.5220 -0.2006 -0.9715
  639TMC3     C 9462   3.524   2.346  15.172 -0.1077 -0.1111 -0.8837
  639TMC3     O 9463   3.609   2.410  15.239  0.2978 -0.6241 -0.0481
  639TMC3     H 9464   3.308   2.196  15.128  0.4185  1.5164  1.5109
  639TMC3    H1 9465   3.679   2.213  15.310 -0.5582  0.0799 -0.0863
  639TMC3    H2 9466   3.476   1.834  15.273 -0.1958 -0.1918 -0.4047
  639TMC3    C7 9467   3.692   1.939  15.341 -0.4184  0.3512  0.0434
  639TMC3    C8 9468   3.330   1.929  15.094 -0.7813  0.5944 -0.3507
  639TMC3    O1 9469   3.675   1.828  15.385  0.0010 -0.3264 -0.1650
  639TMC3    O2 9470   3.410   1.850  15.040  0.6883 -0.1479  0.5495
  640MPD2     C 9471   4.525   0.453  10.149  0.6555  0.1555  0.7736
  640MPD2    C1 9472   4.565   0.524  10.036  0.4152  0.4747 -0.5898
  640MPD2    C2 9473   4.494   0.635  10.001  0.4442 -0.0426  0.2969
  640MPD2    C3 9474   4.389   0.676  10.080  0.5601  0.6941  0.7064
  640MPD2    C4 9475   4.361   0.614  10.201  0.1425  0.2699  0.6348
  640MPD2    C5 9476   4.432   0.499  10.226 -0.0407  0.3804 -0.1570
  640MPD2     H 9477   4.519   0.691   9.911 -0.8969 -0.0620 -0.0773
  640MPD2    H1 9478   4.291   0.641  10.279  0.3195  3.2020 -0.2243
  640MPD2    H2 9479   4.563   0.356  10.178 -0.6761 -0.0353  1.8922
  640MPD2    H3 9480   4.409   0.441  10.315  0.9202  0.7247  0.3182
  640MPD2     N 9481   4.299   0.776  10.049  0.2133 -0.1241 -0.3082
  640MPD2    H5 9482   4.226   0.793  10.117  1.1658 -1.2006  0.9719
  640MPD2    N1 9483   4.683   0.477   9.968  0.3128  0.3488 -0.0475
  640MPD2    H7 9484   4.719   0.388  10.003 -0.3916  0.3392  0.6597
  641TMC3    C1 9485   0.142   0.482   9.818  0.1847  0.3137  0.0547
  641TMC3    C2 9486   0.150   0.349   9.840 -0.3562  0.3832 -0.3245
  641TMC3    C3 9487   0.266   0.293   9.791 -0.4063  0.4301 -0.3549
  641TMC3    C4 9488   0.243   0.561   9.768  0.2513  0.4322  0.3808
  641TMC3    C5 9489   0.348   0.496   9.706 -0.3243  0.4473  0.7232
  641TMC3    C6 9490   0.363   0.360   9.718  0.2464 -0.3786 -0.0195
  641TMC3     C 9491   0.031   0.553   9.875  0.5467  0.2206 -0.3032
  641TMC3     O 9492   0.025   0.675   9.847 -0.2673  0.3828  0.0820
  641TMC3     H 9493   0.066   0.286   9.866  0.1818  0.3334  1.2552
  641TMC3    H1 9494   0.249   0.668   9.786 -2.2499  1.3444 -4.0547
  641TMC3    H2 9495   0.448   0.310   9.672  0.4355 -0.7092  0.6901
  641TMC3    C7 9496   0.450   0.568   9.626 -0.7105 -0.2021 -0.3815
  641TMC3    C8 9497   0.272   0.149   9.779 -0.3362  0.8889  0.0319
  641TMC3    O1 9498   0.553   0.507   9.592 -0.8324  0.5145 -0.4587
  641TMC3    O2 9499   0.315   0.107   9.672 -0.1631  0.1992  0.1629
  642TMC3    C1 9500   0.211   1.994  12.257  0.3240 -0.8402 -0.1111
  642TMC3    C2 9501   0.289   1.985  12.367 -0.4952 -0.5886 -0.5361
  642TMC3    C3 9502   0.316   1.859  12.414  0.0199  0.5055  0.0203
  642TMC3    C4 9503   0.159   1.884  12.185 -0.2878 -0.6011  0.5021
  642TMC3    C5 9504   0.185   1.758  12.236 -0.2017  0.5797  0.4731
  642TMC3    C6 9505   0.257   1.746  12.356 -0.4180 -0.1827  0.5561
  642TMC3     C 9506   0.130   2.110  12.241  0.1691 -0.0600 -0.6671
  642TMC3     O 9507   0.079   2.120  12.130 -0.3592 -0.2018 -0.3691
  642TMC3     H 9508   0.335   2.071  12.413  0.1545 -0.3561 -1.6224
  642TMC3    H1 9509   0.080   1.896  12.111 -1.5748 -0.9433  1.8310
  642TMC3    H2 9510   0.281   1.647  12.392 -0.1376  0.7738  3.0115
  642TMC3    C7 9511   0.127   1.641  12.178  0.3749 -0.3614  0.2629
  642TMC3    C8 9512   0.376   1.840  12.546 -0.3266 -0.2066  0.3254
  642TMC3    O1 9513   0.137   1.637  12.057 -0.1883 -0.3683  0.4697
  642TMC3    O2 9514   0.340   1.745  12.616 -0.0647 -0.2755 -0.0273
  643TMC3    C1 9515   4.425   1.692   0.239  0.7899  0.2263 -0.4660
  643TMC3    C2 9516   4.326   1.757   0.175  0.6810  0.4805 -0.1109
  643TMC3    C3 9517   4.238   1.687   0.104 -0.6708  0.2006  0.1481
  643TMC3    C4 9518   4.433   1.554   0.229 -0.1730  0.0046  0.1920
  643TMC3    C5 9519   4.339   1.489   0.157  0.6855 -0.1883  0.5334
  643TMC3    C6 9520   4.231   1.551   0.106 -0.3019 -0.3140  0.4284
  643TMC3     C 9521   4.500   1.766   0.339 -0.1597 -0.1624  0.3064
  643TMC3     O 9522   4.485   1.890   0.336  0.5975 -0.1650 -0.1813
  643TMC3     H 9523   4.303   1.860   0.199  0.2511  0.1100  1.0986
  643TMC3    H1 9524   4.508   1.488   0.270 -0.8338 -0.7941  0.1194
  643TMC3    H2 9525   4.153   1.495   0.056 -0.2131 -0.8768  0.9270
  643TMC3    C7 9526   4.358   1.348   0.151  0.4707  0.4457 -0.0052
  643TMC3    C8 9527   4.174   1.759  17.698  0.1018 -0.0930 -0.2816
  643TMC3    O1 9528   4.383   1.291   0.261 -0.1284  0.5949 -0.4034
  643TMC3    O2 9529   4.079   1.702  17.644  0.5206  0.2955  0.7677
  644MPD2     C 9530   0.700   1.186   9.633 -0.3709 -0.0386  0.2240
  644MPD2    C1 9531   0.611   1.095   9.674 -0.3247 -0.7831  0.5470
  644MPD2    C2 9532   0.480   1.115   9.638 -0.8772 -0.4546  0.0476
  644MPD2    C3 9533   0.434   1.225   9.560 -0.2837  0.6423  0.3701
  644MPD2    C4 9534   0.526   1.322   9.530  0.1180  0.1099 -0.1751
  644MPD2    C5 9535   0.655   1.295   9.564 -0.0213 -0.1237 -0.1765
  644MPD2     H 9536   0.403   1.044   9.667  0.6586 -1.1006  2.5627
  644MPD2    H1 9537   0.500   1.409   9.470  0.3665  0.4038  0.1419
  644MPD2    H2 9538   0.806   1.168   9.646 -0.6092 -0.3686  1.6923
  644MPD2    H3 9539   0.730   1.369   9.536  0.2550 -0.7687 -1.1075
  644MPD2     N 9540   0.300   1.229   9.529 -0.0961 -0.1905  0.3936
  644MPD2    H5 9541   0.246   1.155   9.573 -0.1071 -0.5762 -0.2539
  644MPD2    N1 9542   0.653   0.987   9.754  0.0443  0.2327  0.1882
  644MPD2    H7 9543   0.751   0.979   9.780  0.0931  3.2663  0.8792
  645TMC3    C1 9544   0.106   1.277   9.418  0.0658 -0.7117 -0.5622
  645TMC3    C2 9545   0.018   1.368   9.360 -0.0125  0.1947  0.1489
  645TMC3    C3 9546   4.611   1.335   9.347 -0.0288 -1.0540  0.2903
  645TMC3    C4 9547   0.064   1.150   9.450 -0.2833  0.6370 -0.3430
  645TMC3    C5 9548   4.662   1.117   9.425 -0.2942 -0.3775 -0.0605
  645TMC3    C6 9549   4.568   1.209   9.378  0.0145 -0.0508  0.1481
  645TMC3     C 9550   0.242   1.316   9.440 -0.7093 -0.4470  0.3113
  645TMC3     O 9551   0.293   1.399   9.361 -0.5011  0.3176 -1.0087
  645TMC3     H 9552   0.060   1.464   9.333  1.7308 -0.6313 -0.1276
  645TMC3    H1 9553   0.121   1.077   9.506 -0.9413  0.3379 -0.0570
  645TMC3    H2 9554   4.480   1.163   9.336 -0.5538  1.3674 -0.2254
  645TMC3    C7 9555   4.618   0.987   9.460  0.7739  0.1951  0.4350
  645TMC3    C8 9556   4.533   1.425   9.273 -0.5206 -1.4861 -0.3239
  645TMC3    O1 9557   4.509   0.972   9.510 -0.0352 -0.4749  0.3627
  645TMC3    O2 9558   4.592   1.513   9.212  0.0247  0.2588 -0.4152
  646MPD2     C 9559   3.907   1.344  14.806 -0.6087 -0.5555  0.7937
  646MPD2    C1 9560   3.797   1.273  14.853  0.9705 -0.0622 -0.0726
  646MPD2    C2 9561   3.680   1.266  14.779  0.0920  0.3061 -0.1405
  646MPD2    C3 9562   3.664   1.345  14.663 -0.0182  0.6611 -0.0538
  646MPD2    C4 9563   3.771   1.426  14.619 -0.1447  0.5446  0.7622
  646MPD2    C5 9564   3.894   1.417  14.683 -0.8534 -0.1603 -0.1769
  646MPD2     H 9565   3.598   1.205  14.814 -2.1478  2.7781 -1.0657
  646MPD2    H1 9566   3.762   1.481  14.527 -0.8474  0.1406  0.5864
  646MPD2    H2 9567   3.999   1.342  14.863 -1.5432 -0.2578  2.2915
  646MPD2    H3 9568   3.982   1.468  14.646 -1.1249  1.1958  1.0326
  646MPD2     N 9569   3.537   1.351  14.593  0.3131 -0.3425 -0.1594
  646MPD2    H5 9570   3.458   1.299  14.630  0.6889 -0.6435  0.2385
  646MPD2    N1 9571   3.817   1.204  14.971  0.0272 -0.3762 -0.0225
  646MPD2    H7 9572   3.914   1.205  15.000  0.0403  1.0598 -0.1210
  647TMC3    C1 9573   3.777   1.097  15.180 -0.1424  0.0073 -0.3208
  647TMC3    C2 9574   3.710   0.995  15.238 -0.1644  0.0577  0.0301
  647TMC3    C3 9575   3.751   0.946  15.362  0.5789  0.1315 -0.2204
  647TMC3    C4 9576   3.886   1.156  15.233 -0.3528  0.6819 -0.3871
  647TMC3    C5 9577   3.927   1.105  15.356  0.3664  0.5926  0.1748
  647TMC3    C6 9578   3.863   1.003  15.416 -0.3371 -0.3860  0.3958
  647TMC3     C 9579   3.731   1.126  15.047 -0.0977 -0.5794 -0.0863
  647TMC3     O 9580   3.619   1.088  15.025 -0.6434  1.2166 -0.2750
  647TMC3     H 9581   3.637   0.942  15.178  1.1016 -3.2644  1.4329
  647TMC3    H1 9582   3.941   1.236  15.185  0.6648  0.7477  0.8839
  647TMC3    H2 9583   3.903   0.962  15.508 -2.1287  1.5876  2.0402
  647TMC3    C7 9584   4.072   1.111  15.387 -0.0299  0.5688 -0.6665
  647TMC3    C8 9585   3.703   0.813  15.397  0.1791 -0.5156 -0.1922
  647TMC3    O1 9586   4.115   1.009  15.432 -0.1580 -0.3552  0.4549
  647TMC3    O2 9587   3.689   0.731  15.306  0.6092 -0.3340 -0.2069
  648TMC3    C1 9588   2.896   3.380  16.336 -0.8174 -0.6115  0.4749
  648TMC3    C2 9589   2.897   3.251  16.282 -0.1743 -0.1405  0.3451
  648TMC3    C3 9590   2.804   3.227  16.188  1.2471  0.1387  0.4974
  648TMC3    C4 9591   2.804   3.476  16.288  0.0354  0.7202 -0.2076
  648TMC3    C5 9592   2.715   3.444  16.191  0.2092 -0.2549 -0.1091
  648TMC3    C6 9593   2.710   3.314  16.146 -0.2489  0.2458 -0.1904
  648TMC3     C 9594   2.956   3.418  16.454 -0.0111  0.5332 -0.1080
  648TMC3     O 9595   2.965   3.539  16.476  0.0321 -0.2970 -0.3061
  648TMC3     H 9596   2.960   3.178  16.330 -2.2901 -2.3388 -0.2060
  648TMC3    H1 9597   2.821   3.579  16.318  2.0884 -0.1440  1.6593
  648TMC3    H2 9598   2.635   3.284  16.073  1.8394 -1.2124 -1.7299
  648TMC3    C7 9599   2.665   3.548  16.101 -0.2192  0.0198 -0.1299
  648TMC3    C8 9600   2.805   3.093  16.128 -0.3953 -0.8004 -0.2655
  648TMC3    O1 9601   2.652   3.513  15.983  0.2345 -0.1986  0.8526
  648TMC3    O2 9602   2.692   3.041  16.109  0.3646  0.3761  0.0307
  649TMC3    C1 9603   0.942   4.692  12.449  0.7495  0.1847  0.7785
  649TMC3    C2 9604   0.948   4.607  12.346 -0.2428  0.5500  0.1463
  649TMC3    C3 9605   1.008   4.484  12.366  0.1378  0.1400  0.4563
  649TMC3    C4 9606   0.989   4.653  12.573  0.3320  0.1356 -0.0257
  649TMC3    C5 9607   1.049   4.534  12.586 -0.0058  0.3493 -0.1622
  649TMC3    C6 9608   1.049   4.440  12.484  0.4491 -0.0571 -0.1429
  649TMC3     C 9609   0.847   0.082  12.440  0.6451  0.0845  0.4249
  649TMC3     O 9610   0.846   0.171  12.522 -0.4145  0.1143  0.4568
  649TMC3     H 9611   0.914   4.622  12.244  1.8142  2.5497 -0.2448
  649TMC3    H1 9612   0.987   0.008  12.647 -0.3257 -0.8271  0.9848
  649TMC3    H2 9613   1.092   4.341  12.492  1.4330  0.5293  1.7042
  649TMC3    C7 9614   1.108   4.503  12.716  0.8077  0.2169  0.2921
  649TMC3    C8 9615   1.007   4.400  12.249  0.3499 -0.2565  0.2517
  649TMC3    O1 9616   1.100   4.592  12.801  0.2133  1.0016 -0.7096
  649TMC3    O2 9617   0.915   4.413  12.170  0.1730  0.3162  0.4984
  650TMC3    C1 9618   4.436   1.220  12.642 -0.4134 -0.0854  0.8636
  650TMC3    C2 9619   4.417   1.352  12.678  0.0824 -0.4081  0.4598
  650TMC3    C3 9620   4.305   1.420  12.642 -0.7682  0.0457  0.3866
  650TMC3    C4 9621   4.330   1.157  12.585 -0.0398 -0.0358 -0.1633
  650TMC3    C5 9622   4.218   1.232  12.546 -0.0447 -0.8778 -0.1043
  650TMC3    C6 9623   4.207   1.364  12.569  0.5871  0.1973 -0.1340
  650TMC3     C 9624   4.547   1.154  12.716  0.1241  0.5841 -0.5774
  650TMC3     O 9625   4.630   1.219  12.779 -0.0314  0.3101  0.3045
  650TMC3     H 9626   4.483   1.404  12.746 -0.6809  1.5462 -0.2829
  650TMC3    H1 9627   4.333   1.051  12.561  1.3869  0.0203 -0.2085
  650TMC3    H2 9628   4.124   1.424  12.534  0.4692  1.1458  1.7524
  650TMC3    C7 9629   4.117   1.158  12.471  0.8735  0.1378 -0.7611
  650TMC3    C8 9630   4.299   1.553  12.684  0.2093 -0.0529 -0.4275
  650TMC3    O1 9631   4.119   1.036  12.478  0.5278  0.0473 -0.2488
  650TMC3    O2 9632   4.397   1.622  12.686  0.8324  0.1021 -0.5148
  651MPD2     C 9633   3.248   2.756  10.521 -0.1925 -0.1792 -0.0504
  651MPD2    C1 9634   3.248   2.885  10.585  0.0130  0.1349 -0.3054
  651MPD2    C2 9635   3.367   2.946  10.566 -0.7888  0.5041  0.0380
  651MPD2    C3 9636   3.477   2.890  10.492 -0.5552 -1.1309 -0.4845
  651MPD2    C4 9637   3.472   2.767  10.436  0.1079 -0.2784  0.2041
  651MPD2    C5 9638   3.351   2.700  10.449 -0.5453 -0.0150  0.3677
  651MPD2     H 9639   3.379   3.050  10.595 -2.2581  1.1835 -1.8394
  651MPD2    H1 9640   3.550   2.719  10.378  0.7148 -0.2549  1.0069
  651MPD2    H2 9641   3.164   2.689  10.533  0.4378 -1.0441 -0.4514
  651MPD2    H3 9642   3.336   2.603  10.402 -0.6595 -0.1104  0.6043
  651MPD2     N 9643   3.592   2.973  10.485 -0.2504 -0.4262  0.1460
  651MPD2    H5 9644   3.579   3.058  10.539  2.6442 -0.1517  0.3738
  651MPD2    N1 9645   3.147   2.951  10.653 -0.0690 -0.1026 -0.0112
  651MPD2    H7 9646   3.171   3.040  10.695 -1.1539  0.0759  0.2332
  652TMC3    C1 9647   4.021   3.119  10.541 -0.3842 -0.6339  0.6330
  652TMC3    C2 9648   3.935   3.016  10.504  0.5662  0.9370 -0.4663
  652TMC3    C3 9649   3.807   3.043  10.476  0.6715  0.3936  0.7437
  652TMC3    C4 9650   3.975   3.241  10.570  0.0046 -0.7179  0.2844
  652TMC3    C5 9651   3.844   3.264  10.546  0.0567  0.5505 -0.2116
  652TMC3    C6 9652   3.753   3.165  10.503 -0.2535  0.4356 -0.6048
  652TMC3     C 9653   4.165   3.084  10.567 -0.3501 -0.1975  0.2721
  652TMC3     O 9654   4.194   3.007  10.658 -0.2781  0.0481  0.1030
  652TMC3     H 9655   3.977   2.916  10.495  2.2559  1.2572  3.8889
  652TMC3    H1 9656   4.052   3.306  10.609 -0.3228 -0.4646  0.5075
  652TMC3    H2 9657   3.654   3.208  10.489 -0.3235  0.0306 -1.3717
  652TMC3    C7 9658   3.792   3.373  10.626 -0.0747 -1.3570 -0.9173
  652TMC3    C8 9659   3.716   2.937  10.447  0.3600  0.6191  0.2015
  652TMC3    O1 9660   3.676   3.364  10.659 -0.4796  0.6010 -0.0293
  652TMC3    O2 9661   3.761   2.830  10.411 -0.4270 -0.3697 -0.3394
  653MPD2     C 9662   2.251   3.306   0.093  0.5863 -0.2595  0.0041
  653MPD2    C1 9663   2.185   3.418   0.049 -0.1587  0.1023  0.2066
  653MPD2    C2 9664   2.102   3.405  17.634 -0.3337  0.2309 -0.1822
  653MPD2    C3 9665   2.089   3.284  17.569 -0.0223  0.1237 -0.6671
  653MPD2    C4 9666   2.168   3.179  17.610  0.5277  0.1908 -0.7543
  653MPD2    C5 9667   2.247   3.194   0.015  0.3005  0.3301  1.0261
  653MPD2     H 9668   2.055   3.496  17.600  0.6796  1.0502  0.5783
  653MPD2    H1 9669   2.151   3.080  17.570  1.9237 -1.4421  2.7481
  653MPD2    H2 9670   2.316   3.300   0.179  2.6089 -1.5587 -1.6106
  653MPD2    H3 9671   2.287   3.099   0.049  0.1448  0.4657  1.5957
  653MPD2     N 9672   2.005   3.279  17.459  0.5865 -0.1698  0.1313
  653MPD2    H5 9673   1.957   3.366  17.437  0.3723 -0.1514  0.6679
  653MPD2    N1 9674   2.200   3.546   0.114 -0.6017  0.2235 -0.2325
  653MPD2    H7 9675   2.156   3.625   0.069  1.4424  0.5402 -1.6819
  654TMC3    C1 9676   1.928   3.235  17.247  0.0125  0.3544  0.0855
  654TMC3    C2 9677   1.838   3.343  17.254  0.3063 -0.0444  0.8030
  654TMC3    C3 9678   1.781   3.375  17.133  0.4017 -0.0962 -1.0656
  654TMC3    C4 9679   1.969   3.175  17.133 -0.4829 -0.0603  0.5900
  654TMC3    C5 9680   1.902   3.224  17.021 -0.6253 -0.0441  0.1298
  654TMC3    C6 9681   1.814   3.328  17.014 -0.1419  0.2754  0.0916
  654TMC3     C 9682   1.991   3.183  17.369  0.1759  0.2229  0.3376
  654TMC3     O 9683   2.056   3.084  17.350  0.0510  0.3081  0.2733
  654TMC3     H 9684   1.831   3.398  17.347 -1.4712  0.8469  0.1530
  654TMC3    H1 9685   2.067   3.132  17.118 -1.5853 -2.8073  1.2257
  654TMC3    H2 9686   1.757   3.352  16.925  1.4846 -0.8431 -1.2593
  654TMC3    C7 9687   1.925   3.155  16.901 -0.4496 -0.8675 -0.2534
  654TMC3    C8 9688   1.673   3.472  17.128 -0.4989  0.3981  0.0772
  654TMC3    O1 9689   1.907   3.220  16.798 -0.2744 -0.2168  0.4492
  654TMC3    O2 9690   1.601   3.479  17.226  0.3759  0.8542  0.4689
  655MPD2     C 9691   3.362   3.711  15.800  0.2254 -0.3938  0.5243
  655MPD2    C1 9692   3.229   3.745  15.797 -0.2290  0.8287 -0.1942
  655MPD2    C2 9693   3.153   3.700  15.692 -0.2489  0.4066 -0.2005
  655MPD2    C3 9694   3.194   3.588  15.620 -0.5737  0.1437  0.5823
  655MPD2    C4 9695   3.320   3.546  15.638 -0.2933  0.8363  0.2578
  655MPD2    C5 9696   3.400   3.609  15.723  0.5762  0.3945  0.2143
  655MPD2     H 9697   3.052   3.740  15.685 -0.8422 -0.6958  1.7612
  655MPD2    H1 9698   3.354   3.472  15.567 -0.2296  1.8526 -0.7838
  655MPD2    H2 9699   3.428   3.752  15.874  1.4204  0.2856 -0.9191
  655MPD2    H3 9700   3.502   3.572  15.733  0.1546 -1.1518 -1.2323
  655MPD2     N 9701   3.114   3.520  15.519  0.3542 -0.6502 -0.1100
  655MPD2    H5 9702   3.152   3.439  15.471 -1.7223  0.2699 -3.2895
  655MPD2    N1 9703   3.163   3.834  15.881 -0.0241 -0.5974 -0.6291
  655MPD2    H7 9704   3.068   3.862  15.859 -0.1457 -0.4428  0.1034
  656TMC3    C1 9705   3.117   3.975  16.048  0.0993  0.2126  0.4847
  656TMC3    C2 9706   3.054   3.934  16.162 -0.3616  0.0573  0.4957
  656TMC3    C3 9707   2.938   3.997  16.185  0.0671  0.3018 -0.4305
  656TMC3    C4 9708   3.068   4.069  15.961  0.1793  0.0412  0.2896
  656TMC3    C5 9709   2.948   4.135  15.990 -0.1360  0.1091 -0.4562
  656TMC3    C6 9710   2.879   4.092  16.103 -0.4700  0.0963  0.3516
  656TMC3     C 9711   3.213   3.876  16.003  0.7032  0.0184 -0.2200
  656TMC3     O 9712   3.317   3.845  16.059  0.6879 -0.3770  0.0383
  656TMC3     H 9713   3.091   3.845  16.212 -1.2006  0.7853  2.3840
  656TMC3    H1 9714   3.129   4.108  15.881 -0.9427  1.4504  0.1313
  656TMC3    H2 9715   2.784   4.131  16.135  0.5465  2.3102  0.6802
  656TMC3    C7 9716   2.882   4.196  15.874  0.4338  0.8226 -0.9050
  656TMC3    C8 9717   2.855   3.940  16.297 -0.2386 -0.3015  0.1966
  656TMC3    O1 9718   2.942   4.197  15.765  0.3609 -0.7864  0.1831
  656TMC3    O2 9719   2.889   3.825  16.335 -0.3206  0.0465  0.5819
  657TMC3    C1 9720   2.127   2.935  15.164 -0.0575 -0.7912  0.0331
  657TMC3    C2 9721   1.989   2.931  15.167  0.5298  0.3081 -0.8771
  657TMC3    C3 9722   1.922   3.049  15.190 -0.6844 -0.0797 -0.2270
  657TMC3    C4 9723   2.190   3.054  15.173  0.6815 -0.2804  0.5213
  657TMC3    C5 9724   2.123   3.165  15.204  0.5817  0.4415 -0.4145
  657TMC3    C6 9725   1.979   3.169  15.203  0.4070  0.2879 -0.3617
  657TMC3     C 9726   2.203   2.811  15.162 -0.3947 -0.0571 -0.1603
  657TMC3     O 9727   2.143   2.712  15.209  0.0963  0.1527 -0.6680
  657TMC3     H 9728   1.927   2.844  15.150  0.3683 -0.1971  2.2742
  657TMC3    H1 9729   2.298   3.054  15.186  0.8182 -1.4407 -0.6255
  657TMC3    H2 9730   1.930   3.258  15.241  0.0005 -0.0460 -0.1148
  657TMC3    C7 9731   2.189   3.299  15.200  0.1155  0.0884  0.2243
  657TMC3    C8 9732   1.797   3.034  15.221  0.5942  0.2148 -0.4955
  657TMC3    O1 9733   2.130   3.399  15.241 -0.0971  0.1014 -0.1858
  657TMC3    O2 9734   1.755   2.935  15.282 -0.0211  0.0191  0.1870
  658MPD2     C 9735   3.362   3.183  15.083  0.1078  0.6674 -0.2507
  658MPD2    C1 9736   3.233   3.199  15.034 -0.2698 -0.2235  0.1371
  658MPD2    C2 9737   3.202   3.152  14.908 -0.2783  0.2655 -0.3229
  658MPD2    C3 9738   3.305   3.092  14.834 -0.1061 -0.5771  0.0566
  658MPD2    C4 9739   3.432   3.081  14.880 -0.0376  0.7062  0.1852
  658MPD2    C5 9740   3.462   3.125  15.008 -0.1803 -0.3481  0.2922
  658MPD2     H 9741   3.101   3.158  14.869 -0.4713 -0.3132  0.0849
  658MPD2    H1 9742   3.509   3.031  14.823 -0.3209  1.2389 -0.6640
  658MPD2    H2 9743   3.386   3.212  15.184 -2.5271 -0.4736  0.7101
  658MPD2    H3 9744   3.558   3.100  15.051  0.1261 -0.8474 -0.6911
  658MPD2     N 9745   3.269   3.066  14.697  0.6793  0.3273 -0.1074
  658MPD2    H5 9746   3.170   3.055  14.678  0.1631  1.1335  2.1140
  658MPD2    N1 9747   3.134   3.249  15.129 -0.2567 -0.7110 -0.0781
  658MPD2    H7 9748   3.168   3.262  15.224  0.2378  1.0911 -0.5033
  659TMC3    C1 9749   2.936   3.294  15.232 -0.1562 -0.5104 -0.3266
  659TMC3    C2 9750   2.997   3.390  15.316  0.1938 -0.4540  1.0817
  659TMC3    C3 9751   2.919   3.440  15.417 -0.1947 -0.5911 -0.1011
  659TMC3    C4 9752   2.806   3.258  15.247  0.2499  0.3926  0.1908
  659TMC3    C5 9753   2.740   3.309  15.356  0.3839  0.0890 -0.5286
  659TMC3    C6 9754   2.787   3.406  15.441 -0.0380  0.6479 -0.5155
  659TMC3     C 9755   2.998   3.250  15.109  0.3335 -0.2178  0.3905
  659TMC3     O 9756   2.920   3.201  15.029 -0.2003 -0.1606 -0.5451
  659TMC3     H 9757   3.092   3.434  15.289 -1.3198  1.2357 -1.4546
  659TMC3    H1 9758   2.758   3.185  15.183  1.9437  0.7312 -1.4600
  659TMC3    H2 9759   2.727   3.439  15.525  0.7604 -0.3170  0.4381
  659TMC3    C7 9760   2.614   3.253  15.393 -0.0143 -0.0300 -0.1332
  659TMC3    C8 9761   2.981   3.549  15.489 -0.0656  0.9970  0.0310
  659TMC3    O1 9762   2.534   3.325  15.449  0.1861 -0.0067  0.1073
  659TMC3    O2 9763   2.909   3.635  15.545  0.0367  0.6945 -0.0249
  660MPD2     C 9764   1.808   2.089  12.642 -0.1679  0.5290 -0.1110
  660MPD2    C1 9765   1.671   2.085  12.640 -0.4353  0.9087 -0.6415
  660MPD2    C2 9766   1.604   1.998  12.726 -0.0426  0.2072 -0.3577
  660MPD2    C3 9767   1.678   1.922  12.815 -0.1987  0.8701  1.0296
  660MPD2    C4 9768   1.812   1.934  12.824  0.0719  0.2539 -0.5049
  660MPD2    C5 9769   1.873   2.019  12.737  0.1179 -0.1261 -0.7146
  660MPD2     H 9770   1.499   1.977  12.713  0.6082 -3.3714  0.1753
  660MPD2    H1 9771   1.860   1.869  12.895 -0.5329 -0.3737 -0.6661
  660MPD2    H2 9772   1.861   2.157  12.577 -1.2170 -1.7064 -3.2967
  660MPD2    H3 9773   1.981   2.030  12.744  0.3766 -0.6984 -4.1090
  660MPD2     N 9774   1.619   1.822  12.896 -0.5699 -0.4288 -0.1191
  660MPD2    H5 9775   1.678   1.779  12.967  1.1132 -0.9612 -1.8330
  660MPD2    N1 9776   1.600   2.159  12.545 -0.2572  0.1600 -0.9627
  660MPD2    H7 9777   1.655   2.216  12.481 -0.3120  1.5452  0.2387
  661TMC3    C1 9778   1.415   2.247  12.428 -1.1849 -0.4714  0.0607
  661TMC3    C2 9779   1.476   2.209  12.313 -0.0518  0.0600 -0.4070
  661TMC3    C3 9780   1.395   2.222  12.207  0.3544  0.1098  0.1448
  661TMC3    C4 9781   1.284   2.278  12.446 -0.6078  0.4180 -0.1519
  661TMC3    C5 9782   1.204   2.265  12.335  0.0893  0.3696 -0.8123
  661TMC3    C6 9783   1.263   2.246  12.211 -0.2363  0.1854  0.1380
  661TMC3     C 9784   1.465   2.187  12.548 -0.0675  0.5992 -0.5015
  661TMC3     O 9785   1.379   2.146  12.630  0.4883 -0.7553  0.2028
  661TMC3     H 9786   1.575   2.165  12.304 -0.9949 -1.7752 -1.6614
  661TMC3    H1 9787   1.243   2.294  12.546  0.2116 -0.8983  0.3851
  661TMC3    H2 9788   1.213   2.282  12.122  2.2581  1.8994 -0.5516
  661TMC3    C7 9789   1.063   2.254  12.365 -0.4635  0.1735  0.4513
  661TMC3    C8 9790   1.457   2.171  12.083 -0.2791  0.2388 -0.7798
  661TMC3    O1 9791   1.036   2.280  12.479  0.2154 -0.6148  0.8663
  661TMC3    O2 9792   1.579   2.187  12.068 -0.2000  0.1243 -0.9736
  662MPD2     C 9793   2.121   1.589   0.270 -0.4210 -0.5049 -0.9263
  662MPD2    C1 9794   2.081   1.662   0.160 -0.2223  0.5224  0.9783
  662MPD2    C2 9795   1.966   1.738   0.174  0.3873 -0.4861 -1.0372
  662MPD2    C3 9796   1.892   1.747   0.284  0.2454  0.6403  0.6500
  662MPD2    C4 9797   1.929   1.674   0.391 -1.0574 -0.0001 -0.3325
  662MPD2    C5 9798   2.044   1.600   0.383  0.4324 -0.2572 -0.3548
  662MPD2     H 9799   1.931   1.791   0.087 -0.5830  0.2541 -0.2056
  662MPD2    H1 9800   1.861   1.666   0.475 -1.3492 -2.2744 -0.7649
  662MPD2    H2 9801   2.207   1.524   0.279 -0.7674 -1.1276 -2.0737
  662MPD2    H3 9802   2.071   1.550   0.475 -1.3018  0.7762  0.7307
  662MPD2     N 9803   1.773   1.830   0.302  0.4667  0.6167  0.2847
  662MPD2    H5 9804   1.720   1.823   0.389 -2.1615  0.9580 -1.2612
  662MPD2    N1 9805   2.143   1.652   0.030  0.2143 -0.0979  0.3443
  662MPD2    H7 9806   2.099   1.708  17.660  0.1054  0.8061  1.1351
  663TMC3    C1 9807   2.260   1.559  17.552 -0.6636  0.3128 -0.3293
  663TMC3    C2 9808   2.196   1.658  17.478  0.6061 -0.4908 -0.0099
  663TMC3    C3 9809   2.175   1.652  17.340 -0.6406 -0.1155  0.1822
  663TMC3    C4 9810   2.280   1.440  17.496  0.7602  0.2220  0.0526
  663TMC3    C5 9811   2.255   1.432  17.356  0.2805  0.4106 -0.0463
  663TMC3    C6 9812   2.212   1.536  17.274 -0.3097 -0.5550 -0.0304
  663TMC3     C 9813   2.240   1.560  17.701 -0.7080 -0.2083 -0.5150
  663TMC3     O 9814   2.287   1.468   0.070 -0.3855  0.0201  0.2882
  663TMC3     H 9815   2.199   1.755  17.525 -2.2110 -0.9169  1.0029
  663TMC3    H1 9816   2.324   1.355  17.547 -2.0674  0.3633  2.7657
  663TMC3    H2 9817   2.182   1.520  17.172 -1.5541  2.4574 -0.1154
  663TMC3    C7 9818   2.225   1.303  17.319  0.2648 -0.4261 -1.0750
  663TMC3    C8 9819   2.039   1.679  17.307 -0.3179  0.2164 -0.2231
  663TMC3    O1 9820   2.220   1.217  17.407 -0.3689 -0.0692  0.3276
  663TMC3    O2 9821   2.004   1.700  17.192 -0.6139  0.1942 -0.2588
  664MPD2     C 9822   4.181   0.074  17.583  0.5783 -0.2199  0.2155
  664MPD2    C1 9823   4.228   0.195  17.624 -0.5262  0.3081  0.4948
  664MPD2    C2 9824   4.264   0.216   0.052 -0.0511  0.3755 -0.1344
  664MPD2    C3 9825   4.232   0.115   0.140  0.5449  0.0509  0.2679
  664MPD2    C4 9826   4.165   0.006   0.102  0.6727 -0.2165  0.2871
  664MPD2    C5 9827   4.149   4.701  17.673 -0.4691  0.0511  0.7699
  664MPD2     H 9828   4.317   0.310   0.065 -0.0851  0.3019  0.5339
  664MPD2    H1 9829   4.153   4.646   0.169  1.6056 -1.6517 -1.3535
  664MPD2    H2 9830   4.159   0.043  17.481 -1.4923 -0.3444  0.6921
  664MPD2    H3 9831   4.123   4.602  17.640 -1.0319  1.2782 -2.4846
  664MPD2     N 9832   4.283   0.134   0.271 -0.8214 -0.4206  0.0024
  664MPD2    H5 9833   4.363   0.197   0.279 -1.0110 -0.4576  2.1825
  664MPD2    N1 9834   4.248   0.303  17.536  0.7917  0.1264 -0.8841
  664MPD2    H7 9835   4.288   0.390  17.569  0.3153 -0.2286  0.6449
  665TMC3    C1 9836   4.310   0.124   0.498 -0.1607 -0.2658  0.2620
  665TMC3    C2 9837   4.247   0.104   0.618 -0.2060 -0.0316  0.5808
  665TMC3    C3 9838   4.299   0.167   0.725 -0.0079 -0.0792 -0.2079
  665TMC3    C4 9839   4.422   0.207   0.482 -0.0511 -0.2789 -0.1168
  665TMC3    C5 9840   4.470   0.265   0.597  0.3792 -0.9348 -0.0663
  665TMC3    C6 9841   4.417   0.240   0.720 -0.5857 -0.3218 -0.1814
  665TMC3     C 9842   4.239   0.078   0.380  0.0704  0.2884 -0.4159
  665TMC3     O 9843   4.140   0.003   0.384 -0.0558 -0.1706 -0.2756
  665TMC3     H 9844   4.147   0.062   0.618  0.6137 -1.9716  2.0277
  665TMC3    H1 9845   4.468   0.234   0.388  0.4966 -1.8629 -0.3008
  665TMC3    H2 9846   4.455   0.286   0.811  1.4932  0.1360 -1.2793
  665TMC3    C7 9847   4.586   0.352   0.576 -0.4710  0.5493  0.1210
  665TMC3    C8 9848   4.208   0.196   0.833 -0.1652 -0.0142 -0.2606
  665TMC3    O1 9849   4.654   0.330   0.476  0.2139  0.0312 -0.2962
  665TMC3    O2 9850   4.222   0.302   0.893 -0.0376  0.3674 -0.4169
  666TMC3    C1 9851   3.936   4.244  10.113 -0.0829 -0.8560 -0.5849
  666TMC3    C2 9852   4.052   4.197  10.061 -0.0231  0.2748 -0.2124
  666TMC3    C3 9853   4.156   4.288  10.052  0.2034 -0.9624  0.3605
  666TMC3    C4 9854   3.911   4.378  10.131  0.0657  0.2800  0.6067
  666TMC3    C5 9855   4.008   4.463  10.097 -0.4038 -0.3275 -0.6029
  666TMC3    C6 9856   4.131   4.421  10.063  0.2972  0.2023  0.0837
  666TMC3     C 9857   3.857   4.149  10.191 -0.3515 -0.4749 -0.1641
  666TMC3     O 9858   3.773   4.196  10.265 -0.0454 -0.6950  0.1076
  666TMC3     H 9859   4.058   4.091  10.042  0.5148  0.0174  1.3631
  666TMC3    H1 9860   3.830   4.411  10.195  0.1008 -0.7662  1.1917
  666TMC3    H2 9861   4.211   4.493  10.046 -1.1635  1.9157  0.4353
  666TMC3    C7 9862   3.976   4.605  10.110 -0.0615 -0.2027  0.0552
  666TMC3    C8 9863   4.255   4.245  10.147 -0.8517  0.0877 -0.2855
  666TMC3    O1 9864   3.869   4.640  10.163  0.1859  0.3683 -0.0581
  666TMC3    O2 9865   4.237   4.140  10.205 -0.6483 -0.0690 -0.2149
  667MPD2     C 9866   0.830   0.412  14.972  0.0626 -0.4341  0.0103
  667MPD2    C1 9867   0.807   0.547  15.007 -0.2530  0.2638 -0.0868
  667MPD2    C2 9868   0.681   0.603  14.993  0.4435  0.4653  0.1787
  667MPD2    C3 9869   0.575   0.530  14.940  0.4922 -0.3538  0.0667
  667MPD2    C4 9870   0.600   0.404  14.896 -0.6345  0.1398  0.3808
  667MPD2    C5 9871   0.727   0.340  14.921 -0.1626 -0.9958 -0.1355
  667MPD2     H 9872   0.681   0.708  15.016 -2.0752  0.5166 -0.1211
  667MPD2    H1 9873   0.525   0.339  14.852 -1.3981  1.6062 -0.4744
  667MPD2    H2 9874   0.929   0.370  14.985  0.5404  0.7551  0.2117
  667MPD2    H3 9875   0.751   0.245  14.876  2.7081 -0.4843  0.3409
  667MPD2     N 9876   0.451   0.583  14.897 -0.5042 -0.1105  0.3645
  667MPD2    H5 9877   0.381   0.525  14.853 -1.4956  0.2250  1.4975
  667MPD2    N1 9878   0.909   0.626  15.063 -0.1593 -0.5497  0.7242
  667MPD2    H7 9879   0.884   0.712  15.110 -0.6099 -0.9328  1.1838
  668TMC3    C1 9880   1.111   0.680  15.159 -0.0660  0.2326 -0.5545
  668TMC3    C2 9881   1.227   0.736  15.107  0.4005 -0.2614  0.4209
  668TMC3    C3 9882   1.295   0.826  15.179 -0.9473  0.0397  0.5703
  668TMC3    C4 9883   1.061   0.715  15.288 -0.4777 -0.1967 -0.0215
  668TMC3    C5 9884   1.129   0.811  15.359 -0.1839 -0.4332  0.1242
  668TMC3    C6 9885   1.238   0.865  15.299 -0.0785 -0.4766  0.2837
  668TMC3     C 9886   1.041   0.591  15.068 -1.3084 -0.0522 -0.1003
  668TMC3     O 9887   1.102   0.542  14.976 -0.5990  0.2225  0.1239
  668TMC3     H 9888   1.261   0.707  15.008  1.0456 -0.1398  0.6105
  668TMC3    H1 9889   0.971   0.668  15.326  0.7506 -2.7797 -0.3786
  668TMC3    H2 9890   1.293   0.939  15.355  0.0792 -2.2489  2.4275
  668TMC3    C7 9891   1.106   0.838  15.503 -0.1356 -0.1943 -0.7335
  668TMC3    C8 9892   1.367   0.936  15.104  0.2008  0.2599 -0.3129
  668TMC3    O1 9893   1.205   0.871  15.570  0.1468  0.7977 -0.3814
  668TMC3    O2 9894   1.416   1.014  15.185  0.4420  0.3724  0.1624
  669TMC3    C1 9895   3.529   0.089  14.991  0.4382 -0.1186  0.4099
  669TMC3    C2 9896   3.433   0.083  14.889 -0.1771  0.8310  0.0471
  669TMC3    C3 9897   3.425   0.182  14.803 -0.2864 -0.2202  0.1901
  669TMC3    C4 9898   3.619   0.192  14.986  0.1852 -0.7094  0.4018
  669TMC3    C5 9899   3.607   0.292  14.891 -0.3518  0.7652 -0.2618
  669TMC3    C6 9900   3.510   0.291  14.799 -1.0303  0.6024 -0.6930
  669TMC3     C 9901   3.495   0.013  15.110  0.7107  0.2789  0.3962
  669TMC3     O 9902   3.373   0.006  15.137 -0.3105  0.0830 -0.0534
  669TMC3     H 9903   3.374   4.718  14.882  2.1138 -0.7009  0.5819
  669TMC3    H1 9904   3.693   0.204  15.063  0.6227 -1.9214  0.1729
  669TMC3    H2 9905   3.505   0.363  14.718 -0.9211 -0.1853 -1.4095
  669TMC3    C7 9906   3.689   0.405  14.901 -0.2464  0.5003  0.1215
  669TMC3    C8 9907   3.324   0.165  14.699 -0.1732 -0.2927 -0.3659
  669TMC3    O1 9908   3.801   0.384  14.954 -0.7159 -0.4484  0.6138
  669TMC3    O2 9909   3.305   0.053  14.657  0.7288  0.4142  0.0221
  670MPD2     C 9910   1.267   2.877  13.663  0.4450 -0.0899 -0.3633
  670MPD2    C1 9911   1.309   2.762  13.605  0.0515  0.4912  0.4575
  670MPD2    C2 9912   1.353   2.665  13.690 -0.4755  0.0638  0.4396
  670MPD2    C3 9913   1.370   2.678  13.822  0.0951  0.3439  0.2262
  670MPD2    C4 9914   1.326   2.788  13.883  0.0443 -0.0370 -0.0805
  670MPD2    C5 9915   1.276   2.892  13.801 -0.8359  0.8632 -0.1604
  670MPD2     H 9916   1.380   2.568  13.650  1.8004 -0.4652  3.2624
  670MPD2    H1 9917   1.322   2.804  13.990 -0.3520 -0.4080 -0.0393
  670MPD2    H2 9918   1.228   2.958  13.602  2.3250  0.7911 -0.3910
  670MPD2    H3 9919   1.246   2.980  13.857 -0.6064  2.0796 -1.9488
  670MPD2     N 9920   1.428   2.569  13.893  0.0373  0.0744 -0.7682
  670MPD2    H5 9921   1.453   2.487  13.838  1.6251  1.6727 -2.4410
  670MPD2    N1 9922   1.309   2.745  13.468  0.3895 -0.4527  0.6086
  670MPD2    H7 9923   1.333   2.650  13.440 -1.7399  0.1706 -3.3090
  671TMC3    C1 9924   1.525   2.447  14.067  0.8416  0.6188  0.2810
  671TMC3    C2 9925   1.601   2.454  14.177  0.2302  0.3911  0.2565
  671TMC3    C3 9926   1.629   2.334  14.240  0.3262  0.2961  0.4373
  671TMC3    C4 9927   1.457   2.339  14.028  0.3031  0.0702  0.5091
  671TMC3    C5 9928   1.470   2.227  14.100  0.1044  0.2498  0.0444
  671TMC3    C6 9929   1.552   2.217  14.211 -0.0602  0.7780 -0.5270
  671TMC3     C 9930   1.478   2.580  14.016  0.1449 -0.5074  0.0913
  671TMC3     O 9931   1.480   2.680  14.089 -0.0936 -0.3378  0.1081
  671TMC3     H 9932   1.663   2.540  14.199  2.1430 -0.9637  0.2535
  671TMC3    H1 9933   1.392   2.333  13.941  2.1026  0.3534 -0.8476
  671TMC3    H2 9934   1.562   2.119  14.254 -0.4856  0.1767 -1.8082
  671TMC3    C7 9935   1.418   2.106  14.043 -0.2230  1.0693 -0.4707
  671TMC3    C8 9936   1.769   2.306  14.233 -0.1890  0.0262 -0.0565
  671TMC3    O1 9937   1.426   2.084  13.922 -0.2409 -0.0585 -0.4475
  671TMC3    O2 9938   1.796   2.202  14.176 -0.6646 -0.5568 -0.4446
  672MPD2     C 9939   2.147   2.401   0.834 -0.3383 -0.1764 -0.2680
  672MPD2    C1 9940   2.170   2.537   0.807  0.6230  0.8876 -0.2377
  672MPD2    C2 9941   2.173   2.624   0.916  0.4818 -0.5764  0.0255
  672MPD2    C3 9942   2.166   2.575   1.043  0.8462 -0.0512  0.3333
  672MPD2    C4 9943   2.151   2.443   1.063 -0.0074 -0.3844  0.8559
  672MPD2    C5 9944   2.134   2.353   0.961  0.2176 -0.5964 -0.1573
  672MPD2     H 9945   2.170   2.728   0.887  2.1785 -0.0394  1.7927
  672MPD2    H1 9946   2.131   2.399   1.160  2.5818  0.6298  1.8321
  672MPD2    H2 9947   2.123   2.328   0.757 -1.3980 -0.1199  0.0023
  672MPD2    H3 9948   2.115   2.247   0.974  0.6704 -0.5108  1.1613
  672MPD2     N 9949   2.172   2.654   1.156 -0.0066  0.1356  0.1611
  672MPD2    H5 9950   2.172   2.606   1.246 -0.3678 -0.4266 -0.1430
  672MPD2    N1 9951   2.159   2.584   0.678  0.3034  0.6930 -0.2679
  672MPD2    H7 9952   2.175   2.684   0.673  1.0233  0.4859 -2.1251
  673TMC3    C1 9953   2.209   2.608   0.446  0.0215  0.2321  0.5316
  673TMC3    C2 9954   2.321   2.584   0.379  0.2686 -0.1203 -0.4407
  673TMC3    C3 9955   2.363   2.680   0.287 -0.2244 -0.4392  0.1921
  673TMC3    C4 9956   2.146   2.732   0.446  0.0917  0.0278  0.0021
  673TMC3    C5 9957   2.200   2.834   0.366  0.2168  0.1482 -0.2531
  673TMC3    C6 9958   2.304   2.807   0.282  0.3648  0.2165 -0.7063
  673TMC3     C 9959   2.183   2.513   0.556  0.3939  0.2836 -0.1850
  673TMC3     O 9960   2.207   2.393   0.538 -0.0102  0.3171 -0.2623
  673TMC3     H 9961   2.368   2.488   0.388 -2.1418 -1.0897  1.8326
  673TMC3    H1 9962   2.050   2.743   0.495  1.5665 -1.1540  3.1463
  673TMC3    H2 9963   2.354   2.880   0.220  0.4125  1.2439  0.5587
  673TMC3    C7 9964   2.105   2.920   0.302  0.8724 -0.0818 -0.4915
  673TMC3    C8 9965   2.505   2.681   0.257  0.7089  0.3723  0.2376
  673TMC3    O1 9966   2.120   2.925   0.179  0.2455 -0.0220  0.5495
  673TMC3    O2 9967   2.538   2.724   0.145 -0.1821 -0.1903  0.4717
  674MPD2     C 9968   1.860   2.725  17.578  0.7270 -0.3499  0.4889
  674MPD2    C1 9969   1.861   2.675   0.006  0.5904 -0.3287  0.0815
  674MPD2    C2 9970   1.767   2.721   0.099  0.2843  0.1091  0.0666
  674MPD2    C3 9971   1.677   2.821   0.063 -0.1597  0.5358  0.3906
  674MPD2    C4 9972   1.679   2.874  17.641  0.4878  0.3742  0.0924
  674MPD2    C5 9973   1.771   2.824  17.552  0.4383 -0.9430 -0.5243
  674MPD2     H 9974   1.768   2.694   0.204  1.2812 -1.2865 -0.3061
  674MPD2    H1 9975   1.600   2.938  17.605  1.1011  1.1937  0.1936
  674MPD2    H2 9976   1.936   2.695  17.507 -0.4894  0.3496 -1.1011
  674MPD2    H3 9977   1.779   2.873  17.456  2.0376 -1.6532 -0.7548
  674MPD2     N 9978   1.583   2.859   0.158 -0.0830 -0.3425  0.2449
  674MPD2    H5 9979   1.584   2.804   0.243  1.8409  0.9229  1.0392
  674MPD2    N1 9980   1.954   2.571   0.033 -0.1003 -0.5289  0.2120
  674MPD2    H7 9981   2.013   2.538  17.659  2.3011 -0.0275  1.8790
  675TMC3    C1 9982   2.090   2.435   0.155 -0.2087  0.2277 -0.0822
  675TMC3    C2 9983   2.090   2.330   0.248 -0.5994 -0.1073  0.1093
  675TMC3    C3 9984   2.201   2.250   0.243  1.1389  0.8227  0.3890
  675TMC3    C4 9985   2.196   2.454   0.066 -0.0264 -0.2376  0.4853
  675TMC3    C5 9986   2.316   2.383   0.091 -0.0742  0.6575 -0.1947
  675TMC3    C6 9987   2.312   2.275   0.171 -0.4647  0.6176  0.4999
  675TMC3     C 9988   1.976   2.516   0.155 -0.1197 -0.3598 -0.2330
  675TMC3     O 9989   1.912   2.515   0.259  0.2503 -0.6621  0.1982
  675TMC3     H 9990   2.010   2.319   0.321  0.3998 -0.0942  1.2194
  675TMC3    H1 9991   2.202   2.540   0.001 -3.7123  0.7314  1.4395
  675TMC3    H2 9992   2.401   2.215   0.183 -0.2498  0.9667  0.6441
  675TMC3    C7 9993   2.408   2.388  17.682 -0.1814 -0.0269  0.4519
  675TMC3    C8 9994   2.204   2.116   0.312 -0.1835 -0.3434 -0.4572
  675TMC3    O1 9995   2.366   2.420  17.572 -0.0415 -0.4784  0.0553
  675TMC3    O2 9996   2.293   2.040   0.271  0.0492 -0.2898  0.0667
  676MPD2     C 9997   4.292   1.011  10.985 -0.6780 -0.6027 -0.1230
  676MPD2    C1 9998   4.228   0.939  11.080 -0.0553  0.4496  0.4824
  676MPD2    C2 9999   4.222   0.807  11.060  0.9269 -0.0880 -0.0216
  676MPD2    C310000   4.280   0.744  10.960 -0.4035  0.8266 -0.0276
  676MPD2    C410001   4.340   0.811  10.861  0.3314 -0.2591 -0.4200
  676MPD2    C510002   4.346   0.948  10.874  0.8196  0.6867 -0.1931
  676MPD2     H10003   4.177   0.738  11.131 -0.2015 -1.3602 -1.9952
  676MPD2    H110004   4.378   0.763  10.772 -1.1449 -1.6181 -0.3005
  676MPD2    H210005   4.300   1.119  10.983  1.1109 -0.7368 -0.8075
  676MPD2    H310006   4.385   1.006  10.792 -2.2224  1.1262 -1.3513
  676MPD2     N10007   4.279   0.607  10.943  0.3997  0.3151 -0.0735
  676MPD2    H510008   4.327   0.575  10.860 -0.7383  0.3960 -0.7658
  676MPD2    N110009   4.172   1.002  11.193  0.4481 -0.1286 -0.0413
  676MPD2    H710010   4.120   0.940  11.253 -0.2884 -0.4596 -1.0220
  677TMC3    C110011   4.105   1.168  11.346  0.1007  0.2405  0.0523
  677TMC3    C210012   3.986   1.108  11.379 -0.3003  0.7414 -0.1972
  677TMC3    C310013   3.950   1.119  11.511 -0.6065  0.5679 -0.2589
  677TMC3    C410014   4.168   1.252  11.425 -0.4913  0.5473  0.8920
  677TMC3    C510015   4.123   1.269  11.552  0.9130  0.1858  0.5705
  677TMC3    C610016   4.012   1.210  11.591 -0.8991 -1.0491 -0.3113
  677TMC3     C10017   4.175   1.136  11.223 -0.0623  0.3204 -0.3480
  677TMC3     O10018   4.254   1.217  11.183  0.1735 -0.4931  0.2216
  677TMC3     H10019   3.936   1.037  11.315 -2.4686  2.1710 -0.1005
  677TMC3    H110020   4.262   1.290  11.388 -0.0618 -4.1731 -2.8216
  677TMC3    H210021   3.986   1.221  11.695 -0.6495 -0.1071 -0.3504
  677TMC3    C710022   4.199   1.328  11.658 -0.2529  0.7797  0.2433
  677TMC3    C810023   3.829   1.072  11.560 -0.3866  0.7601 -0.3999
  677TMC3    O110024   4.186   1.290  11.776  0.5703  0.0312 -0.5946
  677TMC3    O210025   3.734   1.111  11.496  0.3901  0.0765 -0.0019
  678MPD2     C10026   1.073   1.172   1.440  0.5980 -0.2373 -0.4986
  678MPD2    C110027   1.104   1.134   1.310  0.4584  0.2815 -0.0098
  678MPD2    C210028   1.011   1.160   1.212  0.2133 -0.1201  0.5395
  678MPD2    C310029   0.901   1.241   1.233  0.1781  0.3139 -0.1828
  678MPD2    C410030   0.890   1.303   1.359 -0.3238  0.0206  0.3799
  678MPD2    C510031   0.970   1.257   1.456  0.5824 -0.1833 -0.0448
  678MPD2     H10032   1.019   1.116   1.113 -0.6891 -0.2020  0.5066
  678MPD2    H110033   0.805   1.367   1.376  1.2523  2.2475 -0.0797
  678MPD2    H210034   1.136   1.145   1.524 -0.6225  1.4121  0.9583
  678MPD2    H310035   0.952   1.292   1.557 -1.4470 -0.4858 -0.2930
  678MPD2     N10036   0.806   1.253   1.132  0.3019 -0.1483  0.3974
  678MPD2    H510037   0.826   1.204   1.045  5.4473 -0.1905  1.6395
  678MPD2    N110038   1.223   1.067   1.285 -0.2264  0.5479  0.0422
  678MPD2    H710039   1.246   1.051   1.187 -0.2904 -0.1289  0.1362
  679TMC3    C110040   1.590   0.802   1.262 -0.3401  0.1920  1.0332
  679TMC3    C210041   1.476   0.840   1.336 -0.3232 -0.0625  0.2410
  679TMC3    C310042   1.423   0.964   1.302 -0.5433 -0.6810 -0.6740
  679TMC3    C410043   1.651   0.881   1.172  0.0884 -0.4663 -0.0590
  679TMC3    C510044   1.600   1.006   1.145  0.1490 -0.2977 -0.3118
  679TMC3    C610045   1.485   1.056   1.213  0.1706 -0.4886  0.1089
  679TMC3     C10046   1.623   0.667   1.251 -0.0555 -0.4968  0.0183
  679TMC3     O10047   1.741   0.648   1.231  0.3806  0.6358  0.1072
  679TMC3     H10048   1.428   0.763   1.394  1.6692 -0.6298  1.1449
  679TMC3    H110049   1.738   0.844   1.119  0.2636  0.7391 -0.6144
  679TMC3    H210050   1.438   1.151   1.195 -0.0094 -0.1653  2.2622
  679TMC3    C710051   1.638   1.086   1.026  0.8128 -0.4516  0.4230
  679TMC3    C810052   1.305   1.001   1.377 -0.8615  0.9513 -0.0192
  679TMC3    O110053   1.545   1.147   0.976 -0.3059  0.6443  0.1294
  679TMC3    O210054   1.290   0.969   1.496 -0.3592  0.3835  0.0388
  680MPD2     C10055   1.135   0.095  13.868 -0.3093 -0.0771 -0.0701
  680MPD2    C110056   1.211   0.032  13.771 -0.4334  0.0905  0.1484
  680MPD2    C210057   1.348   0.013  13.793 -0.1840  0.1943 -0.0930
  680MPD2    C310058   1.411   0.073  13.900 -0.5021 -0.0440 -0.2550
  680MPD2    C410059   1.337   0.140  13.995  0.4565 -1.0488  0.1384
  680MPD2    C510060   1.201   0.146  13.979  0.4090  0.2485  0.2995
  680MPD2     H10061   1.406   4.683  13.719  0.0813  2.0689 -1.2747
  680MPD2    H110062   1.374   0.196  14.079  2.6014 -1.6065 -0.4481
  680MPD2    H210063   1.029   0.117  13.865 -0.3428  0.1945  2.9342
  680MPD2    H310064   1.147   0.189  14.062  1.6427  2.7055 -0.1344
  680MPD2     N10065   1.554   0.064  13.908  0.5437 -0.1350 -0.0218
  680MPD2    H510066   1.598   0.030  13.823  0.2139  1.2793 -0.7524
  680MPD2    N110067   1.134   4.677  13.683 -0.3676 -0.3668  0.5660
  680MPD2    H710068   1.035   4.663  13.702 -0.7109  2.7971  1.2195
  681TMC3    C110069   1.104   4.491  13.552 -0.5046 -0.2546  0.3658
  681TMC3    C210070   1.015   4.449  13.643  0.3149 -0.0597  0.1786
  681TMC3    C310071   0.981   4.315  13.630  0.4026 -0.4212 -0.6671
  681TMC3    C410072   1.145   4.419  13.443  0.3246  0.0075 -0.0591
  681TMC3    C510073   1.085   4.303  13.419  0.2452 -0.2887  0.6229
  681TMC3    C610074   0.996   4.248  13.511 -0.0498 -0.5323 -0.3625
  681TMC3     C10075   1.192   4.602  13.590 -0.1600 -0.2449 -0.1994
  681TMC3     O10076   1.298   4.619  13.533  0.1020  0.9712 -0.1392
  681TMC3     H10077   0.997   4.497  13.739  1.3634  2.0998 -0.6875
  681TMC3    H110078   1.226   4.455  13.380  1.6239 -0.6005  1.2431
  681TMC3    H210079   0.959   4.148  13.490  0.6411 -1.5365  3.2498
  681TMC3    C710080   1.122   4.220  13.304 -0.3903  0.3052 -0.1937
  681TMC3    C810081   0.928   4.250  13.748  0.2945  0.0140 -0.2852
  681TMC3    O110082   1.111   4.101  13.326  0.0620  0.3836 -0.8383
  681TMC3    O210083   0.842   4.165  13.731  0.4999 -0.2012 -0.1362
  682MPD2     C10084   3.587   1.104  10.649 -0.6285 -0.0322 -0.4816
  682MPD2    C110085   3.546   0.987  10.704 -0.1046  0.9952  0.1379
  682MPD2    C210086   3.460   0.986  10.808 -0.2193  0.2617  0.7089
  682MPD2    C310087   3.402   1.103  10.854 -0.5253  0.1019  0.0258
  682MPD2    C410088   3.445   1.223  10.799 -0.9642  0.2024  0.8001
  682MPD2    C510089   3.537   1.220  10.698 -0.2468 -0.0025  0.4904
  682MPD2     H10090   3.438   0.893  10.859  1.6436 -1.6607 -2.0622
  682MPD2    H110091   3.402   1.317  10.828 -0.8996  0.5016 -0.0619
  682MPD2    H210092   3.648   1.100  10.559 -1.1071 -0.2304 -0.8016
  682MPD2    H310093   3.561   1.315  10.651 -0.0840 -0.3797 -0.1911
  682MPD2     N10094   3.309   1.105  10.956  0.2105  0.2477  0.0406
  682MPD2    H510095   3.306   1.197  10.998  2.1962 -0.5705  1.9743
  682MPD2    N110096   3.590   0.854  10.655  0.5608  0.0098 -0.0626
  682MPD2    H710097   3.554   0.770  10.700  1.3122 -0.6123 -0.6272
  683TMC3    C110098   3.206   1.091  11.361 -0.1211 -0.4254 -0.7644
  683TMC3    C210099   3.177   0.967  11.414 -0.6759  0.1321 -0.6496
  683TMC3    C310100   3.188   0.854  11.338 -0.2285 -0.4465 -0.3359
  683TMC3    C410101   3.204   1.114  11.225  0.9006  0.0883 -0.2388
  683TMC3    C510102   3.203   0.991  11.149  0.0129 -0.2871  0.4123
  683TMC3    C610103   3.204   0.865  11.203  0.7002 -0.1044 -0.0085
  683TMC3     C10104   3.195   1.219  11.436 -0.4532 -1.1669 -0.0461
  683TMC3     O10105   3.220   1.316  11.367  0.4525  0.8187  0.2677
  683TMC3     H10106   3.147   0.955  11.518  3.1785 -0.5383  0.3858
  683TMC3    H110107   3.210   1.203  11.164  0.2289 -0.8953 -1.7548
  683TMC3    H210108   3.223   0.778  11.140 -0.3474 -1.6643  1.8254
  683TMC3    C710109   3.250   0.993  11.012  0.5078  0.2900  0.3606
  683TMC3    C810110   3.205   0.733  11.414 -0.1107  0.5011  0.1352
  683TMC3    O110111   3.236   0.883  10.956 -0.3465  0.3547 -0.0209
  683TMC3    O210112   3.252   0.735  11.525  0.0993 -0.7021 -0.0217
  684MPD2     C10113   1.787   0.978  16.353  0.0100 -0.3201  0.6654
  684MPD2    C110114   1.847   0.967  16.229  0.1858  0.7153  0.8130
  684MPD2    C210115   1.845   1.076  16.148  0.7747  0.1136  0.6334
  684MPD2    C310116   1.775   1.191  16.183 -0.0592 -0.5131 -0.3375
  684MPD2    C410117   1.697   1.195  16.296 -0.1561  0.1167  0.3440
  684MPD2    C510118   1.712   1.090  16.381  0.0539  0.9222 -0.4082
  684MPD2     H10119   1.909   1.064  16.061 -1.1368 -2.0732 -0.4556
  684MPD2    H110120   1.650   1.281  16.343  0.4114  0.6331 -0.0383
  684MPD2    H210121   1.787   0.893  16.420  3.3692 -1.6126 -0.9883
  684MPD2    H310122   1.667   1.093  16.480 -0.4113  0.9395 -0.6215
  684MPD2     N10123   1.791   1.313  16.122  0.0882  0.1115  0.4649
  684MPD2    H510124   1.751   1.394  16.168 -1.8454 -0.2322 -0.5766
  684MPD2    N110125   1.917   0.858  16.189  0.7734 -0.6548  0.0401
  684MPD2    H710126   1.950   0.855  16.093  1.6074  1.2783  0.2544
  685TMC3    C110127   2.038   0.659  16.203  0.2766  0.2114 -0.0342
  685TMC3    C210128   1.994   0.602  16.085 -0.8287 -0.2161  0.3493
  685TMC3    C310129   2.077   0.501  16.031 -0.4891 -0.8123 -0.1652
  685TMC3    C410130   2.151   0.608  16.272  0.0302 -0.0479  0.4832
  685TMC3    C510131   2.214   0.498  16.226  0.0947 -1.0042 -0.2476
  685TMC3    C610132   2.178   0.443  16.101  0.6000  0.3791 -0.3370
  685TMC3     C10133   1.970   0.765  16.270  0.7818 -0.4950  0.3387
  685TMC3     O10134   1.972   0.762  16.392  0.3495 -0.1501 -0.1249
  685TMC3     H10135   1.912   0.656  16.038 -0.4881  0.4733  0.5511
  685TMC3    H110136   2.182   0.647  16.368  0.4753 -1.3535  0.8656
  685TMC3    H210137   2.227   0.355  16.062 -0.6108  0.4448 -1.9954
  685TMC3    C710138   2.236   0.400  16.328  0.2889  0.0541  0.1039
  685TMC3    C810139   2.015   0.413  15.929  0.0911 -0.0967  0.1836
  685TMC3    O110140   2.258   0.442  16.439 -0.2840  0.4349 -0.1523
  685TMC3    O210141   2.077   0.330  15.867  0.4081  0.1406 -0.6683
  686MPD2     C10142   3.244   0.790  15.530 -0.2626  0.6589 -0.1234
  686MPD2    C110143   3.254   0.661  15.586 -0.0566  0.2105  0.0199
  686MPD2    C210144   3.341   0.575  15.526 -0.5756 -0.4186  0.7912
  686MPD2    C310145   3.394   0.605  15.401  0.0857 -0.0547 -0.6155
  686MPD2    C410146   3.381   0.733  15.351 -0.2322  0.5741 -0.3621
  686MPD2    C510147   3.303   0.825  15.415 -0.1076 -0.3617  0.2318
  686MPD2     H10148   3.366   0.482  15.576  2.4838  0.9915  1.8282
  686MPD2    H110149   3.412   0.756  15.250 -1.7385  2.2285 -0.4534
  686MPD2    H210150   3.186   0.863  15.586  0.0237 -0.5104  1.6934
  686MPD2    H310151   3.297   0.930  15.387  1.8015 -0.2523  0.2303
  686MPD2     N10152   3.475   0.525  15.318  0.0056  0.0890 -0.1730
  686MPD2    H510153   3.529   0.584  15.256  1.5644  0.2020  1.3006
  686MPD2    N110154   3.173   0.631  15.700 -0.3516 -0.6067 -0.9560
  686MPD2    H710155   3.094   0.693  15.713  0.5738  0.3057  0.2651
  687TMC3    C110156   3.388   0.309  15.388  0.3893  0.4070  0.6190
  687TMC3    C210157   3.257   0.332  15.360 -0.1355 -0.4015 -0.0241
  687TMC3    C310158   3.162   0.279  15.441 -0.0520  0.2366 -0.2651
  687TMC3    C410159   3.423   0.209  15.481 -0.4781  0.2385  0.1573
  687TMC3    C510160   3.327   0.159  15.565  0.4764  0.4417 -0.0583
  687TMC3    C610161   3.203   0.201  15.547 -0.5156  0.5129 -0.3336
  687TMC3     C10162   3.497   0.390  15.337 -0.0482 -1.0960 -0.3834
  687TMC3     O10163   3.609   0.343  15.314  0.3023  0.5879 -0.4478
  687TMC3     H10164   3.238   0.395  15.274 -1.0598 -0.9061 -0.1839
  687TMC3    H110165   3.529   0.194  15.499 -0.6902 -0.3907  0.8809
  687TMC3    H210166   3.135   0.178  15.629  0.3664  0.7129  0.4482
  687TMC3    C710167   3.364   0.100  15.694  0.6011  0.1157  0.5978
  687TMC3    C810168   3.035   0.341  15.454  0.0175  0.3083 -0.1741
  687TMC3    O110169   3.284   0.107  15.784  0.2212 -0.0478  0.5227
  687TMC3    O210170   2.948   0.275  15.513  0.5356 -0.4565 -0.1939
  688MPD2     C10171   2.373   4.204  17.602 -0.3643 -0.0275  0.1441
  688MPD2    C110172   2.424   4.073  17.614 -1.1446 -0.4784 -0.0515
  688MPD2    C210173   2.520   4.022  17.521 -0.7986  0.1061 -0.8149
  688MPD2    C310174   2.552   4.106  17.416 -0.7531  0.2280  0.6454
  688MPD2    C410175   2.491   4.225  17.404  0.0586 -0.3620 -0.3876
  688MPD2    C510176   2.405   4.276  17.497 -1.1515 -0.1282 -0.1178
  688MPD2     H10177   2.570   3.931  17.550 -1.1372  0.3652  0.5741
  688MPD2    H110178   2.512   4.298  17.328  1.7249  1.3153  1.6747
  688MPD2    H210179   2.306   4.249  17.674  0.5497 -1.4960  1.8913
  688MPD2    H310180   2.369   4.378  17.497  1.2826  0.7365 -0.1976
  688MPD2     N10181   2.634   4.065  17.305 -0.3973 -0.8534 -0.4371
  688MPD2    H510182   2.641   4.128  17.226  1.6714 -0.2037  0.2637
  688MPD2    N110183   2.386   3.999   0.023  0.0674  0.7718  0.1912
  688MPD2    H710184   2.409   3.901   0.011  1.1204  0.3623  5.4958
  689TMC3    C110185   2.286   3.922   0.226 -0.1516 -0.1292 -0.1431
  689TMC3    C210186   2.239   3.957   0.350 -0.8006  0.4518  0.2067
  689TMC3    C310187   2.204   3.863   0.437 -0.4093 -0.4585  0.9106
  689TMC3    C410188   2.297   3.794   0.185 -0.0906 -0.0627  0.0904
  689TMC3    C510189   2.265   3.700   0.282  0.3331 -0.6611 -0.1005
  689TMC3    C610190   2.220   3.732   0.409  0.8263  0.3321  0.0121
  689TMC3     C10191   2.323   4.034   0.142  0.0828  0.3666 -0.7115
  689TMC3     O10192   2.272   4.144   0.179 -0.1506  0.2513  0.3923
  689TMC3     H10193   2.244   4.058   0.390 -0.6354  0.7402 -0.5459
  689TMC3    H110194   2.339   3.777   0.087 -1.1099  1.5827 -0.6307
  689TMC3    H210195   2.200   3.657   0.486  1.5102 -0.7467 -0.8592
  689TMC3    C710196   2.249   3.561   0.240 -0.9262 -0.3807 -0.4551
  689TMC3    C810197   2.131   3.900   0.559 -0.5373  0.0203  0.3902
  689TMC3    O110198   2.258   3.481   0.331  0.5477 -0.3802  0.3565
  689TMC3    O210199   2.141   3.832   0.659  0.4824  0.7267 -0.0314
  690MPD2     C10200   4.622   1.379  15.974 -0.4538  0.2833 -0.1150
  690MPD2    C110201   4.602   1.339  15.835 -0.7821  0.4404 -0.3062
  690MPD2    C210202   4.652   1.415  15.731 -0.1233  0.3432 -0.5375
  690MPD2    C310203   0.017   1.522  15.756  0.0095 -0.0404 -0.2090
  690MPD2    C410204   0.044   1.552  15.887  0.2294  0.3527 -0.6977
  690MPD2    C510205   4.714   1.482  15.997 -0.0991 -1.2002  0.0790
  690MPD2     H10206   4.616   1.388  15.632  2.2124 -1.4592 -0.9230
  690MPD2    H110207   0.116   1.630  15.911  2.0811 -1.4810 -0.2977
  690MPD2    H210208   4.584   1.329  16.062  1.2892 -0.0218  0.4591
  690MPD2    H310209   0.011   1.516  16.097 -0.1735 -2.5901  0.5619
  690MPD2     N10210   0.088   1.588  15.648 -0.2404  0.2698  0.2655
  690MPD2    H510211   0.064   1.554  15.555 -0.6580  0.5614  0.2634
  690MPD2    N110212   4.506   1.241  15.794  0.0380  0.4783  0.1694
  690MPD2    H710213   4.477   1.216  15.700 -1.8986  2.2703  0.2750
  691TMC3    C110214   4.366   1.056  15.824  0.7296  0.2280  0.2464
  691TMC3    C210215   4.256   1.012  15.894 -0.0993  0.1585 -0.5840
  691TMC3    C310216   4.184   0.917  15.843 -0.3207 -0.6452 -0.1858
  691TMC3    C410217   4.402   0.989  15.708  0.3584  0.0588 -0.1712
  691TMC3    C510218   4.330   0.880  15.665  0.2936 -0.1052 -0.4597
  691TMC3    C610219   4.214   0.844  15.735 -0.0562  0.1524 -0.7584
  691TMC3     C10220   4.438   1.159  15.887  0.5997  0.4717 -0.4101
  691TMC3     O10221   4.446   1.155  16.008 -0.2795 -0.1499 -0.3105
  691TMC3     H10222   4.216   1.060  15.983 -0.9697  0.5199 -1.1746
  691TMC3    H110223   4.494   1.008  15.654  0.1861 -0.3478 -0.6090
  691TMC3    H210224   4.141   0.768  15.710 -0.7289  0.4947  0.1924
  691TMC3    C710225   4.364   0.806  15.543 -0.3195  0.2622 -0.1248
  691TMC3    C810226   4.050   0.908  15.897 -0.8586  0.0472  0.3787
  691TMC3    O110227   4.441   0.863  15.468  0.0745 -0.1071 -0.1953
  691TMC3    O210228   4.014   0.793  15.910  0.6910 -0.2193  0.3884
  692TMC3    C110229   1.395   2.684  15.844  0.2533  0.3447 -0.8493
  692TMC3    C210230   1.520   2.731  15.875  0.2386 -0.0049  0.6212
  692TMC3    C310231   1.626   2.647  15.859 -0.1652 -0.1641 -0.5093
  692TMC3    C410232   1.377   2.554  15.804  0.1453  0.0332 -0.4250
  692TMC3    C510233   1.488   2.474  15.789  0.5514 -0.0019  0.3006
  692TMC3    C610234   1.610   2.513  15.830 -0.1722  0.5075 -0.0188
  692TMC3     C10235   1.282   2.756  15.895 -0.4740 -0.6011  0.0995
  692TMC3     O10236   1.178   2.694  15.908  0.2917  0.5203  0.1603
  692TMC3     H10237   1.533   2.819  15.935  0.4849  0.3892 -0.0099
  692TMC3    H110238   1.276   2.522  15.781 -0.3046  0.2992  1.1660
  692TMC3    H210239   1.697   2.455  15.800 -2.4146 -3.1773  0.6221
  692TMC3    C710240   1.470   2.343  15.733  0.3722  0.0601 -0.1119
  692TMC3    C810241   1.701   2.653  15.985  1.0774 -0.1883 -0.1924
  692TMC3    O110242   1.372   2.320  15.669 -0.0415  0.4036  0.3533
  692TMC3    O210243   1.759   2.751  16.022 -0.0951 -0.0463 -0.4857
  693MPD2     C10244   0.662   0.056  11.192 -0.3508 -0.5571  0.4808
  693MPD2    C110245   0.661   4.664  11.124  0.0998  0.2959  0.0500
  693MPD2    C210246   0.757   4.561  11.161  0.6463  0.4241  0.1041
  693MPD2    C310247   0.846   4.585  11.266 -0.4602  0.2339 -0.3135
  693MPD2    C410248   0.832   4.703  11.336  0.6693 -0.0306  0.0276
  693MPD2    C510249   0.745   0.070  11.300 -0.1306 -0.5862 -0.7441
  693MPD2     H10250   0.769   4.470  11.103 -1.6245 -0.5865  1.2386
  693MPD2    H110251   0.890   4.716  11.426  1.1642 -1.3451 -0.1141
  693MPD2    H210252   0.591   0.135  11.168 -0.6641 -1.4274 -1.5212
  693MPD2    H310253   0.728   0.161  11.357 -1.1552 -1.7522  0.7957
  693MPD2     N10254   0.945   4.496  11.308  0.3637 -0.1788 -0.1772
  693MPD2    H510255   0.992   4.513  11.397  0.5288 -0.5476 -0.1927
  693MPD2    N110256   0.570   4.663  11.014 -0.3009  0.1154  0.0987
  693MPD2    H710257   0.525   0.027  10.999 -3.0180 -0.9454  1.9114
  694TMC3    C110258   0.394   4.572  10.891  0.0187 -0.2901 -0.0950
  694TMC3    C210259   0.343   4.464  10.816 -0.5556  0.3057 -0.2210
  694TMC3    C310260   0.208   4.443  10.821 -0.2555  0.0170 -0.0022
  694TMC3    C410261   0.306   4.641  10.972  0.3412 -0.6422 -0.3982
  694TMC3    C510262   0.175   4.610  10.982 -0.0542  0.4851  0.4950
  694TMC3    C610263   0.126   4.509  10.900 -0.4512  0.3251  0.7915
  694TMC3     C10264   0.519   4.550  10.958  0.3574  0.1336  0.5820
  694TMC3     O10265   0.577   4.444  10.946 -0.4939  0.3322  0.0705
  694TMC3     H10266   0.413   4.400  10.764 -1.3073 -1.4905  0.9697
  694TMC3    H110267   0.337   0.005  11.026  0.4070 -1.2062  0.4928
  694TMC3    H210268   0.020   4.488  10.895 -0.0830 -1.1349 -1.1977
  694TMC3    C710269   0.137   4.609  11.121 -0.1811  0.1827 -0.2969
  694TMC3    C810270   0.157   4.332  10.732  0.3312 -0.0058 -0.3043
  694TMC3    O110271   0.135   4.715  11.186  0.0053 -0.1272 -0.2265
  694TMC3    O210272   0.051   4.282  10.755 -0.2538  0.2033  0.4260
  695MPD2     C10273   2.103   1.706  13.481 -0.0802 -0.7973  0.3131
  695MPD2    C110274   2.061   1.753  13.602 -0.6915  0.5648 -0.3088
  695MPD2    C210275   1.927   1.773  13.614 -0.1999  0.2785  0.7908
  695MPD2    C310276   1.841   1.764  13.509 -0.0992  0.5684 -0.2398
  695MPD2    C410277   1.885   1.738  13.384 -0.8916  0.5063  0.3182
  695MPD2    C510278   2.016   1.702  13.377  0.3304  0.0853  0.2547
  695MPD2     H10279   1.895   1.792  13.716 -2.0293  0.5587  0.1734
  695MPD2    H110280   1.818   1.725  13.300  0.8337 -1.1696 -0.8057
  695MPD2    H210281   2.206   1.680  13.457 -0.0087  0.0710 -0.3027
  695MPD2    H310282   2.053   1.658  13.285  1.2092  2.3750 -0.4877
  695MPD2     N10283   1.714   1.816  13.536 -0.2146  0.4683  0.3431
  695MPD2    H510284   1.697   1.842  13.632  0.2553  0.6820  0.3688
  695MPD2    N110285   2.139   1.784  13.721 -0.4848  0.1139 -0.5282
  695MPD2    H710286   2.092   1.829  13.798 -0.2534 -2.3620  1.0506
  696TMC3    C110287   1.489   1.862  13.526  0.1333 -0.1594 -0.3460
  696TMC3    C210288   1.459   1.777  13.628 -0.2103  0.2823 -0.1092
  696TMC3    C310289   1.355   1.792  13.709  0.5318 -0.0799  0.4414
  696TMC3    C410290   1.415   1.979  13.507  0.2028  0.3214  0.3839
  696TMC3    C510291   1.300   1.985  13.585 -0.2916  0.8828 -0.2481
  696TMC3    C610292   1.271   1.899  13.688 -0.1262 -0.0200 -0.6040
  696TMC3     C10293   1.609   1.847  13.449 -0.2328 -0.0350 -0.3113
  696TMC3     O10294   1.611   1.863  13.330  0.4053  0.4781  0.1258
  696TMC3     H10295   1.522   1.689  13.621 -1.2411 -0.4679  0.1521
  696TMC3    H110296   1.443   2.045  13.426 -1.3702  0.8817  0.3069
  696TMC3    H210297   1.176   1.895  13.740 -0.2552  0.1504 -0.8258
  696TMC3    C710298   1.229   2.112  13.576  0.9429 -0.0249  0.3683
  696TMC3    C810299   1.286   1.674  13.743 -0.0478  0.0405 -0.6710
  696TMC3    O110300   1.234   2.180  13.474  0.2685 -0.5745  0.3920
  696TMC3    O210301   1.299   1.585  13.662 -0.1069  0.0567 -1.1745
  697MPD2     C10302   1.080   4.063  16.042 -0.1201  0.5488  0.2297
  697MPD2    C110303   1.111   4.005  15.920  0.0343 -0.2534  1.0035
  697MPD2    C210304   1.176   4.090  15.830 -0.1242  0.7579 -0.9299
  697MPD2    C310305   1.195   4.222  15.848 -0.1278  0.6026  0.0906
  697MPD2    C410306   1.159   4.275  15.963 -0.2370  0.0419 -0.4569
  697MPD2    C510307   1.108   4.194  16.061 -0.2366  0.5318  0.3631
  697MPD2     H10308   1.203   4.048  15.734 -0.9902 -1.7829 -0.0548
  697MPD2    H110309   1.172   4.377  15.998 -2.9658  1.1498 -2.7157
  697MPD2    H210310   1.032   4.012  16.125 -1.6933 -2.1426 -2.3311
  697MPD2    H310311   1.088   4.225  16.164 -0.9667 -3.3758  1.3791
  697MPD2     N10312   1.261   4.295  15.744  0.1206 -0.0990 -0.1686
  697MPD2    H510313   1.288   4.235  15.666  1.7101 -1.0656  1.1182
  697MPD2    N110314   1.074   3.871  15.887 -0.7318 -0.0156  0.5547
  697MPD2    H710315   1.112   3.840  15.798 -0.7438  1.8124 -0.0908
  698TMC3    C110316   1.403   4.442  15.642  0.7264 -0.5149  0.8511
  698TMC3    C210317   1.505   4.531  15.667  0.3701 -0.0102  0.4265
  698TMC3    C310318   1.579   4.565  15.558 -0.2712  0.0653  0.0195
  698TMC3    C410319   1.369   4.395  15.520  0.5845 -0.2530  0.1077
  698TMC3    C510320   1.458   4.426  15.421 -0.2424 -0.2823 -0.5472
  698TMC3    C610321   1.556   4.517  15.436 -0.2688 -0.4695 -0.5237
  698TMC3     C10322   1.317   4.414  15.754 -0.4428 -0.0454  0.1848
  698TMC3     O10323   1.333   4.488  15.852 -0.7984 -0.3254  0.2851
  698TMC3     H10324   1.519   4.566  15.769  2.1002 -0.6345  0.3971
  698TMC3    H110325   1.294   4.320  15.500 -0.2723  0.5977  0.1253
  698TMC3    H210326   1.623   4.530  15.352  1.0450  0.0039  0.5997
  698TMC3    C710327   1.426   4.395  15.287 -0.4780  0.2851  0.2643
  698TMC3    C810328   1.719   4.609  15.590 -0.1327  0.0102 -0.2286
  698TMC3    O110329   1.307   4.384  15.261  0.2828 -0.3143 -0.4807
  698TMC3    O210330   1.743   4.620  15.710 -0.5297  0.3036 -0.6668
  699TMC3    C110331   1.458   1.701  13.032 -0.2656  0.2113 -0.5495
  699TMC3    C210332   1.552   1.620  13.094 -0.4840  0.8016  0.3779
  699TMC3    C310333   1.525   1.588  13.223 -0.2851  0.0957 -0.3345
  699TMC3    C410334   1.352   1.750  13.101 -0.1689 -1.2177  0.3818
  699TMC3    C510335   1.323   1.707  13.226 -1.0283  0.0553  0.2172
  699TMC3    C610336   1.417   1.636  13.296  0.0864  0.2894 -0.9430
  699TMC3     C10337   1.487   1.794  12.917  0.1546  0.1213  0.4795
  699TMC3     O10338   1.385   1.828  12.855 -0.1448 -0.1057 -0.3009
  699TMC3     H10339   1.653   1.604  13.058 -0.7885  0.1696 -0.1875
  699TMC3    H110340   1.282   1.812  13.045  1.3371  1.0269  0.9749
  699TMC3    H210341   1.403   1.632  13.403  0.7469 -0.7966 -0.8970
  699TMC3    C710342   1.208   1.765  13.295  0.6968  0.7517 -0.3933
  699TMC3    C810343   1.573   1.462  13.275  0.3628  1.0454 -0.2451
  699TMC3    O110344   1.163   1.876  13.261 -0.6883 -0.5680 -0.3635
  699TMC3    O210345   1.564   1.452  13.394 -0.3813 -0.6111 -0.1562
  700TMC3    C110346   0.366   4.662   0.090  0.6776  0.1335 -0.0438
  700TMC3    C210347   0.413   4.536   0.065  0.0867 -0.1781  0.2655
  700TMC3    C310348   0.526   4.495   0.139 -0.2389 -1.0772 -0.7874
  700TMC3    C410349   0.426   0.022   0.181 -0.0432 -0.0897  0.1364
  700TMC3    C510350   0.534   4.702   0.250 -0.2463  0.1264  0.3014
  700TMC3    C610351   0.594   4.582   0.228  1.1329  0.1734 -0.1880
  700TMC3     C10352   0.301   0.008  17.682 -0.2583  0.5065 -0.7218
  700TMC3     O10353   0.197   4.688  17.630  0.2039 -0.0187  0.1727
  700TMC3     H10354   0.363   4.480  17.688  0.6149  0.0810 -0.2577
  700TMC3    H110355   0.381   0.117   0.205 -2.2275 -1.5716  1.8797
  700TMC3    H210356   0.683   4.546   0.279  0.7523  2.5030  2.0485
  700TMC3    C710357   0.611   0.078   0.318  0.0260  0.4287 -0.0980
  700TMC3    C810358   0.587   4.366   0.099  0.2295  0.6097  0.3817
  700TMC3    O110359   0.573   0.194   0.302  0.0729 -0.2657  0.2758
  700TMC3    O210360   0.531   4.298   0.015  0.2283  0.6121  0.2858
  701TMC3    C110361   0.308   3.360  15.694  0.4851 -0.4629  0.7679
  701TMC3    C210362   0.347   3.319  15.570 -1.1097  0.5192 -0.2407
  701TMC3    C310363   0.424   3.407  15.495 -0.1170 -0.7412 -0.4824
  701TMC3    C410364   0.348   3.482  15.750  0.6970  0.7676 -0.2885
  701TMC3    C510365   0.433   3.556  15.672 -0.9313 -0.2354 -0.2077
  701TMC3    C610366   0.473   3.523  15.544 -0.0286  0.5775 -0.3429
  701TMC3     C10367   0.222   3.272  15.770 -0.5127  0.6075 -0.5260
  701TMC3     O10368   0.196   3.307  15.887  0.3670 -0.2986 -0.9174
  701TMC3     H10369   0.309   3.230  15.521  1.5352 -0.6076 -0.2268
  701TMC3    H110370   0.323   3.499  15.854 -0.8032  0.8642 -0.6598
  701TMC3    H210371   0.540   3.577  15.477  1.2663  0.8239  1.1551
  701TMC3    C710372   0.490   3.681  15.720 -0.1681 -0.5935 -0.1862
  701TMC3    C810373   0.461   3.366  15.359  0.0019  0.1048  0.3064
  701TMC3    O110374   0.587   3.726  15.656 -1.2795 -0.3560  0.1452
  701TMC3    O210375   0.563   3.407  15.309 -0.0400 -0.0127  0.1193
  702MPD2     C10376   4.626   0.208  10.475 -0.3348  0.5235 -0.0627
  702MPD2    C110377   4.551   0.310  10.535 -0.1427  0.1258 -0.2251
  702MPD2    C210378   4.596   0.436  10.517  0.4544  0.4999 -0.4539
  702MPD2    C310379   4.712   0.466  10.444 -0.0293 -0.4330  0.5523
  702MPD2    C410380   0.060   0.368  10.383 -0.4803 -0.3155  0.0837
  702MPD2    C510381   0.014   0.235  10.407  0.0275  0.4174 -0.6049
  702MPD2     H10382   4.537   0.517  10.557  0.4913 -0.5568  1.7215
  702MPD2    H110383   0.157   0.388  10.340 -0.9447 -2.1053 -1.8068
  702MPD2    H210384   4.597   0.104  10.488  1.2241  0.1774  0.5605
  702MPD2    H310385   0.073   0.151  10.373  1.7248  0.5848  1.9613
  702MPD2     N10386   0.036   0.600  10.428 -0.0961 -0.0139  0.2462
  702MPD2    H510387   0.110   0.614  10.360  0.9767 -0.6034  1.2878
  702MPD2    N110388   4.434   0.298  10.615 -0.1837 -0.6816 -0.0167
  702MPD2    H710389   4.396   0.386  10.649  0.7085  0.0418 -0.8880
  703TMC3    C110390   0.050   0.838  10.450  0.1554 -0.4649  0.5960
  703TMC3    C210391   4.701   0.948  10.488  0.0861 -0.4424 -0.5205
  703TMC3    C310392   0.041   1.072  10.474 -0.2230 -0.9531  0.4714
  703TMC3    C410393   0.184   0.842  10.435 -0.8302  0.9269  0.3696
  703TMC3    C510394   0.238   0.962  10.409  0.4011 -0.5713  0.4128
  703TMC3    C610395   0.169   1.077  10.428  0.5092 -0.6177 -0.3077
  703TMC3     C10396   4.703   0.718  10.486 -0.0199 -0.2782 -0.2112
  703TMC3     O10397   4.627   0.731  10.582  0.6379 -0.3640 -0.4032
  703TMC3     H10398   4.593   0.935  10.489 -0.2186  2.2462  1.4594
  703TMC3    H110399   0.231   0.745  10.425  2.1878  2.5818 -1.7265
  703TMC3    H210400   0.217   1.174  10.435 -1.1321  0.1084  0.7674
  703TMC3    C710401   0.348   0.983  10.321  0.3232 -0.4996 -0.4055
  703TMC3    C810402   4.703   1.199  10.519 -0.8921 -0.6785  0.7010
  703TMC3    O110403   0.332   1.070  10.239 -0.5359 -0.6370 -0.2508
  703TMC3    O210404   0.048   1.297  10.547  0.3749 -0.1525 -0.1110
  704TMC3    C110405   1.754   3.849  12.422 -0.4064 -0.0434 -0.1936
  704TMC3    C210406   1.891   3.848  12.422 -0.4946 -0.5456 -0.4072
  704TMC3    C310407   1.960   3.743  12.471  0.4946  0.0188  0.2937
  704TMC3    C410408   1.696   3.730  12.454 -0.5742 -0.6761 -0.1712
  704TMC3    C510409   1.769   3.619  12.487  0.7113 -1.0770 -0.1308
  704TMC3    C610410   1.898   3.624  12.501 -0.0884 -0.0950  0.3403
  704TMC3     C10411   1.687   3.948  12.332  0.2747 -0.6172 -0.1638
  704TMC3     O10412   1.566   3.943  12.332  0.5131 -0.3953 -0.1143
  704TMC3     H10413   1.950   3.936  12.400 -2.6500  0.7288 -1.1273
  704TMC3    H110414   1.588   3.726  12.467 -0.7020 -1.3193 -1.4615
  704TMC3    H210415   1.958   3.540  12.534  0.3018  1.0460  2.5457
  704TMC3    C710416   1.694   3.506  12.523  0.4007 -0.2971 -0.5136
  704TMC3    C810417   2.090   3.718  12.418  0.2579  0.4054  0.2314
  704TMC3    O110418   1.578   3.516  12.559 -0.2597 -0.2282  0.4858
  704TMC3    O210419   2.106   3.614  12.359 -0.0962 -0.0970 -0.1087
  705MPD2     C10420   2.207   1.931  16.783 -0.0353  0.6985 -0.3474
  705MPD2    C110421   2.147   1.996  16.676  0.4535  0.0602  0.1315
  705MPD2    C210422   2.024   2.057  16.700  0.8116 -0.3904 -0.5776
  705MPD2    C310423   1.964   2.054  16.824 -0.7396 -0.1940 -0.1917
  705MPD2    C410424   2.023   1.979  16.924 -0.2398  0.1788  0.6808
  705MPD2    C510425   2.141   1.911  16.902 -0.3053 -0.2294 -0.4177
  705MPD2     H10426   1.993   2.131  16.627  0.4172 -0.5656 -0.5866
  705MPD2    H110427   1.985   1.976  17.026 -3.1710  2.6122 -0.3408
  705MPD2    H210428   2.310   1.899  16.776 -0.5617 -1.8415  3.3685
  705MPD2    H310429   2.193   1.865  16.984  0.0307  2.4326  0.8768
  705MPD2     N10430   1.862   2.134  16.871 -0.1166 -0.4124 -0.1832
  705MPD2    H510431   1.829   2.131  16.967  3.5155 -0.3857  1.0342
  705MPD2    N110432   2.211   2.021  16.553  0.1172  0.3236  0.1416
  705MPD2    H710433   2.153   2.078  16.493  0.9206 -0.5904 -1.4814
  706TMC3    C110434   2.496   1.974  16.188  0.1192  0.2708  0.2762
  706TMC3    C210435   2.445   2.083  16.126 -0.2134  0.2843 -0.3708
  706TMC3    C310436   2.363   2.164  16.193  0.0590  0.1592 -0.2202
  706TMC3    C410437   2.468   1.938  16.319  0.3476  0.1832  0.2181
  706TMC3    C510438   2.370   2.014  16.380 -0.4626  0.0990  0.8776
  706TMC3    C610439   2.319   2.130  16.320  0.5715 -0.1951 -0.6513
  706TMC3     C10440   2.613   1.916  16.124  0.2039  0.0883  0.1622
  706TMC3     O10441   2.702   1.882  16.201  0.2673 -0.3069  0.1817
  706TMC3     H10442   2.494   2.112  16.035  2.5906  1.3300  1.4769
  706TMC3    H110443   2.521   1.859  16.373 -0.1184 -0.2119  0.0966
  706TMC3    H210444   2.242   2.191  16.366  1.9133  0.3727  0.8601
  706TMC3    C710445   2.322   1.962  16.506 -0.1910 -0.0568 -0.1350
  706TMC3    C810446   2.294   2.280  16.123 -0.0177 -0.3610 -0.4585
  706TMC3    O110447   2.396   1.879  16.562  0.2936 -0.2620 -0.6577
  706TMC3    O210448   2.243   2.374  16.185  0.4870  0.3606  0.0793
  707TMC3    C110449   2.934   1.344   1.487 -0.0730 -0.4455  0.2059
  707TMC3    C210450   2.922   1.212   1.467  0.8284  0.3724 -0.4286
  707TMC3    C310451   2.821   1.166   1.385  0.1110 -0.7676 -0.6609
  707TMC3    C410452   2.866   1.427   1.405 -0.7290  0.5645 -0.2215
  707TMC3    C510453   2.765   1.385   1.326 -0.0676 -0.0126  0.4851
  707TMC3    C610454   2.737   1.246   1.318  0.5365  0.1905 -0.4002
  707TMC3     C10455   3.072   1.375   1.511  0.2423 -0.4449  0.0566
  707TMC3     O10456   3.147   1.280   1.502 -0.2743 -0.3131  0.5605
  707TMC3     H10457   2.973   1.148   1.538 -1.3570 -0.7704  0.0965
  707TMC3    H110458   2.870   1.534   1.425  1.5085  0.6290 -1.0229
  707TMC3    H210459   2.660   1.216   1.247 -0.4444 -1.5905  1.4182
  707TMC3    C710460   2.733   1.468   1.206 -0.6209 -0.3162 -0.4244
  707TMC3    C810461   2.821   1.032   1.345 -0.2943  0.9237 -0.1908
  707TMC3    O110462   2.638   1.433   1.139 -0.6752  0.0817 -0.5260
  707TMC3    O210463   2.728   1.000   1.274  0.5300 -0.2027 -0.1634
  708MPD2     C10464   0.822   4.650  13.986 -0.3109 -0.0931 -0.8214
  708MPD2    C110465   0.739   0.033  13.960 -0.0572  0.9313  0.4815
  708MPD2    C210466   0.653   0.079  14.055  0.3349 -0.2420 -0.0218
  708MPD2    C310467   0.647   0.014  14.179 -0.1582  0.4933 -0.0402
  708MPD2    C410468   0.724   4.630  14.208 -0.3384  0.5593 -0.4561
  708MPD2    C510469   0.817   4.587  14.110 -0.8017 -0.1870 -0.4410
  708MPD2     H10470   0.599   0.169  14.028  0.8509  0.0483 -0.0909
  708MPD2    H110471   0.713   4.589  14.307  0.1612  0.9423 -0.2412
  708MPD2    H210472   0.870   4.592  13.909 -1.9992  1.6997 -3.2152
  708MPD2    H310473   0.889   4.510  14.133 -0.8798  0.3902  1.6857
  708MPD2     N10474   0.552   0.048  14.277 -0.4198  0.3391 -0.1160
  708MPD2    H510475   0.557   0.001  14.366 -1.4970 -1.4450 -0.9904
  708MPD2    N110476   0.734   0.099  13.835 -0.3306  0.0650  0.3369
  708MPD2    H710477   0.670   0.177  13.829 -0.3577  0.1346  1.6686
  709TMC3    C110478   0.762   0.147  13.603  0.3222  0.0739 -0.2975
  709TMC3    C210479   0.716   0.071  13.499 -0.0731  0.0841  0.0109
  709TMC3    C310480   0.591   0.075  13.462  0.2119  0.7528  0.2694
  709TMC3    C410481   0.693   0.260  13.637  0.7976  0.3379 -1.1043
  709TMC3    C510482   0.558   0.264  13.601  0.7135  0.0679  0.5949
  709TMC3    C610483   0.505   0.173  13.516  0.0789 -0.2917 -0.9452
  709TMC3     C10484   0.786   0.050  13.710  0.4722  0.1179  0.0365
  709TMC3     O10485   0.862   4.681  13.693  0.1916  0.4534 -0.2695
  709TMC3     H10486   0.780   4.711  13.475 -0.7445 -0.2850 -0.4565
  709TMC3    H110487   0.738   0.321  13.715  2.2522 -0.0810 -1.6251
  709TMC3    H210488   0.401   0.178  13.485  0.1368 -1.8011 -1.3913
  709TMC3    C710489   0.472   0.305  13.710  0.3541  0.0767  0.6692
  709TMC3    C810490   0.533   4.692  13.382  0.1508 -1.0429 -0.9909
  709TMC3    O110491   0.533   0.297  13.817 -0.0529 -0.1991  0.6773
  709TMC3    O210492   0.606   4.592  13.380  0.2918 -0.2474 -0.3388
  710TMC3    C110493   1.379   1.598   0.387  0.0483 -0.4564 -0.4452
  710TMC3    C210494   1.432   1.576   0.262 -0.7818 -0.3081 -0.2581
  710TMC3    C310495   1.550   1.502   0.249 -0.9257  0.5196 -0.2760
  710TMC3    C410496   1.435   1.535   0.494  0.6367 -0.0319  0.1688
  710TMC3    C510497   1.556   1.472   0.478  0.1723  0.5406 -0.9266
  710TMC3    C610498   1.611   1.447   0.355 -0.0764  0.0319  0.2385
  710TMC3     C10499   1.271   1.701   0.403 -0.1034  0.0090  0.3360
  710TMC3     O10500   1.231   1.750   0.295 -0.1210  0.4871 -0.0165
  710TMC3     H10501   1.389   1.627   0.176 -0.5180 -0.6883 -0.6162
  710TMC3    H110502   1.394   1.552   0.593  1.0194 -1.1349  0.5155
  710TMC3    H210503   1.686   1.369   0.352  1.2436  1.2845  0.7605
  710TMC3    C710504   1.617   1.422   0.597 -0.7184  0.2691 -0.7492
  710TMC3    C810505   1.642   1.526   0.138 -0.4581 -0.0066 -0.4505
  710TMC3    O110506   1.564   1.433   0.706 -0.0720 -0.5558  0.4996
  710TMC3    O210507   1.754   1.486   0.155  0.0598 -0.6949 -0.1886
  711TMC3    C110508   0.882   2.570  15.082 -0.3799 -0.4109  0.1506
  711TMC3    C210509   0.931   2.681  15.144 -0.3352 -0.2029 -0.3783
  711TMC3    C310510   1.012   2.662  15.254 -0.1323 -0.3852  0.6508
  711TMC3    C410511   0.908   2.440  15.132 -0.1689  0.0500  0.2364
  711TMC3    C510512   0.995   2.426  15.230  0.0649 -0.2802  0.2782
  711TMC3    C610513   1.042   2.534  15.300 -0.6038  0.2702 -0.1056
  711TMC3     C10514   0.768   2.586  14.985 -0.0167  0.2023  0.1827
  711TMC3     O10515   0.697   2.485  14.980  0.4925  0.1972 -0.7051
  711TMC3     H10516   0.887   2.775  15.113 -0.8506  0.1419  1.4131
  711TMC3    H110517   0.853   2.351  15.104 -1.7530  0.5412  1.7753
  711TMC3    H210518   1.109   2.522  15.385  0.4810 -1.3680 -1.2208
  711TMC3    C710519   1.080   2.308  15.239 -0.3998 -0.4232 -0.4948
  711TMC3    C810520   1.063   2.779  15.307 -0.2053 -0.7881 -0.4089
  711TMC3    O110521   1.154   2.304  15.336 -0.0579 -0.1946 -0.1989
  711TMC3    O210522   1.012   2.884  15.275 -0.1465 -0.6730 -0.0982
  712MPD2     C10523   1.985   3.658  13.728 -0.4259 -0.1577 -0.2451
  712MPD2    C110524   1.936   3.720  13.613  0.3265  0.2310 -1.0847
  712MPD2    C210525   1.928   3.856  13.605 -0.5356  0.2093 -0.2307
  712MPD2    C310526   1.969   3.935  13.710  0.7161  0.2880 -0.5214
  712MPD2    C410527   2.023   3.877  13.822  0.4725 -0.4530  0.2625
  712MPD2    C510528   2.025   3.740  13.828  0.0967  0.4015 -0.5224
  712MPD2     H10529   1.896   3.909  13.516  0.4127 -0.0751 -0.7418
  712MPD2    H110530   2.084   3.933  13.892  1.4367 -1.1805  0.0010
  712MPD2    H210531   1.998   3.551  13.736  0.8818  0.2162  2.4426
  712MPD2    H310532   2.085   3.690  13.903  1.2734  0.4260 -1.4528
  712MPD2     N10533   1.972   4.077  13.715  0.0798 -0.6354  0.2820
  712MPD2    H510534   2.021   4.133  13.785 -0.0177  1.2113 -1.1090
  712MPD2    N110535   1.868   3.650  13.516 -0.2758  0.4830 -0.1682
  712MPD2    H710536   1.836   3.710  13.440  3.0188  0.5981 -1.4887
  713TMC3    C110537   1.935   4.292  13.614 -0.1439  0.8306  0.2894
  713TMC3    C210538   2.053   4.341  13.661  0.0747  0.3948  0.1622
  713TMC3    C310539   2.089   4.460  13.611 -0.2558  0.0722 -0.4652
  713TMC3    C410540   1.849   4.363  13.528 -0.1984  0.4697  0.2179
  713TMC3    C510541   1.889   4.490  13.488  0.1966  0.4204  0.1530
  713TMC3    C610542   2.009   4.534  13.526  0.9234 -0.1681 -1.1698
  713TMC3     C10543   1.905   4.150  13.628 -0.5757 -0.1184 -0.3390
  713TMC3     O10544   1.822   4.116  13.540 -0.2957  0.4297 -0.1650
  713TMC3     H10545   2.129   4.275  13.703 -0.3949 -0.1952  0.0890
  713TMC3    H110546   1.764   4.321  13.477  0.3237 -1.4603  0.9304
  713TMC3    H210547   2.045   4.633  13.501 -1.3645  0.8418 -0.4355
  713TMC3    C710548   1.819   4.546  13.371  0.1018  0.1711 -0.1307
  713TMC3    C810549   2.217   4.513  13.641  0.2092 -0.1149  0.1920
  713TMC3    O110550   1.707   4.501  13.354  0.4613 -0.1028 -0.1510
  713TMC3    O210551   2.274   4.560  13.542 -0.3176  0.5840 -0.2373
  714MPD2     C10552   4.507   2.584   1.518  0.1391 -0.9434  0.2257
  714MPD2    C110553   4.564   2.524   1.410  1.2737  0.2374  0.7447
  714MPD2    C210554   4.527   2.549   1.282 -0.4195 -0.7201 -0.0724
  714MPD2    C310555   4.434   2.648   1.265 -0.4189  0.6491  0.2026
  714MPD2    C410556   4.372   2.713   1.373  0.6925 -0.2269 -0.2868
  714MPD2    C510557   4.406   2.675   1.498 -0.6810  0.1761 -0.1632
  714MPD2     H10558   4.571   2.495   1.199  0.3997  1.1817 -0.8670
  714MPD2    H110559   4.299   2.793   1.375  2.5298  1.4427 -0.0054
  714MPD2    H210560   4.515   2.542   1.617  0.5674 -0.2002  0.5111
  714MPD2    H310561   4.350   2.713   1.583  0.8104 -0.0424  0.9248
  714MPD2     N10562   4.400   2.667   1.127 -0.0444  0.1033 -0.3206
  714MPD2    H510563   4.458   2.623   1.056 -0.2220 -2.5579  1.1895
  714MPD2    N110564   4.673   2.437   1.444  1.4126  0.4640 -0.0047
  714MPD2    H710565   4.693   2.443   1.544  0.2387  1.8349  0.1496
  715TMC3    C110566   0.150   2.312   1.405 -0.2255 -0.4990  0.1721
  715TMC3    C210567   0.218   2.209   1.345  0.0906  0.7753 -0.1216
  715TMC3    C310568   0.338   2.160   1.387 -0.1571 -0.2640  0.2389
  715TMC3    C410569   0.214   2.379   1.507  0.1150  0.2961  0.6466
  715TMC3    C510570   0.344   2.341   1.549 -0.6367  0.2076 -0.4225
  715TMC3    C610571   0.402   2.231   1.483 -0.7446 -0.1516 -0.3476
  715TMC3     C10572   0.019   2.350   1.358 -0.3039  0.7772 -0.1987
  715TMC3     O10573   4.708   2.302   1.251 -0.3304 -0.0482 -0.2742
  715TMC3     H10574   0.160   2.157   1.270  0.0253  0.6719 -0.0011
  715TMC3    H110575   0.170   2.470   1.543  0.1005  1.1826 -1.6225
  715TMC3    H210576   0.504   2.214   1.514 -0.2700 -1.9286 -2.8606
  715TMC3    C710577   0.419   2.407   1.658 -0.4981  0.1389  0.3336
  715TMC3    C810578   0.400   2.064   1.298 -0.0778 -0.0814 -0.0596
  715TMC3    O110579   0.536   2.381   1.675 -0.3294  0.0797 -0.4307
  715TMC3    O210580   0.368   2.063   1.184  0.1386  0.0956  0.5650
  716MPD2     C10581   0.166   4.634  10.042 -0.1616 -0.5065  0.1332
  716MPD2    C110582   0.222   4.678   9.920 -0.3307 -0.3953 -0.5381
  716MPD2    C210583   0.264   4.578   9.833 -0.8696  0.4659 -0.1392
  716MPD2    C310584   0.252   4.445   9.865 -0.0775 -0.4728 -0.1813
  716MPD2    C410585   0.206   4.408   9.994 -0.2305  0.1585  0.6398
  716MPD2    C510586   0.171   4.506  10.076  0.2992  0.2722 -0.1756
  716MPD2     H10587   0.301   4.606   9.735  0.4283  0.4719  0.3523
  716MPD2    H110588   0.185   4.305  10.021  0.0890 -0.5061 -1.6207
  716MPD2    H210589   0.139   4.709  10.116 -0.1099  0.3395 -0.6990
  716MPD2    H310590   0.119   4.484  10.168 -0.0504 -0.2637 -0.4983
  716MPD2     N10591   0.252   4.354   9.760  0.4665  0.0756 -0.0794
  716MPD2    H510592   0.276   4.382   9.665 -0.4836  0.9818 -0.0487
  716MPD2    N110593   0.222   0.090   9.896  0.3008  0.3096 -0.0288
  716MPD2    H710594   0.173   0.150   9.962  1.5915  0.2748  0.9600
  717TMC3    C110595   0.218   4.158   9.632 -0.0691 -0.0710 -0.9154
  717TMC3    C210596   0.160   4.241   9.540  1.1321 -0.2874  0.1267
  717TMC3    C310597   0.118   4.179   9.425 -0.7240  0.1037  0.6570
  717TMC3    C410598   0.236   4.021   9.614  0.1911 -0.3472  0.6080
  717TMC3    C510599   0.207   3.971   9.492 -0.8015  0.1737  0.5605
  717TMC3    C610600   0.141   4.048   9.398 -0.2265  0.3677  0.2923
  717TMC3     C10601   0.236   4.216   9.765 -0.9248 -0.5570  0.5170
  717TMC3     O10602   0.228   4.132   9.860  0.0716  0.3442 -0.2584
  717TMC3     H10603   0.128   4.343   9.558  3.8392  0.6876 -0.5799
  717TMC3    H110604   0.295   3.961   9.681  1.8031  0.2068 -0.2999
  717TMC3    H210605   0.128   4.012   9.297 -2.4059 -0.8518  0.9956
  717TMC3    C710606   0.212   3.833   9.464  0.1656  0.3498  0.1511
  717TMC3    C810607   0.090   4.276   9.324 -0.3175 -0.0775 -0.2028
  717TMC3    O110608   0.204   3.789   9.350  0.4246  0.3911  0.5497
  717TMC3    O210609   0.129   4.389   9.336 -0.2325  0.5065  0.1534
  718MPD2     C10610   3.812   3.921  12.798 -1.1020 -0.0008 -0.7095
  718MPD2    C110611   3.750   4.001  12.703  0.3838  0.4262 -0.3986
  718MPD2    C210612   3.616   4.036  12.719  0.0538  0.2113  0.0613
  718MPD2    C310613   3.546   3.981  12.821  0.1996 -0.4208 -0.0449
  718MPD2    C410614   3.617   3.912  12.922 -0.2493 -0.1034  0.1067
  718MPD2    C510615   3.752   3.887  12.915 -0.7414 -0.6880 -0.2835
  718MPD2     H10616   3.571   4.095  12.641 -1.0054 -0.9481 -0.2046
  718MPD2    H110617   3.556   3.879  13.005 -1.3729  0.1133 -0.6207
  718MPD2    H210618   3.916   3.901  12.773 -0.2335  3.8057 -0.2516
  718MPD2    H310619   3.807   3.837  12.993 -1.8680  0.8071  1.4743
  718MPD2     N10620   3.413   4.027  12.828 -0.6176  0.4791 -0.0904
  718MPD2    H510621   3.368   4.082  12.756 -1.1182 -2.6052 -2.1422
  718MPD2    N110622   3.812   4.059  12.592  0.3308  0.3209 -0.7065
  718MPD2    H710623   3.753   4.120  12.537  0.0182  2.0183  1.5207
  719TMC3    C110624   3.974   4.160  12.457  0.4397 -0.0909  0.3562
  719TMC3    C210625   3.868   4.178  12.369 -0.0348 -0.7397 -0.3469
  719TMC3    C310626   3.831   4.310  12.330 -0.1540 -0.1636 -0.7991
  719TMC3    C410627   4.041   4.266  12.499  0.1637  0.9799  0.1935
  719TMC3    C510628   4.017   4.391  12.445  0.4616  0.6086  0.4957
  719TMC3    C610629   3.908   4.424  12.363 -0.3521  0.4159 -1.0212
  719TMC3     C10630   3.948   4.059  12.563  0.1946 -0.2504  0.1468
  719TMC3     O10631   4.033   4.037  12.645  0.5051  0.8370  0.6348
  719TMC3     H10632   3.806   4.092  12.346 -1.9397  0.4851  0.1502
  719TMC3    H110633   4.137   4.265  12.550 -0.0538 -0.1626  0.5596
  719TMC3    H210634   3.913   4.508  12.294  0.2893  0.6856 -0.6463
  719TMC3    C710635   4.132   4.469  12.424 -0.1481  0.6557  0.0697
  719TMC3    C810636   3.688   4.319  12.365  0.4436 -0.0814  0.5708
  719TMC3    O110637   4.240   4.412  12.415  0.1945 -0.1858 -0.1913
  719TMC3    O210638   3.650   4.216  12.425 -0.1737 -0.2970  0.4877
  720MPD2     C10639   2.612   1.046  13.944 -0.1730  0.9521  0.5917
  720MPD2    C110640   2.726   1.028  13.864 -0.3066  0.0817  0.4246
  720MPD2    C210641   2.840   0.973  13.922  0.0121  0.3446 -0.2270
  720MPD2    C310642   2.850   0.948  14.059  0.2625  0.0340  0.3416
  720MPD2    C410643   2.737   0.960  14.134  0.3794 -0.2762  0.1669
  720MPD2    C510644   2.622   1.011  14.078 -0.3777  0.2193  0.3721
  720MPD2     H10645   2.929   0.966  13.860  1.2520 -2.1455  1.8352
  720MPD2    H110646   2.738   0.931  14.239 -0.7735  1.7252  0.7369
  720MPD2    H210647   2.521   1.093  13.907  0.3856 -0.8565 -3.0401
  720MPD2    H310648   2.531   1.020  14.137  0.3323 -0.4325  1.5653
  720MPD2     N10649   2.984   0.905  14.109  0.2635 -0.1402  0.2119
  720MPD2    H510650   3.055   0.915  14.037  0.3679 -0.7778  0.2308
  720MPD2    N110651   2.736   1.054  13.730  0.1093  0.5810  0.8089
  720MPD2    H710652   2.825   1.047  13.682  1.2930  0.2272  3.0421
  721TMC3    C110653   3.149   0.874  14.250  0.6390 -0.2563  0.2773
  721TMC3    C210654   3.185   0.936  14.361 -0.8214  0.5971  0.5074
  721TMC3    C310655   3.315   0.978  14.370 -0.6795  0.1020  0.2064
  721TMC3    C410656   3.240   0.853  14.144 -0.0988 -0.1323 -0.4244
  721TMC3    C510657   3.372   0.896  14.162  0.7063 -0.5138 -0.6361
  721TMC3    C610658   3.406   0.968  14.273  0.0111 -0.0933 -0.2155
  721TMC3     C10659   3.012   0.854  14.229  0.3351 -0.6600 -0.6436
  721TMC3     O10660   2.934   0.803  14.312 -0.6249  0.4788  0.1848
  721TMC3     H10661   3.118   0.926  14.446 -1.6899 -0.1938 -0.2682
  721TMC3    H110662   3.219   0.788  14.060  1.9164 -1.1399 -0.1635
  721TMC3    H210663   3.509   1.001  14.279 -0.1674  0.5757 -0.9405
  721TMC3    C710664   3.457   0.916  14.044 -0.4842  0.1815 -0.2539
  721TMC3    C810665   3.349   1.060  14.480  0.1834 -0.3958  0.0375
  721TMC3    O110666   3.573   0.936  14.056 -0.0909  0.1890  0.3027
  721TMC3    O210667   3.465   1.055  14.522  0.0534  0.3865  0.1357
  722MPD2     C10668   0.818   4.459  13.191  0.0831  0.1423 -0.3786
  722MPD2    C110669   0.830   4.506  13.065 -0.1096  0.0926  0.6759
  722MPD2    C210670   0.763   4.445  12.961 -0.5413 -0.4841 -0.7043
  722MPD2    C310671   0.679   4.339  12.979  0.3503 -0.4412 -0.1714
  722MPD2    C410672   0.662   4.292  13.108  0.6096  0.0268 -0.5556
  722MPD2    C510673   0.737   4.351  13.208 -0.1484  0.4923  0.4661
  722MPD2     H10674   0.784   4.476  12.859 -0.1723  0.4107 -0.3619
  722MPD2    H110675   0.591   4.215  13.136  2.0871 -0.6373  1.3612
  722MPD2    H210676   0.873   4.497  13.276 -1.8157 -0.4572  1.1099
  722MPD2    H310677   0.710   4.324  13.309  0.5951 -2.1489 -0.0253
  722MPD2     N10678   0.611   4.282  12.871 -0.1641  0.3606  0.2088
  722MPD2    H510679   0.634   4.321  12.780 -1.2686  1.6563  0.4797
  722MPD2    N110680   0.921   4.610  13.037  0.0705  0.3765 -0.5257
  722MPD2    H710681   0.920   4.641  12.940 -0.2309 -0.9465 -0.9517
  723TMC3    C110682   0.448   4.182  12.743  0.4303  0.3443 -0.0056
  723TMC3    C210683   0.378   4.065  12.710  0.1637 -0.5259 -1.0486
  723TMC3    C310684   0.282   4.083  12.613  0.3297 -0.0636  0.9026
  723TMC3    C410685   0.419   4.306  12.691 -0.1685  0.4338 -0.2459
  723TMC3    C510686   0.321   4.317  12.591 -0.1751  0.2024 -0.4203
  723TMC3    C610687   0.249   4.204  12.553 -0.4828 -0.4684  0.0409
  723TMC3     C10688   0.513   4.190  12.872  0.4093  0.1533  0.2587
  723TMC3     O10689   0.462   4.132  12.965 -0.1849  0.2014  0.1921
  723TMC3     H10690   0.413   3.974  12.758 -0.5312  0.2766  1.0070
  723TMC3    H110691   0.461   4.396  12.736  0.9041 -0.2799  0.1886
  723TMC3    H210692   0.173   4.208  12.476 -0.4032 -0.9677 -0.0635
  723TMC3    C710693   0.280   4.451  12.547  0.3230 -0.1588  1.0136
  723TMC3    C810694   0.193   3.980  12.581 -0.8924  0.1736  0.1093
  723TMC3    O110695   0.198   4.461  12.459  0.3684  0.0839  0.6843
  723TMC3    O210696   0.090   4.001  12.529 -0.3280 -0.5444 -0.1826
  724TMC3    C110697   2.249   2.240  10.421  0.0886 -0.3464  0.0752
  724TMC3    C210698   2.317   2.290  10.316 -0.7204  0.3582 -0.3002
  724TMC3    C310699   2.393   2.404  10.330 -0.5342  0.4052  0.4201
  724TMC3    C410700   2.249   2.301  10.552  0.6450 -0.6153 -0.5506
  724TMC3    C510701   2.320   2.424  10.556 -0.1373 -0.1824  0.0662
  724TMC3    C610702   2.390   2.471  10.448 -0.0241  0.0677 -0.1419
  724TMC3     C10703   2.186   2.111  10.418  0.2427  0.1458 -0.2742
  724TMC3     O10704   2.198   2.055  10.526  0.2517 -1.1487 -0.1416
  724TMC3     H10705   2.344   2.222  10.235  2.1731  0.2909  0.7307
  724TMC3    H110706   2.190   2.273  10.638 -0.4524  0.5366 -0.9289
  724TMC3    H210707   2.447   2.564  10.450 -0.5332  0.3525  1.4205
  724TMC3    C710708   2.316   2.512  10.674  0.0354 -0.6089 -0.4960
  724TMC3    C810709   2.490   2.451  10.233 -0.1839  0.1468 -0.1017
  724TMC3    O110710   2.379   2.617  10.660  0.3085  0.1228 -0.1149
  724TMC3    O210711   2.536   2.354  10.172  0.4450  0.5172  0.3524
  725TMC3    C110712   3.046   1.530  12.821 -0.2535 -0.4125 -0.6214
  725TMC3    C210713   2.990   1.539  12.699 -0.2390 -0.1080 -0.1775
  725TMC3    C310714   2.891   1.450  12.670  0.4597  0.2601  0.1224
  725TMC3    C410715   2.997   1.451  12.925  0.6435  0.6960  0.4565
  725TMC3    C510716   2.894   1.364  12.886 -0.7292 -0.1386 -0.3011
  725TMC3    C610717   2.844   1.358  12.763  0.0074  0.2275  0.3432
  725TMC3     C10718   3.163   1.602  12.841 -0.9001  0.3902 -0.3101
  725TMC3     O10719   3.159   1.662  12.948  0.0411  0.3064  0.4635
  725TMC3     H10720   3.040   1.602  12.627  0.1721  0.1768  0.3535
  725TMC3    H110721   3.048   1.460  13.020  0.3968 -0.6573  0.7089
  725TMC3    H210722   2.762   1.291  12.740 -0.0741  0.6920 -0.7395
  725TMC3    C710723   2.889   1.232  12.947 -1.2912  0.4127 -0.1776
  725TMC3    C810724   2.844   1.417  12.536  0.0384 -0.1226  0.2891
  725TMC3    O110725   2.841   1.144  12.878  0.1842  0.0581  0.1291
  725TMC3    O210726   2.789   1.305  12.528 -0.4083  0.1626  0.1670
  726MPD2     C10727   1.181   2.105  10.638 -0.0801 -0.1196  1.0013
  726MPD2    C110728   1.212   2.235  10.634  0.1384  0.5572 -0.1210
  726MPD2    C210729   1.138   2.323  10.710  0.3638  0.2980 -0.5924
  726MPD2    C310730   1.040   2.285  10.796 -0.1747 -0.0135  0.1526
  726MPD2    C410731   1.010   2.150  10.791  0.2322  0.2595  0.3513
  726MPD2    C510732   1.084   2.062  10.722  0.5264  0.8604  0.0352
  726MPD2     H10733   1.173   2.426  10.704  1.2533  0.1524  1.9762
  726MPD2    H110734   0.930   2.104  10.849 -1.7398  1.0620 -1.7227
  726MPD2    H210735   1.232   2.036  10.571 -2.8413 -1.0038 -0.1996
  726MPD2    H310736   1.060   1.957  10.733 -1.0998  1.2498  0.2386
  726MPD2     N10737   0.956   2.371  10.869 -0.5357  0.4624 -0.4115
  726MPD2    H510738   0.873   2.329  10.908  0.3138 -1.1027 -0.2766
  726MPD2    N110739   1.314   2.294  10.547  0.0154  0.4462 -0.1789
  726MPD2    H710740   1.342   2.389  10.570 -1.4522  0.5948  0.9982
  727TMC3    C110741   1.446   2.332  10.366 -0.4224  0.5578 -0.1352
  727TMC3    C210742   1.540   2.406  10.437  0.3484 -0.5214 -0.0575
  727TMC3    C310743   1.546   2.541  10.407  0.2699 -0.0671 -0.3831
  727TMC3    C410744   1.382   2.372  10.252  0.2600  0.4332  0.1330
  727TMC3    C510745   1.419   2.496  10.207  0.3170  1.0842  0.2252
  727TMC3    C610746   1.497   2.580  10.281 -0.1323 -0.9067 -0.0682
  727TMC3     C10747   1.365   2.238  10.438 -0.3735  0.6100  1.2415
  727TMC3     O10748   1.336   2.129  10.389  0.8920 -0.1288 -0.4000
  727TMC3     H10749   1.576   2.377  10.535  2.4719  0.2521 -0.6138
  727TMC3    H110750   1.309   2.308  10.204  1.8549  0.2961 -2.0957
  727TMC3    H210751   1.500   2.688  10.268  1.1628 -1.2125 -2.3519
  727TMC3    C710752   1.335   2.549  10.105 -0.0510  0.3463  0.4329
  727TMC3    C810753   1.655   2.622  10.456  0.5616  0.6750 -0.0728
  727TMC3    O110754   1.280   2.469  10.031 -0.1520 -0.0225  0.4175
  727TMC3    O210755   1.706   2.704  10.378 -0.4815 -0.2976  0.0478
  728TMC3    C110756   0.227   1.749  15.541  0.1117 -0.1636  0.5923
  728TMC3    C210757   0.361   1.778  15.535  0.1908  0.0331  0.5817
  728TMC3    C310758   0.399   1.839  15.417 -0.5753 -0.5032 -0.2779
  728TMC3    C410759   0.139   1.750  15.435 -0.5171  0.5010  0.5207
  728TMC3    C510760   0.182   1.796  15.314  0.3090  0.3671  0.0926
  728TMC3    C610761   0.315   1.838  15.302 -0.4348  0.3022  0.1669
  728TMC3     C10762   0.186   1.684  15.666  0.6765 -0.1019 -0.0520
  728TMC3     O10763   0.255   1.720  15.760  0.2100  0.3378 -0.2477
  728TMC3     H10764   0.426   1.771  15.621  0.0437 -0.5892  0.6464
  728TMC3    H110765   0.037   1.714  15.444 -0.9089  1.3734 -0.4296
  728TMC3    H210766   0.356   1.875  15.209 -1.4250 -0.8335 -0.7115
  728TMC3    C710767   0.097   1.790  15.198 -0.3358  0.3083  0.6105
  728TMC3    C810768   0.540   1.834  15.382 -0.3455 -0.0582  0.1842
  728TMC3    O110769   4.716   1.727  15.207  0.2511  0.4185  1.2783
  728TMC3    O210770   0.577   1.860  15.269 -0.1780 -0.4723  0.2559
  729MPD2     C10771   2.222   2.792  17.306  0.6784  0.4279 -0.0612
  729MPD2    C110772   2.338   2.747  17.251  0.1358 -0.3857  0.5520
  729MPD2    C210773   2.444   2.732  17.331  0.1833  0.2134 -1.1113
  729MPD2    C310774   2.443   2.754  17.466 -0.4070 -0.0719  0.1584
  729MPD2    C410775   2.321   2.788  17.523  0.0744 -0.1342  0.1053
  729MPD2    C510776   2.214   2.817  17.443  0.0486 -0.3627 -0.7827
  729MPD2     H10777   2.542   2.727  17.283  0.4635  2.2948 -0.7265
  729MPD2    H110778   2.306   2.813  17.628  1.3364  0.0018  0.2530
  729MPD2    H210779   2.138   2.822  17.245 -0.0337  2.1252  1.7593
  729MPD2    H310780   2.123   2.853  17.490  0.3915  2.9349 -2.7230
  729MPD2     N10781   2.555   2.768  17.548 -0.0818 -0.1739 -0.2042
  729MPD2    H510782   2.531   2.777  17.646 -1.0786  0.4021 -0.4980
  729MPD2    N110783   2.360   2.740  17.110 -0.8800  0.1927 -0.0443
  729MPD2    H710784   2.290   2.781  17.049 -0.5192  0.8737 -0.0006
  730TMC3    C110785   2.784   2.772  17.615  0.1948 -0.4319 -0.1362
  730TMC3    C210786   2.900   2.714  17.579  0.0037 -0.4264 -0.2773
  730TMC3    C310787   3.017   2.789  17.576  0.0200  0.9762  0.1910
  730TMC3    C410788   2.776   2.896  17.675 -0.2968 -0.0118  0.7592
  730TMC3    C510789   2.897   2.956  17.690  0.3075 -0.8476 -0.2183
  730TMC3    C610790   3.013   2.915  17.634 -0.6266 -0.2080  0.4891
  730TMC3     C10791   2.685   2.750  17.512  0.5715 -0.1067 -0.8820
  730TMC3     O10792   2.730   2.734  17.397  0.3512 -0.0830 -0.5977
  730TMC3     H10793   2.891   2.622  17.522 -0.3621  0.0597 -1.0121
  730TMC3    H110794   2.683   2.935   0.012 -0.5832  0.3085 -0.2628
  730TMC3    H210795   3.109   2.965  17.647  1.1692 -3.0098 -2.1140
  730TMC3    C710796   2.893   3.096   0.001  0.2149 -0.1439  0.1519
  730TMC3    C810797   3.088   2.762  17.454  0.1413  0.2597 -0.1137
  730TMC3    O110798   2.989   3.163  17.665 -0.1149 -0.2888  0.0700
  730TMC3    O210799   3.089   2.646  17.413  0.3386  0.1144 -0.1755
  731MPD2     C10800   2.494   1.207  12.727 -0.0444 -0.0796  0.0612
  731MPD2    C110801   2.504   1.084  12.672 -0.4507 -0.2660 -0.2740
  731MPD2    C210802   2.475   0.968  12.746 -0.0534 -0.1417 -1.0311
  731MPD2    C310803   2.436   0.995  12.875 -0.4559 -0.4532  0.4837
  731MPD2    C410804   2.417   1.123  12.924  1.2883  0.5124  0.1792
  731MPD2    C510805   2.463   1.227  12.860 -0.2043  0.1688 -0.0403
  731MPD2     H10806   2.500   0.869  12.712  1.0347  0.5250 -2.1954
  731MPD2    H110807   2.399   1.139  13.030  1.2822  0.3142  0.2075
  731MPD2    H210808   2.530   1.293  12.672 -0.9506 -1.2181 -2.3088
  731MPD2    H310809   2.479   1.319  12.915  1.0330 -0.1935  0.2178
  731MPD2     N10810   2.419   0.880  12.957 -0.3691  0.1412 -0.1982
  731MPD2    H510811   2.421   0.789  12.912  0.6230  0.8381 -1.5272
  731MPD2    N110812   2.535   1.083  12.538  0.8391 -0.2554  0.1679
  731MPD2    H710813   2.569   1.172  12.501 -0.0759 -0.2665 -0.6869
  732TMC3    C110814   2.567   1.024  12.308 -1.0661  0.6095 -0.2721
  732TMC3    C210815   2.492   0.966  12.210  0.6291  0.4286 -0.3147
  732TMC3    C310816   2.538   0.981  12.082  0.4367  0.5413 -0.2530
  732TMC3    C410817   2.692   1.081  12.288 -0.1856  0.3402 -0.3659
  732TMC3    C510818   2.738   1.091  12.163  0.1892 -0.5605  0.1723
  732TMC3    C610819   2.667   1.039  12.062 -0.8171  0.0604  0.4661
  732TMC3     C10820   2.533   0.980  12.446 -0.9283  1.0065 -0.1664
  732TMC3     O10821   2.473   0.874  12.460 -0.3771  0.0559  0.1662
  732TMC3     H10822   2.405   0.904  12.226  1.3670 -0.3899  0.5115
  732TMC3    H110823   2.740   1.096  12.384  2.9703 -2.9345 -1.3999
  732TMC3    H210824   2.719   1.029  11.968  0.6906 -1.5665  1.4835
  732TMC3    C710825   2.880   1.096  12.140  0.0020  0.2100 -0.6947
  732TMC3    C810826   2.499   0.892  11.976 -0.5361 -0.2063 -0.2861
  732TMC3    O110827   2.921   1.095  12.026 -0.1048 -0.1046  0.0496
  732TMC3    O210828   2.557   0.894  11.868  0.2390 -0.3874 -0.0667
  733TMC3    C110829   3.004   4.151  12.990 -1.0058 -0.0280 -0.1693
  733TMC3    C210830   3.114   4.075  13.002 -0.0310  0.3334  0.2927
  733TMC3    C310831   3.202   4.067  12.900  0.7486 -0.1441 -0.1755
  733TMC3    C410832   2.995   4.243  12.886 -0.2823  0.3032 -0.2446
  733TMC3    C510833   3.086   4.229  12.779 -0.1335 -0.1289  0.6748
  733TMC3    C610834   3.180   4.132  12.783 -0.6109  0.0226 -0.2194
  733TMC3     C10835   2.897   4.156  13.092  0.5785  0.0654  0.2951
  733TMC3     O10836   2.813   4.244  13.077 -0.0128  0.2788  0.0438
  733TMC3     H10837   3.138   4.028  13.097  2.7200  0.1123 -0.5239
  733TMC3    H110838   2.915   4.316  12.882 -3.0657 -2.7916 -0.9585
  733TMC3    H210839   3.226   4.108  12.688  0.5624  0.9622  0.1081
  733TMC3    C710840   3.116   4.352  12.700 -0.1653 -0.2082 -0.5108
  733TMC3    C810841   3.326   3.996  12.928 -0.5314  0.6010 -0.0759
  733TMC3    O110842   3.067   4.457  12.743  0.2620  0.5287  0.3177
  733TMC3    O210843   3.338   3.923  13.024 -0.4394  0.3328 -0.0015
  734MPD2     C10844   0.755   1.739  12.453  0.1426  0.1857 -0.1177
  734MPD2    C110845   0.700   1.639  12.376  0.4198  0.0516 -0.4240
  734MPD2    C210846   0.731   1.642  12.239 -0.1701  0.2851 -0.4504
  734MPD2    C310847   0.805   1.738  12.181 -0.1348  0.6517 -0.5730
  734MPD2    C410848   0.857   1.838  12.260  0.1612  0.0741  0.2629
  734MPD2    C510849   0.833   1.840  12.395  0.1748  0.6477 -0.2764
  734MPD2     H10850   0.683   1.566  12.179 -1.4363 -0.2866  1.2699
  734MPD2    H110851   0.920   1.910  12.209  1.6358 -1.7860 -0.5033
  734MPD2    H210852   0.735   1.753  12.559  1.1184  0.5652  0.0123
  734MPD2    H310853   0.870   1.924  12.452 -1.1415 -0.1785  1.7997
  734MPD2     N10854   0.816   1.734  12.039 -0.5387  0.3353  0.5438
  734MPD2    H510855   0.791   1.646  11.995 -1.7034  0.8277  0.2282
  734MPD2    N110856   0.610   1.552  12.428  0.1380 -0.8152  0.0452
  734MPD2    H710857   0.620   1.543  12.529 -1.7228  0.6468  0.3731
  735TMC3    C110858   0.447   1.379  12.417 -0.1028 -0.3348  0.8620
  735TMC3    C210859   0.330   1.341  12.345  0.4484  0.0978  0.0628
  735TMC3    C310860   0.328   1.219  12.291  0.1180  0.1889 -0.0279
  735TMC3    C410861   0.532   1.281  12.456  0.0940 -0.6564 -0.3413
  735TMC3    C510862   0.519   1.155  12.410  0.0849  0.0001 -0.8836
  735TMC3    C610863   0.416   1.120  12.333 -0.1598  0.4223 -0.2171
  735TMC3     C10864   0.511   1.490  12.351  0.5245  0.3451  0.0003
  735TMC3     O10865   0.451   1.521  12.250  0.5865  0.2633  0.1421
  735TMC3     H10866   0.271   1.417  12.297  1.1932  0.1652 -0.7504
  735TMC3    H110867   0.630   1.313  12.490 -0.8157  0.3045  1.3524
  735TMC3    H210868   0.417   1.021  12.289 -0.1446 -0.0077  0.7408
  735TMC3    C710869   0.646   1.091  12.392  0.0417 -0.2237 -0.3319
  735TMC3    C810870   0.286   1.211  12.153  0.2211 -0.5892  0.2413
  735TMC3    O110871   0.661   1.013  12.298 -0.1675 -0.4713 -0.5764
  735TMC3    O210872   0.231   1.111  12.117 -0.0945  0.8012 -0.3120
  736MPD2     C10873   0.909   0.962  12.599 -0.1098  0.5048 -0.3013
  736MPD2    C110874   0.855   1.022  12.491 -0.3436 -0.2158  1.1163
  736MPD2    C210875   0.935   1.035  12.377  0.3051 -1.1257  0.6409
  736MPD2    C310876   1.054   0.962  12.360 -0.0724  0.7459  0.2682
  736MPD2    C410877   1.104   0.891  12.464 -0.2792 -0.0282  0.1667
  736MPD2    C510878   1.030   0.895  12.583  0.0025 -0.8104 -0.4369
  736MPD2     H10879   0.897   1.095  12.295  1.9201  1.5072  1.8036
  736MPD2    H110880   1.197   0.838  12.448 -0.2421 -0.0303  0.3896
  736MPD2    H210881   0.866   0.938  12.696 -2.0051 -0.5675 -1.4086
  736MPD2    H310882   1.068   0.828  12.659  0.1105  0.2684  0.4453
  736MPD2     N10883   1.128   0.964  12.238  0.0215  0.6500 -0.0845
  736MPD2    H510884   1.203   0.895  12.238  0.8949  1.6127 -1.1602
  736MPD2    N110885   0.726   1.089  12.499  0.6390  0.4150  0.0331
  736MPD2    H710886   0.673   1.108  12.583 -2.1159 -1.0235 -1.3553
  737TMC3    C110887   1.206   1.032  12.027 -0.4129  0.5082 -0.3516
  737TMC3    C210888   1.222   1.140  11.946  0.0280  0.1277 -0.4487
  737TMC3    C310889   1.276   1.138  11.821  0.1598  0.3899 -0.3959
  737TMC3    C410890   1.237   0.911  11.970  0.5729  0.8521  0.8221
  737TMC3    C510891   1.287   0.897  11.838  0.3239  0.3920  0.7518
  737TMC3    C610892   1.314   1.015  11.765 -0.4894 -0.2638 -0.0345
  737TMC3     C10893   1.101   1.040  12.124  0.2238  0.5438 -0.3962
  737TMC3     O10894   1.016   1.119  12.100 -0.1022  0.1216  0.4145
  737TMC3     H10895   1.184   1.238  11.972  1.3136  0.5295 -0.0729
  737TMC3    H110896   1.212   0.824  12.030  0.0041  1.1348  0.9914
  737TMC3    H210897   1.388   1.006  11.686  0.4436 -0.8336  0.9022
  737TMC3    C710898   1.347   0.763  11.808 -0.3786  0.0027  0.4196
  737TMC3    C810899   1.288   1.256  11.739 -0.2679  0.0386 -0.6931
  737TMC3    O110900   1.330   0.679  11.894  0.0052  0.0020 -0.2272
  737TMC3    O210901   1.266   1.356  11.805  0.0278 -1.1013 -0.3896
  738MPD2     C10902   2.011   4.621  15.598  0.0969 -0.4952  0.4414
  738MPD2    C110903   1.934   4.670  15.488 -0.0322  0.7693 -0.4209
  738MPD2    C210904   1.997   4.716  15.370 -0.5366  0.2622 -0.7656
  738MPD2    C310905   2.139   0.004  15.371  0.2561 -0.0048  0.1725
  738MPD2    C410906   2.206   4.685  15.483 -0.1120 -0.0346 -0.2161
  738MPD2    C510907   2.145   4.630  15.592  0.8571 -0.7652 -0.3945
  738MPD2     H10908   1.934   0.018  15.286 -1.9680  1.3941  0.6585
  738MPD2    H110909   2.315   4.687  15.484 -0.0843 -1.2849 -0.8585
  738MPD2    H210910   1.964   4.582  15.687 -0.3085  1.5163  1.1023
  738MPD2    H310911   2.209   4.586  15.668 -0.7772 -1.6955  0.4282
  738MPD2     N10912   2.214   0.056  15.260 -0.2065  0.2262  0.1593
  738MPD2    H510913   2.315   0.055  15.271 -0.4739 -1.0370  2.5279
  738MPD2    N110914   1.795   4.646  15.484  0.0457 -0.2493 -0.4379
  738MPD2    H710915   1.750   4.653  15.394  1.2993  1.8335 -0.9072
  739TMC3    C110916   2.260   0.171  15.056  0.4895 -0.4077 -1.0585
  739TMC3    C210917   2.234   0.176  14.927  0.1001 -0.3358  0.2303
  739TMC3    C310918   2.335   0.222  14.848  0.2512 -0.0794 -0.1809
  739TMC3    C410919   2.387   0.191  15.100 -0.4602 -0.5523  0.1178
  739TMC3    C510920   2.491   0.237  15.021  0.1528  0.3457 -0.3446
  739TMC3    C610921   2.463   0.256  14.890  0.3661 -0.4339  0.0310
  739TMC3     C10922   2.163   0.110  15.141  0.8779 -0.0255 -0.0198
  739TMC3     O10923   2.040   0.120  15.114 -0.3446  0.5410 -0.8942
  739TMC3     H10924   2.129   0.183  14.898 -0.1567  0.2955  1.3246
  739TMC3    H110925   2.422   0.158  15.198 -1.1391 -3.9095 -0.7483
  739TMC3    H210926   2.546   0.290  14.829 -1.6814  1.8730 -1.4411
  739TMC3    C710927   2.633   0.216  15.066  0.6058  0.6675  0.3259
  739TMC3    C810928   2.295   0.233  14.711 -0.1252 -0.4343 -0.3239
  739TMC3    O110929   2.659   0.133  15.149  0.0097  0.4449 -0.0014
  739TMC3    O210930   2.180   0.194  14.681 -0.0227 -0.6043 -0.4079
  740TMC3    C110931   2.671   1.404  14.218 -0.3716  0.0723  0.1389
  740TMC3    C210932   2.697   1.337  14.333  0.2597 -0.0278 -1.0163
  740TMC3    C310933   2.818   1.280  14.341  0.3907 -0.0473  0.2341
  740TMC3    C410934   2.748   1.404  14.104 -0.1637  0.0830 -0.6322
  740TMC3    C510935   2.862   1.327  14.109 -0.1471  0.5170 -0.6595
  740TMC3    C610936   2.906   1.274  14.231 -1.5734 -0.4490  0.0133
  740TMC3     C10937   2.541   1.461  14.191 -0.1938  1.0708  0.3017
  740TMC3     O10938   2.528   1.507  14.078 -0.1296  0.6154 -0.0959
  740TMC3     H10939   2.637   1.352  14.423  0.2814 -1.9838 -0.6723
  740TMC3    H110940   2.720   1.452  14.011  0.4048  0.3592 -0.6618
  740TMC3    H210941   3.011   1.247  14.243 -1.4451 -0.1579 -0.4287
  740TMC3    C710942   2.950   1.308  13.994 -0.2310 -0.3391  0.0514
  740TMC3    C810943   2.854   1.185  14.448 -0.1119  0.2458 -0.5961
  740TMC3    O110944   3.070   1.280  14.004  0.0682  0.5046  0.4536
  740TMC3    O210945   2.970   1.143  14.440 -0.2311 -0.0895 -0.1874
  741TMC3    C110946   2.066   0.544  14.219  0.3627 -0.1189 -0.6980
  741TMC3    C210947   1.943   0.499  14.254 -0.3978  0.1965  0.3093
  741TMC3    C310948   1.906   0.478  14.384 -0.4459  0.4545  0.0753
  741TMC3    C410949   2.164   0.568  14.314 -0.4031  0.2227  0.7556
  741TMC3    C510950   2.124   0.553  14.450  1.0405  0.9389 -0.2299
  741TMC3    C610951   2.002   0.497  14.485  0.6427  0.0085 -0.0552
  741TMC3     C10952   2.100   0.521  14.082  0.3466  0.0211  0.3117
  741TMC3     O10953   2.003   0.495  14.003  0.1670  0.3164  0.2846
  741TMC3     H10954   1.866   0.482  14.180 -0.1352  2.7075 -0.5293
  741TMC3    H110955   2.258   0.613  14.285  0.0944 -0.7096  0.9105
  741TMC3    H210956   1.982   0.496  14.591 -0.5435  0.8336 -0.2739
  741TMC3    C710957   2.208   0.595  14.565  0.2229  0.4435 -0.1688
  741TMC3    C810958   1.769   0.445  14.417  0.4526 -0.1234 -0.1383
  741TMC3    O110959   2.163   0.593  14.681 -0.2803  0.5773  0.1083
  741TMC3    O210960   1.678   0.472  14.335 -0.1886  0.0225  0.3493
  742TMC3    C110961   1.581   4.025  15.436 -0.1515  0.3134  0.9604
  742TMC3    C210962   1.487   3.953  15.361  0.0806 -0.2626 -0.3595
  742TMC3    C310963   1.536   3.878  15.257 -0.4867  0.3605 -0.1297
  742TMC3    C410964   1.713   4.034  15.396 -0.1864  0.2628  0.2353
  742TMC3    C510965   1.754   3.954  15.291  0.1319 -0.8845  0.0512
  742TMC3    C610966   1.667   3.875  15.215  0.4243 -0.0174  0.4852
  742TMC3     C10967   1.541   4.081  15.563  0.7650 -0.9322 -0.0237
  742TMC3     O10968   1.424   4.068  15.600  0.2888  0.1832 -0.6101
  742TMC3     H10969   1.386   3.943  15.398  0.3625 -3.0900 -0.3837
  742TMC3    H110970   1.789   4.095  15.443  0.2176  0.3132 -0.4850
  742TMC3    H210971   1.698   3.824  15.125  0.9480 -1.0453  1.2453
  742TMC3    C710972   1.896   3.900  15.301 -0.0639 -0.9256  0.5182
  742TMC3    C810973   1.439   3.829  15.161 -0.0352 -0.7250 -0.4102
  742TMC3    O110974   1.903   3.784  15.268  0.2166  0.0797 -0.0658
  742TMC3    O210975   1.489   3.755  15.074 -0.3439 -0.0115 -0.8009
  743MPD2     C10976   3.883   1.006   1.579  0.1545 -0.1933  0.8188
  743MPD2    C110977   3.931   0.887   1.517  0.3016 -0.4448  0.6892
  743MPD2    C210978   4.063   0.863   1.513  0.7438 -0.0504 -0.3961
  743MPD2    C310979   4.153   0.963   1.559  0.1058  0.3032  0.5733
  743MPD2    C410980   4.103   1.079   1.608  0.0915  0.7458  0.7920
  743MPD2    C510981   3.975   1.095   1.621 -0.1734 -0.9730 -0.2488
  743MPD2     H10982   4.112   0.785   1.456  0.5746 -1.1616  0.9703
  743MPD2    H110983   4.164   1.143   1.670  2.7468  1.2523 -2.3327
  743MPD2    H210984   3.779   1.023   1.604  0.6580  1.4519  1.7907
  743MPD2    H310985   3.937   1.178   1.680  0.7491  1.0343 -2.5154
  743MPD2     N10986   4.289   0.934   1.532 -1.1031 -0.1644 -0.2225
  743MPD2    H510987   4.304   0.846   1.483  1.4109 -0.1006  0.4232
  743MPD2    N110988   3.835   0.796   1.460 -0.1964  0.5604  0.1017
  743MPD2    H710989   3.742   0.836   1.452 -0.5295 -0.2060  0.1823
  744TMC3    C110990   3.727   0.609   1.368 -0.2182 -0.3318 -0.2959
  744TMC3    C210991   3.614   0.684   1.368 -0.0450 -0.2547 -0.3537
  744TMC3    C310992   3.507   0.627   1.293  0.1936  0.3278 -0.2739
  744TMC3    C410993   3.742   0.491   1.304 -0.3287 -0.0684 -0.0174
  744TMC3    C510994   3.636   0.444   1.241  0.3434 -0.2365  0.5146
  744TMC3    C610995   3.520   0.507   1.225 -0.2684  0.3751 -0.2959
  744TMC3     C10996   3.853   0.675   1.402 -1.2411 -0.2084  0.4006
  744TMC3     O10997   3.963   0.617   1.377  0.0755 -0.6789  0.1117
  744TMC3     H10998   3.588   0.761   1.439 -0.1118  1.3643 -2.1460
  744TMC3    H110999   3.834   0.433   1.313 -1.1247 -0.8464  3.0397
  744TMC3    H211000   3.436   0.471   1.167 -0.9692 -0.0169  0.9618
  744TMC3    C711001   3.652   0.323   1.169  0.0793 -0.1108  0.5375
  744TMC3    C811002   3.385   0.697   1.303 -0.3687 -0.1440 -0.2516
  744TMC3    O111003   3.548   0.261   1.145 -0.5233 -0.0701  0.8283
  744TMC3    O211004   3.391   0.808   1.359  0.2776  0.0867  0.0657
  745TMC3    C111005   1.692   3.511  13.449  0.3121 -0.2606  0.2928
  745TMC3    C211006   1.588   3.459  13.522  0.0190 -0.5538 -0.0754
  745TMC3    C311007   1.466   3.521  13.534 -0.4236  0.2674 -0.8228
  745TMC3    C411008   1.666   3.608  13.359 -0.3476  0.1124 -0.3153
  745TMC3    C511009   1.534   3.659  13.357 -0.0990 -0.6766  0.0372
  745TMC3    C611010   1.441   3.627  13.454 -0.1057  0.3034 -0.2686
  745TMC3     C11011   1.805   3.532  13.537 -0.6379 -0.7738  0.2732
  745TMC3     O11012   1.800   3.468  13.638 -0.0804 -0.8658 -0.4055
  745TMC3     H11013   1.619   3.367  13.571 -1.0671 -0.3162  1.0830
  745TMC3    H111014   1.745   3.648  13.297 -1.3109  1.7073 -0.5143
  745TMC3    H211015   1.341   3.669  13.462  0.5548  1.5732  1.5720
  745TMC3    C711016   1.495   3.791  13.289  0.1141 -0.8267  0.3673
  745TMC3    C811017   1.413   3.524  13.671 -0.4825  0.0164  0.5592
  745TMC3    O111018   1.377   3.826  13.291  0.1694  0.2262 -0.1934
  745TMC3    O211019   1.311   3.590  13.691 -0.1501 -0.4309  0.1622
  746TMC3    C111020   4.226   0.381  10.957 -0.3881 -0.6456 -0.0399
  746TMC3    C211021   4.311   0.358  10.842  0.2156  0.2944  0.8638
  746TMC3    C311022   4.309   0.228  10.789 -0.3349  0.2010  0.5090
  746TMC3    C411023   4.130   0.296  10.996 -0.3808  0.8363  0.2965
  746TMC3    C511024   4.136   0.175  10.932  0.1727  0.4512  0.1951
  746TMC3    C611025   4.224   0.133  10.840  0.1847 -0.2755 -0.6024
  746TMC3     C11026   4.230   0.509  11.027 -0.2218 -0.1490  0.3121
  746TMC3     O11027   4.174   0.517  11.138  0.1386 -0.1529  0.1183
  746TMC3     H11028   4.395   0.424  10.823  0.7912 -0.3533  1.1653
  746TMC3    H111029   4.047   0.328  11.058 -1.5759 -3.0638  0.7500
  746TMC3    H211030   4.213   0.035  10.797  0.2516 -0.4863 -0.1393
  746TMC3    C711031   4.026   0.092  10.961 -0.3643 -0.0814  0.4968
  746TMC3    C811032   4.390   0.189  10.679 -0.4352  0.5430  0.4082
  746TMC3    O111033   3.996   0.007  10.881 -0.9838  0.0462  0.3982
  746TMC3    O211034   4.410   0.075  10.652  0.7407 -0.3486  0.1815
  747TMC3    C111035   1.825   0.541  10.872 -0.6150 -0.5439  0.0737
  747TMC3    C211036   1.753   0.488  10.977  1.0504 -0.0418 -0.3173
  747TMC3    C311037   1.751   0.557  11.093  0.5895 -0.0370  0.1062
  747TMC3    C411038   1.900   0.652  10.881  0.4922 -0.7547 -0.6952
  747TMC3    C511039   1.891   0.716  10.997  0.3998 -0.3983  0.0619
  747TMC3    C611040   1.827   0.673  11.107 -0.0414 -0.1116 -0.3302
  747TMC3     C11041   1.780   0.525  10.730  0.0449 -0.7049 -0.6600
  747TMC3     O11042   1.808   0.615  10.652  0.4698  0.0582 -0.0120
  747TMC3     H11043   1.702   0.393  10.965  0.6416 -0.1366  2.0263
  747TMC3    H111044   1.950   0.690  10.793  1.4676  0.4449  0.3722
  747TMC3    H211045   1.840   0.723  11.202 -0.4703 -1.1972  0.3058
  747TMC3    C711046   1.988   0.832  11.021  0.3556  0.9782 -0.6446
  747TMC3    C811047   1.703   0.500  11.215  0.0108 -0.6441 -0.0845
  747TMC3    O111048   2.006   0.855  11.137  0.5808  0.0641 -0.4814
  747TMC3    O211049   1.694   0.379  11.223 -0.0318  0.2204  0.4351
  748MPD2     C11050   3.624   2.000   1.838 -0.1651 -0.4477  0.6457
  748MPD2    C111051   3.630   1.874   1.786 -0.2290  0.0666 -0.2942
  748MPD2    C211052   3.736   1.847   1.698  0.2929 -0.7180  0.1425
  748MPD2    C311053   3.827   1.955   1.665 -0.8253  0.9400 -0.4769
  748MPD2    C411054   3.797   2.086   1.701  0.5232  0.0041  0.4812
  748MPD2    C511055   3.703   2.099   1.797  0.5926 -0.0203  0.4357
  748MPD2     H11056   3.754   1.746   1.666  1.5862 -0.0321 -1.3049
  748MPD2    H111057   3.862   2.168   1.674  1.0829 -0.8946 -0.9040
  748MPD2    H211058   3.537   2.019   1.900 -1.5762 -0.8199 -1.2225
  748MPD2    H311059   3.682   2.196   1.840  1.3736 -0.3001  1.4431
  748MPD2     N11060   3.939   1.922   1.586 -0.3021 -0.2809  0.7629
  748MPD2    H511061   3.958   1.823   1.580 -1.3995 -0.6120  2.9697
  748MPD2    N111062   3.527   1.784   1.818  0.0239 -0.5926 -1.1083
  748MPD2    H711063   3.456   1.824   1.880  1.8513  1.5825 -0.4027
  749TMC3    C111064   4.115   1.956   1.442  0.7728 -0.1068 -0.3318
  749TMC3    C211065   4.191   1.857   1.497 -0.3107 -0.5082  0.2162
  749TMC3    C311066   4.276   1.791   1.415  0.9887 -0.0578 -0.4925
  749TMC3    C411067   4.132   1.999   1.315  0.4587  0.2035 -0.3214
  749TMC3    C511068   4.222   1.933   1.234 -0.3863 -0.0072  0.8461
  749TMC3    C611069   4.285   1.815   1.280 -0.9727  0.4479  0.4088
  749TMC3     C11070   4.012   2.018   1.523 -0.5253  0.3126  0.3645
  749TMC3     O11071   3.974   2.129   1.487 -0.2803 -0.3645 -0.2756
  749TMC3     H11072   4.183   1.842   1.604  0.1185  1.5947  0.5314
  749TMC3    H111073   4.087   2.089   1.276 -2.5786 -0.9906  0.3687
  749TMC3    H211074   4.361   1.772   1.215 -1.0276 -0.6021  1.0425
  749TMC3    C711075   4.264   1.993   1.109  0.3600 -0.3599  0.3591
  749TMC3    C811076   4.398   1.741   1.484 -0.1214  0.4334  0.2642
  749TMC3    O111077   4.250   2.116   1.109 -0.2515  0.2991  0.4061
  749TMC3    O211078   4.424   1.788   1.595 -0.1205  0.1972 -0.0913
  750MPD2     C11079   4.659   2.463  11.557  0.6624 -0.0373  0.0184
  750MPD2    C111080   4.536   2.410  11.575 -0.6090 -0.0646  0.1263
  750MPD2    C211081   4.466   2.362  11.465  0.1714  0.0371  0.3030
  750MPD2    C311082   4.518   2.367  11.339  0.2066 -0.0339  0.2395
  750MPD2    C411083   4.636   2.437  11.319  0.5178 -0.1018  0.6733
  750MPD2    C511084   4.704   2.483  11.430  0.2693  1.1234  0.1907
  750MPD2     H11085   4.377   2.301  11.481  0.9373 -1.3063 -0.6249
  750MPD2    H111086   4.680   2.453  11.222 -1.5386 -1.8592 -0.5561
  750MPD2    H211087   4.718   2.491  11.644 -0.4444 -1.0597  1.0938
  750MPD2    H311088   0.080   2.522  11.422  0.2449  1.5212  1.7711
  750MPD2     N11089   4.457   2.307  11.227 -0.0420  0.2865  0.3532
  750MPD2    H511090   4.513   2.310  11.143  3.6669  1.0760  2.8188
  750MPD2    N111091   4.493   2.414  11.708 -0.4889 -0.1485  0.1051
  750MPD2    H711092   4.562   2.458  11.768  1.2260 -0.6966 -1.4432
  751TMC3    C111093   4.322   2.144  11.104 -0.2567  0.6250  0.1508
  751TMC3    C211094   4.212   2.058  11.113 -0.0570 -0.0244 -0.1567
  751TMC3    C311095   4.209   1.944  11.032 -0.4080 -0.3636 -0.3647
  751TMC3    C411096   4.430   2.110  11.025  0.0970 -0.0202 -0.1955
  751TMC3    C511097   4.425   2.002  10.947  0.5883  0.3546 -0.1917
  751TMC3    C611098   4.313   1.917  10.942 -0.6804 -0.6104 -0.0384
  751TMC3     C11099   4.341   2.230  11.228 -0.0116 -0.4457 -0.1126
  751TMC3     O11100   4.256   2.224  11.310  0.4166  0.0396  0.2351
  751TMC3     H11101   4.135   2.088  11.183 -0.1629 -0.5360 -0.0547
  751TMC3    H111102   4.519   2.172  11.023  0.4113 -0.3785  2.4881
  751TMC3    H211103   4.325   1.825  10.886 -1.7700 -1.1946  0.7016
  751TMC3    C711104   4.551   1.959  10.891  0.0256  0.1154 -0.1353
  751TMC3    C811105   4.108   1.843  11.040  0.0363 -0.2524  0.3121
  751TMC3    O111106   4.632   2.046  10.870 -0.1122  0.1624 -0.2580
  751TMC3    O211107   4.130   1.752  10.965 -0.0650  0.3276 -0.0582
  752TMC3    C111108   3.323   2.398  16.950 -0.3060 -0.6521 -0.0718
  752TMC3    C211109   3.296   2.364  17.081 -0.6445 -0.6168 -0.2437
  752TMC3    C311110   3.397   2.363  17.170  0.3014 -0.0592  0.9036
  752TMC3    C411111   3.446   2.431  16.903  0.5446 -0.3760  0.0166
  752TMC3    C511112   3.544   2.429  16.997 -0.3767  0.3235  0.2929
  752TMC3    C611113   3.522   2.390  17.128 -0.5395  0.8260 -0.2665
  752TMC3     C11114   3.199   2.448  16.891 -0.9641 -0.1485 -0.0595
  752TMC3     O11115   3.115   2.493  16.965 -0.3180  0.2336 -0.4240
  752TMC3     H11116   3.197   2.331  17.108 -0.8107  1.9574  2.3563
  752TMC3    H111117   3.466   2.445  16.798  0.3976 -1.6554 -0.1825
  752TMC3    H211118   3.611   2.383  17.190  1.0705 -0.2295 -2.6953
  752TMC3    C711119   3.650   2.517  16.957  0.4532 -0.4024  0.8336
  752TMC3    C811120   3.377   2.312  17.297 -0.9914 -0.0736 -0.1354
  752TMC3    O111121   3.632   2.596  16.866  0.2895  0.1319  0.1421
  752TMC3    O211122   3.265   2.274  17.333  0.5119 -0.0186 -0.4052
  753TMC3    C111123   0.656   3.954  13.564  0.5721  0.7833 -0.0381
  753TMC3    C211124   0.665   3.935  13.698  0.3530 -0.1416  0.8466
  753TMC3    C311125   0.684   3.811  13.744 -0.1776  0.2129  0.5218
  753TMC3    C411126   0.656   3.846  13.477 -0.8516  0.4768  0.5634
  753TMC3    C511127   0.664   3.718  13.530  0.3197  0.6053 -0.0085
  753TMC3    C611128   0.690   3.704  13.664 -0.3247  0.0733  0.5426
  753TMC3     C11129   0.564   4.056  13.518  0.4956  0.4448 -0.5209
  753TMC3     O11130   0.471   4.029  13.440 -0.5854  0.1492  0.8378
  753TMC3     H11131   0.680   4.013  13.772 -1.4480  0.5209  0.4979
  753TMC3    H111132   0.643   3.861  13.370 -2.6455  1.5530  0.9337
  753TMC3    H211133   0.691   3.605  13.708  0.0117 -0.1630  0.0037
  753TMC3    C711134   0.668   3.608  13.438  0.2415 -0.9299  0.7085
  753TMC3    C811135   0.613   3.788  13.871 -0.5388  0.6052  0.5513
  753TMC3    O111136   0.685   3.646  13.322 -0.6631 -0.3739  0.6844
  753TMC3    O211137   0.504   3.739  13.859  0.1349 -0.4377 -0.4551
  754MPD2     C11138   4.225   2.628  13.218  0.3466  0.0051 -0.0062
  754MPD2    C111139   4.230   2.497  13.194 -0.1301 -0.4032  0.7232
  754MPD2    C211140   4.112   2.433  13.171  0.0280 -0.4343  0.1072
  754MPD2    C311141   3.994   2.497  13.177  0.0882 -1.0384 -0.2834
  754MPD2    C411142   3.996   2.629  13.201  0.4999 -0.5651  0.6750
  754MPD2    C511143   4.114   2.699  13.211  0.6517 -0.2576  0.6653
  754MPD2     H11144   4.113   2.333  13.129 -1.4226 -1.0634  1.5763
  754MPD2    H111145   3.908   2.691  13.212  0.5731 -0.2926 -0.2779
  754MPD2    H211146   4.316   2.686  13.223  1.4460 -1.8597  1.7456
  754MPD2    H311147   4.115   2.807  13.216 -2.3941 -0.1848 -0.1745
  754MPD2     N11148   3.860   2.445  13.158  0.4940 -0.1877 -0.6635
  754MPD2    H511149   3.786   2.514  13.154 -1.9310 -2.6866  1.4648
  754MPD2    N111150   4.354   2.433  13.212  0.5344  0.7014  0.4412
  754MPD2    H711151   4.434   2.495  13.221 -0.3137  2.5454 -4.5375
  755MPD2     C11152   3.079   2.800  13.272  1.1580  0.2564 -0.4632
  755MPD2    C111153   3.104   2.700  13.362 -0.2387  0.0438  0.0198
  755MPD2    C211154   3.201   2.604  13.335  0.3257  0.2396 -0.0684
  755MPD2    C311155   3.284   2.611  13.224 -0.5208  0.1082 -0.2216
  755MPD2    C411156   3.266   2.715  13.134 -0.7059 -0.1278 -0.2367
  755MPD2    C511157   3.166   2.808  13.161  0.4424  0.1146  0.4051
  755MPD2     H11158   3.200   2.524  13.408  2.1246 -0.1796 -0.5042
  755MPD2    H111159   3.317   2.727  13.039  1.1636  0.7114  0.8880
  755MPD2    H211160   2.991   2.863  13.270 -0.7602 -2.5093 -3.7631
  755MPD2    H311161   3.140   2.882  13.087 -0.4708  1.3106  1.9144
  755MPD2     N11162   3.378   2.510  13.189 -0.2803  0.4634 -0.1066
  755MPD2    H511163   3.429   2.521  13.102  0.0045  0.4563  0.0589
  755MPD2    N111164   3.026   2.683  13.484 -0.3082 -1.1624 -0.2957
  755MPD2    H711165   3.045   2.606  13.547  3.3855  0.2593  0.3671
  756MPD2     C11166   0.157   2.297   9.193 -0.0979 -0.2162  0.0653
  756MPD2    C111167   0.042   2.298   9.267 -0.3334  0.7202 -0.7937
  756MPD2    C211168   4.656   2.278   9.191  0.1216 -0.1869 -0.0965
  756MPD2    C311169   4.650   2.254   9.058 -0.2616  0.2486 -0.3127
  756MPD2    C411170   0.038   2.260   8.988 -0.3687 -0.4798  0.1303
  756MPD2    C511171   0.147   2.273   9.057 -0.0184  0.1100  0.5658
  756MPD2     H11172   4.562   2.291   9.244 -0.1349 -3.5752  0.2944
  756MPD2    H111173   0.052   2.244   8.882 -2.5077  0.8940 -0.3710
  756MPD2    H211174   0.257   2.306   9.232 -0.4417 -1.1392  1.1481
  756MPD2    H311175   0.244   2.263   9.010 -0.1609 -0.7168  0.4372
  756MPD2     N11176   4.517   2.238   9.000  0.2758  0.4963 -0.0928
  756MPD2    H511177   4.442   2.247   9.068  1.2092  4.1816  0.4663
  756MPD2    N111178   0.038   2.306   9.408  0.1120 -0.0211 -0.1558
  756MPD2    H711179   4.674   2.308   9.456 -1.5160 -3.5699 -3.0116
  757MPD2     C11180   3.898   1.891   9.413  0.3792 -0.0891  0.4206
  757MPD2    C111181   4.036   1.888   9.395  0.6486 -0.1627 -0.2165
  757MPD2    C211182   4.096   1.966   9.301  0.5124 -0.0857  0.8939
  757MPD2    C311183   4.019   2.043   9.214  0.2372 -0.3387 -0.3452
  757MPD2    C411184   3.881   2.047   9.230 -0.3274 -0.7707  0.1791
  757MPD2    C511185   3.820   1.967   9.330  0.0519 -0.0755 -0.3125
  757MPD2     H11186   4.203   1.955   9.285  0.6169  2.7424 -0.3183
  757MPD2    H111187   3.823   2.097   9.154 -0.5901  0.6029  1.2879
  757MPD2    H211188   3.845   1.832   9.488  0.3614  1.8845  1.9576
  757MPD2    H311189   3.712   1.962   9.335  0.0923 -2.1641 -1.5386
  757MPD2     N11190   4.084   2.108   9.108 -0.1367  0.0424  0.3356
  757MPD2    H511191   4.185   2.109   9.116 -0.1539  2.1766  0.1600
  757MPD2    N111192   4.109   1.799   9.469  0.2206 -0.4304 -0.2921
  757MPD2    H711193   4.061   1.732   9.528 -1.5773 -0.3480 -1.6658
  758MPD2     C11194   4.006   2.133  15.999 -0.9016  0.3188  0.2513
  758MPD2    C111195   4.108   2.136  16.098 -0.9810  0.4248 -0.0782
  758MPD2    C211196   4.074   2.191  16.220 -0.7309  0.4051 -0.0021
  758MPD2    C311197   3.950   2.245  16.249  0.3703 -0.3683 -0.2610
  758MPD2    C411198   3.851   2.228  16.154  0.5387 -0.3425 -0.4575
  758MPD2    C511199   3.883   2.184  16.027  1.1340  0.6543 -0.5847
  758MPD2     H11200   4.152   2.189  16.295  0.0543  2.0645 -0.7673
  758MPD2    H111201   3.750   2.263  16.174 -0.2776 -1.4570 -2.5004
  758MPD2    H211202   4.032   2.108  15.896  1.4375  0.4287  0.8178
  758MPD2    H311203   3.816   2.188  15.943 -0.3074 -3.1646  0.3670
  758MPD2     N11204   3.909   2.309  16.366  0.6528  0.5142  0.2297
  758MPD2    H511205   3.810   2.323  16.382  0.5708  2.2340 -1.7917
  758MPD2    N111206   4.234   2.079  16.066  0.3303 -0.1238 -0.6490
  758MPD2    H711207   4.237   2.057  15.967 -1.0994 -1.0682 -0.4775
  759MPD2     C11208   3.785   4.129   9.813  0.0947 -0.2977  0.5171
  759MPD2    C111209   3.674   4.188   9.868 -0.2522 -0.4151 -0.3568
  759MPD2    C211210   3.661   4.321   9.870 -0.0934  0.2606  0.5394
  759MPD2    C311211   3.766   4.402   9.815 -0.8526 -0.6769 -0.2609
  759MPD2    C411212   3.877   4.339   9.759 -0.7128  0.1482  1.0551
  759MPD2    C511213   3.887   4.207   9.765 -0.2653  0.1109  0.0976
  759MPD2     H11214   3.564   4.365   9.893 -0.6477 -0.4903 -0.3832
  759MPD2    H111215   3.964   4.384   9.712 -1.7715  1.1260  0.0241
  759MPD2    H211216   3.803   4.024   9.830 -0.1962 -0.8759 -2.7375
  759MPD2    H311217   3.981   4.166   9.731  0.2932  1.1575  0.3944
  759MPD2     N11218   3.745   4.543   9.832 -0.0146 -0.1476 -0.2612
  759MPD2    H511219   3.661   4.555   9.887  0.5807 -1.1223  0.8723
  759MPD2    N111220   3.579   4.107   9.940 -1.1507  0.0524 -0.2680
  759MPD2    H711221   3.514   4.156  10.001 -1.3739  0.0901 -0.5362
  760MPD2     C11222   2.509   2.460  11.895 -0.4045 -0.1100  0.0662
  760MPD2    C111223   2.624   2.464  11.818 -0.6682  0.0072 -0.1975
  760MPD2    C211224   2.687   2.351  11.771 -0.4596 -0.2380 -0.0767
  760MPD2    C311225   2.652   2.224  11.823 -0.0936 -0.5454 -0.5877
  760MPD2    C411226   2.542   2.225  11.908 -0.0837  0.0160  0.8009
  760MPD2    C511227   2.467   2.337  11.931 -0.3801  0.1140  0.3530
  760MPD2     H11228   2.771   2.353  11.702  0.1220 -0.0756  0.6361
  760MPD2    H111229   2.495   2.130  11.931 -0.3836 -0.4382 -1.6814
  760MPD2    H211230   2.449   2.545  11.923 -0.8515 -0.1390 -0.7905
  760MPD2    H311231   2.377   2.324  11.990 -1.9540  1.3018 -1.7873
  760MPD2     N11232   2.723   2.106  11.802  0.4196 -0.0411  0.0632
  760MPD2    H511233   2.689   2.031  11.861 -0.6486  0.8112  0.5186
  760MPD2    N111234   2.679   2.582  11.761  0.4005  0.1128 -0.0476
  760MPD2    H711235   2.743   2.570  11.684 -0.2067 -0.8113 -0.3985
  761MPD2     C11236   3.676   1.617  11.203 -0.5571 -0.1704  0.3360
  761MPD2    C111237   3.768   1.588  11.099 -0.7645 -0.2077 -0.4915
  761MPD2    C211238   3.874   1.671  11.081  0.2002  0.0176  0.6474
  761MPD2    C311239   3.898   1.786  11.155 -0.3925  0.8211  0.2650
  761MPD2    C411240   3.798   1.818  11.249  0.2890 -0.5804  0.1529
  761MPD2    C511241   3.690   1.734  11.273  0.8829 -0.6234 -0.0611
  761MPD2     H11242   3.937   1.652  10.995 -0.8818  1.6119 -0.4963
  761MPD2    H111243   3.808   1.907  11.311  2.1643 -1.9950  1.8987
  761MPD2    H211244   3.587   1.556  11.211 -0.0842 -1.2485 -2.5910
  761MPD2    H311245   3.604   1.766  11.331  0.7703  1.5927 -1.4862
  761MPD2     N11246   4.012   1.869  11.130 -0.1628  0.6047 -0.5268
  761MPD2    H511247   4.013   1.957  11.180 -1.9459  0.3102  0.0497
  761MPD2    N111248   3.757   1.459  11.032  0.2438 -0.1105  0.6977
  761MPD2    H711249   3.677   1.405  11.063 -0.5771  0.8902  0.3452
  762MPD2     C11250   4.300   1.434  10.711  0.3886 -0.1333  0.4386
  762MPD2    C111251   4.258   1.305  10.681 -0.1782 -0.3028  0.0383
  762MPD2    C211252   4.347   1.220  10.615  0.3951 -0.1268 -0.4826
  762MPD2    C311253   4.480   1.267  10.602  0.0249  0.3144 -0.5359
  762MPD2    C411254   4.525   1.395  10.641  0.1321  0.5431  0.3680
  762MPD2    C511255   4.434   1.478  10.698 -0.5125  0.0115 -0.6008
  762MPD2     H11256   4.329   1.115  10.600  2.6554 -0.8511  1.6969
  762MPD2    H111257   4.627   1.432  10.643  0.3457 -0.0151  0.0115
  762MPD2    H211258   4.227   1.500  10.755  1.0469 -0.7824  2.5043
  762MPD2    H311259   4.459   1.580  10.723  1.6384 -0.2588 -1.6778
  762MPD2     N11260   4.571   1.174  10.550 -0.4274 -0.8819  0.2431
  762MPD2    H511261   4.532   1.090  10.508 -1.4476  0.1486 -0.8638
  762MPD2    N111262   4.132   1.269  10.724 -0.5659 -0.3619 -0.2438
  762MPD2    H711263   4.078   1.341  10.771  1.7188  0.5742  0.8964
  763MPD2     C11264   0.923   2.312  15.607 -0.0378  0.7227  0.6347
  763MPD2    C111265   0.988   2.205  15.645 -0.1981  0.1758  0.4589
  763MPD2    C211266   1.062   2.214  15.760  0.0595 -0.4225 -0.2946
  763MPD2    C311267   1.062   2.326  15.841 -0.3910  0.1358  0.4545
  763MPD2    C411268   0.978   2.429  15.809  0.8635  0.2956 -0.3103
  763MPD2    C511269   0.911   2.421  15.689  0.2135  0.4557 -0.4020
  763MPD2     H11270   1.108   2.123  15.797  0.5624 -0.2629 -0.5379
  763MPD2    H111271   0.968   2.522  15.863 -0.9290 -0.5278  0.7826
  763MPD2    H211272   0.873   2.318  15.511 -1.2186 -1.2524  1.1286
  763MPD2    H311273   0.851   2.504  15.655 -0.7980 -0.3434 -0.5804
  763MPD2     N11274   1.123   2.331  15.971 -0.7205  0.0442 -0.2118
  763MPD2    H511275   1.101   2.413  16.027 -1.7039 -0.9588  0.8611
  763MPD2    N111276   0.991   2.089  15.559  0.9044 -0.1553 -0.1738
  763MPD2    H711277   1.057   2.014  15.576 -1.7052 -2.3081  0.3293
  764MPD2     C11278   4.344   3.729  17.207 -0.3592  0.0052 -0.4681
  764MPD2    C111279   4.261   3.638  17.138  0.7117 -0.0848  0.4132
  764MPD2    C211280   4.283   3.506  17.162 -0.6663 -0.9933  0.1238
  764MPD2    C311281   4.383   3.454  17.253 -0.4193  0.3782 -0.2444
  764MPD2    C411282   4.452   3.545  17.322  0.0097 -0.2206  0.0891
  764MPD2    C511283   4.443   3.680  17.293 -0.9302 -0.2623 -0.2947
  764MPD2     H11284   4.214   3.439  17.112 -2.5873  1.2585 -0.2383
  764MPD2    H111285   4.533   3.521  17.391  2.0154 -1.5036 -2.7053
  764MPD2    H211286   4.325   3.835  17.204 -0.7680 -0.1065 -2.0404
  764MPD2    H311287   4.495   3.763  17.339  2.7305 -1.6565 -1.8903
  764MPD2     N11288   4.380   3.320  17.284 -0.4375  0.4854  0.2258
  764MPD2    H511289   4.312   3.265  17.234  0.7321  0.9306 -1.8669
  764MPD2    N111290   4.154   3.669  17.047 -0.0706 -0.5990 -0.1605
  764MPD2    H711291   4.104   3.588  17.012  1.6089 -1.3358 -0.8304
  765MPD2     C11292   3.619   1.122  16.030  0.5284 -0.6225 -0.2134
  765MPD2    C111293   3.698   1.227  15.985 -0.2733  0.4104  0.5158
  765MPD2    C211294   3.818   1.188  15.944  0.2738  0.2513  0.0081
  765MPD2    C311295   3.863   1.059  15.950 -0.1595 -0.1516 -0.1217
  765MPD2    C411296   3.785   0.957  15.995  0.1181 -0.1768  0.3797
  765MPD2    C511297   3.656   0.993  16.037  0.4472  0.3896 -0.0714
  765MPD2     H11298   3.891   1.254  15.899  4.2090 -2.9703  1.6798
  765MPD2    H111299   3.811   0.853  16.004  0.4020 -0.0292  1.2434
  765MPD2    H211300   3.514   1.141  16.049  0.6193  0.4127 -0.7185
  765MPD2    H311301   3.579   0.917  16.047 -0.0277  0.7453 -1.1093
  765MPD2     N11302   3.990   1.030  15.903 -0.3850  0.3016 -0.7247
  765MPD2    H511303   4.046   1.109  15.875  0.2172  0.0689 -0.1726
  765MPD2    N111304   3.630   1.347  15.970  0.0900 -0.1939  0.2094
  765MPD2    H711305   3.533   1.346  16.001  0.0703  0.6542  0.1759
  766MPD2     C11306   3.070   1.673  15.437  0.5998  0.1237 -0.0609
  766MPD2    C111307   3.187   1.614  15.470 -0.2596  0.2406 -0.3451
  766MPD2    C211308   3.264   1.560  15.369  0.0847 -0.0259 -0.2681
  766MPD2    C311309   3.230   1.580  15.238  0.5137 -0.7282  0.1972
  766MPD2    C411310   3.110   1.634  15.200 -0.3206 -0.0798 -0.3855
  766MPD2    C511311   3.032   1.676  15.309 -0.7557 -0.0940  0.5130
  766MPD2     H11312   3.361   1.518  15.394  0.7119  3.0378  2.5494
  766MPD2    H111313   3.093   1.650  15.094 -0.2777  3.5201  0.1646
  766MPD2    H211314   3.006   1.703  15.518 -1.0723  1.7247 -1.9796
  766MPD2    H311315   2.935   1.715  15.279  0.6615  1.1013 -2.5025
  766MPD2     N11316   3.326   1.547  15.134 -0.3110  0.0740 -0.0264
  766MPD2    H511317   3.320   1.600  15.048  2.3811 -0.1573 -0.3742
  766MPD2    N111318   3.234   1.627  15.600 -0.2226  0.4937 -0.1445
  766MPD2    H711319   3.207   1.709  15.654  1.4273 -0.7050  2.4758
  767MPD2     C11320   2.986   1.885  14.980 -0.2477  0.1135 -0.2302
  767MPD2    C111321   3.125   1.868  14.982  0.4738 -0.0831 -0.9165
  767MPD2    C211322   3.184   1.781  14.892  0.2747 -0.2643  0.4288
  767MPD2    C311323   3.095   1.708  14.812 -0.3169  0.3315 -0.7283
  767MPD2    C411324   2.961   1.728  14.810  0.5262  0.3627 -0.0734
  767MPD2    C511325   2.911   1.814  14.899  0.3451  0.4943  0.2894
  767MPD2     H11326   3.291   1.763  14.892  0.1138 -1.1806 -1.1569
  767MPD2    H111327   2.888   1.690  14.739  1.8702 -2.1197 -0.1288
  767MPD2    H211328   2.942   1.960  15.045 -0.6839 -0.4559  0.1313
  767MPD2    H311329   2.804   1.831  14.895  0.1883 -0.2318  1.3687
  767MPD2     N11330   3.151   1.623  14.718  0.5666  0.2743 -0.2605
  767MPD2    H511331   3.251   1.638  14.704  0.5315  1.7616  1.0734
  767MPD2    N111332   3.200   1.950  15.071  0.3457 -0.0350  0.2314
  767MPD2    H711333   3.145   2.017  15.123  1.9378  0.5767  1.0942
  768MPD2     C11334   3.860   4.234  10.640  0.0663  0.3227 -0.6927
  768MPD2    C111335   3.806   4.264  10.762  0.3469 -0.3814 -0.2310
  768MPD2    C211336   3.895   4.307  10.862  0.0685 -0.1129 -0.0995
  768MPD2    C311337   4.030   4.327  10.832 -0.0515 -0.6463  0.2523
  768MPD2    C411338   4.072   4.304  10.700 -0.4231 -0.5609 -0.5039
  768MPD2    C511339   3.987   4.257  10.606  0.0179 -0.0742  0.1840
  768MPD2     H11340   3.857   4.322  10.962 -0.7492  1.8187 -0.7171
  768MPD2    H111341   4.174   4.331  10.674  0.0138  1.7461  3.4552
  768MPD2    H211342   3.798   4.207  10.555  0.4637  0.4626 -1.0253
  768MPD2    H311343   4.027   4.245  10.506 -0.7833 -1.7104  0.0513
  768MPD2     N11344   4.131   4.373  10.924  0.5194 -0.6598  0.0754
  768MPD2    H511345   4.224   4.400  10.892  0.5660 -0.0256  0.7460
  768MPD2    N111346   3.669   4.251  10.800  0.0424 -0.5600 -0.5364
  768MPD2    H711347   3.650   4.275  10.896 -2.2162  0.9826 -1.3726
  769MPD2     C11348   0.302   3.175  14.917  0.0359  0.3176 -0.4797
  769MPD2    C111349   0.194   3.198  14.994  0.3552 -0.0128 -0.4211
  769MPD2    C211350   0.217   3.252  15.120  0.1079  0.4607 -0.5901
  769MPD2    C311351   0.346   3.278  15.161 -0.0332  0.6861 -0.2701
  769MPD2    C411352   0.455   3.254  15.083  0.3497 -0.2027 -0.0149
  769MPD2    C511353   0.429   3.204  14.959  0.3065  0.6725  0.7745
  769MPD2     H11354   0.133   3.265  15.188  1.0528  1.8198  0.2998
  769MPD2    H111355   0.556   3.252  15.124  0.7892 -0.4069 -1.1144
  769MPD2    H211356   0.290   3.151  14.812 -0.1551  1.8544 -0.8083
  769MPD2    H311357   0.512   3.177  14.895 -0.3891  0.5394 -0.0788
  769MPD2     N11358   0.353   3.327  15.293 -0.0632  0.1613 -0.1531
  769MPD2    H511359   0.274   3.331  15.356  2.0143  0.7179  2.4184
  769MPD2    N111360   0.062   3.164  14.949 -0.0035  0.0825 -0.3494
  769MPD2    H711361   0.055   3.124  14.856 -1.3399  1.4611 -0.8474
  770MPD2     C11362   4.082   2.580  14.951  0.1411  0.0989 -0.0278
  770MPD2    C111363   4.221   2.579  14.936  0.1258 -0.4114  0.2109
  770MPD2    C211364   4.285   2.700  14.923 -0.3239  0.2673 -0.4917
  770MPD2    C311365   4.216   2.810  14.937 -0.0590  0.0718  0.0585
  770MPD2    C411366   4.074   2.810  14.947  0.2474 -0.0862 -0.7386
  770MPD2    C511367   4.012   2.695  14.954  0.1115 -0.0141  0.1425
  770MPD2     H11368   4.391   2.705  14.901 -0.2400 -0.0912 -0.1785
  770MPD2    H111369   4.008   2.895  14.935  0.2341 -0.1623 -1.2201
  770MPD2    H211370   4.034   2.483  14.958 -0.1150  0.2952  0.8763
  770MPD2    H311371   3.904   2.691  14.947 -0.0597 -0.0993  2.9683
  770MPD2     N11372   4.280   2.929  14.916 -0.3884 -0.1679  0.4660
  770MPD2    H511373   4.378   2.918  14.893 -0.4141  1.8226 -0.5690
  770MPD2    N111374   4.297   2.456  14.951  0.1023  0.1177 -0.1418
  770MPD2    H711375   4.242   2.376  14.980 -1.3932  0.8607 -0.9216
  771MPD2     C11376   1.133   0.274  13.500 -0.4405 -0.2444  0.6746
  771MPD2    C111377   1.084   0.398  13.509  0.2455 -0.0444 -0.9980
  771MPD2    C211378   0.966   0.431  13.437  0.2243 -0.2127  0.2596
  771MPD2    C311379   0.900   0.341  13.360  0.5802  0.2985 -0.2729
  771MPD2    C411380   0.953   0.217  13.350  0.3508  0.3484 -0.5435
  771MPD2    C511381   1.066   0.183  13.413  0.0971  0.2309 -0.5028
  771MPD2     H11382   0.921   0.529  13.445 -0.7828 -0.6320 -0.2356
  771MPD2    H111383   0.902   0.142  13.291  1.6666 -0.6417 -0.4139
  771MPD2    H211384   1.227   0.241  13.543 -0.4214 -0.8785  0.1457
  771MPD2    H311385   1.103   0.084  13.388 -2.0337 -0.5051 -0.7542
  771MPD2     N11386   0.782   0.388  13.295 -0.3266  0.1897  0.5493
  771MPD2    H511387   0.755   0.485  13.311  0.7678  0.4122  1.0015
  771MPD2    N111388   1.151   0.508  13.574 -0.1381 -0.5273  0.1713
  771MPD2    H711389   1.111   0.601  13.571 -0.0810 -0.5296 -0.7439
  772MPD2     C11390   1.029   1.119  13.931  0.3696 -0.1370  0.1206
  772MPD2    C111391   1.003   1.009  13.854 -0.2637 -0.0958  0.2872
  772MPD2    C211392   0.873   0.963  13.872 -0.3465 -0.1337  0.3904
  772MPD2    C311393   0.777   1.022  13.951 -0.2526  1.3254  0.0057
  772MPD2    C411394   0.803   1.139  14.013  0.6626  0.0608 -0.0769
  772MPD2    C511395   0.932   1.178  14.011  0.0539  0.4763  0.6342
  772MPD2     H11396   0.845   0.871  13.821  0.9312  0.9211 -2.1854
  772MPD2    H111397   0.732   1.182  14.083  1.1055  1.1667 -0.3032
  772MPD2    H211398   1.130   1.152  13.951  0.2018  1.6916 -1.9907
  772MPD2    H311399   0.957   1.261  14.076  2.6410  1.5370 -1.7278
  772MPD2     N11400   0.648   0.973  13.967 -0.2685  0.8552  0.0936
  772MPD2    H511401   0.589   1.034  14.023 -1.6067  0.8122 -1.2628
  772MPD2    N111402   1.103   0.940  13.780  0.2357 -0.0072  0.7291
  772MPD2    H711403   1.082   0.847  13.744 -2.4792  1.0293 -0.3277
  773MPD2     C11404   0.042   2.603   0.222 -0.5319 -0.6272 -0.1305
  773MPD2    C111405   0.022   2.500   0.138  0.5279 -0.4221  0.4271
  773MPD2    C211406   0.056   2.379   0.172  0.9603 -0.1783 -0.3252
  773MPD2    C311407   0.120   2.353   0.285 -0.0110 -0.1313 -0.3126
  773MPD2    C411408   0.135   2.457   0.379  0.2256  0.4506 -0.6272
  773MPD2    C511409   0.099   2.584   0.340  0.7747  0.2072  0.0727
  773MPD2     H11410   0.055   2.290   0.109  0.7825 -0.9246  0.7345
  773MPD2    H111411   0.180   2.434   0.475  0.9458  1.6676 -0.6830
  773MPD2    H211412   0.002   2.703   0.203 -1.9069 -1.6228 -2.4550
  773MPD2    H311413   0.107   2.654   0.422  0.4630  1.5795 -1.0595
  773MPD2     N11414   0.154   2.218   0.303 -0.1056 -0.2429 -0.9103
  773MPD2    H511415   0.145   2.157   0.222  2.7762 -2.4188  0.3908
  773MPD2    N111416   4.695   2.517   0.007 -0.1286  0.7537 -0.3787
  773MPD2    H711417   4.672   2.434  17.655  4.5440  0.5716 -2.0952
  774MPD2     C11418   4.355   1.339  13.098 -0.4537 -0.0817  0.4057
  774MPD2    C111419   4.266   1.365  13.201 -0.5034 -0.0995  0.0062
  774MPD2    C211420   4.247   1.492  13.236 -0.0276 -0.6530 -0.3184
  774MPD2    C311421   4.295   1.596  13.160  0.6904  0.4061  0.0395
  774MPD2    C411422   4.379   1.574  13.052 -0.5278  0.3401 -0.7199
  774MPD2    C511423   4.408   1.441  13.028 -0.3320 -0.4323  0.7741
  774MPD2     H11424   4.174   1.515  13.312  0.7019 -2.0111  0.7887
  774MPD2    H111425   4.423   1.638  12.977 -0.4014  3.6648  2.1646
  774MPD2    H211426   4.368   1.237  13.066 -1.6978 -0.1881  0.2511
  774MPD2    H311427   4.473   1.431  12.942  0.0237 -1.6731  1.1732
  774MPD2     N11428   4.264   1.726  13.196 -0.4436  0.2089 -0.0239
  774MPD2    H511429   4.190   1.741  13.264  0.1632 -0.6802  0.8389
  774MPD2    N111430   4.219   1.252  13.266 -0.1157 -0.3592  0.1747
  774MPD2    H711431   4.274   1.167  13.260  1.9222  1.1022 -1.7551
  775MPD2     C11432   0.424   3.003  15.966  0.3083  1.0141 -0.0749
  775MPD2    C111433   0.462   3.098  16.055  0.6527  0.0116 -0.1290
  775MPD2    C211434   0.544   3.200  16.009  0.2725  0.0593  0.5947
  775MPD2    C311435   0.580   3.206  15.875  0.4667  0.7222 -0.4586
  775MPD2    C411436   0.544   3.106  15.792  0.0350  0.3131 -0.0752
  775MPD2    C511437   0.462   3.008  15.837  0.6962 -0.3980 -0.4286
  775MPD2     H11438   0.583   3.271  16.081 -1.3825  0.6374  0.9095
  775MPD2    H111439   0.570   3.106  15.687  1.1642  0.7033  0.1990
  775MPD2    H211440   0.340   2.939  15.991  1.8440 -1.1387 -0.3409
  775MPD2    H311441   0.422   2.934  15.768 -0.3087  1.0695 -1.4232
  775MPD2     N11442   0.677   3.306  15.830  0.1496 -0.1666 -0.0465
  775MPD2    H511443   0.702   3.298  15.732  0.6085 -0.6816  0.1168
  775MPD2    N111444   0.398   3.102  16.180 -0.0671  0.1053 -0.4675
  775MPD2    H711445   0.340   3.022  16.205  0.3241  0.4395  1.5185
  776MPD2     C11446   4.094   2.950  12.197  0.5629  0.8890  0.0003
  776MPD2    C111447   4.202   2.909  12.126  0.5151 -0.0068  0.1244
  776MPD2    C211448   4.261   3.001  12.040 -0.2671  0.0280 -0.8828
  776MPD2    C311449   4.228   3.133  12.028 -0.0958  0.5475 -0.3343
  776MPD2    C411450   4.115   3.172  12.096 -0.7133 -0.8645 -0.1542
  776MPD2    C511451   4.053   3.086  12.179  0.1733  0.2455  0.0972
  776MPD2     H11452   4.355   2.978  11.992 -1.2274 -2.0937 -1.7298
  776MPD2    H111453   4.089   3.277  12.100 -1.3618 -1.0798  1.2328
  776MPD2    H211454   4.034   2.887  12.261  0.3173 -1.3578 -2.4639
  776MPD2    H311455   3.974   3.125  12.242 -0.1533 -0.9229  0.4204
  776MPD2     N11456   4.289   3.232  11.946  0.6473  0.4719  0.0548
  776MPD2    H511457   4.243   3.322  11.936 -1.9445 -0.9523 -0.8474
  776MPD2    N111458   4.249   2.774  12.129  0.2168 -0.6415 -0.1173
  776MPD2    H711459   4.187   2.712  12.182 -2.0897  2.6095  0.9747
  777MPD2     C11460   0.195   0.718   0.656  0.2801  0.4269  0.0496
  777MPD2    C111461   0.109   0.722   0.761 -0.6637  0.7889  1.0671
  777MPD2    C211462   4.722   0.635   0.757  0.2856  0.5641  0.3586
  777MPD2    C311463   4.709   0.556   0.649 -1.1534  0.4231  0.0740
  777MPD2    C411464   0.073   0.558   0.543 -0.8699  0.0013 -0.3461
  777MPD2    C511465   0.181   0.640   0.549 -0.3186 -0.0598  0.2898
  777MPD2     H11466   4.635   0.642   0.822 -1.1491 -0.6251 -1.4435
  777MPD2    H111467   0.058   0.502   0.451  3.4008 -0.1256 -0.9764
  777MPD2    H211468   0.281   0.783   0.657  2.0304 -1.8954 -2.4924
  777MPD2    H311469   0.247   0.642   0.464 -1.6269  1.2994 -0.6991
  777MPD2     N11470   4.596   0.468   0.655  0.9240 -0.3984 -0.2681
  777MPD2    H511471   4.537   0.483   0.736 -0.2628 -1.3437 -0.9660
  777MPD2    N111472   0.143   0.807   0.866 -0.1193 -0.3547 -0.0921
  777MPD2    H711473   0.236   0.846   0.862 -0.3536  0.2739  0.3797
  778MPD2     C11474   1.343   1.178  14.955  0.2469  0.0326 -0.2330
  778MPD2    C111475   1.360   1.054  14.891  0.2683 -0.1541  0.0731
  778MPD2    C211476   1.384   1.055  14.756 -0.5344  0.3478 -0.2015
  778MPD2    C311477   1.404   1.171  14.686  0.3542 -0.3651  0.3116
  778MPD2    C411478   1.375   1.291  14.746 -0.1954  0.2468 -0.1111
  778MPD2    C511479   1.353   1.298  14.884  0.3884 -0.4832  0.2977
  778MPD2     H11480   1.415   0.963  14.708 -0.5909  1.2019 -1.9127
  778MPD2    H111481   1.382   1.391  14.705  0.8146  0.6055  0.9284
  778MPD2    H211482   1.308   1.179  15.058  0.6350  0.1714 -0.1063
  778MPD2    H311483   1.340   1.394  14.932  1.7532  0.2678 -0.8079
  778MPD2     N11484   1.442   1.157  14.547  0.4179 -0.4848 -0.1097
  778MPD2    H511485   1.460   1.062  14.515  0.7643 -0.5828  0.3842
  778MPD2    N111486   1.350   0.934  14.967 -1.2964  0.0170  0.1666
  778MPD2    H711487   1.329   0.849  14.916 -1.4727  1.1302 -1.6102
  779MPD2     C11488   0.720   4.494  14.848  0.3749 -0.1451  0.0951
  779MPD2    C111489   0.793   4.443  14.739 -0.2935  0.1786  0.3935
  779MPD2    C211490   0.834   4.528  14.642  0.8327 -0.1849 -0.3101
  779MPD2    C311491   0.803   4.655  14.651 -0.5212 -0.6191  0.1424
  779MPD2    C411492   0.737   4.705  14.760 -0.4769 -0.7866 -0.2048
  779MPD2    C511493   0.687   4.624  14.862 -0.2782  0.5492 -0.2323
  779MPD2     H11494   0.903   4.502  14.562  0.8665 -3.9282  0.9520
  779MPD2    H111495   0.696   0.081  14.758  1.1668 -0.1501 -1.5234
  779MPD2    H211496   0.673   4.429  14.921 -1.5207  1.7466  0.5593
  779MPD2    H311497   0.637   4.666  14.949  2.8874  1.0266  1.3715
  779MPD2     N11498   0.850   0.019  14.550  0.0870 -0.2080 -0.0097
  779MPD2    H511499   0.919   4.711  14.483  0.0593 -0.5028  0.1088
  779MPD2    N111500   0.820   4.302  14.734  0.1294  0.0840  0.2259
  779MPD2    H711501   0.857   4.257  14.652  1.8288 -0.6893  1.4112
  780MPD2     C11502   0.843   4.207   1.534  0.4674  0.4115 -0.7336
  780MPD2    C111503   0.779   4.167   1.426  0.4270 -0.7658  0.2666
  780MPD2    C211504   0.852   4.121   1.320  0.0602  0.7308 -0.1737
  780MPD2    C311505   0.993   4.119   1.318 -0.7627  0.3978  0.1734
  780MPD2    C411506   1.053   4.163   1.433 -0.0486 -0.1474 -0.0980
  780MPD2    C511507   0.980   4.209   1.536 -0.2884  0.2738 -0.4820
  780MPD2     H11508   0.801   4.087   1.231 -0.4511 -1.3931  0.9358
  780MPD2    H111509   1.159   4.182   1.437 -0.0002 -0.5969  0.9629
  780MPD2    H211510   0.789   4.231   1.625  1.0341  2.5218 -0.9594
  780MPD2    H311511   1.033   4.239   1.625  1.0039  2.1410 -1.8645
  780MPD2     N11512   1.064   4.074   1.202 -0.2254  0.7596  0.5375
  780MPD2    H511513   1.008   4.046   1.122  0.7424  0.7675 -0.1408
  780MPD2    N111514   0.638   4.155   1.426 -0.2508 -0.0659 -0.3128
  780MPD2    H711515   0.595   4.162   1.518  0.4213 -1.4997  0.1016
  781MPD2     C11516   2.055   1.031  11.868 -0.6485 -0.6378 -0.7389
  781MPD2    C111517   2.135   1.139  11.895 -0.2585  0.4982  0.4005
  781MPD2    C211518   2.211   1.197  11.789 -0.1678  0.3399  0.5379
  781MPD2    C311519   2.226   1.140  11.668 -0.0445  0.3186 -0.0482
  781MPD2    C411520   2.149   1.026  11.646  0.2806 -0.3216  0.4371
  781MPD2    C511521   2.064   0.976  11.740 -0.6897  0.8008 -0.0470
  781MPD2     H11522   2.275   1.282  11.811  0.6188 -0.1015 -0.0348
  781MPD2    H111523   2.153   0.968  11.554  0.2004 -0.3905  0.4769
  781MPD2    H211524   1.988   0.981  11.937  0.8741  1.5765  2.3482
  781MPD2    H311525   2.017   0.882  11.713 -2.1267  1.5920 -0.3166
  781MPD2     N11526   2.308   1.196  11.567  0.1393 -0.8225  0.2742
  781MPD2    H511527   2.307   1.145  11.479  0.0120  0.6794 -0.5988
  781MPD2    N111528   2.130   1.199  12.022  0.2027  0.4884 -0.4441
  781MPD2    H711529   2.065   1.155  12.086  0.1193  0.7919 -0.3228
  782MPD2     C11530   0.391   2.338  10.268  0.1241  0.3172  0.0576
  782MPD2    C111531   0.476   2.270  10.348 -0.1829  0.1561 -0.3924
  782MPD2    C211532   0.560   2.329  10.439  0.0239 -0.0466  0.4696
  782MPD2    C311533   0.538   2.464  10.473 -0.1634 -0.6635 -0.5876
  782MPD2    C411534   0.448   2.539  10.398  0.0816 -0.0680  0.0628
  782MPD2    C511535   0.381   2.475  10.294 -0.5140  0.4296  0.2362
  782MPD2     H11536   0.626   2.268  10.501  0.4434 -1.0826 -0.9926
  782MPD2    H111537   0.431   2.643  10.422  0.4891 -0.3969  1.7457
  782MPD2    H211538   0.333   2.298  10.186 -0.3657  3.2973 -1.0454
  782MPD2    H311539   0.314   2.535  10.234 -0.6745  1.3124  1.3100
  782MPD2     N11540   0.604   2.523  10.590  0.2021  0.3522 -0.5239
  782MPD2    H511541   0.675   2.468  10.638 -0.7490  1.2183  1.8787
  782MPD2    N111542   0.484   2.131  10.343 -0.5426 -0.3097 -0.0427
  782MPD2    H711543   0.556   2.092  10.402 -1.4120 -2.1410 -0.1903
  783MPD2     C11544   4.673   1.623  10.912 -0.1957  0.2003  0.2841
  783MPD2    C111545   4.669   1.751  10.867  0.5127  0.0282 -0.5339
  783MPD2    C211546   0.036   1.798  10.771 -1.1643 -0.8202 -0.1566
  783MPD2    C311547   0.138   1.714  10.731 -0.1002 -0.2707 -0.7886
  783MPD2    C411548   0.146   1.585  10.784  0.8752 -0.2106 -0.4405
  783MPD2    C511549   0.048   1.538  10.869 -0.0765  0.3677  0.6736
  783MPD2     H11550   0.036   1.901  10.736  0.0186 -1.0098 -0.7178
  783MPD2    H111551   0.224   1.516  10.753  0.2900 -0.7421 -0.7344
  783MPD2    H211552   4.590   1.582  10.970  0.5476 -2.2482 -0.3661
  783MPD2    H311553   0.038   1.435  10.903  1.1204  0.2730  0.7554
  783MPD2     N11554   0.221   1.757  10.627  0.0927  0.1942  0.4285
  783MPD2    H511555   0.226   1.856  10.607  1.7003  0.4695  2.1316
  783MPD2    N111556   4.562   1.825  10.909 -0.6104 -0.0171 -0.0218
  783MPD2    H711557   4.488   1.783  10.965 -1.9602 -1.3952 -2.7964
  784MPD2     C11558   2.990   2.578   0.381 -0.8177  0.1587  0.1860
  784MPD2    C111559   2.917   2.575   0.496  0.5669  0.0720 -0.1927
  784MPD2    C211560   2.780   2.593   0.481  0.2493 -0.0768  0.8545
  784MPD2    C311561   2.720   2.614   0.359  0.3475  1.3572  0.8526
  784MPD2    C411562   2.797   2.611   0.245  0.6835  0.0945  0.1570
  784MPD2    C511563   2.934   2.595   0.252 -0.0488  0.5585  0.3061
  784MPD2     H11564   2.716   2.598   0.568  0.2454  0.7024  0.8069
  784MPD2    H111565   2.753   2.623   0.146  1.4023  2.0577  0.0799
  784MPD2    H211566   3.099   2.574   0.380 -0.7673  1.8836 -1.1714
  784MPD2    H311567   2.995   2.598   0.163  0.2848 -0.1246  0.5090
  784MPD2     N11568   2.578   2.636   0.362 -0.1733  0.1754  0.7674
  784MPD2    H511569   2.527   2.633   0.450 -1.1477  2.1202  0.2582
  784MPD2    N111570   2.962   2.539   0.632 -0.5219 -0.1063  0.0125
  784MPD2    H711571   2.897   2.527   0.710  0.2012 -0.4044  0.5625
  785MPD2     C11572   2.629   0.341  10.266  0.2026  0.4862  0.2619
  785MPD2    C111573   2.592   0.475  10.288  0.2787 -0.5408  0.2382
  785MPD2    C211574   2.491   0.529  10.218 -0.2576  0.7292 -0.0089
  785MPD2    C311575   2.430   0.467  10.116 -0.4761 -0.6796  0.2240
  785MPD2    C411576   2.464   0.333  10.088 -0.6786  0.0955  0.5021
  785MPD2    C511577   2.571   0.280  10.158 -0.0969 -0.4807  0.2162
  785MPD2     H11578   2.470   0.633  10.240  1.2216  1.1459 -0.5378
  785MPD2    H111579   2.422   0.271  10.010 -2.3013  1.2117  0.4693
  785MPD2    H211580   2.698   0.281  10.324  1.7845  2.8390  0.8015
  785MPD2    H311581   2.581   0.174  10.137 -2.5627 -0.5567 -0.5512
  785MPD2     N11582   2.342   0.546  10.046  0.4227 -0.2286 -0.2016
  785MPD2    H511583   2.332   0.645  10.064  0.7873  0.1232 -1.8917
  785MPD2    N111584   2.641   0.554  10.395  0.7265  0.0062 -0.2742
  785MPD2    H711585   2.603   0.646  10.414  0.0757 -0.2822 -0.2062
  786MPD2     C11586   0.942   3.762  14.998  0.4879  0.0868  0.4452
  786MPD2    C111587   1.065   3.722  14.943 -0.5412 -0.6168 -0.4579
  786MPD2    C211588   1.186   3.753  15.008  0.2460  0.6776 -0.3796
  786MPD2    C311589   1.193   3.824  15.122 -0.3303 -0.5195 -0.0001
  786MPD2    C411590   1.070   3.865  15.173 -0.3429  0.0514  0.0550
  786MPD2    C511591   0.951   3.824  15.121 -0.1795 -0.4153 -0.3645
  786MPD2     H11592   1.281   3.714  14.973 -0.1833  0.4870 -1.3124
  786MPD2    H111593   1.049   3.915  15.267 -1.1966 -0.1887 -0.0108
  786MPD2    H211594   0.847   3.747  14.947  0.4901  0.8604  0.2126
  786MPD2    H311595   0.857   3.854  15.165  1.4716  1.4548  1.8790
  786MPD2     N11596   1.312   3.870  15.186 -0.4239  0.0774 -0.3568
  786MPD2    H511597   1.291   3.924  15.269  2.0096  0.6312 -0.1220
  786MPD2    N111598   1.066   3.664  14.811 -0.4831  0.0747 -0.3474
  786MPD2    H711599   1.150   3.621  14.774  0.6122  3.1893 -1.5167
  787MPD2     C11600   0.926   2.911  14.553 -0.0293  0.6644 -0.5325
  787MPD2    C111601   1.031   2.993  14.590  0.3982  0.4671 -0.2634
  787MPD2    C211602   1.126   2.944  14.677 -0.6770 -0.2691 -0.7256
  787MPD2    C311603   1.115   2.816  14.734 -0.2607  0.2417  0.4429
  787MPD2    C411604   1.013   2.735  14.694 -0.3442 -0.1896  0.4227
  787MPD2    C511605   0.922   2.782  14.598  0.3024  0.0568  0.1979
  787MPD2     H11606   1.218   2.997  14.700 -3.2792  3.8558  0.0467
  787MPD2    H111607   0.988   2.635  14.729  0.0588 -0.5889 -0.4277
  787MPD2    H211608   0.851   2.940  14.480 -2.6065  0.1561  1.8886
  787MPD2    H311609   0.831   2.724  14.588  0.0949 -0.0009  2.3413
  787MPD2     N11610   1.225   2.778  14.811  0.1061 -0.1369  0.0256
  787MPD2    H511611   1.296   2.850  14.820 -0.1541  0.1548 -0.2219
  787MPD2    N111612   1.029   3.123  14.541 -0.0896  0.2463  0.2559
  787MPD2    H711613   0.965   3.144  14.465 -0.3204  0.2915  0.4628
  788MPD2     C11614   3.227   1.590   1.085 -0.4766  0.8331  0.1367
  788MPD2    C111615   3.152   1.551   0.976  0.4911 -0.2546  0.5357
  788MPD2    C211616   3.142   1.630   0.867  0.8342  1.2484  0.1363
  788MPD2    C311617   3.223   1.747   0.856  0.2718 -0.2804 -0.6722
  788MPD2    C411618   3.312   1.774   0.955 -0.1257  0.0891  0.9909
  788MPD2    C511619   3.308   1.699   1.071  0.1007  0.4743 -0.2787
  788MPD2     H11620   3.076   1.603   0.785 -1.1974 -0.2383  2.2880
  788MPD2    H111621   3.376   1.861   0.949 -0.5730  0.5176  2.4754
  788MPD2    H211622   3.238   1.536   1.178 -0.7188 -0.9147 -0.8444
  788MPD2    H311623   3.374   1.742   1.145 -1.0179 -1.3164  1.7529
  788MPD2     N11624   3.232   1.827   0.739  0.0982 -0.0403 -0.1988
  788MPD2    H511625   3.303   1.899   0.731  1.9320 -1.6484  1.6920
  788MPD2    N111626   3.068   1.436   0.976  0.0187 -0.0028  0.1069
  788MPD2    H711627   3.009   1.426   0.894 -0.7206  1.0158  0.5177
  789MPD2     C11628   3.864   1.740  16.200 -0.1656 -0.8210  0.1210
  789MPD2    C111629   3.795   1.680  16.304  0.0646 -0.1847 -0.2766
  789MPD2    C211630   3.658   1.716  16.328  0.3116 -0.4242 -0.6471
  789MPD2    C311631   3.600   1.816  16.253 -0.2377  0.7953  0.0129
  789MPD2    C411632   3.675   1.873  16.153 -0.6385  0.3304  0.1358
  789MPD2    C511633   3.799   1.826  16.120  0.3870 -0.1877 -0.2354
  789MPD2     H11634   3.599   1.670  16.406 -0.1755 -1.0268 -1.3668
  789MPD2    H111635   3.640   1.958  16.095  0.3263 -0.1183 -1.1142
  789MPD2    H211636   3.964   1.709  16.175 -0.9550 -2.5305 -0.9339
  789MPD2    H311637   3.839   1.862  16.026  2.0093  0.0280  0.5404
  789MPD2     N11638   3.479   1.874  16.293 -0.0180 -0.1493  0.0744
  789MPD2    H511639   3.444   1.947  16.231 -0.1702  0.3769  0.7771
  789MPD2    N111640   3.856   1.580  16.388 -0.2319 -0.1294  0.0813
  789MPD2    H711641   3.796   1.528  16.451  1.0173  0.8985  2.1124
  790MPD2     C11642   4.175   3.633  13.586 -0.0796  0.2156 -0.0895
  790MPD2    C111643   4.266   3.532  13.618  0.0708  0.0375 -0.3962
  790MPD2    C211644   4.290   3.432  13.524  0.7011 -0.2312 -0.3669
  790MPD2    C311645   4.242   3.457  13.395 -0.5575  0.0796 -0.1449
  790MPD2    C411646   4.162   3.568  13.363  0.3553 -0.1128 -0.3056
  790MPD2    C511647   4.122   3.654  13.463 -0.0405 -0.4640  0.0259
  790MPD2     H11648   4.338   3.341  13.557  1.3106  0.3069  0.2227
  790MPD2    H111649   4.142   3.599  13.261 -2.6366 -1.0991 -0.0185
  790MPD2    H211650   4.148   3.696  13.670 -0.4139 -0.0185 -0.0220
  790MPD2    H311651   4.056   3.738  13.443 -0.5827 -0.7354  0.6594
  790MPD2     N11652   4.275   3.364  13.294  0.4050 -0.2285  0.0356
  790MPD2    H511653   4.338   3.292  13.327  0.1477  0.1513  1.3357
  790MPD2    N111654   4.308   3.521  13.753  0.4316  0.0695  0.4504
  790MPD2    H711655   4.259   3.580  13.819  2.9391  1.0215  1.4422
  791MPD2     C11656   3.716   3.287  12.798  0.2769 -0.0324 -0.2678
  791MPD2    C111657   3.757   3.161  12.840  0.0048  0.1391  0.2217
  791MPD2    C211658   3.675   3.051  12.821 -0.6999 -0.0373  0.2765
  791MPD2    C311659   3.558   3.069  12.750  0.6690  0.2179 -0.0213
  791MPD2    C411660   3.511   3.192  12.719  0.3451  0.3432  0.5883
  791MPD2    C511661   3.587   3.302  12.748  0.4427 -0.0971 -0.2064
  791MPD2     H11662   3.721   2.953  12.836 -3.6492 -1.1651  1.9831
  791MPD2    H111663   3.421   3.220  12.664  0.3310  1.4023  1.1544
  791MPD2    H211664   3.777   3.374  12.815  0.7687 -0.3033 -0.6643
  791MPD2    H311665   3.560   3.401  12.714 -1.4396 -0.3878  0.4927
  791MPD2     N11666   3.484   2.949  12.735  0.6979  0.1706  0.4747
  791MPD2    H511667   3.537   2.863  12.729  0.4173 -0.0075  0.5466
  791MPD2    N111668   3.879   3.152  12.902  0.0989  0.2536 -0.4016
  791MPD2    H711669   3.932   3.237  12.917  0.0458  0.4755 -1.4671
  792MPD2     C11670   4.345   2.756  11.445 -0.3248  0.5543 -0.3455
  792MPD2    C111671   4.378   2.832  11.332 -0.4836 -0.4646 -0.7802
  792MPD2    C211672   4.345   2.775  11.209 -0.0672 -0.2041  0.0905
  792MPD2    C311673   4.271   2.662  11.187  0.1341  0.2224 -0.5497
  792MPD2    C411674   4.246   2.586  11.302  0.2188 -0.0684  0.9139
  792MPD2    C511675   4.285   2.633  11.431 -0.8749 -0.7213  0.2997
  792MPD2     H11676   4.370   2.827  11.118 -2.5008  0.2113 -0.3383
  792MPD2    H111677   4.199   2.489  11.291  0.9228 -0.2633 -0.3543
  792MPD2    H211678   4.364   2.791  11.546 -1.1700  2.9035 -0.9925
  792MPD2    H311679   4.247   2.580  11.518  0.1958 -0.1556  1.1025
  792MPD2     N11680   4.240   2.604  11.061 -0.4538 -0.4330 -0.3462
  792MPD2    H511681   4.180   2.522  11.059 -1.1392  0.1136 -1.6157
  792MPD2    N111682   4.419   2.967  11.343  0.3552  0.0390 -0.1366
  792MPD2    H711683   4.439   2.991  11.440 -0.3756 -0.5476  0.1655
  793MPD2     C11684   4.404   2.694   9.969  0.1409 -0.7109  0.1833
  793MPD2    C111685   4.484   2.604  10.032  0.4601  0.6763 -0.0844
  793MPD2    C211686   4.457   2.577  10.164 -0.1762  0.5645 -0.2201
  793MPD2    C311687   4.353   2.637  10.241 -0.3733  0.1573  0.9881
  793MPD2    C411688   4.277   2.730  10.178  0.3608  0.1891 -0.2601
  793MPD2    C511689   4.307   2.758  10.046 -0.1950  0.4208 -0.5756
  793MPD2     H11690   4.525   2.507  10.211 -0.8612  0.3690  0.4801
  793MPD2    H111691   4.194   2.785  10.218 -0.9519 -1.8929 -0.1027
  793MPD2    H211692   4.424   2.722   9.867  1.2688 -2.9651 -0.2288
  793MPD2    H311693   4.243   2.830   9.997  0.2977  2.1925  1.4266
  793MPD2     N11694   4.325   2.597  10.374  0.5396  0.0362 -0.8439
  793MPD2    H511695   4.371   2.523  10.426 -1.1375  0.4365  1.2025
  793MPD2    N111696   4.582   2.523   9.971  0.1077  0.1440 -0.3015
  793MPD2    H711697   4.650   2.475  10.030  0.2120  0.0763 -0.4770
  794MPD2     C11698   4.414   3.055  17.044 -0.1355 -0.5899  0.1004
  794MPD2    C111699   4.367   2.922  17.044  0.8144 -0.0883  0.0859
  794MPD2    C211700   4.273   2.881  16.950 -0.7727 -0.3500 -0.1799
  794MPD2    C311701   4.229   2.977  16.858  0.1320  0.7267 -0.5581
  794MPD2    C411702   4.272   3.113  16.862  0.4087  0.5770 -0.5130
  794MPD2    C511703   4.359   3.150  16.964  0.2596 -0.9840  0.2327
  794MPD2     H11704   4.231   2.783  16.969  0.0120 -1.0041 -1.8230
  794MPD2    H111705   4.229   3.190  16.799 -1.9865  0.5131  1.0056
  794MPD2    H211706   4.492   3.090  17.110  0.0491  0.5311 -0.7075
  794MPD2    H311707   4.391   3.253  16.968  1.2649 -1.3261  0.8466
  794MPD2     N11708   4.124   2.944  16.771  0.2623  0.0228  0.3222
  794MPD2    H511709   4.088   3.024  16.719 -2.3557 -1.1883  0.2577
  794MPD2    N111710   4.417   2.817  17.125 -0.4130  0.3809  0.6517
  794MPD2    H711711   4.363   2.731  17.120 -2.1420  1.5458 -0.6767
  795MPD2     C11712   1.735   0.124  12.972  0.1721  0.0594 -0.0408
  795MPD2    C111713   1.654   0.053  13.060  0.4663 -0.1504  0.1355
  795MPD2    C211714   1.700   4.689  13.156 -0.8604  0.1733  0.6943
  795MPD2    C311715   1.836   4.685  13.180  1.1195  0.4518 -0.6723
  795MPD2    C411716   1.925   0.024  13.091 -0.1209 -0.4396  0.2018
  795MPD2    C511717   1.872   0.092  12.983 -0.1777  0.9834 -0.0563
  795MPD2     H11718   1.621   4.645  13.215 -3.1471 -0.1809 -2.6792
  795MPD2    H111719   2.032   0.008  13.086 -0.2156 -0.7778 -0.8955
  795MPD2    H211720   1.700   0.167  12.879 -2.5307 -0.4221  0.7592
  795MPD2    H311721   1.939   0.128  12.905 -0.3747  3.0313  0.7385
  795MPD2     N11722   1.895   4.614  13.282  0.3052  0.3247 -0.0129
  795MPD2    H511723   1.994   4.630  13.300  0.1427 -1.9176  2.8254
  795MPD2    N111724   1.513   0.060  13.053 -0.6968  0.8016  0.2393
  795MPD2    H711725   1.464   4.716  13.110  0.0153 -0.9516 -1.2543
  796MPD2     C11726   1.512   1.836  15.757 -0.7353 -0.0987  0.7764
  796MPD2    C111727   1.614   1.888  15.830 -0.0276 -0.0534 -0.0394
  796MPD2    C211728   1.632   2.023  15.840  0.9631 -0.3860  1.0847
  796MPD2    C311729   1.539   2.106  15.776 -0.9743  0.4041  0.3056
  796MPD2    C411730   1.426   2.050  15.716  0.5261  0.1091 -0.2464
  796MPD2    C511731   1.412   1.919  15.713  0.5783 -0.2687  0.2584
  796MPD2     H11732   1.719   2.073  15.882 -0.6307  0.0187  3.8516
  796MPD2    H111733   1.339   2.094  15.668 -0.6764  0.2232  2.0338
  796MPD2    H211734   1.500   1.729  15.754  1.9958 -0.2875 -2.7072
  796MPD2    H311735   1.320   1.878  15.675 -0.0384 -0.7319  2.2817
  796MPD2     N11736   1.553   2.248  15.785  0.3059  0.0844 -0.7388
  796MPD2    H511737   1.635   2.275  15.839  0.4560 -1.1029 -0.3766
  796MPD2    N111738   1.691   1.793  15.899 -0.0122  0.4870 -0.6475
  796MPD2    H711739   1.685   1.697  15.868 -1.0416  0.4050 -0.1663
  797MPD2     C11740   2.769   1.248  17.384 -0.8949  0.9206 -0.0014
  797MPD2    C111741   2.830   1.370  17.372 -0.3887 -0.2517  0.4945
  797MPD2    C211742   2.763   1.470  17.297  0.2748 -0.4316 -0.1591
  797MPD2    C311743   2.642   1.443  17.232  0.2118 -0.5886 -0.1441
  797MPD2    C411744   2.588   1.320  17.236 -0.4291  0.0504 -0.0291
  797MPD2    C511745   2.649   1.227  17.316  0.0543 -0.3470  0.0226
  797MPD2     H11746   2.815   1.564  17.286  0.3326 -0.3334  0.9742
  797MPD2    H111747   2.523   1.283  17.157 -1.2147  1.3181  0.0305
  797MPD2    H211748   2.811   1.174  17.452 -0.1861 -1.1388 -2.6979
  797MPD2    H311749   2.610   1.126  17.322 -0.3846 -0.3539 -2.6950
  797MPD2     N11750   2.609   1.541  17.135 -0.5601 -0.2038 -0.4807
  797MPD2    H511751   2.681   1.613  17.132  2.5434 -3.3729 -0.7357
  797MPD2    N111752   2.960   1.399  17.422  0.0025 -0.3374  0.2611
  797MPD2    H711753   2.997   1.491  17.400 -0.1247 -0.7769 -1.8765
  798MPD2     C11754   2.886   2.009  17.318 -0.7718 -0.0889 -0.5164
  798MPD2    C111755   2.902   1.920  17.217  0.6182  0.6758 -0.5213
  798MPD2    C211756   3.016   1.843  17.217 -0.4963 -0.0591  0.4233
  798MPD2    C311757   3.112   1.837  17.316 -0.4725  0.2932  0.3317
  798MPD2    C411758   3.105   1.940  17.409 -0.0493  0.0248 -0.2140
  798MPD2    C511759   2.988   2.015  17.416 -0.4700 -0.1580 -0.5262
  798MPD2     H11760   3.016   1.755  17.154 -0.5682 -0.1669  0.5770
  798MPD2    H111761   3.179   1.968  17.483  0.1549  1.8531 -1.1013
  798MPD2    H211762   2.797   2.070  17.322 -0.5528  0.1986  0.0181
  798MPD2    H311763   2.979   2.087  17.497  1.8075 -2.4814  1.7726
  798MPD2     N11764   3.211   1.736  17.321 -0.2501  0.4165  0.2995
  798MPD2    H511765   3.210   1.662  17.252  0.3337  0.2450  0.4748
  798MPD2    N111766   2.799   1.903  17.123 -0.4861  0.2701  0.2966
  798MPD2    H711767   2.718   1.965  17.124 -0.5522  0.2074 -1.2607
  799MPD2     C11768   1.877   2.369  14.651 -0.0983  0.4465  0.6084
  799MPD2    C111769   1.782   2.285  14.593 -0.2132  0.3434  0.6800
  799MPD2    C211770   1.652   2.336  14.559 -0.3089 -0.6116 -0.1998
  799MPD2    C311771   1.619   2.464  14.576  0.2518 -0.2254  0.4402
  799MPD2    C411772   1.715   2.544  14.640 -0.7325  0.3678 -0.2912
  799MPD2    C511773   1.838   2.498  14.682  0.1320  0.2536 -0.2278
  799MPD2     H11774   1.575   2.269  14.521  1.7735 -2.4446 -1.1554
  799MPD2    H111775   1.705   2.651  14.657  0.5583  0.2470  1.2245
  799MPD2    H211776   1.972   2.334  14.687  0.5395 -0.8273 -2.2687
  799MPD2    H311777   1.897   2.566  14.743 -1.2057 -0.1945  1.5938
  799MPD2     N11778   1.485   2.518  14.554 -0.4963  0.1609 -0.1952
  799MPD2    H511779   1.474   2.619  14.562  1.0973  0.1964  1.6183
  799MPD2    N111780   1.821   2.156  14.559 -0.1735  0.0960  0.2208
  799MPD2    H711781   1.753   2.096  14.514  0.5977  0.5860 -1.6171
  800MPD2     C11782   1.544   3.669  14.145  0.2138 -0.1095  0.7255
  800MPD2    C111783   1.659   3.612  14.087 -0.2131  0.2356 -0.5891
  800MPD2    C211784   1.647   3.550  13.964 -0.6408  0.3384  0.8754
  800MPD2    C311785   1.526   3.559  13.891  0.4587  0.6104 -0.0345
  800MPD2    C411786   1.418   3.620  13.952 -0.1448 -0.3097 -0.5835
  800MPD2    C511787   1.426   3.670  14.078  0.5480 -0.0562 -0.0753
  800MPD2     H11788   1.728   3.497  13.915 -0.9012  0.6412  0.1189
  800MPD2    H111789   1.319   3.623  13.908 -0.6563 -0.3061  0.5779
  800MPD2    H211790   1.547   3.718  14.241 -1.7329  1.6028 -0.0888
  800MPD2    H311791   1.342   3.721  14.125  0.5745  1.2403 -1.4385
  800MPD2     N11792   1.516   3.504  13.762 -0.0581  0.8631 -0.4712
  800MPD2    H511793   1.607   3.482  13.722 -0.3436  0.1349 -0.7239
  800MPD2    N111794   1.787   3.622  14.154  1.0533 -0.0319  0.5350
  800MPD2    H711795   1.790   3.672  14.242 -3.2968  1.1863 -0.0136
  801MPD2     C11796   2.078   4.176  14.517 -0.0755  0.1142 -0.6160
  801MPD2    C111797   1.989   4.107  14.438 -0.4140 -0.5048  0.1128
  801MPD2    C211798   1.857   4.143  14.453 -0.2262 -0.0441  0.6067
  801MPD2    C311799   1.814   4.216  14.559  0.4155 -0.6220  0.3105
  801MPD2    C411800   1.907   4.268  14.644 -0.2392 -0.5310 -0.4731
  801MPD2    C511801   2.043   4.259  14.620  0.4355 -0.3048  0.1301
  801MPD2     H11802   1.781   4.099  14.389  0.5636  3.0171 -2.3927
  801MPD2    H111803   1.874   4.331  14.725 -0.6224 -0.4478 -0.6977
  801MPD2    H211804   2.185   4.165  14.501 -0.2820 -1.0743 -1.1865
  801MPD2    H311805   2.118   4.307  14.682  0.5757 -0.8128  0.3492
  801MPD2     N11806   1.685   4.256  14.589  0.0452 -0.1516 -0.2517
  801MPD2    H511807   1.676   4.305  14.677 -3.5177 -0.9814 -0.1563
  801MPD2    N111808   2.025   4.013  14.341  0.1649  0.0788  0.3149
  801MPD2    H711809   1.950   3.980  14.281 -0.5872  0.5636  0.9881
  802MPD2     C11810   0.789   4.437  17.378 -0.1113  0.4276 -0.2902
  802MPD2    C111811   0.910   4.443  17.452 -0.3199 -0.4069 -0.7940
  802MPD2    C211812   1.021   4.382  17.400 -0.1256 -0.1161 -0.6413
  802MPD2    C311813   1.021   4.326  17.269  0.4564 -0.9498  0.0375
  802MPD2    C411814   0.897   4.317  17.200 -1.1180 -0.5026 -0.4033
  802MPD2    C511815   0.783   4.367  17.261  0.1133  0.1396  0.1278
  802MPD2     H11816   1.118   4.376  17.447 -0.6809  1.2712  0.6619
  802MPD2    H111817   0.887   4.266  17.105 -1.8502  1.4643 -1.3891
  802MPD2    H211818   0.697   4.481  17.414 -0.5361  0.1608 -1.0377
  802MPD2    H311819   0.686   4.366  17.213  0.0008  0.9230  0.3360
  802MPD2     N11820   1.145   4.276  17.217 -0.7805  0.3488 -0.3612
  802MPD2    H511821   1.231   4.274  17.271  0.1729 -0.7885 -1.9052
  802MPD2    N111822   0.932   4.530  17.560 -0.2406  0.1313 -0.4885
  802MPD2    H711823   1.024   4.537  17.601 -1.0400  0.7148  1.2424
  803MPD2     C11824   2.330   3.151  11.764  0.8614  1.0645  0.0939
  803MPD2    C111825   2.401   3.172  11.884  1.2689 -0.7351 -0.4354
  803MPD2    C211826   2.378   3.089  11.994  0.1366  0.1797 -0.2702
  803MPD2    C311827   2.276   2.998  11.995  0.2929  0.0657 -0.3614
  803MPD2    C411828   2.199   2.987  11.878  0.2874 -0.3337  0.6640
  803MPD2    C511829   2.233   3.059  11.769 -0.1187 -0.3812  0.7195
  803MPD2     H11830   2.435   3.105  12.084 -2.0494  1.7137  0.8621
  803MPD2    H111831   2.108   2.928  11.876  1.1178 -1.5978  0.0852
  803MPD2    H211832   2.330   3.214  11.676 -1.4502  0.0085 -0.6757
  803MPD2    H311833   2.159   3.060  11.690  0.6533  0.0315  0.0011
  803MPD2     N11834   2.245   2.918  12.100  0.5205 -0.4356 -0.2459
  803MPD2    H511835   2.161   2.861  12.099  1.1121 -1.3290  0.5785
  803MPD2    N111836   2.497   3.270  11.902  0.1197 -0.3079 -0.0365
  803MPD2    H711837   2.545   3.265  11.991  1.7309 -1.3177 -0.9708
  804MPD2     C11838   2.083   4.537  17.335  0.2166 -0.7175 -0.6802
  804MPD2    C111839   2.119   4.496  17.461 -0.1799 -0.5694  0.2508
  804MPD2    C211840   2.211   4.577  17.529  1.0091  0.5551 -0.5354
  804MPD2    C311841   2.271   4.684  17.473  0.1355 -0.3496 -0.3243
  804MPD2    C411842   2.234   4.721  17.350 -0.5543 -0.3238  0.3240
  804MPD2    C511843   2.146   4.640  17.280  0.3491  0.0422 -0.3018
  804MPD2     H11844   2.249   4.548  17.626  1.5848  0.5610 -0.7626
  804MPD2    H111845   2.276   0.077  17.290  0.9624 -1.9256 -0.7894
  804MPD2    H211846   2.002   4.491  17.280 -3.7961  2.8843  2.2683
  804MPD2    H311847   2.127   4.673  17.178  0.3255  1.4949  0.1682
  804MPD2     N11848   2.372   0.026  17.548  0.3133 -0.0112  0.4528
  804MPD2    H511849   2.408   4.718  17.638 -2.1650  0.2533  1.5479
  804MPD2    N111850   2.061   4.387  17.523  0.2659  0.1340 -0.0570
  804MPD2    H711851   2.080   4.372  17.622 -0.1417  1.6903  0.2575
  805MPD2     C11852   1.191   3.005  15.446 -0.1779 -0.6187 -0.3701
  805MPD2    C111853   1.245   2.877  15.439 -0.4181 -0.7512 -0.3870
  805MPD2    C211854   1.362   2.848  15.500  0.0891 -0.4382  0.5883
  805MPD2    C311855   1.436   2.947  15.560 -0.2816  0.8362  0.4140
  805MPD2    C411856   1.387   3.077  15.557  0.3475 -0.0127 -0.0751
  805MPD2    C511857   1.262   3.104  15.508 -0.4724 -0.1037 -0.2627
  805MPD2     H11858   1.395   2.745  15.489  1.7280 -0.0041  1.4377
  805MPD2    H111859   1.443   3.159  15.600  2.7117 -1.6249 -0.0253
  805MPD2    H211860   1.095   3.035  15.405 -0.7446 -2.4290 -0.3683
  805MPD2    H311861   1.220   3.204  15.509 -1.5208 -0.6009  3.5198
  805MPD2     N11862   1.564   2.919  15.613 -0.1654  0.5900 -0.0267
  805MPD2    H511863   1.612   2.843  15.566  1.9245  1.1880  1.1801
  805MPD2    N111864   1.180   2.763  15.380  0.3300  0.3652  0.5393
  805MPD2    H711865   1.229   2.674  15.379  0.3093  0.3633 -0.6360
  806MPD2     C11866   2.302   1.837   0.712 -0.8557  0.0900  0.2005
  806MPD2    C111867   2.305   1.971   0.753 -0.6047  0.6131  0.4215
  806MPD2    C211868   2.247   2.072   0.666 -0.2931  0.3020 -0.0507
  806MPD2    C311869   2.205   2.031   0.544 -0.2171  0.5122  0.7665
  806MPD2    C411870   2.200   1.898   0.504  0.9581  0.8754 -0.1051
  806MPD2    C511871   2.236   1.801   0.596  0.3725 -0.2732  0.3451
  806MPD2     H11872   2.250   2.180   0.680  1.0031  0.4536 -1.4596
  806MPD2    H111873   2.162   1.870   0.407  0.0431  0.0119  0.5047
  806MPD2    H211874   2.333   1.762   0.783 -2.7137  0.3633  1.3151
  806MPD2    H311875   2.217   1.697   0.571 -1.4055  0.5296 -1.6395
  806MPD2     N11876   2.176   2.133   0.446  0.0063  0.3834  0.0101
  806MPD2    H511877   2.172   2.224   0.492  1.7816 -0.8933  2.6722
  806MPD2    N111878   2.362   1.996   0.884  0.4319  0.0604  0.6767
  806MPD2    H711879   2.376   1.919   0.949 -2.9813  1.9143  3.5755
  807MPD2     C11880   2.587   1.656   1.480  0.1909 -0.0171 -0.8027
  807MPD2    C111881   2.504   1.670   1.377 -0.4413 -0.8381 -0.4647
  807MPD2    C211882   2.403   1.579   1.345  0.1661  0.2009 -0.2567
  807MPD2    C311883   2.379   1.472   1.428 -0.4080  0.0938  0.0595
  807MPD2    C411884   2.460   1.458   1.542  0.4068 -0.0059 -0.1339
  807MPD2    C511885   2.567   1.545   1.569 -0.1308 -0.4138 -0.0044
  807MPD2     H11886   2.350   1.604   1.254 -2.8894 -0.0067  1.4535
  807MPD2    H111887   2.446   1.387   1.622  2.6212 -1.4001 -0.9603
  807MPD2    H211888   2.665   1.725   1.511 -1.3017  1.3043 -0.0449
  807MPD2    H311889   2.632   1.519   1.651 -1.4142 -0.8663  0.8795
  807MPD2     N11890   2.279   1.379   1.397 -0.5365  0.0351 -0.3980
  807MPD2    H511891   2.217   1.398   1.318  2.0715 -0.6454 -2.6261
  807MPD2    N111892   2.513   1.788   1.293  0.2339 -0.3023  0.1164
  807MPD2    H711893   2.455   1.788   1.210 -0.1438  0.9081  0.3900
  808MPD2     C11894   3.155   3.702   9.777 -0.3236  0.2991 -0.3843
  808MPD2    C111895   3.079   3.719   9.888  0.7592  0.0874  0.9239
  808MPD2    C211896   3.061   3.845   9.948  0.3237 -0.1410  0.3695
  808MPD2    C311897   3.131   3.955   9.895 -0.9707 -0.0661 -0.4007
  808MPD2    C411898   3.214   3.934   9.785 -0.0511 -0.3571  0.3525
  808MPD2    C511899   3.230   3.810   9.731 -0.0746 -0.3930  0.2265
  808MPD2     H11900   2.987   3.860  10.025 -0.6365  2.9441 -1.1292
  808MPD2    H111901   3.271   4.012   9.737 -0.2798 -0.4830 -0.1222
  808MPD2    H211902   3.161   3.606   9.727  1.4475  0.1493  0.1216
  808MPD2    H311903   3.290   3.792   9.642 -1.3155 -3.7838  0.0690
  808MPD2     N11904   3.112   4.090   9.932  0.6317 -0.3164 -0.4368
  808MPD2    H511905   3.174   4.162   9.895  0.6050  1.4330  2.8699
  808MPD2    N111906   3.005   3.620   9.949 -0.0936 -0.4147  0.7474
  808MPD2    H711907   2.958   3.661  10.030 -0.4122 -0.0809  0.3907
  809MPD2     C11908   3.640   4.557   9.489  0.4712  0.5477 -0.0153
  809MPD2    C111909   3.599   4.430   9.525 -0.4815  0.9347 -0.2473
  809MPD2    C211910   3.487   4.416   9.602  0.3770 -0.0742 -0.0343
  809MPD2    C311911   3.414   4.527   9.653  0.1253  0.3002 -0.7464
  809MPD2    C411912   3.468   4.652   9.626 -0.9317 -0.0953 -0.3787
  809MPD2    C511913   3.567   4.660   9.532 -0.0796  1.0887 -0.0600
  809MPD2     H11914   3.443   4.320   9.628  0.8029 -0.7574 -1.8177
  809MPD2    H111915   3.422   0.015   9.671 -1.1035 -0.6468  0.5094
  809MPD2    H211916   3.721   4.579   9.420  0.5369 -0.5574 -0.2889
  809MPD2    H311917   3.603   0.036   9.517  1.1316  0.5693 -0.6077
  809MPD2     N11918   3.290   4.514   9.729  0.1971 -0.1405 -0.3011
  809MPD2    H511919   3.241   4.600   9.749 -1.2932 -0.5812 -2.0226
  809MPD2    N111920   3.673   4.312   9.480  0.1885 -0.7711  0.6882
  809MPD2    H711921   3.644   4.218   9.504  0.3977 -0.6799  1.3052
  810MPD2     C11922   2.253   2.832   9.844 -0.6886 -0.3926 -0.1035
  810MPD2    C111923   2.226   2.754   9.955  0.0117 -0.3295 -0.5636
  810MPD2    C211924   2.254   2.800  10.076  0.8189  0.4935  0.0093
  810MPD2    C311925   2.303   2.928  10.093  0.6433  0.3031  0.0744
  810MPD2    C411926   2.330   3.004   9.985  0.0137 -0.0716 -0.1291
  810MPD2    C511927   2.305   2.957   9.861 -0.2354 -0.2453 -0.3607
  810MPD2     H11928   2.247   2.738  10.164  0.0278 -0.3346 -0.6443
  810MPD2    H111929   2.368   3.106   9.985 -3.8001  1.3498 -0.7299
  810MPD2    H211930   2.239   2.800   9.741 -1.7475  1.7328 -0.6148
  810MPD2    H311931   2.330   3.017   9.774 -0.0681  0.1215 -0.0551
  810MPD2     N11932   2.334   2.984  10.217  0.1414 -0.1436 -0.1707
  810MPD2    H511933   2.350   3.084  10.215  2.1352 -0.5082 -2.6237
  810MPD2    N111934   2.150   2.636   9.936  0.1063  0.0708 -0.7742
  810MPD2    H711935   2.103   2.637   9.845 -1.0352 -2.1085 -0.2066
  811MPD2     C11936   1.363   2.433   9.711 -0.0864  0.7033 -0.8371
  811MPD2    C111937   1.454   2.523   9.770 -0.1056  0.5068 -0.0074
  811MPD2    C211938   1.432   2.657   9.772  0.0451 -0.9317 -0.0729
  811MPD2    C311939   1.310   2.699   9.727  0.0831 -0.0281  0.3196
  811MPD2    C411940   1.219   2.617   9.675  0.4772  0.3546 -0.2953
  811MPD2    C511941   1.243   2.483   9.662 -0.0320  0.3874  0.1806
  811MPD2     H11942   1.499   2.733   9.809 -0.8691  0.6493 -1.6512
  811MPD2    H111943   1.123   2.655   9.642 -0.3895 -0.8898  0.8017
  811MPD2    H211944   1.380   2.327   9.696 -1.0500  0.4376  0.0072
  811MPD2    H311945   1.171   2.415   9.619  0.5704  0.3565 -0.7773
  811MPD2     N11946   1.289   2.832   9.749  0.1854 -0.1194  0.0644
  811MPD2    H511947   1.359   2.889   9.794 -1.2758  0.9234  1.0299
  811MPD2    N111948   1.574   2.471   9.828 -0.2239 -0.3967 -0.2693
  811MPD2    H711949   1.585   2.371   9.815 -1.2517 -0.8831  2.6936
  812MPD2     C11950   0.598   2.691  12.232 -0.6701  0.8780  0.0069
  812MPD2    C111951   0.547   2.795  12.309 -0.1042 -0.7841 -0.1239
  812MPD2    C211952   0.533   2.765  12.444  0.6139  0.2923 -0.0733
  812MPD2    C311953   0.571   2.642  12.494  0.7843 -0.1629 -0.2872
  812MPD2    C411954   0.627   2.545  12.416 -0.0610  0.0868  0.1947
  812MPD2    C511955   0.640   2.574  12.286 -0.5296 -0.5970  0.0496
  812MPD2     H11956   0.498   2.844  12.509  1.0699  0.7207 -0.3488
  812MPD2    H111957   0.665   2.458  12.469 -0.3362  0.7441  1.4784
  812MPD2    H211958   0.605   2.713  12.126  1.4706  0.0534 -0.0275
  812MPD2    H311959   0.694   2.498  12.231 -0.5528  0.5054 -1.4832
  812MPD2     N11960   0.563   2.635  12.631 -0.3813 -0.3143  0.3021
  812MPD2    H511961   0.517   2.710  12.681 -0.2980  0.3118 -0.5573
  812MPD2    N111962   0.509   2.911  12.244  0.0301  0.3510  0.1107
  812MPD2    H711963   0.560   2.937  12.160 -1.1193  1.3659 -0.2633
  813MPD2     C11964   4.081   0.231  12.791  1.0647  0.2704 -0.2878
  813MPD2    C111965   4.200   0.199  12.849  0.8365 -0.5884  0.2775
  813MPD2    C211966   4.208   0.202  12.989  0.0169  0.3579 -0.1076
  813MPD2    C311967   4.102   0.232  13.067 -0.3310 -0.5162 -0.3188
  813MPD2    C411968   3.985   0.270  13.011  0.3142  0.1805  0.0527
  813MPD2    C511969   3.976   0.264  12.873  0.0343  0.6842  0.2296
  813MPD2     H11970   4.298   0.173  13.042 -0.0435  1.6533  0.6910
  813MPD2    H111971   3.893   0.295  13.065  0.9686  1.7190  0.4706
  813MPD2    H211972   4.066   0.234  12.683 -1.2606 -1.2964 -0.0200
  813MPD2    H311973   3.883   0.288  12.822 -0.0976 -0.8402 -0.2514
  813MPD2     N11974   4.117   0.225  13.208 -0.3465 -0.0937  0.3159
  813MPD2    H511975   4.209   0.210  13.248 -0.5607 -1.9322  0.0800
  813MPD2    N111976   4.304   0.162  12.760  0.2425 -0.7225 -0.3619
  813MPD2    H711977   4.286   0.156  12.660 -0.1305  0.2575 -0.3551
  814MPD2     C11978   4.648   1.178  12.189  0.4251 -0.6509  0.8941
  814MPD2    C111979   4.689   1.262  12.085 -0.1545  0.4533  0.4604
  814MPD2    C211980   0.012   1.383  12.112  0.5546 -0.7918  0.0430
  814MPD2    C311981   0.024   1.429  12.240 -0.9385  0.2201 -0.2668
  814MPD2    C411982   4.709   1.347  12.341 -0.1153 -0.1746 -0.3078
  814MPD2    C511983   4.659   1.229  12.312 -0.0364  0.0288 -0.0246
  814MPD2     H11984   0.049   1.436  12.026 -2.3038  0.7081 -0.2777
  814MPD2    H111985   4.715   1.383  12.443  0.7264 -0.4610 -0.2546
  814MPD2    H211986   4.603   1.082  12.167  0.8268 -0.7194  0.3565
  814MPD2    H311987   4.624   1.167  12.394 -0.1467  0.4445  0.2479
  814MPD2     N11988   0.063   1.563  12.265  0.2452 -0.9317  0.2877
  814MPD2    H511989   0.061   1.591  12.362 -0.1213  2.6060 -0.7151
  814MPD2    N111990   4.676   1.236  11.945  0.7462  0.0520  0.0280
  814MPD2    H711991   4.700   1.312  11.882  0.9067 -1.3821 -1.6520
  815MPD2     C11992   0.323   0.084  11.397  0.3257 -0.4116 -0.2344
  815MPD2    C111993   0.392   4.719  11.474 -0.0959 -0.2865 -0.4667
  815MPD2    C211994   0.371   4.722  11.615 -0.3272 -0.4248  0.5224
  815MPD2    C311995   0.285   0.088  11.669  0.6810  0.6221  0.3132
  815MPD2    C411996   0.221   0.179  11.587  0.6638 -0.5479  0.0262
  815MPD2    C511997   0.234   0.178  11.455  0.7915 -0.6888  0.4566
  815MPD2     H11998   0.409   4.652  11.688  0.0694  0.2344  0.9466
  815MPD2    H111999   0.136   0.239  11.616  0.8667  0.1908 -0.9223
  815MPD2    H212000   0.349   0.094  11.293  0.0831  0.2533 -0.2350
  815MPD2    H312001   0.181   0.251  11.395  1.9704  0.0416  0.2976
  815MPD2     N12002   0.260   0.063  11.805 -0.0534 -0.5845 -0.3568
  815MPD2    H512003   0.312   4.710  11.846 -1.5332 -1.1309  0.4986
  815MPD2    N112004   0.455   4.604  11.415 -0.0231  0.5798 -0.6332
  815MPD2    H712005   0.463   4.590  11.315 -1.1925  2.3105 -0.9658
  816MPD2     C12006   0.911   4.220   0.172 -0.0378 -0.1013  0.6772
  816MPD2    C112007   0.795   4.245   0.098 -0.4193  0.0268 -0.3699
  816MPD2    C212008   0.787   4.185  17.674 -0.0864 -0.6390 -0.0008
  816MPD2    C312009   0.890   4.108  17.621 -0.1270  0.4013  0.9420
  816MPD2    C412010   1.005   4.089  17.692  0.1610  0.4708  0.1014
  816MPD2    C512011   1.016   4.147   0.117 -0.1613 -0.3845 -0.0628
  816MPD2     H12012   0.706   4.213  17.607 -0.0967 -1.6995 -0.4344
  816MPD2    H112013   1.091   4.029  17.664 -0.9003 -0.3884 -1.3289
  816MPD2    H212014   0.917   4.262   0.272 -0.4639  1.2536  0.1241
  816MPD2    H312015   1.109   4.128   0.170  1.1523  2.0609 -1.4937
  816MPD2     N12016   0.878   4.056  17.488  0.5004  0.4553 -0.1526
  816MPD2    H512017   0.783   4.041  17.457  0.5838 -2.9095  1.2481
  816MPD2    N112018   0.703   4.328   0.162  0.8485  0.2526 -0.9120
  816MPD2    H712019   0.730   4.374   0.249  1.4163 -2.2035  0.2173
  817MPD2     C12020   0.447   4.718  10.203 -0.0126 -0.1435 -0.4649
  817MPD2    C112021   0.522   4.705  10.092  0.3303  0.2771 -0.6529
  817MPD2    C212022   0.548   0.086  10.012 -0.3769  0.2257  0.0987
  817MPD2    C312023   0.508   0.211  10.053 -0.6680 -0.0919 -0.4354
  817MPD2    C412024   0.443   0.225  10.171 -1.0413 -1.0277 -0.0195
  817MPD2    C512025   0.400   0.116  10.237  0.2767  1.0274 -0.2638
  817MPD2     H12026   0.602   0.064   9.921 -0.8013  0.8376 -0.3018
  817MPD2    H112027   0.419   0.323  10.209 -1.8504 -1.0075 -0.5828
  817MPD2    H212028   0.408   4.641  10.269  0.8693  0.6164  0.9377
  817MPD2    H312029   0.339   0.131  10.325  1.5595  0.7452  0.6810
  817MPD2     N12030   0.560   0.327   9.985 -0.2428  0.8385  0.0508
  817MPD2    H512031   0.626   0.314   9.909 -1.4454 -1.3722 -0.5995
  817MPD2    N112032   0.579   4.581  10.054  0.1012 -0.6029 -0.3750
  817MPD2    H712033   0.627   4.570   9.965  1.9662 -0.5860  0.6406
  818MPD2     C12034   4.107   0.383  10.097  0.0169  0.3508  0.2953
  818MPD2    C112035   4.011   0.321  10.167 -0.8200 -0.0140  0.1267
  818MPD2    C212036   3.984   0.183  10.141  0.3870 -0.5679 -0.1832
  818MPD2    C312037   4.061   0.112  10.056  0.7738 -0.3131 -0.0409
  818MPD2    C412038   4.163   0.180   9.989 -0.7473 -0.5360 -0.5751
  818MPD2    C512039   4.192   0.311  10.010  0.1757 -0.1006 -0.2316
  818MPD2     H12040   3.906   0.135  10.199 -1.0576  2.5956  0.5080
  818MPD2    H112041   4.228   0.127   9.922  0.7304 -2.2871  2.2557
  818MPD2    H212042   4.120   0.490  10.107 -0.3064  0.4282 -0.1395
  818MPD2    H312043   4.280   0.361   9.970 -1.0779  1.0279 -1.5622
  818MPD2     N12044   4.061   4.693  10.039 -0.2882 -0.4130  0.1593
  818MPD2    H512045   4.132   4.659   9.976  0.2729 -1.2325  1.2298
  818MPD2    N112046   3.937   0.376  10.275  0.7882 -0.5606  0.6678
  818MPD2    H712047   3.877   0.320  10.336  0.7152  0.4196  1.4962
  819MPD2     C12048   2.087   2.224  15.210 -0.0165  0.7895 -0.0956
  819MPD2    C112049   2.097   2.168  15.331 -0.5280  0.2504  0.2003
  819MPD2    C212050   2.219   2.164  15.391 -0.3226  0.2740 -0.0391
  819MPD2    C312051   2.334   2.193  15.313 -0.0446  0.3396  0.1649
  819MPD2    C412052   2.319   2.229  15.179 -0.2173 -0.2244 -0.1726
  819MPD2    C512053   2.195   2.247  15.132  0.2613 -0.2174 -0.0175
  819MPD2     H12054   2.219   2.132  15.495  1.2984  1.1895  0.2450
  819MPD2    H112055   2.404   2.252  15.116  1.1649 -1.2075  1.3339
  819MPD2    H212056   1.986   2.237  15.173 -1.1002 -2.3534  1.7137
  819MPD2    H312057   2.169   2.278  15.032 -0.9934  1.8681  0.9533
  819MPD2     N12058   2.455   2.150  15.367 -0.0790 -0.5064  0.5209
  819MPD2    H512059   2.448   2.113  15.462 -1.8530 -1.1405  0.1278
  819MPD2    N112060   1.972   2.122  15.395 -0.0392 -0.2012 -1.0082
  819MPD2    H712061   1.886   2.131  15.343  0.0557 -1.3695 -1.3488
  820MPD2     C12062   1.179   2.065  14.971  0.9478  0.0708 -0.0823
  820MPD2    C112063   1.186   2.133  15.093  0.4543 -0.1666 -0.7036
  820MPD2    C212064   1.281   2.100  15.179  0.1943  0.1877 -0.5173
  820MPD2    C312065   1.377   2.005  15.153 -0.6109  0.4533  0.5487
  820MPD2    C412066   1.368   1.931  15.033 -1.4808  0.8646  0.0795
  820MPD2    C512067   1.261   1.958  14.952 -0.4954 -0.3051  0.2560
  820MPD2     H12068   1.289   2.141  15.279 -0.7750  1.1626 -0.8416
  820MPD2    H112069   1.442   1.863  14.994 -1.7748 -0.2839  1.5077
  820MPD2    H212070   1.102   2.095  14.900  0.7752  1.1902  0.5887
  820MPD2    H312071   1.252   1.898  14.862 -2.6033  0.6328 -0.1468
  820MPD2     N12072   1.480   1.974  15.239 -0.0595  0.0539  0.5210
  820MPD2    H512073   1.539   1.902  15.200 -0.6848 -0.9944  1.5134
  820MPD2    N112074   1.095   2.243  15.117  0.3971 -0.1190  0.3719
  820MPD2    H712075   1.027   2.264  15.045  1.6647 -1.0212 -1.1111
  821MPD2     C12076   1.501   4.077  13.187  0.5153  0.0715 -0.0405
  821MPD2    C112077   1.609   3.998  13.204  0.4700  0.7757 -1.1133
  821MPD2    C212078   1.734   4.052  13.186 -0.4379  0.6225 -0.8121
  821MPD2    C312079   1.756   4.180  13.150 -1.0308  0.3311 -0.0186
  821MPD2    C412080   1.646   4.269  13.137 -0.2852  0.1081  0.0518
  821MPD2    C512081   1.521   4.208  13.147  0.7173 -0.2665 -0.2800
  821MPD2     H12082   1.817   3.986  13.211 -1.3553 -0.9317 -1.8431
  821MPD2    H112083   1.662   4.375  13.119  0.0022 -0.2737 -1.8951
  821MPD2    H212084   1.402   4.042  13.215  1.4748 -1.7020  1.1437
  821MPD2    H312085   1.438   4.276  13.164  0.5019 -1.0152  1.6591
  821MPD2     N12086   1.891   4.235  13.133  0.2173 -0.5632  0.0471
  821MPD2    H512087   1.901   4.333  13.111  0.8509 -0.6355  0.0380
  821MPD2    N112088   1.605   3.863  13.251 -0.0566  0.2082 -0.7641
  821MPD2    H712089   1.698   3.823  13.258 -0.5068 -0.8451 -0.8316
  822MPD2     C12090   2.520   3.776  15.980  0.9007 -0.3008 -0.5231
  822MPD2    C112091   2.544   3.768  16.115  0.7719  0.4939  0.0116
  822MPD2    C212092   2.499   3.863  16.205 -0.2365 -1.2322 -0.2161
  822MPD2    C312093   2.434   3.975  16.161  0.6392 -0.6028 -0.0956
  822MPD2    C412094   2.410   3.983  16.024  0.1284  0.3296 -0.0367
  822MPD2    C512095   2.459   3.891  15.936 -0.0644 -0.5728 -0.5419
  822MPD2     H12096   2.512   3.851  16.312  1.4463 -0.7135 -0.3619
  822MPD2    H112097   2.360   4.075  15.994  0.6896  0.5953 -0.1642
  822MPD2    H212098   2.555   3.697  15.915  0.7994 -0.8137  0.0398
  822MPD2    H312099   2.426   3.896  15.833  0.2062  1.5627 -0.5327
  822MPD2     N12100   2.405   4.077  16.257  0.2342  0.4268  0.1356
  822MPD2    H512101   2.422   4.053  16.354 -2.7545  0.5197  0.6922
  822MPD2    N112102   2.614   3.661  16.169  0.7804  0.1000  0.1397
  822MPD2    H712103   2.617   3.647  16.270 -1.2349 -1.6638 -0.0472
  823MPD2     C12104   2.216   4.296  17.029 -0.0193  0.4686  0.2630
  823MPD2    C112105   2.242   4.209  16.929 -0.7378 -0.1008  0.0641
  823MPD2    C212106   2.272   4.079  16.968  0.0677 -0.3556 -0.5445
  823MPD2    C312107   2.289   4.034  17.101  0.1427 -0.4881  0.1394
  823MPD2    C412108   2.241   4.122  17.195 -0.3951  0.0168 -0.8191
  823MPD2    C512109   2.211   4.252  17.159 -0.0371  0.5136 -0.1856
  823MPD2     H12110   2.299   4.012  16.887 -0.9198  0.5767 -1.6395
  823MPD2    H112111   2.227   4.098  17.300  1.7769  1.3864 -0.2160
  823MPD2    H212112   2.209   4.402  17.007  0.1547  0.2710 -0.7750
  823MPD2    H312113   2.183   4.331  17.228  2.8010  0.4096  1.0787
  823MPD2     N12114   2.354   3.921  17.149  0.4875  0.0559 -0.6544
  823MPD2    H512115   2.367   3.921  17.250 -0.5618  0.8890 -0.5147
  823MPD2    N112116   2.255   4.259  16.798  0.0172 -0.2974  0.5493
  823MPD2    H712117   2.256   4.360  16.786  0.3117 -0.7878 -3.4483
  824MPD2     C12118   2.864   2.860  15.944 -0.1753 -0.4350  0.2847
  824MPD2    C112119   2.960   2.946  15.994  0.6508 -0.2317  0.2239
  824MPD2    C212120   3.094   2.924  15.958  0.3719  0.6252 -0.5479
  824MPD2    C312121   3.127   2.827  15.870  0.4424 -0.7170 -0.6163
  824MPD2    C412122   3.029   2.746  15.815 -0.2971 -0.6532  0.0045
  824MPD2    C512123   2.900   2.762  15.856 -0.5384  0.2832  0.0127
  824MPD2     H12124   3.171   2.990  15.997 -2.2309  2.4186  1.5270
  824MPD2    H112125   3.047   2.665  15.745 -1.7270 -2.1372  1.3279
  824MPD2    H212126   2.757   2.860  15.954  0.1786  0.6459  3.9578
  824MPD2    H312127   2.827   2.684  15.834  2.4506 -2.4139 -0.2534
  824MPD2     N12128   3.264   2.813  15.835  0.4177 -0.8560 -0.7038
  824MPD2    H512129   3.328   2.881  15.874 -1.0680 -0.4148  0.9439
  824MPD2    N112130   2.930   3.053  16.085 -0.2489 -0.4862 -0.0514
  824MPD2    H712131   3.002   3.119  16.112 -0.1823 -1.2413  1.6212
  825MPD2     C12132   4.058   3.115  15.695 -0.1291 -0.3824 -0.2020
  825MPD2    C112133   3.920   3.113  15.657 -0.0106 -0.0490  0.6359
  825MPD2    C212134   3.864   3.232  15.613 -0.1735 -0.2980 -0.6786
  825MPD2    C312135   3.942   3.345  15.594  0.0567  0.5789 -0.0578
  825MPD2    C412136   4.077   3.348  15.630 -0.4810 -0.5443 -0.1295
  825MPD2    C512137   4.133   3.232  15.675  0.3201 -0.2860  0.2974
  825MPD2     H12138   3.759   3.257  15.602  0.0999  1.8525  1.7329
  825MPD2    H112139   4.135   3.439  15.619 -1.2759 -0.3162 -2.5656
  825MPD2    H212140   4.108   3.033  15.745 -1.2546 -1.2057 -0.4254
  825MPD2    H312141   4.234   3.233  15.715  0.5715 -1.0765 -0.3242
  825MPD2     N12142   3.883   3.466  15.555  0.0315 -0.0889 -0.4557
  825MPD2    H512143   3.933   3.552  15.571 -0.5465  0.1022  0.3242
  825MPD2    N112144   3.840   3.001  15.687  0.3228  0.2512  0.9509
  825MPD2    H712145   3.885   2.924  15.735 -0.0004 -0.0769  0.7177
  826MPD2     C12146   3.218   2.776  13.962  0.3397  0.2468 -0.6656
  826MPD2    C112147   3.197   2.843  13.843  0.6847  0.4298  0.0861
  826MPD2    C212148   3.086   2.925  13.838 -0.2035  0.4740  0.3139
  826MPD2    C312149   2.997   2.940  13.950 -0.2469  0.6352  0.0014
  826MPD2    C412150   3.023   2.875  14.066 -1.0846 -0.6360 -0.7675
  826MPD2    C512151   3.133   2.793  14.067 -0.7630  0.5631  0.8470
  826MPD2     H12152   3.064   2.989  13.753 -1.5961  1.2023  1.2159
  826MPD2    H112153   2.958   2.877  14.153  0.6979 -1.2077  0.5997
  826MPD2    H212154   3.302   2.707  13.967  0.2845  0.1112 -1.5434
  826MPD2    H312155   3.152   2.740  14.160 -1.4894  1.1219  1.3172
  826MPD2     N12156   2.889   3.029  13.945  0.2297  0.0812  0.3793
  826MPD2    H512157   2.856   3.070  14.032  0.8171 -0.0806  0.6810
  826MPD2    N112158   3.286   2.829  13.738  0.1341  0.3682  0.1874
  826MPD2    H712159   3.367   2.769  13.756 -0.7149 -1.0477 -0.7036
  827MPD2     C12160   4.312   3.978   9.883  0.0170  0.0037  0.0948
  827MPD2    C112161   4.291   3.866   9.958 -0.8376  0.0382  0.0841
  827MPD2    C212162   4.270   3.746   9.887  0.2904 -0.9181  0.0554
  827MPD2    C312163   4.258   3.750   9.748  0.3920  1.3201 -0.0780
  827MPD2    C412164   4.266   3.870   9.684  0.3275  0.0558 -0.3672
  827MPD2    C512165   4.287   3.981   9.753 -1.1479 -0.5124 -0.1725
  827MPD2     H12166   4.267   3.652   9.941  0.7681 -1.4677 -0.8867
  827MPD2    H112167   4.260   3.892   9.578  0.1960 -2.4511 -0.8861
  827MPD2    H212168   4.319   4.078   9.924 -1.4033  0.1567 -0.0326
  827MPD2    H312169   4.305   4.078   9.709 -1.1122 -0.9662 -1.1674
  827MPD2     N12170   4.233   3.633   9.675  0.0049  0.3636  0.0277
  827MPD2    H512171   4.222   3.551   9.734  0.6183  1.0011  1.0381
  827MPD2    N112172   4.313   3.870  10.098  0.5150 -0.4492  0.2253
  827MPD2    H712173   4.353   3.959  10.127  0.3068  0.5141 -2.4436
  828MPD2     C12174   2.813   4.050  12.698  0.3194 -0.4608 -0.3007
  828MPD2    C112175   2.788   4.145  12.600 -0.6660  0.0039  0.2167
  828MPD2    C212176   2.856   4.128  12.481 -0.1616 -0.4781 -0.3116
  828MPD2    C312177   2.941   4.022  12.450  0.4820 -0.4481 -0.2001
  828MPD2    C412178   2.974   3.932  12.549  0.1985  0.5430  0.0218
  828MPD2    C512179   2.912   3.956  12.670  0.3729 -0.0981 -1.2140
  828MPD2     H12180   2.862   4.209  12.409  1.5576 -0.9896 -0.7412
  828MPD2    H112181   3.047   3.855  12.529 -0.9529  0.0265 -2.2368
  828MPD2    H212182   2.753   4.033  12.788 -1.0963 -0.7970 -1.3018
  828MPD2    H312183   2.921   3.885  12.752  0.8665  0.5944 -0.6621
  828MPD2     N12184   2.996   4.001  12.324 -0.1672  0.1752 -0.2365
  828MPD2    H512185   3.048   3.915  12.310  1.5050  1.3767 -1.3923
  828MPD2    N112186   2.689   4.241  12.600  0.0173  0.3648  0.3195
  828MPD2    H712187   2.692   4.300  12.517 -0.5064 -0.7332 -0.4716
  829MPD2     C12188   2.436   4.557  11.901  0.6301 -0.4050 -0.0535
  829MPD2    C112189   2.310   4.576  11.969 -0.3442  0.2721  0.6475
  829MPD2    C212190   2.306   4.550  12.101  0.2004 -0.3484  0.0173
  829MPD2    C312191   2.418   4.504  12.167  0.4784  0.4287 -0.0429
  829MPD2    C412192   2.532   4.475  12.097  0.1729  0.1566  0.4552
  829MPD2    C512193   2.538   4.510  11.965  0.7362  0.6043  0.5775
  829MPD2     H12194   2.222   4.583  12.162 -1.1973 -3.2586 -0.3094
  829MPD2    H112195   2.616   4.430  12.147 -0.3252  0.9190  1.9765
  829MPD2    H212196   2.444   4.587  11.797 -0.6187  0.2566  0.0397
  829MPD2    H312197   2.630   4.483  11.915  0.5686 -1.0647  1.1638
  829MPD2     N12198   2.428   4.476  12.304 -0.0449  0.4720  0.0511
  829MPD2    H512199   2.501   4.414  12.338 -0.8627  0.1538  1.1893
  829MPD2    N112200   2.205   4.640  11.901  0.3558  0.3866  0.1391
  829MPD2    H712201   2.227   4.675  11.808  0.9954  0.9576  0.5101
  830MPD2     C12202   3.295   2.138  15.562 -0.3728 -0.3532  0.1379
  830MPD2    C112203   3.202   2.163  15.467 -0.1171 -0.1830 -0.1719
  830MPD2    C212204   3.190   2.278  15.397 -0.7621  0.2512 -0.5058
  830MPD2    C312205   3.288   2.375  15.418 -0.3085  0.2323  0.0577
  830MPD2    C412206   3.390   2.346  15.502  0.4200 -0.0267 -0.0420
  830MPD2    C512207   3.395   2.231  15.573 -0.5123 -0.0744  0.0452
  830MPD2     H12208   3.096   2.292  15.346 -1.7614 -0.6775  1.0773
  830MPD2    H112209   3.471   2.417  15.513  0.4867 -0.5841  3.0676
  830MPD2    H212210   3.290   2.047  15.621 -1.5485 -0.0926  0.4382
  830MPD2    H312211   3.477   2.211  15.641 -2.5490  1.7882  3.0668
  830MPD2     N12212   3.274   2.510  15.380  0.7887 -0.4063  0.1488
  830MPD2    H512213   3.352   2.571  15.403  2.2371 -2.6645  1.2181
  830MPD2    N112214   3.110   2.055  15.453  0.0896 -0.1449 -0.1080
  830MPD2    H712215   3.113   1.994  15.534 -2.9093  0.3092  0.3428
  831MPD2     C12216   2.677   4.122  16.561 -0.3704 -0.1727 -0.1028
  831MPD2    C112217   2.704   4.014  16.482  0.5693 -0.4213 -0.5385
  831MPD2    C212218   2.652   3.893  16.514  0.6242  0.7732 -0.4762
  831MPD2    C312219   2.567   3.882  16.616 -0.0746 -0.1581  0.2265
  831MPD2    C412220   2.548   3.989  16.701 -0.9044  0.8587 -0.4700
  831MPD2    C512221   2.613   4.107  16.677 -0.8603 -0.5376  0.0696
  831MPD2     H12222   2.681   3.810  16.450  1.0638 -0.5922  1.4702
  831MPD2    H112223   2.482   3.980  16.786 -2.5103  0.1462 -1.7756
  831MPD2    H212224   2.723   4.217  16.534  0.1578 -0.2575  0.5027
  831MPD2    H312225   2.608   4.197  16.738  0.7537 -0.3249 -0.1155
  831MPD2     N12226   2.488   3.768  16.650  0.4257 -0.2522 -0.2025
  831MPD2    H512227   2.424   3.771  16.729 -0.8139 -1.1350 -1.1728
  831MPD2    N112228   2.781   4.031  16.366 -0.3594 -0.1258  0.0342
  831MPD2    H712229   2.807   4.128  16.349 -0.6208 -0.0155  0.2576
  832MPD2     C12230   1.469   0.188  17.158 -0.5634  0.0384 -0.2274
  832MPD2    C112231   1.471   0.318  17.188 -0.8311 -0.3214 -0.2597
  832MPD2    C212232   1.355   0.389  17.190 -0.6470 -0.0167  0.3774
  832MPD2    C312233   1.235   0.328  17.173 -0.2933 -0.1437 -0.7326
  832MPD2    C412234   1.229   0.195  17.133 -0.1640  0.5067 -0.7556
  832MPD2    C512235   1.347   0.125  17.131 -0.6622  0.4099  0.4075
  832MPD2     H12236   1.358   0.492  17.226 -4.6704  0.3626 -0.3601
  832MPD2    H112237   1.137   0.143  17.110  0.2102  0.3662 -1.9303
  832MPD2    H212238   1.562   0.132  17.159  1.3272  3.1624 -2.1179
  832MPD2    H312239   1.336   0.026  17.089 -1.0800  1.0937 -1.0938
  832MPD2     N12240   1.117   0.408  17.195 -0.0198  0.1609  0.2254
  832MPD2    H512241   1.028   0.359  17.193 -0.6419  1.2986 -0.1508
  832MPD2    N112242   1.597   0.369  17.233  0.2088 -0.7364  0.1698
  832MPD2    H712243   1.677   0.307  17.247 -0.1399 -1.3100 -0.3684
  833MPD2     C12244   3.224   2.101  12.476  0.3343  0.3019  0.0499
  833MPD2    C112245   3.236   2.198  12.378 -1.5948 -0.5455  0.0740
  833MPD2    C212246   3.310   2.166  12.264 -0.3527 -0.4081  0.6035
  833MPD2    C312247   3.381   2.045  12.247  0.1053 -0.2429  0.9931
  833MPD2    C412248   3.365   1.952  12.345 -0.5375  0.1068  0.3751
  833MPD2    C512249   3.285   1.982  12.454  0.0799  0.7973  0.1150
  833MPD2     H12250   3.316   2.232  12.178 -1.7054  0.0563  0.8493
  833MPD2    H112251   3.407   1.852  12.340  1.5178  1.2330 -4.4687
  833MPD2    H212252   3.170   2.117  12.569  0.6807  0.7430  0.1699
  833MPD2    H312253   3.282   1.904  12.529 -1.6697  0.5243 -0.2397
  833MPD2     N12254   3.451   2.012  12.129  0.2462 -0.2615  0.0053
  833MPD2    H512255   3.483   1.916  12.130  2.5868  0.5257 -0.6809
  833MPD2    N112256   3.154   2.318  12.394  0.3509 -0.5188 -0.0322
  833MPD2    H712257   3.095   2.325  12.476  0.1613  1.6208 -0.3448
  834MPD2     C12258   3.109   1.268  11.800  0.3830 -0.4178 -0.1919
  834MPD2    C112259   3.154   1.308  11.677  0.5406 -0.3327 -0.0456
  834MPD2    C212260   3.200   1.441  11.663  0.7902  0.8411 -0.3673
  834MPD2    C312261   3.224   1.520  11.773 -0.2667  0.6621 -0.9361
  834MPD2    C412262   3.182   1.472  11.893 -0.3071  0.3728 -0.1515
  834MPD2    C512263   3.113   1.357  11.901  0.5836  0.0876  0.2846
  834MPD2     H12264   3.213   1.477  11.561 -0.5536 -0.5820 -1.0410
  834MPD2    H112265   3.178   1.531  11.983 -0.7182  2.0157 -1.2498
  834MPD2    H212266   3.068   1.168  11.809 -0.7283 -0.2146 -2.9611
  834MPD2    H312267   3.072   1.329  11.997 -0.5727  1.3625  0.1690
  834MPD2     N12268   3.285   1.646  11.760  0.8611 -0.1733 -0.1559
  834MPD2    H512269   3.327   1.667  11.670  2.4902 -0.8282  0.4356
  834MPD2    N112270   3.149   1.210  11.564  0.0953  0.0431  0.3695
  834MPD2    H712271   3.114   1.119  11.591 -0.8789 -0.5679 -2.9414
  835MPD2     C12272   3.469   3.882  11.563  0.3301  0.4073  0.1079
  835MPD2    C112273   3.389   3.999  11.562 -0.2771 -0.1952 -0.0337
  835MPD2    C212274   3.400   4.085  11.668  0.5903  1.0407  0.0120
  835MPD2    C312275   3.490   4.059  11.771  0.2604 -0.8296 -0.2393
  835MPD2    C412276   3.579   3.952  11.755 -0.2585  0.6136  0.0614
  835MPD2    C512277   3.564   3.864  11.654 -0.1888 -0.0454  0.2884
  835MPD2     H12278   3.314   4.146  11.689  0.4274  0.9194 -0.2989
  835MPD2    H112279   3.656   3.939  11.830 -0.4955 -0.4345  0.1209
  835MPD2    H212280   3.455   3.809  11.483 -0.9733 -1.4229  2.0087
  835MPD2    H312281   3.617   3.769  11.653  0.7310  0.5145 -3.5841
  835MPD2     N12282   3.484   4.120  11.901 -0.2808 -0.3056  0.0160
  835MPD2    H512283   3.548   4.090  11.974 -1.1775 -2.3009 -0.0327
  835MPD2    N112284   3.312   4.041  11.448  0.4209 -0.1488 -0.0258
  835MPD2    H712285   3.260   4.127  11.464  2.5077  0.8929  1.2531
  836MPD2     C12286   2.930   4.530  11.877  0.3258 -0.2848 -0.6388
  836MPD2    C112287   2.966   4.531  12.010 -1.0581 -0.5558 -0.9423
  836MPD2    C212288   2.901   4.624  12.094 -0.0969  0.2890  0.4142
  836MPD2    C312289   2.813   4.720  12.042  0.8450  0.1955  0.2565
  836MPD2    C412290   2.785   4.715  11.906  0.4261 -0.3508 -0.8428
  836MPD2    C512291   2.844   4.624  11.825 -0.2936 -0.0332 -0.3313
  836MPD2     H12292   2.927   4.627  12.199 -2.1961  0.0485  0.9525
  836MPD2    H112293   2.719   0.065  11.863 -3.1484 -3.0039  0.0529
  836MPD2    H212294   2.981   4.471  11.802  2.1764 -0.9224  1.1062
  836MPD2    H312295   2.825   4.620  11.719 -0.3833 -0.8180 -0.2876
  836MPD2     N12296   2.739   0.085  12.116 -0.6882  0.1858  0.4271
  836MPD2    H512297   2.682   0.149  12.060 -1.1802 -0.8932 -0.3168
  836MPD2    N112298   3.063   4.444  12.055  0.0191 -0.1498  0.6769
  836MPD2    H712299   3.101   4.386  11.981  1.0747 -0.5134  1.5052
  837MPD2     C12300   1.436   3.476  10.203  0.3579 -0.5997 -0.3742
  837MPD2    C112301   1.312   3.472  10.141 -0.1451  0.5182 -0.5166
  837MPD2    C212302   1.219   3.566  10.192  0.4401 -0.1910  0.0922
  837MPD2    C312303   1.254   3.677  10.269 -0.4102 -0.2536  0.3662
  837MPD2    C412304   1.379   3.676  10.317  0.6249 -0.2608  0.0242
  837MPD2    C512305   1.467   3.579  10.286  0.4405  0.4318 -0.0280
  837MPD2     H12306   1.115   3.559  10.162  0.5591 -1.9817  0.0833
  837MPD2    H112307   1.400   3.746  10.397 -0.1941  1.0064 -0.8827
  837MPD2    H212308   1.515   3.410  10.171  2.0675  0.2807  2.0452
  837MPD2    H312309   1.570   3.582  10.318  0.6267  1.2516 -0.7257
  837MPD2     N12310   1.162   3.775  10.279 -0.4462 -0.3305  0.8262
  837MPD2    H512311   1.066   3.760  10.247 -0.6032 -2.4425  2.3510
  837MPD2    N112312   1.269   3.373  10.049 -0.1320 -0.1557  0.0792
  837MPD2    H712313   1.171   3.386  10.024 -0.3035 -1.9717 -0.1972
  838MPD2     C12314   4.317   1.645  11.260  0.3821 -0.4410  0.6261
  838MPD2    C112315   4.278   1.751  11.343  0.2015  0.4345  0.3338
  838MPD2    C212316   4.157   1.741  11.409  0.1999  0.1409 -0.1753
  838MPD2    C312317   4.073   1.637  11.390 -0.0787  0.7319  0.2628
  838MPD2    C412318   4.102   1.539  11.294 -0.9215 -0.0321 -0.3637
  838MPD2    C512319   4.224   1.554  11.230 -0.1850 -0.7755  0.9060
  838MPD2     H12320   4.123   1.825  11.468  0.3447 -0.0764  0.2195
  838MPD2    H112321   4.029   1.468  11.257 -0.7624 -0.9026  0.9936
  838MPD2    H212322   4.407   1.641  11.200 -0.0900  2.1633 -0.2771
  838MPD2    H312323   4.240   1.477  11.155  0.7623  0.2891  0.0097
  838MPD2     N12324   3.971   1.626  11.487  0.1933 -0.1056  0.0217
  838MPD2    H512325   3.984   1.695  11.560 -0.3888  0.0733 -0.0433
  838MPD2    N112326   4.370   1.854  11.375 -0.3588  0.0313 -0.2979
  838MPD2    H712327   4.340   1.927  11.439  2.0900  1.5584 -0.9015
  839MPD2     C12328   4.392   1.484  11.835  0.8450 -0.1274 -0.5244
  839MPD2    C112329   4.377   1.501  11.698  0.1856  0.8662  0.0155
  839MPD2    C212330   4.442   1.604  11.632 -1.0444 -0.3623  0.2806
  839MPD2    C312331   4.509   1.708  11.700  0.6759  0.3424  0.3814
  839MPD2    C412332   4.521   1.687  11.838 -0.2043 -0.5088  0.3093
  839MPD2    C512333   4.467   1.579  11.907  0.4867 -0.5540 -0.3097
  839MPD2     H12334   4.441   1.604  11.523 -0.9175  4.5321  0.3150
  839MPD2    H112335   4.582   1.751  11.902 -1.0061 -0.0514  0.6142
  839MPD2    H212336   4.343   1.400  11.883  0.3473 -0.9731 -2.5088
  839MPD2    H312337   4.503   1.551  12.006  1.1388 -2.4067 -1.0866
  839MPD2     N12338   4.580   1.810  11.626 -0.0607  0.0172 -0.0149
  839MPD2    H512339   4.564   1.810  11.525  0.0805 -1.8340 -0.0406
  839MPD2    N112340   4.298   1.420  11.613  0.4002 -0.3570 -0.5044
  839MPD2    H712341   4.280   1.444  11.516  3.5993 -1.1947 -1.2756
  840MPD2     C12342   0.155   4.087  10.269 -0.4460 -0.2635  0.6202
  840MPD2    C112343   0.081   4.064  10.389 -0.0787  0.0707 -0.2305
  840MPD2    C212344   0.095   4.148  10.504 -0.4409  0.4970  0.2381
  840MPD2    C312345   0.201   4.244  10.503 -0.1864  0.9194  0.0121
  840MPD2    C412346   0.278   4.258  10.392 -0.4554 -0.5679  0.1419
  840MPD2    C512347   0.253   4.182  10.275  0.7648  0.6002 -0.1513
  840MPD2     H12348   0.023   4.146  10.585 -0.4488 -1.3043  0.2010
  840MPD2    H112349   0.368   4.317  10.386  0.3285 -1.8593 -0.8403
  840MPD2    H212350   0.149   4.031  10.176 -2.1231  0.4718  0.2767
  840MPD2    H312351   0.317   4.205  10.191  1.9346  0.3965  0.6861
  840MPD2     N12352   0.222   4.331  10.615 -0.0312  0.6546  0.2407
  840MPD2    H512353   0.289   4.407  10.607 -1.9968  2.3595  0.2771
  840MPD2    N112354   4.711   3.965  10.383 -0.1115  0.2636 -0.1117
  840MPD2    H712355   4.694   3.914  10.297 -1.8100 -0.6732  0.7766
  841MPD2     C12356   4.519   0.277  15.365 -0.2999  0.0493  0.2621
  841MPD2    C112357   4.531   0.225  15.234  0.0444 -0.4803 -0.0904
  841MPD2    C212358   4.595   0.303  15.145 -0.3141 -0.0732 -0.1116
  841MPD2    C312359   4.629   0.436  15.175 -0.3106 -0.0765 -0.3570
  841MPD2    C412360   4.627   0.480  15.308  0.9330  0.2386  0.7993
  841MPD2    C512361   4.574   0.397  15.396  0.4386 -0.6055 -0.2933
  841MPD2     H12362   4.613   0.266  15.044  1.3803  1.3562 -0.3399
  841MPD2    H112363   4.682   0.568  15.341 -2.7356  3.2437 -1.2263
  841MPD2    H212364   4.478   0.221  15.448  0.8593 -1.4386 -0.1717
  841MPD2    H312365   4.573   0.436  15.497  0.2227 -3.3351  0.7729
  841MPD2     N12366   4.671   0.513  15.063  0.0819 -0.1126  0.5272
  841MPD2    H512367   4.655   0.468  14.973 -0.2706  0.1151  0.4745
  841MPD2    N112368   4.483   0.103  15.187  0.0300 -0.3147 -0.4842
  841MPD2    H712369   4.505   0.077  15.091  1.8753  1.8399 -0.6598
  842MPD2     C12370   0.104   0.257  16.764 -0.3246  0.8180  0.1345
  842MPD2    C112371   0.077   0.389  16.785 -0.2106 -0.0404 -0.6995
  842MPD2    C212372   0.022   0.436  16.900 -0.1142  0.2309  0.3897
  842MPD2    C312373   4.707   0.344  17.003  0.3313 -0.0452  0.4022
  842MPD2    C412374   0.020   0.212  16.988 -0.1142 -0.4492  0.6133
  842MPD2    C512375   0.080   0.173  16.864 -0.6360  0.1166 -0.0011
  842MPD2     H12376   0.003   0.542  16.911 -0.7237  0.0630  0.9416
  842MPD2    H112377   0.001   0.146  17.072  0.2053 -2.5122 -0.9215
  842MPD2    H212378   0.145   0.224  16.669 -0.0111 -1.5152  1.0944
  842MPD2    H312379   0.101   0.068  16.845 -2.0436 -0.1940  0.1254
  842MPD2     N12380   4.637   0.386  17.115 -0.1067  0.1713 -0.3030
  842MPD2    H512381   4.606   0.315  17.180  1.2429 -0.4748 -0.3655
  842MPD2    N112382   0.071   0.467  16.668  0.2145 -0.2838 -0.2724
  842MPD2    H712383   0.074   0.429  16.574  2.3027  1.8796 -1.0744
  843MPD2     C12384   2.282   0.668  17.262 -0.3379  0.0938  0.5092
  843MPD2    C112385   2.258   0.622  17.391 -0.4146  0.4445 -0.1593
  843MPD2    C212386   2.272   0.721  17.483 -0.4435  0.2170 -0.2396
  843MPD2    C312387   2.328   0.847  17.460  0.1427 -0.7030 -0.3195
  843MPD2    C412388   2.366   0.884  17.330 -0.1861 -0.2581  0.3715
  843MPD2    C512389   2.337   0.790  17.233  0.3098 -0.0479  0.8676
  843MPD2     H12390   2.251   0.694  17.586  1.1452 -1.9061 -0.4735
  843MPD2    H112391   2.408   0.979  17.299  0.1151 -1.0114 -1.5309
  843MPD2    H212392   2.265   0.600  17.180 -0.8066  0.9146 -0.0745
  843MPD2    H312393   2.353   0.822  17.131  2.0943 -0.6133  0.9818
  843MPD2     N12394   2.359   0.948  17.553 -0.4136  0.2157 -0.1353
  843MPD2    H512395   2.391   1.038  17.520 -0.5350 -0.5750 -2.4053
  843MPD2    N112396   2.204   0.495  17.411  0.1007  0.2331  0.5897
  843MPD2    H712397   2.193   0.437  17.329 -3.0080 -2.9353  3.2064
  844MPD2     C12398   0.686   0.471  16.840  0.2334  0.4190 -0.3510
  844MPD2    C112399   0.744   0.363  16.782 -0.2462  0.4362 -0.0954
  844MPD2    C212400   0.882   0.352  16.773  1.0225  0.2901  0.0341
  844MPD2    C312401   0.969   0.452  16.808 -0.2526 -0.6889 -0.0045
  844MPD2    C412402   0.907   0.571  16.851  0.1304 -0.3411  0.0455
  844MPD2    C512403   0.770   0.578  16.870  0.0519 -0.2161 -0.4751
  844MPD2     H12404   0.924   0.255  16.747 -2.0262 -1.2958  1.0133
  844MPD2    H112405   0.970   0.656  16.872  1.7630 -1.4032 -0.5130
  844MPD2    H212406   0.580   0.483  16.859 -0.0841 -0.2397 -1.7265
  844MPD2    H312407   0.717   0.665  16.907 -0.2910 -0.0581 -1.3238
  844MPD2     N12408   1.106   0.425  16.806 -0.3523 -0.3476 -0.7437
  844MPD2    H512409   1.136   0.332  16.777  1.7830 -0.7027  2.5060
  844MPD2    N112410   0.673   0.243  16.744  0.1723  0.2782 -0.2489
  844MPD2    H712411   0.729   0.167  16.706 -1.1730  0.0822 -1.8109
  845MPD2     C12412   1.897   1.094  16.832  0.1088  0.1353  0.2067
  845MPD2    C112413   1.808   1.074  16.933 -0.1635 -0.6176 -0.1384
  845MPD2    C212414   1.730   0.962  16.934 -0.9303  0.1667  0.3670
  845MPD2    C312415   1.746   0.859  16.844 -0.3217  0.3799  0.3423
  845MPD2    C412416   1.842   0.874  16.749 -0.1881 -0.2889 -0.8708
  845MPD2    C512417   1.917   0.994  16.747 -0.0877  0.0123  0.2622
  845MPD2     H12418   1.652   0.950  17.009 -1.1084  1.5129  0.3918
  845MPD2    H112419   1.855   0.807  16.665  1.2968 -1.4985  0.3365
  845MPD2    H212420   1.963   1.180  16.827  1.1557 -0.7681 -1.3006
  845MPD2    H312421   1.995   1.012  16.674  0.6342  1.0000  1.2776
  845MPD2     N12422   1.664   0.748  16.868  0.1554  0.1976  0.2078
  845MPD2    H512423   1.597   0.740  16.943 -1.4374 -2.0723 -1.4584
  845MPD2    N112424   1.802   1.176  17.033  0.0003  0.3017  0.4538
  845MPD2    H712425   1.856   1.256  17.002  0.7218  0.0006  0.9275
  846MPD2     C12426   3.016   1.382  13.490 -0.0025 -0.0819  0.1894
  846MPD2    C112427   2.890   1.419  13.524  1.1755  0.5897  0.2029
  846MPD2    C212428   2.850   1.391  13.649  0.0924  0.5615 -0.3073
  846MPD2    C312429   2.933   1.335  13.746  0.1081 -1.3702 -0.1039
  846MPD2    C412430   3.059   1.287  13.713  0.9413 -0.2337  0.3174
  846MPD2    C512431   3.098   1.324  13.584 -0.7336 -0.0702  0.6019
  846MPD2     H12432   2.752   1.433  13.671  0.1592  0.2863  0.5330
  846MPD2    H112433   3.131   1.245  13.782  1.1434 -1.3576 -0.5737
  846MPD2    H212434   3.063   1.410  13.397 -1.8489  2.1407 -0.0867
  846MPD2    H312435   3.199   1.299  13.551  0.0690  0.9258  2.3421
  846MPD2     N12436   2.878   1.340  13.876 -0.2696 -0.9537 -0.0503
  846MPD2    H512437   2.779   1.353  13.892 -0.3510 -1.7078  0.0328
  846MPD2    N112438   2.803   1.488  13.436  0.1182 -0.4543  0.3192
  846MPD2    H712439   2.710   1.511  13.468  1.1292  1.5779  1.8290
  847MPD2     C12440   2.561   2.098  14.676  0.3933  0.1435  0.4535
  847MPD2    C112441   2.615   2.203  14.618 -0.0110 -0.9252 -0.0533
  847MPD2    C212442   2.719   2.179  14.537  0.5728 -0.1803 -0.7069
  847MPD2    C312443   2.774   2.054  14.517  0.6873  0.6040  0.3155
  847MPD2    C412444   2.713   1.948  14.572 -0.4084 -0.4530 -0.7450
  847MPD2    C512445   2.605   1.970  14.652  0.0719 -0.5763  0.4335
  847MPD2     H12446   2.768   2.265  14.494  2.1705  1.5339  4.6025
  847MPD2    H112447   2.753   1.848  14.566  1.9549  0.4372  0.2099
  847MPD2    H212448   2.488   2.106  14.756  1.5529  0.2673  1.4965
  847MPD2    H312449   2.570   1.886  14.711 -0.6034 -0.5672  0.0564
  847MPD2     N12450   2.901   2.057  14.463 -0.1152  0.6172  0.0490
  847MPD2    H512451   2.935   2.152  14.454 -2.8182  1.7490  1.7252
  847MPD2    N112452   2.580   2.338  14.651 -0.0333 -0.6342  1.0446
  847MPD2    H712453   2.640   2.407  14.607 -0.2697  0.8534  3.0465
  848MPD2     C12454   0.434   0.915  16.929  0.4278 -0.2669  0.4668
  848MPD2    C112455   0.566   0.941  16.967  0.0687  0.1420  0.8353
  848MPD2    C212456   0.635   1.048  16.917 -0.0962 -0.2014  0.0398
  848MPD2    C312457   0.574   1.128  16.813 -0.6555 -0.4252 -0.0743
  848MPD2    C412458   0.457   1.085  16.762 -0.0428  0.3572 -0.3268
  848MPD2    C512459   0.390   0.980  16.819  0.8714  0.3309  0.7695
  848MPD2     H12460   0.736   1.073  16.946 -0.5811  1.5316  0.2316
  848MPD2    H112461   0.408   1.141  16.683  0.0609  0.8868 -0.0076
  848MPD2    H212462   0.382   0.826  16.962 -1.0365  1.3727  2.5292
  848MPD2    H312463   0.299   0.946  16.773  1.4589  1.4860 -1.2538
  848MPD2     N12464   0.635   1.241  16.754 -0.0956 -0.8433 -0.4850
  848MPD2    H512465   0.581   1.291  16.684 -0.7239 -1.8869 -0.7468
  848MPD2    N112466   0.617   0.846  17.053  0.1528 -0.8302 -0.4501
  848MPD2    H712467   0.545   0.787  17.092  1.3924 -1.3513  1.0622
  849MPD2     C12468   0.118   0.409  13.705 -0.3369  0.1614 -0.1791
  849MPD2    C112469   0.241   0.380  13.757 -0.1219  0.2475 -0.5939
  849MPD2    C212470   0.259   0.351  13.892  0.1077 -0.0618  0.0727
  849MPD2    C312471   0.154   0.351  13.978 -0.1441  0.7793 -0.1290
  849MPD2    C412472   0.032   0.385  13.922  0.3414 -0.4844  0.3867
  849MPD2    C512473   0.011   0.415  13.790 -0.1584  0.0494  0.0838
  849MPD2     H12474   0.352   0.324  13.938  0.6741  0.1257 -0.9553
  849MPD2    H112475   4.673   0.404  13.988  1.9403  0.7905  2.0526
  849MPD2    H212476   0.109   0.429  13.599 -1.0014 -1.5723 -0.4540
  849MPD2    H312477   4.640   0.437  13.746 -1.1073 -1.0875  1.5840
  849MPD2     N12478   0.184   0.322  14.115 -0.3443  0.2485 -0.3136
  849MPD2    H512479   0.278   0.288  14.134 -0.2710  0.7751  0.2566
  849MPD2    N112480   0.347   0.348  13.669 -0.2439  0.0497  0.3092
  849MPD2    H712481   0.336   0.363  13.569 -2.1677  1.4110  0.7386
  850MPD2     C12482   2.319   2.869  15.510 -0.8796 -0.2951  0.0206
  850MPD2    C112483   2.287   3.006  15.510 -0.2784  0.7404 -0.5004
  850MPD2    C212484   2.379   3.085  15.443 -0.0441  1.0799  0.1730
  850MPD2    C312485   2.509   3.038  15.411  0.2821 -0.3234 -1.3054
  850MPD2    C412486   2.528   2.899  15.412  0.3335 -0.3506 -0.4741
  850MPD2    C512487   2.437   2.817  15.475  0.5507 -0.0472  1.4575
  850MPD2     H12488   2.352   3.188  15.424  1.0604  1.2639 -0.4089
  850MPD2    H112489   2.624   2.853  15.391  0.0329 -0.5992 -1.2761
  850MPD2    H212490   2.248   2.808  15.565  0.1017 -1.1863  0.3035
  850MPD2    H312491   2.466   2.714  15.495  0.7584 -0.2933 -0.1069
  850MPD2     N12492   2.609   3.120  15.376  0.4522  0.2707  0.4546
  850MPD2    H512493   2.694   3.077  15.342 -0.0170  1.2255 -1.8836
  850MPD2    N112494   2.162   3.054  15.555 -0.2324  0.4111  0.2291
  850MPD2    H712495   2.080   2.995  15.557 -0.0384  0.1035 -0.9489
  851MPD2     C12496   2.905   3.329  15.835  0.0728 -0.3233  0.0773
  851MPD2    C112497   2.812   3.239  15.790  0.5385  0.6099 -0.1305
  851MPD2    C212498   2.860   3.129  15.714 -0.1627 -0.0498  0.0478
  851MPD2    C312499   2.990   3.110  15.683 -0.0569 -0.2244 -0.1099
  851MPD2    C412500   3.085   3.201  15.724 -0.0238  1.4844  0.2388
  851MPD2    C512501   3.039   3.306  15.799  0.1374  0.2809  0.0612
  851MPD2     H12502   2.790   3.060  15.669 -0.6825  0.3111  0.3146
  851MPD2    H112503   3.190   3.177  15.717 -0.3200  0.4389 -0.4512
  851MPD2    H212504   2.878   3.411  15.900 -0.1793 -0.3419 -0.0044
  851MPD2    H312505   3.108   3.382  15.833  0.8880 -0.5548  0.4079
  851MPD2     N12506   3.023   3.004  15.599 -0.5833  0.0911  0.2412
  851MPD2    H512507   2.948   2.939  15.578 -0.3266 -0.0461 -0.2400
  851MPD2    N112508   2.679   3.272  15.805 -0.3171  0.2413 -0.3901
  851MPD2    H712509   2.668   3.367  15.839  1.3242 -0.3712  1.8615
  852MPD2     C12510   2.640   0.708   9.372  1.2583  0.4203 -0.0634
  852MPD2    C112511   2.639   0.773   9.490 -0.4784  0.1433  0.2181
  852MPD2    C212512   2.748   0.843   9.533  0.0170 -0.1499 -0.2906
  852MPD2    C312513   2.866   0.836   9.463  0.1740 -0.4088 -0.2346
  852MPD2    C412514   2.876   0.760   9.352  0.4173  0.9377  0.3451
  852MPD2    C512515   2.761   0.704   9.302  0.0157 -0.6362 -0.4974
  852MPD2     H12516   2.749   0.875   9.637 -1.3057  0.6481 -0.5296
  852MPD2    H112517   2.964   0.772   9.289 -0.3194 -0.6926 -0.9889
  852MPD2    H212518   2.555   0.671   9.315  1.8615  1.6316 -1.7081
  852MPD2    H312519   2.761   0.667   9.200 -0.2070 -1.1610 -0.3083
  852MPD2     N12520   2.972   0.908   9.519  0.3608 -0.3268 -0.3806
  852MPD2    H512521   2.949   0.961   9.602 -0.6995  0.5404 -1.2382
  852MPD2    N112522   2.528   0.774   9.578 -0.1255  0.2982 -0.1202
  852MPD2    H712523   2.534   0.832   9.661  0.2116 -1.8305  1.3372
  853MPD2     C12524   4.313   0.551  12.329 -0.5460  0.1505  0.6194
  853MPD2    C112525   4.188   0.586  12.280  0.5766 -0.0700  0.0428
  853MPD2    C212526   4.161   0.574  12.146  0.5931 -0.5169 -0.5473
  853MPD2    C312527   4.264   0.533  12.063  0.6219 -0.3377 -0.4352
  853MPD2    C412528   4.395   0.519  12.112 -0.2395  0.3125  0.1144
  853MPD2    C512529   4.411   0.520  12.245  1.2341 -0.5087 -0.2365
  853MPD2     H12530   4.066   0.612  12.109 -0.7632 -1.8272  1.5293
  853MPD2    H112531   4.476   0.503  12.042 -1.2394 -0.5203 -0.8563
  853MPD2    H212532   4.332   0.563  12.435  1.0108  0.7159  0.2898
  853MPD2    H312533   4.511   0.504  12.284  1.1621  2.5730  1.2397
  853MPD2     N12534   4.248   0.541  11.926 -0.2096 -0.5386  0.3728
  853MPD2    H512535   4.325   0.559  11.862  0.1154 -0.7661  0.6989
  853MPD2    N112536   4.100   0.641  12.379  0.0297 -0.1191  0.8023
  853MPD2    H712537   4.142   0.649  12.471 -0.9848  2.8387  1.0041
  854MPD2     C12538   1.001   1.013  13.208 -0.2670  0.2326 -0.4371
  854MPD2    C112539   1.065   1.024  13.090 -0.3148  0.4948 -0.7329
  854MPD2    C212540   1.187   0.964  13.071  0.4303 -0.7567  0.2391
  854MPD2    C312541   1.235   0.877  13.174  0.4557  0.4458  0.4111
  854MPD2    C412542   1.158   0.857  13.284 -0.2465  0.1585  0.1955
  854MPD2    C512543   1.036   0.922  13.300 -0.7252  0.0973 -0.1405
  854MPD2     H12544   1.244   0.969  12.979  1.6891  0.4640  1.0916
  854MPD2    H112545   1.192   0.803  13.372  1.0944 -0.1744 -0.5257
  854MPD2    H212546   0.909   1.067  13.226 -0.8339 -0.4904 -1.1771
  854MPD2    H312547   0.985   0.902  13.393  1.4267 -3.0558  0.3619
  854MPD2     N12548   1.359   0.812  13.160  0.2319  0.2268 -0.3165
  854MPD2    H512549   1.378   0.731  13.218  1.2806 -0.4155 -1.5858
  854MPD2    N112550   1.016   1.122  13.004  0.0256 -0.2659  0.6394
  854MPD2    H712551   0.932   1.171  13.031 -1.1800 -0.9363 -1.9109
  855MPD2     C12552   2.088   0.219  13.428  0.0982 -0.2360 -0.0047
  855MPD2    C112553   1.964   0.253  13.484 -0.6386 -1.1197 -0.0868
  855MPD2    C212554   1.874   0.316  13.403 -0.6421  0.1429 -0.4665
  855MPD2    C312555   1.895   0.344  13.269 -0.3003  0.2541 -0.6096
  855MPD2    C412556   2.022   0.309  13.218 -0.4336 -0.2648  0.2888
  855MPD2    C512557   2.118   0.259  13.305 -0.1601  0.4368  0.3023
  855MPD2     H12558   1.776   0.335  13.445 -0.2901  1.1191 -0.0932
  855MPD2    H112559   2.042   0.331  13.113 -1.1118 -2.0093 -0.2001
  855MPD2    H212560   2.154   0.153  13.483 -0.1018  0.3100  0.8921
  855MPD2    H312561   2.212   0.218  13.271 -0.8124 -0.6037 -0.2588
  855MPD2     N12562   1.803   0.402  13.179 -0.0819  0.0100 -0.1765
  855MPD2    H512563   1.837   0.422  13.085 -0.1852  1.2281  0.0556
  855MPD2    N112564   1.930   0.224  13.614  0.5216  0.6141 -0.4474
  855MPD2    H712565   1.841   0.257  13.649  0.1852 -1.0330  0.2806
  856MPD2     C12566   3.571   1.462  13.661  0.3757  0.7971 -0.4589
  856MPD2    C112567   3.646   1.542  13.747 -0.4108 -1.1216  0.0485
  856MPD2    C212568   3.591   1.660  13.789  0.1914  0.2926  0.0122
  856MPD2    C312569   3.467   1.712  13.738  0.3069 -0.3555 -0.7220
  856MPD2    C412570   3.392   1.633  13.658 -0.5597 -0.2522  0.2015
  856MPD2    C512571   3.441   1.510  13.621  0.1543 -0.0694 -0.2393
  856MPD2     H12572   3.648   1.718  13.860 -0.1051 -1.8363  1.9995
  856MPD2    H112573   3.297   1.665  13.616  0.0772  0.4601 -0.7159
  856MPD2    H212574   3.603   1.364  13.626  0.4142  0.1118  1.4778
  856MPD2    H312575   3.383   1.445  13.557  0.1396 -0.3848  0.0930
  856MPD2     N12576   3.403   1.825  13.790  0.0135  0.4360  0.0214
  856MPD2    H512577   3.314   1.847  13.747  0.1175 -0.8993 -0.8417
  856MPD2    N112578   3.775   1.513  13.789 -0.0184 -0.0340 -0.4347
  856MPD2    H712579   3.824   1.584  13.842 -0.1624 -0.7627  0.6878
  857MPD2     C12580   0.092   3.469  12.628  0.6139  0.4343  0.7544
  857MPD2    C112581   0.226   3.493  12.623 -0.0028 -0.4823  0.6813
  857MPD2    C212582   0.281   3.621  12.618 -0.3805  0.0443  0.3501
  857MPD2    C312583   0.196   3.729  12.610 -0.6644 -0.1907  0.7803
  857MPD2    C412584   0.054   3.708  12.610 -0.1405 -0.1234  0.2013
  857MPD2    C512585   0.007   3.576  12.621  0.3388 -0.0257  0.0013
  857MPD2     H12586   0.387   3.633  12.632 -0.3216 -0.8424  0.6765
  857MPD2    H112587   4.711   3.792  12.607 -2.3519 -1.9628 -1.3835
  857MPD2    H212588   0.046   3.373  12.644  0.7341  0.2145 -0.2035
  857MPD2    H312589   4.627   3.551  12.616  0.4145  0.5444 -4.8384
  857MPD2     N12590   0.257   3.860  12.609 -0.0194 -0.3282 -0.1636
  857MPD2    H512591   0.358   3.860  12.608 -0.0293 -0.1187 -1.1040
  857MPD2    N112592   0.312   3.382  12.624  0.3929 -0.3089  0.1635
  857MPD2    H712593   0.266   3.292  12.641 -0.5770  0.3799  1.1886
  858MPD2     C12594   1.390   2.861  16.373  0.6234 -0.3227  0.2941
  858MPD2    C112595   1.389   2.767  16.475 -0.4583 -0.3419 -0.1473
  858MPD2    C212596   1.398   2.807  16.610  0.2262 -0.9111  0.5745
  858MPD2    C312597   1.403   2.942  16.644  0.1486  0.0464  0.3455
  858MPD2    C412598   1.394   3.039  16.540 -0.1587  0.1512 -0.0007
  858MPD2    C512599   1.382   2.998  16.409  0.6947  0.0199 -0.6001
  858MPD2     H12600   1.397   2.730  16.686  0.9870 -0.3584  1.1471
  858MPD2    H112601   1.386   3.143  16.571 -3.4354 -0.7414  2.2501
  858MPD2    H212602   1.389   2.838  16.267  1.1445 -0.8086  0.3980
  858MPD2    H312603   1.364   3.070  16.331  2.0612 -0.2218 -1.1435
  858MPD2     N12604   1.403   2.999  16.776  0.0671  0.0332  0.9227
  858MPD2    H512605   1.392   3.100  16.787  1.6760  0.1683  1.2099
  858MPD2    N112606   1.375   2.626  16.445  0.1737  0.0866 -0.4986
  858MPD2    H712607   1.383   2.556  16.518 -2.6422 -0.7471 -0.9922
  859MPD2     C12608   0.035   0.523  15.798  0.6577 -0.2825  0.3363
  859MPD2    C112609   0.103   0.535  15.683  0.0455  0.6500 -0.4422
  859MPD2    C212610   0.144   0.426  15.606 -0.1675  0.3582 -0.9636
  859MPD2    C312611   0.102   0.299  15.637  0.3819  0.4239  0.7180
  859MPD2    C412612   0.034   0.281  15.757  0.3798  0.1740 -0.1320
  859MPD2    C512613   4.723   0.394  15.839 -0.0291  0.5647  0.2058
  859MPD2     H12614   0.197   0.443  15.513  0.8350  0.1292 -0.4461
  859MPD2    H112615   4.718   0.184  15.786 -0.2734  0.1845 -1.0144
  859MPD2    H212616   4.722   0.608  15.855 -2.0101 -2.2270  1.4922
  859MPD2    H312617   4.683   0.371  15.937 -0.2046  0.6933  0.1622
  859MPD2     N12618   0.114   0.193  15.555  0.9128  0.0925  0.3186
  859MPD2    H512619   0.068   0.112  15.597 -0.2689  0.8795  0.5614
  859MPD2    N112620   0.128   0.664  15.623 -0.5102 -0.0865  0.4374
  859MPD2    H712621   0.191   0.683  15.546 -0.0829 -1.7164  0.3849
  860MPD2     C12622   2.336   0.743  11.760  0.5639  0.0238  0.0407
  860MPD2    C112623   2.297   0.764  11.892 -0.3052  0.9191  0.3177
  860MPD2    C212624   2.166   0.715  11.927  0.3837  0.0838  0.7884
  860MPD2    C312625   2.088   0.647  11.837  0.2540  0.5598  0.3309
  860MPD2    C412626   2.130   0.627  11.713 -0.4971 -0.1286  0.8374
  860MPD2    C512627   2.250   0.682  11.676 -0.1647 -0.2375  0.6496
  860MPD2     H12628   2.147   0.716  12.034 -0.9313  0.4267  0.5494
  860MPD2    H112629   2.077   0.565  11.643  3.1856 -2.6632  0.2654
  860MPD2    H212630   2.431   0.777  11.722  0.6014  2.3860  2.2426
  860MPD2    H312631   2.285   0.665  11.575 -1.9581 -0.5387  0.0782
  860MPD2     N12632   1.959   0.604  11.875  0.5909 -0.1902 -0.0894
  860MPD2    H512633   1.931   0.610  11.972 -0.7456 -2.3762 -0.3274
  860MPD2    N112634   2.380   0.825  11.993 -0.0885  0.2955 -0.1636
  860MPD2    H712635   2.359   0.812  12.091 -0.9005 -0.3223 -0.4178
  861MPD2     C12636   1.178   3.246  11.176  0.7236 -0.7193 -0.2158
  861MPD2    C112637   1.092   3.293  11.275  0.3430 -0.0819 -0.1652
  861MPD2    C212638   0.960   3.286  11.249  0.6115 -0.0000  0.9154
  861MPD2    C312639   0.907   3.224  11.133  0.3529 -0.6503  0.1934
  861MPD2    C412640   0.995   3.178  11.040  0.1735 -0.5717  0.5726
  861MPD2    C512641   1.133   3.192  11.059  0.3270 -1.1333  0.2070
  861MPD2     H12642   0.889   3.314  11.326  0.8351  2.3359  0.2469
  861MPD2    H112643   0.962   3.112  10.960  0.9566  2.1904 -2.0272
  861MPD2    H212644   1.285   3.240  11.192  0.7429 -1.2052 -0.5259
  861MPD2    H312645   1.202   3.136  10.997  1.2963  0.2045  0.0766
  861MPD2     N12646   0.762   3.224  11.116  0.2462 -0.4201 -0.6780
  861MPD2    H512647   0.707   3.270  11.188  0.8429 -0.6580 -0.0738
  861MPD2    N112648   1.124   3.357  11.390  0.0215  0.1275 -0.0072
  861MPD2    H712649   1.056   3.401  11.451  1.0024  1.9919 -0.2409
  862MPD2     C12650   0.315   3.062  10.452  0.3526  0.3525  0.0058
  862MPD2    C112651   0.417   3.053  10.542 -0.3786  0.5409 -0.4388
  862MPD2    C212652   0.529   2.982  10.503  0.3360  0.1321  0.0127
  862MPD2    C312653   0.536   2.912  10.390 -0.0018 -0.4310 -0.5817
  862MPD2    C412654   0.426   2.908  10.304  0.1814 -0.5033 -0.1965
  862MPD2    C512655   0.319   2.985  10.337  0.2147  0.0783 -0.2652
  862MPD2     H12656   0.613   2.961  10.568 -0.6964 -1.3838  0.8554
  862MPD2    H112657   0.437   2.849  10.213  0.8700 -1.7188  0.6738
  862MPD2    H212658   0.221   3.114  10.469  0.9590  2.0853 -1.9783
  862MPD2    H312659   0.230   2.980  10.276  0.4250 -0.1685 -0.5525
  862MPD2     N12660   0.659   2.839  10.356  0.0511  0.0292  0.1487
  862MPD2    H512661   0.652   2.773  10.278 -1.5165  0.1520  0.1878
  862MPD2    N112662   0.422   3.116  10.670  0.0188  0.0441 -0.9532
  862MPD2    H712663   0.506   3.101  10.726 -0.9946 -0.7377  0.3295
  863MPD2     C12664   4.447   2.530  16.881  0.7335  0.7213 -0.2256
  863MPD2    C112665   4.351   2.442  16.922  0.0752 -0.1938 -0.5187
  863MPD2    C212666   4.395   2.334  17.007 -0.4356 -0.5414  0.5471
  863MPD2    C312667   4.521   2.323  17.048  0.1939  0.4557 -0.1324
  863MPD2    C412668   4.616   2.413  17.011 -0.1419 -0.1536  0.2070
  863MPD2    C512669   4.578   2.514  16.923  0.9555  0.5294 -0.3259
  863MPD2     H12670   4.319   2.264  17.039  0.8167 -1.3970  1.5971
  863MPD2    H112671   4.722   2.409  17.036 -0.0987 -2.0922 -0.2580
  863MPD2    H212672   4.420   2.608  16.811  4.4044  1.7458 -0.4852
  863MPD2    H312673   4.655   2.582  16.890 -0.2389  1.3713 -1.3636
  863MPD2     N12674   4.561   2.211  17.131 -0.0472 -0.4514 -0.0947
  863MPD2    H512675   4.657   2.215  17.165 -0.5978 -3.1863  1.7176
  863MPD2    N112676   4.218   2.453  16.877  0.0004  0.8412 -0.7688
  863MPD2    H712677   4.193   2.529  16.814  0.2771  1.1445 -0.5124
  864MPD2     C12678   0.360   3.278   0.133 -0.4733  0.4603 -0.3958
  864MPD2    C112679   0.352   3.231  17.701 -0.2764 -0.2631 -0.6082
  864MPD2    C212680   0.407   3.310  17.603 -0.6603  0.1426  1.0758
  864MPD2    C312681   0.462   3.438  17.629 -0.0886  0.8551  0.6447
  864MPD2    C412682   0.467   3.479   0.056 -0.5102  0.6047  0.6253
  864MPD2    C512683   0.403   3.410   0.157 -0.2436 -0.4513 -0.1599
  864MPD2     H12684   0.406   3.283  17.498 -0.0278  2.9586  0.3390
  864MPD2    H112685   0.513   3.574   0.081 -0.5511  0.8311 -0.1743
  864MPD2    H212686   0.320   3.225   0.218  0.8319 -0.1951 -0.1851
  864MPD2    H312687   0.397   3.458   0.254 -1.2795 -2.0276  0.5570
  864MPD2     N12688   0.527   3.507  17.524  0.3243  0.4962  0.5533
  864MPD2    H512689   0.512   3.476  17.428  1.0429 -3.4683  1.7348
  864MPD2    N112690   0.308   3.100  17.679  0.0253  0.0105 -0.7993
  864MPD2    H712691   0.281   3.040   0.055  0.1569  1.4720  0.3749
  865MPD2     C12692   0.179   3.736  16.638 -0.4643 -0.9773 -0.0191
  865MPD2    C112693   0.207   3.623  16.710 -0.0049 -0.1172  0.4985
  865MPD2    C212694   0.266   3.631  16.842  0.1706  0.3101 -0.3857
  865MPD2    C312695   0.311   3.751  16.890  0.2963 -0.5677 -0.3437
  865MPD2    C412696   0.275   3.863  16.820  0.5605  0.6259 -0.3359
  865MPD2    C512697   0.215   3.856  16.696 -0.1180  0.3492 -0.3153
  865MPD2     H12698   0.282   3.534  16.888 -1.3161  1.2166  2.0562
  865MPD2    H112699   0.299   3.962  16.858  0.8396  1.1360 -1.8429
  865MPD2    H212700   0.120   3.727  16.548 -0.1106  0.1452 -0.3674
  865MPD2    H312701   0.188   3.951  16.651 -1.5114  0.6967  1.2264
  865MPD2     N12702   0.391   3.768  17.002 -0.1787  0.2347 -0.1802
  865MPD2    H512703   0.439   3.856  17.019  0.7011 -0.5900  1.6944
  865MPD2    N112704   0.204   3.505  16.635 -0.1197 -0.1170 -0.2309
  865MPD2    H712705   0.192   3.526  16.537  0.7791 -1.6975 -0.6852
  866MPD2     C12706   1.655   3.886  11.436  0.1560  0.2175  0.4336
  866MPD2    C112707   1.560   3.821  11.515  0.1334 -0.2276 -0.0723
  866MPD2    C212708   1.439   3.786  11.458 -0.1991 -0.2455  0.9908
  866MPD2    C312709   1.404   3.818  11.327  0.1284 -0.4266 -0.4538
  866MPD2    C412710   1.498   3.885  11.254 -0.1696  0.2075  0.3842
  866MPD2    C512711   1.621   3.908  11.303  0.6648  0.1243 -0.2569
  866MPD2     H12712   1.363   3.735  11.517  0.5652  0.6619  2.7331
  866MPD2    H112713   1.480   3.923  11.154  0.2315 -0.2087  0.1480
  866MPD2    H212714   1.756   3.891  11.475  0.5486 -0.0310 -0.5400
  866MPD2    H312715   1.700   3.944  11.239  1.7806  0.2037  1.1552
  866MPD2     N12716   1.282   3.788  11.263  0.7030  0.4436  0.5080
  866MPD2    H512717   1.279   3.776  11.163  0.4807 -3.0398  0.9306
  866MPD2    N112718   1.591   3.804  11.650 -0.0170  0.4511 -0.0714
  866MPD2    H712719   1.684   3.829  11.683  1.1628 -1.9230 -1.6190
  867MPD2     C12720   3.627   3.324  16.327 -0.7082 -0.4433 -0.1312
  867MPD2    C112721   3.670   3.291  16.454 -0.4827  0.3289  0.7370
  867MPD2    C212722   3.699   3.387  16.547 -0.3284 -0.0033 -0.0911
  867MPD2    C312723   3.687   3.523  16.513 -0.6422  0.0955 -0.4580
  867MPD2    C412724   3.648   3.552  16.385  0.1109  0.2314 -0.8393
  867MPD2    C512725   3.621   3.454  16.292  0.3922 -0.0392 -0.7596
  867MPD2     H12726   3.735   3.367  16.647  1.0193 -2.0077 -0.9701
  867MPD2    H112727   3.640   3.651  16.343 -1.5753  0.4678  0.0140
  867MPD2    H212728   3.593   3.255  16.251 -1.3207 -1.3026  0.9259
  867MPD2    H312729   3.581   3.485  16.197  1.1197 -2.6084 -1.9069
  867MPD2     N12730   3.720   3.634  16.593 -0.1436 -0.0272  0.2373
  867MPD2    H512731   3.723   3.721  16.541  0.3121 -0.0213  0.2739
  867MPD2    N112732   3.692   3.151  16.478  0.3091  0.1042  0.1218
  867MPD2    H712733   3.683   3.091  16.397 -0.8116 -0.7299  0.8617
  868MPD2     C12734   1.020   1.616  13.578  0.0688 -0.1504 -0.5368
  868MPD2    C112735   1.056   1.715  13.491 -0.5086 -0.4433  0.3688
  868MPD2    C212736   0.995   1.836  13.510  0.1907 -0.1362  0.1768
  868MPD2    C312737   0.913   1.867  13.619  0.2990  0.1162 -0.4800
  868MPD2    C412738   0.885   1.768  13.706 -0.3418  0.1030  0.2256
  868MPD2    C512739   0.934   1.641  13.687  0.5631  0.0443  0.3169
  868MPD2     H12740   1.031   1.916  13.446  0.2827 -0.6327 -0.3962
  868MPD2    H112741   0.819   1.786  13.791  2.5019  3.5829  1.6812
  868MPD2    H212742   1.071   1.523  13.560 -0.7844 -0.4371 -1.4831
  868MPD2    H312743   0.926   1.575  13.773  0.9468  1.1710  1.2179
  868MPD2     N12744   0.873   1.997  13.623  0.6414  0.1214 -0.0311
  868MPD2    H512745   0.883   2.053  13.539 -3.0099 -0.7276 -1.0216
  868MPD2    N112746   1.157   1.684  13.397  0.0408  0.7501  0.2027
  868MPD2    H712747   1.195   1.590  13.396 -1.6862  0.0690 -1.2197
  869MPD2     C12748   2.430   4.267   1.379  0.0904  0.2480  0.5224
  869MPD2    C112749   2.321   4.340   1.417  0.4763  0.4625  0.6944
  869MPD2    C212750   2.260   4.418   1.319  0.1730 -0.1932  0.8258
  869MPD2    C312751   2.299   4.430   1.183 -0.0883 -0.5828 -0.1062
  869MPD2    C412752   2.413   4.363   1.150 -0.5391  0.3458  0.6494
  869MPD2    C512753   2.478   4.280   1.246 -0.3926  0.1365 -0.1988
  869MPD2     H12754   2.168   4.469   1.346 -0.0095 -0.2387  0.2879
  869MPD2    H112755   2.449   4.350   1.049  2.1147 -0.6654  1.6945
  869MPD2    H212756   2.491   4.213   1.449 -0.0310  0.2992  0.6681
  869MPD2    H312757   2.556   4.212   1.216 -0.0772  1.1752 -1.7097
  869MPD2     N12758   2.226   4.504   1.085 -0.0456  0.4398 -0.7535
  869MPD2    H512759   2.279   4.545   1.009 -2.0218  0.6650 -2.0198
  869MPD2    N112760   2.288   4.342   1.554 -0.2466 -0.4529 -0.4054
  869MPD2    H712761   2.324   4.271   1.618  0.0275 -0.0327 -0.0925
  870MPD2     C12762   0.994   4.142   1.984 -0.4833 -0.4363  0.3113
  870MPD2    C112763   1.074   4.046   1.928  0.6631 -0.7396  0.1703
  870MPD2    C212764   1.028   3.966   1.825 -0.3405 -0.3384 -0.7545
  870MPD2    C312765   0.898   3.980   1.776 -0.7424  0.4168 -0.2234
  870MPD2    C412766   0.814   4.065   1.837  0.4773  0.1703  0.0778
  870MPD2    C512767   0.867   4.154   1.936  0.2653 -0.5705 -0.0636
  870MPD2     H12768   1.100   3.920   1.759  0.6833  2.2365 -1.4409
  870MPD2    H112769   0.713   4.077   1.799  0.9476  0.1477 -1.2072
  870MPD2    H212770   1.020   4.216   2.058 -1.7054 -0.6268  0.9347
  870MPD2    H312771   0.806   4.233   1.977  1.7069 -0.6184  2.1698
  870MPD2     N12772   0.864   3.895   1.663  0.8382 -0.1318  0.6329
  870MPD2    H512773   0.946   3.845   1.630 -1.0109 -4.5112  2.6297
  870MPD2    N112774   1.210   4.023   1.973 -0.4309 -0.0383 -0.0656
  870MPD2    H712775   1.249   4.101   2.026  0.8629 -0.5879 -0.2029
  871MPD2     C12776   2.644   3.381  16.687  0.1812 -0.2213 -0.3513
  871MPD2    C112777   2.600   3.353  16.819  0.0549 -0.2509  0.2103
  871MPD2    C212778   2.522   3.238  16.836  0.6399 -0.1070  0.7239
  871MPD2    C312779   2.480   3.158  16.728 -0.2425 -0.2107  0.2337
  871MPD2    C412780   2.522   3.192  16.599  0.1452  0.1088  0.5708
  871MPD2    C512781   2.604   3.300  16.586 -0.4214 -0.4565  0.6500
  871MPD2     H12782   2.473   3.222  16.931 -0.4360 -2.1287 -0.1755
  871MPD2    H112783   2.512   3.129  16.512 -0.5942  1.8815 -0.6428
  871MPD2    H212784   2.705   3.470  16.675  0.4516  0.0214  2.7960
  871MPD2    H312785   2.640   3.328  16.488 -1.5554 -1.4333 -0.0315
  871MPD2     N12786   2.398   3.042  16.758 -0.2610  0.6644  0.5634
  871MPD2    H512787   2.382   3.027  16.857  0.2186  1.0656  0.6986
  871MPD2    N112788   2.641   3.435  16.921 -0.3561 -0.4201 -0.3720
  871MPD2    H712789   2.701   3.516  16.905  1.6498 -1.9216 -0.4417
  872MPD2     C12790   3.517   1.082  13.573 -0.1738  0.3824 -0.2863
  872MPD2    C112791   3.614   1.029  13.662 -0.4795  0.0709  0.0017
  872MPD2    C212792   3.573   0.969  13.775  0.0825 -0.3098  0.2858
  872MPD2    C312793   3.436   0.969  13.808  0.1415 -0.7133  0.0044
  872MPD2    C412794   3.349   1.018  13.710 -0.1768 -0.3349  0.1675
  872MPD2    C512795   3.384   1.076  13.601  0.6807 -0.1209  0.3560
  872MPD2     H12796   3.650   0.946  13.849 -0.7169 -1.4125  0.7830
  872MPD2    H112797   3.242   1.016  13.728 -0.2633 -2.0446 -0.5339
  872MPD2    H212798   3.555   1.134  13.486  0.7216  1.2845  0.6323
  872MPD2    H312799   3.303   1.115  13.539  2.6213  2.2224 -0.7049
  872MPD2     N12800   3.382   0.932  13.934 -0.5952  0.5863  0.3238
  872MPD2    H512801   3.282   0.930  13.950 -0.7946  0.4042 -0.9628
  872MPD2    N112802   3.748   1.026  13.612  0.7946 -0.2621  0.1746
  872MPD2    H712803   3.775   1.077  13.529 -0.1432 -0.4506 -0.2433
  873MPD2     C12804   0.766   0.880   0.592  0.2780  0.3775  0.3440
  873MPD2    C112805   0.660   0.882   0.678  0.2604 -0.0845  0.5689
  873MPD2    C212806   0.589   0.765   0.702  0.4944 -0.7804 -0.4785
  873MPD2    C312807   0.614   0.647   0.630 -0.0232  0.2039 -0.4349
  873MPD2    C412808   0.708   0.661   0.532 -0.6081  0.4843 -0.2076
  873MPD2    C512809   0.784   0.771   0.517 -1.0619  1.0505 -0.7642
  873MPD2     H12810   0.516   0.775   0.781  0.9827  0.4534 -0.1695
  873MPD2    H112811   0.737   0.571   0.477 -0.5174  0.5983 -0.3464
  873MPD2    H212812   0.823   0.968   0.563 -0.6421 -0.2528 -3.3069
  873MPD2    H312813   0.864   0.780   0.445 -0.1292  0.3077  0.1700
  873MPD2     N12814   0.544   0.525   0.654 -0.0777 -0.0357 -0.9211
  873MPD2    H512815   0.555   0.454   0.581  1.0304 -0.9708  0.1500
  873MPD2    N112816   0.626   1.005   0.740 -0.2579  0.0295  0.6457
  873MPD2    H712817   0.691   1.079   0.717  0.6050 -0.5331  1.2393
  874MPD2     C12818   0.225   1.277  16.224  0.3150 -0.2328 -0.4401
  874MPD2    C112819   0.284   1.178  16.298  0.1179  0.4731  0.3526
  874MPD2    C212820   0.418   1.184  16.324  0.8383 -0.8460  0.3391
  874MPD2    C312821   0.487   1.297  16.285  0.4677 -0.0856 -0.2452
  874MPD2    C412822   0.433   1.407  16.223 -0.2920  0.1204  0.3741
  874MPD2    C512823   0.303   1.383  16.181 -0.9330 -0.2250  0.0956
  874MPD2     H12824   0.473   1.107  16.377 -1.8519 -2.5544  0.5869
  874MPD2    H112825   0.490   1.497  16.206 -0.5754  0.0405 -0.9500
  874MPD2    H212826   0.124   1.272  16.186  1.5033 -0.5682 -3.5810
  874MPD2    H312827   0.246   1.459  16.129  1.3869  2.7495  1.9321
  874MPD2     N12828   0.624   1.302  16.329  0.1806 -0.0915  0.4360
  874MPD2    H512829   0.648   1.224  16.391 -0.4226  0.4855  1.4039
  874MPD2    N112830   0.206   1.059  16.321 -0.3500  0.3088 -0.1177
  874MPD2    H712831   0.115   1.050  16.277 -0.8254  2.1200  0.4987
  875MPD2     C12832   1.520   4.095  14.875  0.2113  0.2114 -0.7339
  875MPD2    C112833   1.394   4.136  14.933 -0.1280  0.3201 -0.8948
  875MPD2    C212834   1.398   4.222  15.043 -0.1810  0.9652 -0.1935
  875MPD2    C312835   1.518   4.258  15.099 -0.5824 -0.0954 -1.1497
  875MPD2    C412836   1.635   4.204  15.049 -0.0736  0.2730 -0.6205
  875MPD2    C512837   1.642   4.123  14.941  0.3774 -0.9761 -0.5614
  875MPD2     H12838   1.300   4.243  15.083  0.0803 -0.6597  1.2994
  875MPD2    H112839   1.726   4.252  15.083 -1.9339  1.8956  2.0557
  875MPD2    H212840   1.527   4.031  14.787 -2.0542  0.0762 -0.8022
  875MPD2    H312841   1.739   4.092  14.905  0.9973  1.6703 -1.1999
  875MPD2     N12842   1.528   4.338  15.217 -0.3000 -0.1809 -0.5405
  875MPD2    H512843   1.625   4.345  15.246  0.2642 -0.2253 -2.4012
  875MPD2    N112844   1.267   4.101  14.870  0.0717  0.2148 -0.1348
  875MPD2    H712845   1.187   4.137  14.919 -1.5116  0.5275 -2.9372
  876MPD2     C12846   0.196   1.141  15.887  0.0794  0.5113  0.4145
  876MPD2    C112847   0.324   1.102  15.927  0.2945 -0.3062  0.2133
  876MPD2    C212848   0.335   0.984  15.987  0.3129 -0.3227  0.2407
  876MPD2    C312849   0.236   0.892  16.005 -0.3498 -0.5644 -0.0812
  876MPD2    C412850   0.108   0.926  15.971  0.1140 -0.1862 -0.2401
  876MPD2    C512851   0.091   1.056  15.916  0.0963 -0.5257 -0.6442
  876MPD2     H12852   0.430   0.954  16.030  0.6433 -0.6793 -0.7582
  876MPD2    H112853   0.027   0.857  15.992  1.0907 -1.0689  0.6418
  876MPD2    H212854   0.180   1.236  15.837  0.4284  0.8016  0.8579
  876MPD2    H312855   4.717   1.095  15.891 -1.3987 -1.5668  3.6937
  876MPD2     N12856   0.269   0.765  16.065  0.0099 -0.0330  0.3716
  876MPD2    H512857   0.367   0.743  16.081  0.1241  0.8332  0.8821
  876MPD2    N112858   0.433   1.197  15.917  0.2437  0.4714  0.1242
  876MPD2    H712859   0.408   1.284  15.870 -1.0821 -0.0843 -0.1805
  877MPD2     C12860   0.311   1.443  15.414 -0.1193  0.2841 -0.1532
  877MPD2    C112861   0.445   1.441  15.396  0.0995  0.0302  0.4596
  877MPD2    C212862   0.499   1.431  15.269  0.3851 -0.3502 -0.4123
  877MPD2    C312863   0.422   1.432  15.156 -0.1124  0.2466 -0.1826
  877MPD2    C412864   0.287   1.453  15.181 -0.0071  0.4204 -0.0533
  877MPD2    C512865   0.229   1.455  15.303 -0.6532  0.0867 -0.3748
  877MPD2     H12866   0.605   1.419  15.251 -0.3205 -3.4682 -2.4750
  877MPD2    H112867   0.219   1.459  15.097 -1.2095 -0.4691  0.8541
  877MPD2    H212868   0.265   1.448  15.512 -0.0196  0.4370 -0.1144
  877MPD2    H312869   0.123   1.477  15.308 -0.4970  0.5348  0.9649
  877MPD2     N12870   0.468   1.403  15.025 -0.0463 -0.2956  0.1153
  877MPD2    H512871   0.395   1.392  14.955  0.9020 -1.2179 -0.7173
  877MPD2    N112872   0.540   1.440  15.506 -0.2180 -0.4976  0.7518
  877MPD2    H712873   0.637   1.447  15.479 -0.2741 -1.9598  0.1313
  878MPD2     C12874   0.248   4.537  13.002 -0.5379  0.1004  0.2819
  878MPD2    C112875   0.229   4.673  13.014  0.0362 -0.2551  0.0528
  878MPD2    C212876   0.292   0.021  13.111 -0.4339 -0.1577  0.3421
  878MPD2    C312877   0.367   4.672  13.202 -0.4474 -1.4423 -0.5601
  878MPD2    C412878   0.383   4.536  13.186  0.4974 -0.7078  0.7340
  878MPD2    C512879   0.331   4.465  13.085  0.4575 -0.9342 -0.2798
  878MPD2     H12880   0.285   0.129  13.116 -3.4782 -0.3317 -0.1235
  878MPD2    H112881   0.423   4.478  13.268  0.2587 -2.1952 -0.1991
  878MPD2    H212882   0.197   4.474  12.930  0.0057 -0.9487  0.8198
  878MPD2    H312883   0.326   4.357  13.084 -0.0437 -0.9353  2.3526
  878MPD2     N12884   0.423   0.007  13.313  0.7742 -0.3984  0.4969
  878MPD2    H512885   0.388   0.099  13.339 -0.5446 -0.3836 -1.3536
  878MPD2    N112886   0.142   0.005  12.914  0.0355  0.2455  0.5250
  878MPD2    H712887   0.094   4.671  12.846  0.3754 -0.4126  0.8544
  879MPD2     C12888   0.462   0.991  17.459  0.4645 -0.0148  0.6495
  879MPD2    C112889   0.533   1.081  17.378  0.0902 -0.4545 -0.6515
  879MPD2    C212890   0.473   1.126  17.265  0.1959 -0.3394 -0.5850
  879MPD2    C312891   0.338   1.102  17.241  0.2752 -0.1798 -0.3254
  879MPD2    C412892   0.266   1.028  17.330  0.2973  0.9952  0.2203
  879MPD2    C512893   0.327   0.968  17.431  0.2165 -0.0528  0.0253
  879MPD2     H12894   0.526   1.190  17.196 -0.8207 -0.3607 -1.3880
  879MPD2    H112895   0.162   1.003  17.316  0.1021  0.7777  2.1356
  879MPD2    H212896   0.504   0.950  17.551  0.4253 -0.8645  0.2822
  879MPD2    H312897   0.267   0.898  17.488 -0.1340 -0.9458 -1.4324
  879MPD2     N12898   0.265   1.157  17.134  0.0767  0.1076 -0.5178
  879MPD2    H512899   0.170   1.122  17.120 -0.4830  0.6929  1.8337
  879MPD2    N112900   0.667   1.110  17.420  0.0706  0.5335  0.0364
  879MPD2    H712901   0.692   1.073  17.511  1.8013  2.0740  0.1800
  880MPD2     C12902   1.730   3.250   0.240  0.0464 -0.2038  0.3322
  880MPD2    C112903   1.735   3.225   0.374 -0.1843 -0.4918  0.0239
  880MPD2    C212904   1.829   3.132   0.423  0.0041 -0.6806  0.2263
  880MPD2    C312905   1.899   3.054   0.330 -0.0784 -0.1520 -0.1657
  880MPD2    C412906   1.872   3.075   0.194 -0.2519 -0.3454 -0.1625
  880MPD2    C512907   1.799   3.177   0.151 -0.3753  0.4369 -0.3770
  880MPD2     H12908   1.856   3.124   0.528 -2.5108 -0.4632  0.8880
  880MPD2    H112909   1.918   3.017   0.115 -0.4824  1.1122 -1.3715
  880MPD2    H212910   1.669   3.328   0.196 -1.4334 -1.9945 -0.7731
  880MPD2    H312911   1.795   3.201   0.045 -0.7942  0.6195 -0.3211
  880MPD2     N12912   2.006   2.973   0.381 -0.2921  0.0846  0.6643
  880MPD2    H512913   2.003   2.957   0.482  0.0494  0.2111  0.6957
  880MPD2    N112914   1.665   3.320   0.458 -0.0636  0.1005  0.5055
  880MPD2    H712915   1.608   3.389   0.412 -2.3807 -2.8061 -1.0070
  881MPD2     C12916   1.574   4.227   0.235 -0.2160 -0.4615 -0.1565
  881MPD2    C112917   1.683   4.148   0.255  0.1825  0.2635 -0.0676
  881MPD2    C212918   1.669   4.040   0.343 -0.3809  0.4688  0.5878
  881MPD2    C312919   1.546   4.024   0.408  0.6250  0.3101 -0.1382
  881MPD2    C412920   1.441   4.111   0.398 -0.2719 -0.6528  0.1398
  881MPD2    C512921   1.456   4.204   0.303 -0.1890  0.9548  0.0815
  881MPD2     H12922   1.741   3.960   0.356 -0.6741 -0.1815 -1.8821
  881MPD2    H112923   1.349   4.107   0.456  0.3378 -1.8629  1.0421
  881MPD2    H212924   1.567   4.307   0.163  1.7449 -0.7297 -0.6431
  881MPD2    H312925   1.370   4.265   0.276 -0.2752 -0.4711 -2.9566
  881MPD2     N12926   1.528   3.907   0.484  0.1629 -0.3628  0.8693
  881MPD2    H512927   1.432   3.887   0.509  0.4205 -0.8982  1.4134
  881MPD2    N112928   1.787   4.153   0.161 -0.2167 -0.5816 -0.1578
  881MPD2    H712929   1.769   4.216   0.083  0.7450  1.6839  1.4310
  882MPD2     C12930   0.160   0.957  14.455 -0.3234 -0.0161  0.1577
  882MPD2    C112931   0.167   1.041  14.560 -0.0814 -0.2183 -0.1614
  882MPD2    C212932   0.072   1.033  14.660 -0.0535 -0.1934 -0.2613
  882MPD2    C312933   4.700   0.940  14.655 -0.4331 -0.7018  0.0686
  882MPD2    C412934   4.688   0.861  14.540  0.4919 -0.5564 -0.0713
  882MPD2    C512935   0.061   0.868  14.440 -0.1015  0.1262 -0.1141
  882MPD2     H12936   0.076   1.092  14.751 -0.3672  3.2978 -2.5082
  882MPD2    H112937   4.603   0.797  14.523  0.3974 -0.3499 -0.3601
  882MPD2    H212938   0.231   0.960  14.373 -1.2912  4.2561 -0.5267
  882MPD2    H312939   0.065   0.804  14.353 -0.0185 -0.9889  0.7156
  882MPD2     N12940   4.608   0.937  14.758 -0.4939 -0.4023 -0.0348
  882MPD2    H512941   4.642   0.990  14.838 -1.9243  1.7590 -0.8556
  882MPD2    N112942   0.280   1.131  14.568  0.1598 -0.3556  0.7229
  882MPD2    H712943   0.348   1.136  14.493 -0.3486 -1.8882  0.1762
  883MPD2     C12944   2.325   1.233  16.540  0.4004  0.2086 -0.3591
  883MPD2    C112945   2.425   1.201  16.453  0.0133 -0.5764  0.0113
  883MPD2    C212946   2.550   1.214  16.499 -0.4367  0.2654 -0.3578
  883MPD2    C312947   2.583   1.266  16.624  0.7430  0.5616 -0.1693
  883MPD2    C412948   2.477   1.294  16.712  0.9525  0.2948 -0.0373
  883MPD2    C512949   2.350   1.284  16.663  0.6466 -0.0224  0.2246
  883MPD2     H12950   2.630   1.190  16.429 -0.1653 -0.1725  0.0981
  883MPD2    H112951   2.485   1.330  16.814 -1.6265  0.1216  0.2170
  883MPD2    H212952   2.219   1.226  16.517 -0.0342  1.0469  1.4261
  883MPD2    H312953   2.258   1.306  16.716  0.0407  0.2517 -0.9273
  883MPD2     N12954   2.711   1.287  16.659 -0.1689 -0.0081 -0.2013
  883MPD2    H512955   2.779   1.261  16.588 -0.7384 -0.4726 -0.5779
  883MPD2    N112956   2.403   1.186  16.310 -0.3366  0.6168  0.7950
  883MPD2    H712957   2.480   1.187  16.245 -2.1571  1.5624 -1.3468
  884MPD2     C12958   4.171   1.792  15.222  0.4282  0.8577 -0.3737
  884MPD2    C112959   4.144   1.922  15.167  0.3164 -0.4216 -0.3206
  884MPD2    C212960   4.028   1.988  15.208  0.5994  0.0533  0.0450
  884MPD2    C312961   3.934   1.935  15.287 -0.2555  0.4280 -0.2352
  884MPD2    C412962   3.955   1.804  15.336 -0.0270  0.8485 -0.6786
  884MPD2    C512963   4.076   1.735  15.305  0.8557 -0.0220 -0.1744
  884MPD2     H12964   4.019   2.092  15.180 -0.1422 -0.4003 -1.3562
  884MPD2    H112965   3.880   1.752  15.396 -0.2832  0.5858 -1.2170
  884MPD2    H212966   4.265   1.744  15.197 -0.2456 -0.2310 -0.8387
  884MPD2    H312967   4.091   1.635  15.345  1.7788 -1.3331 -3.7534
  884MPD2     N12968   3.808   2.006  15.302 -0.7226  0.0821 -0.3326
  884MPD2    H512969   3.798   2.098  15.260  2.3091  0.2679 -0.6780
  884MPD2    N112970   4.237   2.006  15.095 -0.0371 -0.7641  0.3619
  884MPD2    H712971   4.204   2.102  15.094 -2.3764 -1.5747 -0.6111
  885MPD2     C12972   2.152   1.979  17.653 -0.4812 -0.8696 -0.0442
  885MPD2    C112973   2.278   2.017  17.621 -1.3075 -0.7224 -0.3772
  885MPD2    C212974   2.293   2.083  17.501  0.2935  0.1342 -0.4215
  885MPD2    C312975   2.195   2.094  17.407 -0.2296  0.3177 -0.8255
  885MPD2    C412976   2.072   2.039  17.440 -0.1093 -0.5773  0.5321
  885MPD2    C512977   2.047   1.981  17.566  0.4968 -0.4024  0.5432
  885MPD2     H12978   2.387   2.124  17.466  0.1183 -0.4859 -1.6578
  885MPD2    H112979   1.992   2.042  17.367 -1.2787 -1.3384  1.8044
  885MPD2    H212980   2.140   1.928   0.047  0.2783 -0.6268  0.1835
  885MPD2    H312981   1.948   1.945  17.590 -0.2456 -0.9681 -3.3541
  885MPD2     N12982   2.227   2.145  17.280  0.0844 -0.4794 -0.4843
  885MPD2    H512983   2.324   2.166  17.257  1.2250 -1.9862  2.9242
  885MPD2    N112984   2.379   1.990   0.009  0.2221  0.0800 -0.6122
  885MPD2    H712985   2.351   1.967   0.103 -1.9147 -0.7586 -1.4567
  886MPD2     C12986   3.731   0.459  15.761  0.0049 -0.0839 -0.2797
  886MPD2    C112987   3.726   0.443  15.622 -0.2209 -0.2100 -0.3149
  886MPD2    C212988   3.705   0.551  15.540  0.3733 -0.6307  0.2008
  886MPD2    C312989   3.686   0.674  15.595 -0.8437 -0.4768 -0.6166
  886MPD2    C412990   3.674   0.690  15.732 -0.1090 -0.4547 -0.3855
  886MPD2    C512991   3.695   0.577  15.816  0.2654 -0.6365 -0.1533
  886MPD2     H12992   3.716   0.549  15.432  1.0777 -0.8658  0.2788
  886MPD2    H112993   3.646   0.783  15.778 -2.0289 -2.4200  2.3910
  886MPD2    H212994   3.743   0.368  15.818 -0.8575  0.1485  0.2625
  886MPD2    H312995   3.682   0.598  15.921 -0.6048 -0.1666 -0.3634
  886MPD2     N12996   3.685   0.802  15.529  0.6100  0.0202  0.2276
  886MPD2    H512997   3.691   0.880  15.594 -1.5399  0.9683 -0.7133
  886MPD2    N112998   3.758   0.322  15.555 -0.1441  0.7410 -0.2594
  886MPD2    H712999   3.726   0.319  15.459  1.7519 -0.2778 -0.8558
  887MPD2     C13000   4.248   0.451  15.178  0.5061  0.1556 -0.0677
  887MPD2    C113001   4.212   0.404  15.307  0.8102  0.7138  0.2428
  887MPD2    C213002   4.238   0.484  15.424  0.1336 -0.7081 -0.7976
  887MPD2    C313003   4.299   0.611  15.407 -0.4370 -0.2940  0.1241
  887MPD2    C413004   4.349   0.647  15.282  0.0963 -0.0800 -0.5633
  887MPD2    C513005   4.318   0.569  15.169  0.1197  0.8731  0.0394
  887MPD2     H13006   4.213   0.452  15.524  0.0989  2.6093  0.2465
  887MPD2    H113007   4.412   0.735  15.279 -0.9624  0.6216 -1.9967
  887MPD2    H213008   4.235   0.386  15.093  0.9014  1.3270 -1.0147
  887MPD2    H313009   4.362   0.591  15.073  1.1649 -0.8926  0.1122
  887MPD2     N13010   4.304   0.686  15.523  0.4035 -0.4061  0.2530
  887MPD2    H513011   4.256   0.644  15.601 -1.4411 -0.1127 -0.7180
  887MPD2    N113012   4.149   0.281  15.328 -0.0868 -0.4024 -0.0640
  887MPD2    H713013   4.146   0.256  15.426 -1.4004  0.7089  0.1805
  888MPD2     C13014   1.733   0.515  15.055 -0.8057 -0.4347  0.9134
  888MPD2    C113015   1.692   0.614  15.138 -0.0680 -0.1184 -0.0796
  888MPD2    C213016   1.693   0.745  15.094  0.1691  0.5139  0.7169
  888MPD2    C313017   1.735   0.778  14.959 -0.1440  0.1489  0.3373
  888MPD2    C413018   1.777   0.668  14.878 -0.4061  0.2513  0.5284
  888MPD2    C513019   1.779   0.539  14.928  0.2722  0.8304  0.1792
  888MPD2     H13020   1.658   0.807  15.175 -1.0524 -2.7345  2.6557
  888MPD2    H113021   1.821   0.688  14.781 -1.7795  0.8565  0.0255
  888MPD2    H213022   1.715   0.411  15.081  0.4630 -1.5858 -2.8032
  888MPD2    H313023   1.824   0.457  14.874 -1.0886 -0.4151  0.9270
  888MPD2     N13024   1.748   0.912  14.915  0.3238  0.1180  0.8597
  888MPD2    H513025   1.744   0.984  14.987  1.2775 -0.2176  1.2459
  888MPD2    N113026   1.655   0.595  15.272  0.4369 -0.1619 -0.4959
  888MPD2    H713027   1.620   0.680  15.315 -1.1953  0.1382 -2.4074
  889MPD2     C13028   0.258   0.024  12.497  0.7893  0.1651 -0.0858
  889MPD2    C113029   0.348   4.685  12.583  0.2257 -1.0505 -0.5687
  889MPD2    C213030   0.397   0.039  12.687 -0.4590  0.0737  0.1657
  889MPD2    C313031   0.387   0.177  12.683 -0.0430 -0.1295  0.2495
  889MPD2    C413032   0.326   0.234  12.577 -0.5024  0.0195  0.3662
  889MPD2    C513033   0.258   0.156  12.482  0.5316  0.1135  0.1589
  889MPD2     H13034   0.446   4.717  12.771 -0.2365  2.4830  1.3777
  889MPD2    H113035   0.323   0.342  12.574 -0.3062 -0.0275 -1.5512
  889MPD2    H213036   0.198   4.696  12.425  1.4323  0.0164 -0.5078
  889MPD2    H313037   0.195   0.201  12.406  2.4857 -0.7172 -1.9460
  889MPD2     N13038   0.441   0.245  12.797  0.1061  0.3473 -0.6532
  889MPD2    H513039   0.496   0.186  12.858 -1.5574  0.3050  0.8061
  889MPD2    N113040   0.354   4.545  12.612 -0.4752  0.5337 -0.7982
  889MPD2    H713041   0.409   4.513  12.691 -1.5350 -1.4242 -0.8552
  890MPD2     C13042   4.716   1.856  14.695  0.4326 -0.0065 -0.1336
  890MPD2    C113043   0.050   1.969  14.747  0.2016  0.3795  0.6486
  890MPD2    C213044   0.096   1.965  14.874  0.6153  0.0355 -0.2507
  890MPD2    C313045   0.085   1.855  14.959  0.2323 -0.2558 -0.1029
  890MPD2    C413046   0.018   1.748  14.909  0.5242  0.5682  0.2535
  890MPD2    C513047   4.694   1.747  14.780 -0.3256  0.4559  0.3130
  890MPD2     H13048   0.137   2.051  14.925  0.6797  0.2220 -0.6123
  890MPD2    H113049   4.720   1.661  14.970  2.5988  0.5348  0.9958
  890MPD2    H213050   4.677   1.848  14.595  2.6551 -2.0192 -0.8434
  890MPD2    H313051   4.653   1.654  14.743  1.4917 -0.0711 -0.3487
  890MPD2     N13052   0.141   1.861  15.090 -0.2429  0.5262  0.7913
  890MPD2    H513053   0.205   1.939  15.099 -0.9027  1.1551 -0.0660
  890MPD2    N113054   0.061   2.091  14.664  0.2243 -0.0511  0.3190
  890MPD2    H713055   0.030   2.092  14.568 -0.1291 -0.4645  0.4298
  891MPD2     C13056   2.951   4.565  16.876 -0.5390 -0.1699 -0.0635
  891MPD2    C113057   2.881   4.668  16.932 -0.4538 -0.1310  0.4912
  891MPD2    C213058   2.951   0.060  16.955 -0.2453  0.1453  1.0757
  891MPD2    C313059   3.084   0.070  16.923 -0.2173  0.4265  0.4059
  891MPD2    C413060   3.147   4.696  16.868 -0.0845  0.0597 -0.4525
  891MPD2    C513061   3.081   4.580  16.842 -0.3194  0.0566  0.3990
  891MPD2     H13062   2.895   0.146  16.991  0.0513  1.2992 -1.2221
  891MPD2    H113063   3.252   4.691  16.840  0.0022 -1.7187  0.2467
  891MPD2    H213064   2.903   4.470  16.854 -0.8667  0.4289 -1.9767
  891MPD2    H313065   3.134   4.496  16.799  0.1140  0.3553  0.3471
  891MPD2     N13066   3.158   0.185  16.960  0.3344 -1.3471 -0.2994
  891MPD2    H513067   3.102   0.249  17.016 -1.0302 -1.5884 -1.3869
  891MPD2    N113068   2.748   4.651  16.973 -0.7908  0.1636  0.0426
  891MPD2    H713069   2.703   4.569  16.933 -0.1932  0.9864 -2.2667
  892MPD2     C13070   4.195   1.669  14.898  0.7012 -0.3242  0.3486
  892MPD2    C113071   4.114   1.595  14.980 -0.8601 -0.0240  0.2482
  892MPD2    C213072   4.157   1.466  15.012 -0.1742 -0.1659 -0.5136
  892MPD2    C313073   4.282   1.421  14.971  0.9651 -0.1976 -0.0028
  892MPD2    C413074   4.372   1.513  14.927  0.3324 -0.1928  0.3520
  892MPD2    C513075   4.322   1.630  14.891  0.2832 -0.1131  0.1747
  892MPD2     H13076   4.084   1.405  15.064 -1.5599  1.6688 -0.2999
  892MPD2    H113077   4.471   1.479  14.900 -0.7044 -0.8545 -2.6732
  892MPD2    H213078   4.174   1.772  14.869 -0.0863 -1.3646 -2.7264
  892MPD2    H313079   4.388   1.703  14.846  0.3282  0.0878  0.5721
  892MPD2     N13080   4.319   1.286  14.968 -0.1030 -0.2545  0.1153
  892MPD2    H513081   4.415   1.265  14.943  0.1432  1.2248 -0.2024
  892MPD2    N113082   3.983   1.645  14.999 -0.1074 -0.6193  0.2642
  892MPD2    H713083   3.957   1.734  14.958 -0.1931 -0.4315  0.7315
  893MPD2     C13084   1.005   0.467   1.795 -0.0417 -0.3542  0.2443
  893MPD2    C113085   0.974   0.395   1.678 -0.6958  0.6789 -0.5245
  893MPD2    C213086   0.849   0.402   1.615  0.5683  0.2613  0.7584
  893MPD2    C313087   0.748   0.477   1.679 -0.5810  0.2285 -0.3154
  893MPD2    C413088   0.783   0.537   1.800 -0.2441  0.4798 -0.1800
  893MPD2    C513089   0.903   0.531   1.859  0.4792 -0.0316 -0.4357
  893MPD2     H13090   0.829   0.349   1.522  2.7610 -0.6134  0.7762
  893MPD2    H113091   0.704   0.594   1.848  0.9328 -1.8215  4.5250
  893MPD2    H213092   1.101   0.469   1.846  0.3591 -0.7226 -0.5006
  893MPD2    H313093   0.922   0.593   1.946 -0.6350  1.2124 -1.0866
  893MPD2     N13094   0.609   0.480   1.636  0.5456 -0.4058 -0.1229
  893MPD2    H513095   0.540   0.525   1.695  2.7120  1.4785  0.9695
  893MPD2    N113096   1.086   0.327   1.616 -0.4512 -0.6214 -0.1121
  893MPD2    H713097   1.175   0.345   1.662 -0.8351 -0.0413  0.4063
  894MPD2     C13098   4.014   2.046   0.611  0.0330 -0.9277  0.5275
  894MPD2    C113099   4.031   2.067   0.747  0.4356 -0.6445 -0.3880
  894MPD2    C213100   4.073   2.196   0.789 -0.4304 -0.2415 -0.0760
  894MPD2    C313101   4.091   2.309   0.697  0.2702 -0.5016  0.3665
  894MPD2    C413102   4.085   2.274   0.562  0.6951 -0.4117 -0.4212
  894MPD2    C513103   4.050   2.146   0.522 -0.4337 -0.5037  0.3584
  894MPD2     H13104   4.075   2.225   0.893 -0.4839 -0.7057  0.0522
  894MPD2    H113105   4.106   2.342   0.480 -0.9557 -1.1970 -1.5000
  894MPD2    H213106   3.985   1.948   0.575  3.2590 -1.6522 -0.0167
  894MPD2    H313107   4.038   2.130   0.415  2.4091  0.2185 -0.0747
  894MPD2     N13108   4.123   2.432   0.751  0.7589 -0.2317  0.0437
  894MPD2    H513109   4.128   2.435   0.852  0.5316 -0.1335  0.0494
  894MPD2    N113110   3.999   1.972   0.843 -0.3439  0.3745 -1.1325
  894MPD2    H713111   4.027   1.996   0.937 -0.5114 -1.4868 -0.6185
  895MPD2     C13112   3.263   4.449  13.812  0.1590  0.2498 -0.0892
  895MPD2    C113113   3.250   4.509  13.694  0.2471  0.0728  0.0403
  895MPD2    C213114   3.265   4.428  13.580  0.3703  0.4827  0.4073
  895MPD2    C313115   3.294   4.287  13.599  0.1898 -0.0477 -0.1994
  895MPD2    C413116   3.320   4.236  13.723 -0.5964 -0.0929 -0.5777
  895MPD2    C513117   3.299   4.320  13.827 -0.1689  0.5241  0.0130
  895MPD2     H13118   3.242   4.466  13.481  0.7440 -0.8179 -0.1892
  895MPD2    H113119   3.355   4.137  13.751  1.0238  0.5460 -0.3489
  895MPD2    H213120   3.249   4.505  13.904  2.7355  0.4137  0.2160
  895MPD2    H313121   3.309   4.278  13.926  0.5699  0.7222  0.0210
  895MPD2     N13122   3.294   4.198  13.492 -0.2547  0.2304  0.2168
  895MPD2    H513123   3.370   4.132  13.501 -2.0062 -1.7236  0.8251
  895MPD2    N113124   3.207   4.641  13.671  0.1819  0.3881 -0.3726
  895MPD2    H713125   3.214   4.670  13.574  0.1962  5.6199  1.1707
  896MPD2     C13126   0.779   3.137   1.878  0.1523 -0.8441  0.3810
  896MPD2    C113127   0.777   3.105   1.747  0.7669  0.5581  0.5296
  896MPD2    C213128   0.659   3.058   1.695 -0.1087 -0.5090 -0.1652
  896MPD2    C313129   0.544   3.061   1.774 -0.3406 -0.6230 -0.0109
  896MPD2    C413130   0.547   3.096   1.909  0.8563  0.0448 -0.7277
  896MPD2    C513131   0.670   3.136   1.955 -0.0045  0.6256 -0.1275
  896MPD2     H13132   0.649   3.035   1.590 -0.0671  2.3258 -0.7897
  896MPD2    H113133   0.470   3.091   1.984  0.3429  0.0518 -1.2514
  896MPD2    H213134   0.871   3.149   1.933  0.8668 -0.3827 -0.9116
  896MPD2    H313135   0.684   3.152   2.061 -2.1274 -1.3586  0.4565
  896MPD2     N13136   0.425   3.032   1.712  0.4201  0.1132 -0.0276
  896MPD2    H513137   0.435   3.009   1.614 -1.8873  1.3899 -0.5637
  896MPD2    N113138   0.893   3.117   1.671  0.4549  0.9149 -0.4225
  896MPD2    H713139   0.974   3.163   1.713  1.3625  0.0545 -1.2235
  897MPD2     C13140   1.742   4.285  10.875  0.1145 -0.2176  0.1809
  897MPD2    C113141   1.615   4.263  10.823  0.4238  0.3242  0.4192
  897MPD2    C213142   1.507   4.219  10.896  0.4422 -1.0363  0.6938
  897MPD2    C313143   1.526   4.210  11.029  0.0073  0.4155 -1.5948
  897MPD2    C413144   1.655   4.220  11.085 -0.3662  0.0463  0.6338
  897MPD2    C513145   1.764   4.252  11.005  0.1108  0.0057  0.2940
  897MPD2     H13146   1.407   4.216  10.853  0.0753 -0.1765  1.5029
  897MPD2    H113147   1.688   4.217  11.188 -0.9964 -1.1217  0.7955
  897MPD2    H213148   1.826   4.324  10.819 -0.4990  3.0801  1.5533
  897MPD2    H313149   1.861   4.265  11.053 -0.4506  0.8470  1.1979
  897MPD2     N13150   1.405   4.218  11.105 -0.3524 -0.4022  0.6359
  897MPD2    H513151   1.315   4.206  11.059 -1.1487  3.7187  1.1639
  897MPD2    N113152   1.606   4.296  10.682 -0.4444 -0.0119 -0.0099
  897MPD2    H713153   1.692   4.323  10.636 -0.2273 -0.1704  0.3047
  898MPD2     C13154   4.012   0.377   0.159 -0.4045  0.3393 -0.4872
  898MPD2    C113155   4.052   0.508   0.170  0.1950 -0.6785  0.1220
  898MPD2    C213156   4.016   0.590   0.068 -0.0586 -0.3638  0.0163
  898MPD2    C313157   3.945   0.548  17.660  0.0721  0.7927 -0.2775
  898MPD2    C413158   3.918   0.411  17.646 -1.3043 -0.0223  0.4393
  898MPD2    C513159   3.948   0.325   0.048 -0.0392  0.1299 -0.4551
  898MPD2     H13160   4.047   0.694   0.080 -0.1820 -0.3629  0.3294
  898MPD2    H113161   3.875   0.367  17.557 -1.6837  0.0254  0.6011
  898MPD2    H213162   4.048   0.307   0.234 -0.9418  0.1311 -0.4175
  898MPD2    H313163   3.933   0.217   0.044 -1.9760  0.4309 -1.2931
  898MPD2     N13164   3.937   0.649  17.557  0.2801  0.4296  0.0054
  898MPD2    H513165   3.976   0.741  17.574  0.9261 -0.0027  0.8477
  898MPD2    N113166   4.125   0.562   0.281  0.2618 -0.4262  0.6217
  898MPD2    H713167   4.160   0.657   0.269 -0.6974 -0.4592 -2.4888
  899MPD2     C13168   4.274   1.422  17.347 -0.1928  0.1707  0.7238
  899MPD2    C113169   4.360   1.502  17.427 -0.4815 -0.3467 -0.7841
  899MPD2    C213170   4.367   1.464  17.560  0.0279  0.5340  0.4918
  899MPD2    C313171   4.313   1.350  17.602  0.4058  0.0654 -0.4190
  899MPD2    C413172   4.240   1.270  17.519 -0.8624  0.1380 -0.1263
  899MPD2    C513173   4.214   1.304  17.393  0.1547 -0.5584  0.3347
  899MPD2     H13174   4.417   1.532  17.628  2.8016 -0.4350 -0.5625
  899MPD2    H113175   4.194   1.178  17.554 -1.8959  1.5962  2.3230
  899MPD2    H213176   4.276   1.452  17.243  0.4807  1.3664  1.0799
  899MPD2    H313177   4.158   1.241  17.324 -0.9955  0.9406 -0.1076
  899MPD2     N13178   4.325   1.293   0.032  0.4291 -0.3005 -0.1227
  899MPD2    H513179   4.291   1.199   0.047 -0.7594  0.0700 -0.5243
  899MPD2    N113180   4.417   1.613  17.364 -0.0838  0.4324 -0.5938
  899MPD2    H713181   4.394   1.630  17.267  0.8643  0.1493 -0.8696
  900MPD2     C13182   4.197   2.974  12.672 -0.7183 -0.8620  0.6579
  900MPD2    C113183   4.119   2.857  12.670 -0.5023 -0.2099  0.2382
  900MPD2    C213184   3.996   2.869  12.601  0.2853 -0.6421  0.3782
  900MPD2    C313185   3.941   2.989  12.558 -0.4173  0.4417 -0.3181
  900MPD2    C413186   4.015   3.103  12.568 -0.3585 -0.3385 -0.1429
  900MPD2    C513187   4.142   3.088  12.615  0.1218  0.6760  1.0988
  900MPD2     H13188   3.935   2.779  12.600  1.2390 -1.2760 -0.3935
  900MPD2    H113189   3.978   3.202  12.546 -0.5393 -0.4157 -0.1856
  900MPD2    H213190   4.296   2.969  12.715 -0.6188  1.6591  0.7053
  900MPD2    H313191   4.197   3.180  12.627 -0.3213  1.0466  0.2452
  900MPD2     N13192   3.806   2.978  12.498 -0.7090 -0.6224  0.0466
  900MPD2    H513193   3.753   2.892  12.508 -1.4576 -0.2029 -0.4035
  900MPD2    N113194   4.172   2.739  12.731 -0.6425 -0.6411  0.2932
  900MPD2    H713195   4.249   2.753  12.796  0.3983  0.2794 -1.1586
  901MPD2     C13196   4.013   1.665  12.863  0.3758  0.0698 -0.2856
  901MPD2    C113197   4.133   1.679  12.808 -0.4161 -0.8903 -0.0713
  901MPD2    C213198   4.186   1.809  12.795  0.1759 -0.2097 -0.1823
  901MPD2    C313199   4.123   1.921  12.841  0.2024 -0.1918  0.1616
  901MPD2    C413200   4.002   1.906  12.909 -0.5634  0.3846  0.0023
  901MPD2    C513201   3.953   1.776  12.919  0.2084  0.0375 -0.2208
  901MPD2     H13202   4.285   1.816  12.750  0.6822  0.5840  1.0468
  901MPD2    H113203   3.953   1.992  12.955  0.6633  1.4042 -0.5957
  901MPD2    H213204   3.973   1.566  12.883  0.2014  0.3191  0.5983
  901MPD2    H313205   3.865   1.752  12.978 -0.0803  0.6464 -0.4137
  901MPD2     N13206   4.180   2.048  12.824 -0.1550  0.3655 -1.0700
  901MPD2    H513207   4.274   2.061  12.787  0.6762  0.4076  1.0597
  901MPD2    N113208   4.178   1.563  12.747 -0.5424  0.1667  0.4038
  901MPD2    H713209   4.125   1.476  12.750  1.7015 -1.2133 -0.3001
  902MPD2     C13210   3.093   1.124  13.236 -0.2137  0.3704  0.3200
  902MPD2    C113211   3.033   1.112  13.107  0.7287 -0.4907 -1.0278
  902MPD2    C213212   3.040   0.995  13.037  0.0190  0.3168  0.4270
  902MPD2    C313213   3.114   0.893  13.086 -0.1705 -0.8967 -0.8066
  902MPD2    C413214   3.168   0.899  13.207  0.1046 -0.3079  0.2122
  902MPD2    C513215   3.158   1.015  13.283  0.3493  0.5701 -0.0768
  902MPD2     H13216   3.005   0.986  12.935  2.0034 -2.1339 -0.0664
  902MPD2    H113217   3.242   0.829  13.246  0.3688 -0.2601 -0.2074
  902MPD2    H213218   3.093   1.211  13.301 -0.3404  0.7068 -0.1381
  902MPD2    H313219   3.202   1.029  13.381 -0.2289  0.8186  0.1518
  902MPD2     N13220   3.161   0.794  12.992 -0.1232 -0.3765  0.0493
  902MPD2    H513221   3.124   0.800  12.897  0.7854  0.2782 -0.2624
  902MPD2    N113222   2.966   1.223  13.058  0.2493  0.2467  0.1766
  902MPD2    H713223   2.962   1.309  13.112 -1.6458 -0.2533  0.8416
  903MPD2     C13224   3.312   0.858  12.232 -1.0039 -0.3024 -0.1280
  903MPD2    C113225   3.224   0.833  12.339 -0.1442  0.5658  0.3587
  903MPD2    C213226   3.103   0.899  12.341  0.7629  0.2633 -0.4516
  903MPD2    C313227   3.076   0.996  12.241 -0.1831  0.1686  0.2904
  903MPD2    C413228   3.170   1.024  12.144 -0.3031 -0.3327 -0.3884
  903MPD2    C513229   3.281   0.954  12.135  0.4005 -0.4524  0.6948
  903MPD2     H13230   3.032   0.894  12.423  1.1448  4.6049  0.1030
  903MPD2    H113231   3.145   1.100  12.070 -0.4240 -0.8608 -0.8875
  903MPD2    H213232   3.414   0.822  12.231 -0.8141  0.1825  1.4745
  903MPD2    H313233   3.353   0.976  12.057 -2.0120  1.6005 -0.9369
  903MPD2     N13234   2.953   1.051  12.252  0.2534  0.3021  0.2816
  903MPD2    H513235   2.898   1.028  12.335 -2.8652 -0.4249 -1.9935
  903MPD2    N113236   3.268   0.735  12.436  0.0329 -0.3811 -0.4250
  903MPD2    H713237   3.367   0.718  12.451 -0.0978 -0.0728  0.8243
  904MPD2     C13238   3.305   4.241  14.269  0.2577 -0.0733 -0.0515
  904MPD2    C113239   3.297   4.378  14.254  0.2489 -0.4932  0.0459
  904MPD2    C213240   3.402   4.458  14.290 -0.0077 -0.4007  0.2170
  904MPD2    C313241   3.522   4.401  14.323 -0.1536 -0.7522 -0.4763
  904MPD2    C413242   3.532   4.267  14.336  0.6507  0.2146  0.1451
  904MPD2    C513243   3.424   4.193  14.313  0.1252 -0.2257 -0.3458
  904MPD2     H13244   3.381   4.564  14.288 -0.0257 -0.4034  0.2492
  904MPD2    H113245   3.628   4.225  14.366  0.1888 -0.6693  0.3935
  904MPD2    H213246   3.221   4.178  14.241 -0.7689  0.0084  2.8159
  904MPD2    H313247   3.435   4.088  14.338  0.5803  0.1623  1.0772
  904MPD2     N13248   3.642   4.473  14.357 -0.5206 -0.1964 -0.0783
  904MPD2    H513249   3.724   4.428  14.395 -1.5750 -0.4513  1.9245
  904MPD2    N113250   3.177   4.443  14.206 -0.7543 -0.3204 -0.7420
  904MPD2    H713251   3.178   4.544  14.219  1.1499 -0.4000 -0.2882
  905MPD2     C13252   2.589   0.022  13.565  0.0843 -0.1410  0.3646
  905MPD2    C113253   2.710   4.685  13.589 -0.4939 -0.1105 -0.0632
  905MPD2    C213254   2.790   4.640  13.487 -0.1306  0.1645 -0.6390
  905MPD2    C313255   2.743   4.654  13.357 -0.3442 -0.2160  0.3946
  905MPD2    C413256   2.614   4.707  13.332 -0.4596  0.3023 -0.3201
  905MPD2    C513257   2.539   0.027  13.438 -0.7635 -0.7435 -0.4693
  905MPD2     H13258   2.890   4.603  13.510  0.2721  1.8559  0.2966
  905MPD2    H113259   2.569   4.712  13.234  0.5233 -0.0723 -0.7870
  905MPD2    H213260   2.538   0.073  13.645 -1.7248 -1.4326  0.0416
  905MPD2    H313261   2.453   0.091  13.420 -1.1834 -0.9269  0.8636
  905MPD2     N13262   2.810   4.610  13.238  0.4602  0.2728  0.4337
  905MPD2    H513263   2.759   4.613  13.150  0.5218 -0.3481  0.3768
  905MPD2    N113264   2.740   4.672  13.728 -0.3080  0.0379  0.8360
  905MPD2    H713265   2.680   4.701  13.804 -0.8573  1.3205 -0.0824
  906MPD2     C13266   0.095   4.531  11.408  0.5009  0.3509 -0.6623
  906MPD2    C113267   0.108   4.443  11.300  0.1340  0.5264 -0.6364
  906MPD2    C213268   0.103   4.308  11.325 -0.3019  0.4370 -0.0697
  906MPD2    C313269   0.091   4.253  11.454 -0.1376 -0.2673 -0.4433
  906MPD2    C413270   0.090   4.345  11.563 -0.1583 -0.2260 -0.5314
  906MPD2    C513271   0.089   4.480  11.536  0.6791  0.0839  0.9322
  906MPD2     H13272   0.113   4.240  11.241 -0.1352 -0.9634  1.0889
  906MPD2    H113273   0.090   4.309  11.666 -2.1744 -0.1241 -0.4961
  906MPD2    H213274   0.094   4.639  11.399  1.5108  0.3150 -1.1972
  906MPD2    H313275   0.081   4.546  11.621 -0.9486  1.5602 -0.3719
  906MPD2     N13276   0.089   4.117  11.487 -0.1201 -0.3298  0.2252
  906MPD2    H513277   0.099   4.094  11.585  1.5092  2.3514  0.6916
  906MPD2    N113278   0.131   4.482  11.169  0.0852 -0.1311 -0.1937
  906MPD2    H713279   0.169   4.408  11.111  0.1677 -1.7269  1.8882
  907MPD2     C13280   3.799   4.055  15.956  0.1123 -0.2648  0.7732
  907MPD2    C113281   3.878   3.961  15.895  0.1903 -0.0139 -0.1583
  907MPD2    C213282   4.006   3.942  15.939 -0.1333  0.3453  0.3541
  907MPD2    C313283   4.055   3.998  16.055  0.1329  0.0156  0.2998
  907MPD2    C413284   3.972   4.091  16.121 -0.4727  0.8082 -0.1062
  907MPD2    C513285   3.846   4.112  16.071  0.0044  0.1955  0.5675
  907MPD2     H13286   4.057   3.864  15.883 -0.7599  0.9699 -1.1082
  907MPD2    H113287   3.999   4.136  16.216 -1.2191  0.0527  0.4699
  907MPD2    H213288   3.705   4.086  15.910 -0.2799 -0.6810  1.2938
  907MPD2    H313289   3.785   4.182  16.128  0.6777  1.8034 -0.6796
  907MPD2     N13290   4.176   3.944  16.103  0.1186 -0.4202 -0.3212
  907MPD2    H513291   4.219   3.889  16.029  2.0493  2.5975 -1.4421
  907MPD2    N113292   3.839   3.888  15.777  0.3510  0.3266  0.3034
  907MPD2    H713293   3.905   3.822  15.737  0.0196  1.9527 -2.9853
  908MPD2     C13294   1.293   3.869   9.861  1.1019 -0.7766 -0.0107
  908MPD2    C113295   1.395   3.842   9.952  0.0837  0.1957  0.1960
  908MPD2    C213296   1.430   3.937  10.046  0.6072 -0.2207 -0.5025
  908MPD2    C313297   1.362   4.060  10.047 -0.2816  0.3649 -0.6377
  908MPD2    C413298   1.271   4.086   9.949  0.2322 -0.2341  1.0806
  908MPD2    C513299   1.234   3.991   9.860 -0.6740  0.0882  0.6355
  908MPD2     H13300   1.521   3.925  10.104  1.6396 -0.1397 -2.0964
  908MPD2    H113301   1.225   4.184   9.944 -0.3503 -0.4527  2.2052
  908MPD2    H213302   1.259   3.799   9.786 -1.8061  1.8632 -1.1755
  908MPD2    H313303   1.158   4.024   9.789  0.4709  0.6399 -0.3387
  908MPD2     N13304   1.404   4.153  10.143 -0.2005  0.3086  0.0831
  908MPD2    H513305   1.470   4.114  10.210 -1.8278 -0.0627  1.4598
  908MPD2    N113306   1.473   3.728   9.946  0.0417  0.0232 -0.0398
  908MPD2    H713307   1.559   3.733  10.000 -0.0747 -0.9181  0.2324
  909MPD2     C13308   2.104   2.070  12.011 -0.2747 -0.3119 -0.2820
  909MPD2    C113309   2.108   2.190  11.951  0.0274  0.0876  0.0792
  909MPD2    C213310   2.025   2.286  12.005 -0.4921  0.9464  0.6313
  909MPD2    C313311   1.939   2.271  12.106  0.2899 -0.4714  0.0769
  909MPD2    C413312   1.934   2.145  12.167  0.5790 -0.2837 -0.1570
  909MPD2    C513313   2.018   2.052  12.116 -0.1860 -0.4851 -0.1382
  909MPD2     H13314   2.024   2.381  11.953  1.7649  1.3869  1.4019
  909MPD2    H113315   1.875   2.116  12.253  0.5524  0.2472  0.0074
  909MPD2    H213316   2.163   1.984  11.981 -0.1871 -0.1958 -0.4412
  909MPD2    H313317   2.025   1.953  12.162  2.3269 -0.7255 -1.0244
  909MPD2     N13318   1.862   2.382  12.158 -0.5535 -0.6095 -0.2255
  909MPD2    H513319   1.888   2.467  12.109 -0.3310  0.3947  1.6480
  909MPD2    N113320   2.174   2.221  11.827  0.1107 -0.2024  0.9536
  909MPD2    H713321   2.163   2.314  11.789  0.3357  0.1701  1.7879
  910MPD2     C13322   3.331   4.634  16.506  0.4313  0.8126  0.1547
  910MPD2    C113323   3.404   4.546  16.424 -0.0405  0.6569 -0.8714
  910MPD2    C213324   3.358   4.499  16.300 -0.0056  0.2469  0.3605
  910MPD2    C313325   3.255   4.570  16.244 -0.3408  0.1942 -0.7005
  910MPD2    C413326   3.186   4.665  16.318 -0.4318 -0.9035  0.1880
  910MPD2    C513327   3.225   4.702  16.445  0.3871 -0.4430 -0.0236
  910MPD2     H13328   3.431   4.435  16.252  0.1677  1.5595 -1.1141
  910MPD2    H113329   3.098   4.708  16.270 -0.7165 -1.9738 -0.2441
  910MPD2    H213330   3.364   4.670  16.603 -0.3012  2.2459 -0.1240
  910MPD2    H313331   3.168   0.051  16.499 -0.7271 -0.4992 -1.1302
  910MPD2     N13332   3.213   4.549  16.113  0.4823 -0.0842 -0.4396
  910MPD2    H513333   3.139   4.613  16.085 -0.2369 -0.0668  1.5112
  910MPD2    N113334   3.531   4.500  16.466 -0.1510 -0.4672 -0.3837
  910MPD2    H713335   3.579   4.432  16.409 -1.5873  0.4189 -2.6418
  911MPD2     C13336   1.519   0.737  16.487 -0.2729 -0.0037 -0.2368
  911MPD2    C113337   1.570   0.659  16.391  0.5272 -0.1505 -0.1046
  911MPD2    C213338   1.484   0.634  16.282  0.1599 -0.5751  0.3987
  911MPD2    C313339   1.363   0.691  16.278 -0.9534  0.2610 -0.4673
  911MPD2    C413340   1.317   0.770  16.381 -0.6154  0.2384  0.3165
  911MPD2    C513341   1.393   0.787  16.484  0.5227 -1.1056 -1.3953
  911MPD2     H13342   1.517   0.559  16.211 -1.6344 -1.2212  0.2596
  911MPD2    H113343   1.211   0.793  16.391 -1.4860 -3.4724 -0.3448
  911MPD2    H213344   1.572   0.760  16.579  2.7965  0.4069 -2.1326
  911MPD2    H313345   1.360   0.826  16.579 -1.2861  1.7674 -3.2115
  911MPD2     N13346   1.281   0.676  16.166  0.2848 -0.0383  0.1429
  911MPD2    H513347   1.326   0.619  16.096  0.6445 -0.7003  0.9177
  911MPD2    N113348   1.684   0.582  16.418  0.5049 -0.3419  0.2810
  911MPD2    H713349   1.719   0.597  16.512 -0.2674 -0.5944  0.6102
  912MPD2     C13350   0.986   4.647  16.080 -0.1332 -0.5049  0.1214
  912MPD2    C113351   0.963   0.044  16.138 -0.0585  0.3034  0.4618
  912MPD2    C213352   0.871   0.050  16.240 -0.1464  0.2297 -0.0867
  912MPD2    C313353   0.812   4.661  16.291  0.2257 -0.1401  0.1618
  912MPD2    C413354   0.835   4.542  16.233 -0.3044  0.0152 -0.5479
  912MPD2    C513355   0.918   4.533  16.126 -0.0761  0.5045 -0.5350
  912MPD2     H13356   0.846   0.144  16.289  0.9291  0.3867  0.1746
  912MPD2    H113357   0.780   4.450  16.250 -1.9710  0.9063 -1.1041
  912MPD2    H213358   1.053   4.638  15.996  0.7999 -2.7992  1.1046
  912MPD2    H313359   0.930   4.440  16.072 -0.5808 -0.7676  1.5107
  912MPD2     N13360   0.714   4.686  16.389 -0.2444 -0.8456  0.5756
  912MPD2    H513361   0.698   0.057  16.419 -1.5736 -0.9413  0.1630
  912MPD2    N113362   1.022   0.159  16.087 -0.4581  0.0570 -0.2737
  912MPD2    H713363   1.087   0.143  16.011 -0.5706 -0.7925 -0.1918
  913MPD2     C13364   1.851   1.291  10.517  0.1180 -0.4658 -0.0645
  913MPD2    C113365   1.905   1.403  10.587  1.0174 -0.1709 -0.7474
  913MPD2    C213366   1.998   1.484  10.526  0.8972 -0.1965  0.1062
  913MPD2    C313367   2.050   1.446  10.405  0.2713  0.1706  0.1107
  913MPD2    C413368   2.003   1.333  10.334  0.3773 -0.2658 -0.1501
  913MPD2    C513369   1.894   1.259  10.392  0.3863 -0.3211 -0.1721
  913MPD2     H13370   2.034   1.575  10.572  1.6466 -1.7011  2.4954
  913MPD2    H113371   2.041   1.298  10.238 -0.5679 -1.2570 -0.1636
  913MPD2    H213372   1.764   1.237  10.555 -1.1855  0.7808 -1.2614
  913MPD2    H313373   1.851   1.173  10.341 -1.1313  0.9501 -1.0291
  913MPD2     N13374   2.138   1.539  10.337  0.0636 -0.1065 -0.3054
  913MPD2    H513375   2.150   1.521  10.238 -0.2861  1.3437 -0.6055
  913MPD2    N113376   1.847   1.430  10.716  0.4556  0.1121 -0.1672
  913MPD2    H713377   1.773   1.367  10.745  0.4902  0.9454  1.7053
  914MPD2     C13378   3.795   1.129  12.075 -0.2839 -0.5229  0.1317
  914MPD2    C113379   3.834   1.260  12.086 -0.3158 -0.6111  0.0219
  914MPD2    C213380   3.920   1.290  12.192  0.6631  0.2277  0.0822
  914MPD2    C313381   3.962   1.197  12.285 -0.1596 -0.6247 -0.8580
  914MPD2    C413382   3.909   1.065  12.278  0.3038  0.2201 -0.3995
  914MPD2    C513383   3.825   1.033  12.174 -0.3074  0.1721 -0.1082
  914MPD2     H13384   3.957   1.391  12.206  0.1982  0.1057  2.2416
  914MPD2    H113385   3.948   0.982  12.336  0.7181  0.3329 -0.5151
  914MPD2    H213386   3.733   1.093  11.993 -0.6662 -0.7244  0.5117
  914MPD2    H313387   3.783   0.937  12.148 -0.3434 -0.0506  0.7831
  914MPD2     N13388   4.054   1.241  12.381 -0.3358  0.1280  0.1755
  914MPD2    H513389   4.096   1.334  12.385 -1.1794  0.5235 -0.2006
  914MPD2    N113390   3.810   1.349  11.982  0.3125 -0.0662  0.5869
  914MPD2    H713391   3.865   1.433  11.995  1.3113 -0.7320  0.7124
  915MPD2     C13392   2.834   1.607  15.773 -0.6770  0.9414  0.2245
  915MPD2    C113393   2.717   1.655  15.718 -1.2689  0.5115  0.5059
  915MPD2    C213394   2.645   1.750  15.789  0.0008 -0.5185 -0.0599
  915MPD2    C313395   2.681   1.795  15.918  0.2677  0.4959  0.7583
  915MPD2    C413396   2.802   1.743  15.967  0.4815  0.3967  0.1448
  915MPD2    C513397   2.878   1.667  15.889 -0.0593  0.1297  0.0212
  915MPD2     H13398   2.559   1.800  15.745 -0.9677 -2.2040 -0.0883
  915MPD2    H113399   2.841   1.771  16.065  0.2521 -1.7597  0.8596
  915MPD2    H213400   2.900   1.549  15.709 -1.1384  0.2569  0.3698
  915MPD2    H313401   2.972   1.635  15.932  0.6218  1.5092 -0.4511
  915MPD2     N13402   2.596   1.888  15.991 -0.0878 -0.5732 -0.3187
  915MPD2    H513403   2.509   1.908  15.943 -1.3164 -0.2363  2.0812
  915MPD2    N113404   2.670   1.603  15.603  0.5662  0.1735  0.0449
  915MPD2    H713405   2.716   1.520  15.567  0.0070 -0.6851  1.3065
  916MPD2     C13406   0.752   0.428  15.843 -0.4525 -0.2878  0.2644
  916MPD2    C113407   0.690   0.337  15.921 -0.6183 -0.4353  1.2087
  916MPD2    C213408   0.715   0.204  15.906  0.0374 -0.7134  0.2035
  916MPD2    C313409   0.801   0.161  15.809  0.1153 -0.8329 -0.2811
  916MPD2    C413410   0.872   0.255  15.737 -0.3055 -0.3042 -0.5603
  916MPD2    C513411   0.838   0.387  15.750 -0.3166  0.3747 -0.5896
  916MPD2     H13412   0.660   0.134  15.968  0.5318 -1.1758  0.1226
  916MPD2    H113413   0.948   0.223  15.666  2.8264  0.7563  2.2924
  916MPD2    H213414   0.737   0.534  15.858 -0.9912 -0.3615  0.2423
  916MPD2    H313415   0.896   0.461  15.697  1.1669  0.3277  0.9941
  916MPD2     N13416   0.811   0.021  15.796 -0.2832 -0.1936  0.1217
  916MPD2    H513417   0.756   4.689  15.860  0.0181  0.5557  1.0418
  916MPD2    N113418   0.603   0.392  16.021  0.0673  0.2653  0.5758
  916MPD2    H713419   0.577   0.487  15.999  0.5011  0.3747  0.5373
  917MPD2     C13420   0.800   1.995  11.215  0.1292 -0.2679 -0.0970
  917MPD2    C113421   0.807   2.066  11.334  0.1127  0.8239 -0.1106
  917MPD2    C213422   0.913   2.153  11.354 -0.1638 -0.6344 -0.3230
  917MPD2    C313423   1.004   2.174  11.249 -0.0902 -0.2679 -0.1608
  917MPD2    C413424   0.989   2.103  11.133  0.3985 -0.2348  0.9191
  917MPD2    C513425   0.887   2.015  11.119 -0.6810  0.3234  0.1053
  917MPD2     H13426   0.919   2.211  11.445  1.4010  1.7521 -1.9071
  917MPD2    H113427   1.064   2.110  11.054 -1.5897  1.5547 -0.8182
  917MPD2    H213428   0.731   1.913  11.197 -0.5316  0.2809 -0.0597
  917MPD2    H313429   0.870   1.962  11.025 -1.3910  0.6793  0.0370
  917MPD2     N13430   1.113   2.268  11.252  0.0455 -0.5871 -0.0840
  917MPD2    H513431   1.165   2.267  11.165 -0.5476  1.2100 -0.4637
  917MPD2    N113432   0.697   2.040  11.421 -0.1448 -0.1495 -0.7383
  917MPD2    H713433   0.615   1.999  11.377  0.0135 -3.6238  2.1696
  918MPD2     C13434   0.764   2.234  12.360 -0.1802  0.1842 -0.4391
  918MPD2    C113435   0.851   2.225  12.253 -0.0736 -0.1433  0.2808
  918MPD2    C213436   0.790   2.199  12.135  0.1820  0.5894 -0.1745
  918MPD2    C313437   0.653   2.170  12.118 -0.4588  0.7501  0.4130
  918MPD2    C413438   0.574   2.171  12.231 -0.9020 -0.2907 -0.0254
  918MPD2    C513439   0.631   2.196  12.352 -0.3779  0.0582 -0.7474
  918MPD2     H13440   0.854   2.195  12.048  1.2449 -1.7498  0.7085
  918MPD2    H113441   0.469   2.141  12.233 -1.1005  0.1689 -3.6490
  918MPD2    H213442   0.804   2.253  12.459 -1.7587  1.2465  0.0020
  918MPD2    H313443   0.575   2.214  12.443 -0.0294  0.4753 -0.6140
  918MPD2     N13444   0.609   2.139  11.992  0.1554 -0.2015 -0.8640
  918MPD2    H513445   0.688   2.130  11.928  0.8703  1.4620 -0.2179
  918MPD2    N113446   0.988   2.232  12.259 -0.5309  0.8174  0.3768
  918MPD2    H713447   1.029   2.218  12.167  0.9291  0.2360  1.1033
  919MPD2     C13448   1.281   1.456  11.518 -0.0351  0.2904  0.1083
  919MPD2    C113449   1.313   1.323  11.508  0.1065 -0.1346  0.5153
  919MPD2    C213450   1.338   1.276  11.381  0.4019 -0.2907  0.1490
  919MPD2    C313451   1.328   1.345  11.265 -0.4156 -0.1182 -0.7475
  919MPD2    C413452   1.291   1.479  11.278 -0.3945  0.0658  0.3338
  919MPD2    C513453   1.280   1.534  11.404  0.5699 -0.4891  0.6072
  919MPD2     H13454   1.368   1.172  11.375 -0.2167 -0.3395 -1.9867
  919MPD2    H113455   1.288   1.536  11.186 -1.3869 -1.1878 -0.4186
  919MPD2    H213456   1.238   1.501  11.607 -0.7302 -0.8499  0.3533
  919MPD2    H313457   1.231   1.630  11.402  0.9249 -0.3556 -2.5463
  919MPD2     N13458   1.357   1.291  11.140 -0.0447 -0.3661  0.5934
  919MPD2    H513459   1.345   1.354  11.062 -0.3975  2.9156  3.3173
  919MPD2    N113460   1.309   1.226  11.606 -0.2156  0.0996  0.0106
  919MPD2    H713461   1.327   1.131  11.576 -1.7308  0.1682 -1.0824
  920MPD2     C13462   1.419   1.511  10.207  0.3570 -0.6673 -0.3793
  920MPD2    C113463   1.295   1.451  10.245 -0.0452  0.1292  0.7078
  920MPD2    C213464   1.295   1.391  10.373 -0.8327 -0.2932 -0.0850
  920MPD2    C313465   1.406   1.377  10.453  0.5637 -0.1755  0.2183
  920MPD2    C413466   1.519   1.456  10.421 -0.6421 -0.7066  0.4199
  920MPD2    C513467   1.522   1.518  10.297  0.3376 -0.4712  0.1105
  920MPD2     H13468   1.198   1.347  10.389 -0.8219 -1.1475 -2.3194
  920MPD2    H113469   1.608   1.450  10.483 -0.1220 -1.3202 -0.3723
  920MPD2    H213470   1.444   1.546  10.108  0.7489 -2.8225 -1.0370
  920MPD2    H313471   1.617   1.559  10.265 -0.4087  0.5182 -0.8756
  920MPD2     N13472   1.399   1.285  10.560 -0.2541 -0.5649  0.1559
  920MPD2    H513473   1.311   1.235  10.564  0.9184 -2.6055 -0.0603
  920MPD2    N113474   1.185   1.432  10.159  0.0157 -0.4801  0.5837
  920MPD2    H713475   1.100   1.390  10.196  0.4172 -0.6662  1.2987
  921MPD2     C13476   2.441   0.578  16.928 -0.0691  0.1113  0.1696
  921MPD2    C113477   2.357   0.480  16.963  0.5760 -0.4542  0.1027
  921MPD2    C213478   2.245   0.452  16.896  0.0330  0.2524  0.9821
  921MPD2    C313479   2.215   0.527  16.783  0.1954 -0.2284 -0.1778
  921MPD2    C413480   2.301   0.627  16.739 -0.2674  0.1825 -0.1552
  921MPD2    C513481   2.416   0.649  16.818  0.5792 -0.1804 -0.0416
  921MPD2     H13482   2.176   0.378  16.934 -0.5894  0.4632  0.2851
  921MPD2    H113483   2.283   0.694  16.657  0.7439 -1.5760 -1.8085
  921MPD2    H213484   2.518   0.614  16.996  1.4098 -1.6804 -0.5406
  921MPD2    H313485   2.486   0.722  16.779  1.0701  0.5791  2.2889
  921MPD2     N13486   2.094   0.515  16.705  0.1925 -0.3588 -0.1021
  921MPD2    H513487   2.079   0.579  16.628  2.4852 -2.0911 -1.9481
  921MPD2    N113488   2.401   0.393  17.066  0.1877 -0.4543  0.3268
  921MPD2    H713489   2.502   0.390  17.073  0.0816  0.0893  2.1254
  922MPD2     C13490   3.374   2.896  17.066 -0.3420 -0.3388 -0.5037
  922MPD2    C113491   3.315   3.008  17.115 -0.3891 -0.2174 -0.1157
  922MPD2    C213492   3.237   2.996  17.226 -0.0787  0.1911 -0.6452
  922MPD2    C313493   3.216   2.878  17.289  0.8544  0.1184 -0.3985
  922MPD2    C413494   3.278   2.767  17.236 -0.2655 -0.2023  0.4022
  922MPD2    C513495   3.356   2.774  17.123 -0.3289 -0.4199  0.1407
  922MPD2     H13496   3.200   3.088  17.269  1.8428  1.1385 -1.0013
  922MPD2    H113497   3.270   2.666  17.274 -0.4303 -1.3283 -2.6611
  922MPD2    H213498   3.445   2.902  16.985  1.0040 -0.3300  0.6857
  922MPD2    H313499   3.411   2.687  17.089  0.3996  0.1516 -0.1366
  922MPD2     N13500   3.129   2.875  17.400 -0.0710  0.4372 -0.4390
  922MPD2    H513501   3.086   2.961  17.432  2.1624  1.1300  0.7165
  922MPD2    N113502   3.334   3.136  17.056  0.5878 -0.0862 -0.1435
  922MPD2    H713503   3.294   3.217  17.103 -0.4186 -1.6636  1.7350
  923MPD2     C13504   4.574   4.453   8.910  0.1500 -0.6198 -1.2058
  923MPD2    C113505   4.609   4.519   9.026  0.0804 -0.0556  0.9344
  923MPD2    C213506   4.666   4.439   9.130  0.2559  0.1593  0.1417
  923MPD2    C313507   4.693   4.305   9.112 -0.1472 -0.1258  0.3999
  923MPD2    C413508   4.661   4.246   8.990  0.2222  0.9785  0.3261
  923MPD2    C513509   4.605   4.321   8.894 -0.4735 -0.3705  0.5760
  923MPD2     H13510   4.685   4.475   9.231  4.1588 -0.8163 -0.2435
  923MPD2    H113511   4.682   4.140   8.975  0.6291  1.0014  0.7349
  923MPD2    H213512   4.530   4.507   8.827  0.2147 -1.5130 -1.8161
  923MPD2    H313513   4.576   4.284   8.796  2.7171 -0.6765 -0.2549
  923MPD2     N13514   0.026   4.221   9.216 -0.0010  0.1289 -0.1259
  923MPD2    H513515   0.016   4.121   9.200 -0.9372 -0.4285  3.9518
  923MPD2    N113516   4.577   4.655   9.046 -0.9749 -0.1991  0.9466
  923MPD2    H713517   4.527   4.704   8.973  2.1655  0.7974 -0.5290
  924MPD2     C13518   4.515   3.179  16.645 -0.3577 -0.7823  0.1757
  924MPD2    C113519   4.586   3.289  16.700  0.8393 -0.0508 -0.6170
  924MPD2    C213520   4.587   3.405  16.623  0.6159  0.2227 -0.3296
  924MPD2    C313521   4.520   3.419  16.504 -0.0285  0.4202  0.1062
  924MPD2    C413522   4.449   3.311  16.452  0.8596 -0.1771 -0.0412
  924MPD2    C513523   4.447   3.195  16.526  0.0509 -0.2455 -1.0228
  924MPD2     H13524   4.637   3.494  16.660  0.5942  0.0962 -0.0022
  924MPD2    H113525   4.384   3.315  16.365 -0.8404 -1.5702  1.1800
  924MPD2    H213526   4.509   3.083  16.695  2.0699 -0.9886  0.0779
  924MPD2    H313527   4.386   3.114  16.488 -2.8523  1.4106  0.1259
  924MPD2     N13528   4.518   3.544  16.446 -0.7715 -0.1185 -0.0412
  924MPD2    H513529   4.569   3.616  16.496 -1.4400 -1.5354  2.6438
  924MPD2    N113530   4.656   3.274  16.822  0.4627  0.4581 -0.4290
  924MPD2    H713531   4.673   3.177  16.845 -1.7488  0.2217  0.2857
  925MPD2     C13532   3.342   1.166  14.767  0.3646 -0.3506 -0.1711
  925MPD2    C113533   3.234   1.168  14.675  0.7296  0.4349  0.2761
  925MPD2    C213534   3.114   1.218  14.712  0.2608  0.3634 -0.2029
  925MPD2    C313535   3.094   1.270  14.837 -0.2164 -0.3521 -0.2713
  925MPD2    C413536   3.200   1.269  14.929 -0.4656 -0.1794  0.1267
  925MPD2    C513537   3.323   1.229  14.891  0.8853 -0.4919  0.4871
  925MPD2     H13538   3.026   1.205  14.650 -0.2604 -0.1741  0.6475
  925MPD2    H113539   3.182   1.311  15.027  0.1332  1.3745 -0.4387
  925MPD2    H213540   3.435   1.116  14.743  1.3035 -0.0344  2.6989
  925MPD2    H313541   3.408   1.242  14.956  0.5654  1.8677  0.4137
  925MPD2     N13542   2.964   1.329  14.861 -0.6630  0.1254 -0.1818
  925MPD2    H513543   2.915   1.356  14.777 -0.7969  3.0784  0.8687
  925MPD2    N113544   3.239   1.115  14.541 -0.2791  0.1286 -0.2935
  925MPD2    H713545   3.152   1.105  14.489  1.3924  0.1612 -3.0726
  926MPD2     C13546   1.202   4.107  13.037  0.3619  0.0008  0.0890
  926MPD2    C113547   1.165   4.239  13.065 -0.3032 -0.3279  0.2373
  926MPD2    C213548   1.143   4.333  12.962 -0.3290 -0.0735  0.6428
  926MPD2    C313549   1.174   4.293  12.835 -0.2582 -0.1878  0.1498
  926MPD2    C413550   1.213   4.164  12.805  0.7709 -0.1518  0.1919
  926MPD2    C513551   1.227   4.077  12.905  0.2567  0.2419  0.7487
  926MPD2     H13552   1.096   4.429  12.982  0.8248  0.9875 -1.8185
  926MPD2    H113553   1.244   4.132  12.706 -0.0203 -2.9810  0.8788
  926MPD2    H213554   1.205   4.034  13.117 -3.9444  0.2654  0.4700
  926MPD2    H313555   1.263   3.978  12.879  0.9739  0.6977  0.0249
  926MPD2     N13556   1.142   4.372  12.724 -0.0809  0.1384 -0.0162
  926MPD2    H513557   1.166   4.329  12.635 -0.1147 -2.2422  1.1168
  926MPD2    N113558   1.137   4.296  13.195 -0.5067 -0.2571  0.3508
  926MPD2    H713559   1.125   4.397  13.203 -0.2545 -0.1325 -0.9225
  927MPD2     C13560   1.578   1.700  17.524  0.8574  0.8592  0.5080
  927MPD2    C113561   1.653   1.626  17.607  0.2863 -0.0353 -0.0701
  927MPD2    C213562   1.791   1.617  17.582 -0.0518  0.4139 -0.3708
  927MPD2    C313563   1.838   1.667  17.459 -0.3298 -0.0467  0.8636
  927MPD2    C413564   1.748   1.724  17.368  0.1106  0.0616 -0.5402
  927MPD2    C513565   1.620   1.747  17.404  0.3960  0.2874  0.0397
  927MPD2     H13566   1.851   1.563  17.654 -2.2490 -0.3830  0.8941
  927MPD2    H113567   1.778   1.769  17.274  1.2608 -0.1577 -0.2712
  927MPD2    H213568   1.474   1.723  17.543  0.1283 -1.2374 -0.9368
  927MPD2    H313569   1.555   1.796  17.332 -0.3463  0.7116  0.9993
  927MPD2     N13570   1.971   1.650  17.423 -0.4223  0.0918 -0.1570
  927MPD2    H513571   2.023   1.594  17.491  0.4934  0.1239 -0.8357
  927MPD2    N113572   1.588   1.579   0.025  0.0301  0.3308  0.1282
  927MPD2    H713573   1.488   1.592   0.021 -0.1142 -0.8229  0.2230
  928MPD2     C13574   3.751   0.078   1.042 -0.7015  0.4447  0.1642
  928MPD2    C113575   3.825   0.198   1.053  0.1584 -0.3961  0.2630
  928MPD2    C213576   3.953   0.210   0.993  0.1144 -0.2995  0.9914
  928MPD2    C313577   3.995   0.099   0.924 -0.1612  0.4405  0.0149
  928MPD2    C413578   3.920   4.709   0.922 -0.3304 -0.4200  0.2531
  928MPD2    C513579   3.795   4.699   0.974  1.0694  0.1586 -0.0330
  928MPD2     H13580   4.015   0.297   1.008  0.5107 -0.4625  0.2535
  928MPD2    H113581   3.956   4.621   0.870  0.1448 -0.0516 -0.0379
  928MPD2    H213582   3.658   0.057   1.094 -1.6799 -0.4846 -1.9495
  928MPD2    H313583   3.734   4.609   0.976  0.7556  0.3874  0.5960
  928MPD2     N13584   4.107   0.097   0.844 -0.2069 -0.0062  0.1118
  928MPD2    H513585   4.128   0.007   0.803  0.9910  1.1403 -1.7724
  928MPD2    N113586   3.777   0.308   1.118  0.7488 -0.2028 -0.4221
  928MPD2    H713587   3.836   0.390   1.129 -2.0864  1.9472 -1.0182
  929MPD2     C13588   4.598   4.393  10.496  0.5535 -0.5127 -0.1044
  929MPD2    C113589   4.504   4.294  10.504  0.1157  0.4256  0.8087
  929MPD2    C213590   4.416   4.280  10.402 -0.2000  0.0239 -0.2049
  929MPD2    C313591   4.432   4.354  10.291  0.1947  0.6165 -0.4136
  929MPD2    C413592   4.517   4.453  10.288 -0.6665  0.0456 -0.5370
  929MPD2    C513593   4.611   4.469  10.384  0.2848 -0.5133 -0.0788
  929MPD2     H13594   4.341   4.201  10.408 -0.3812  0.1691 -0.6048
  929MPD2    H113595   4.520   4.519  10.202 -0.5037 -0.3393 -0.8324
  929MPD2    H213596   4.677   4.415  10.567  0.7848 -1.1236 -0.1763
  929MPD2    H313597   4.688   4.544  10.370  0.3349 -1.0011 -2.3960
  929MPD2     N13598   4.336   4.349  10.181  0.6131  0.6543  0.1681
  929MPD2    H513599   4.348   4.419  10.108  1.6011  1.2831  0.9295
  929MPD2    N113600   4.492   4.216  10.622 -0.0065  0.4146 -0.0875
  929MPD2    H713601   4.565   4.227  10.692  1.1610 -0.9910 -1.0789
  930MPD2     C13602   1.156   1.909  14.200 -0.3490  0.1611  0.0672
  930MPD2    C113603   1.260   1.934  14.116 -0.3996 -0.4155  0.3519
  930MPD2    C213604   1.278   1.850  14.000  0.2383 -0.2998  0.1221
  930MPD2    C313605   1.188   1.756  13.970 -0.2052 -0.1067  0.0605
  930MPD2    C413606   1.087   1.732  14.055  0.5415 -0.7193  0.5577
  930MPD2    C513607   1.067   1.807  14.172  0.9314  0.1225 -0.5428
  930MPD2     H13608   1.374   1.851  13.949 -0.3663 -1.2263 -1.0464
  930MPD2    H113609   1.015   1.653  14.039  0.6824 -0.8034  0.3276
  930MPD2    H213610   1.150   1.976  14.285 -0.4778  0.5170 -0.2189
  930MPD2    H313611   0.983   1.782  14.237  1.0862  0.0052 -0.3878
  930MPD2     N13612   1.196   1.674  13.853  0.7726 -0.3291  0.2459
  930MPD2    H513613   1.140   1.589  13.854 -2.2950  1.6974  0.4327
  930MPD2    N113614   1.335   2.050  14.137  0.2834  0.2099  0.2757
  930MPD2    H713615   1.326   2.101  14.224 -0.6304 -0.7998  0.7764
  931MPD2     C13616   1.941   1.260   0.645 -0.2721  0.2702 -0.5487
  931MPD2    C113617   1.807   1.284   0.668  0.2774  0.4234  0.5621
  931MPD2    C213618   1.754   1.236   0.788 -0.0476 -0.2826  0.3008
  931MPD2    C313619   1.820   1.138   0.865 -0.6095 -0.7527 -0.1378
  931MPD2    C413620   1.950   1.113   0.831 -0.5451 -0.9168 -0.4794
  931MPD2    C513621   2.009   1.181   0.727  0.0440 -0.2940  0.4375
  931MPD2     H13622   1.648   1.256   0.797  0.0267 -0.1040  0.7889
  931MPD2    H113623   2.007   1.042   0.890  1.6866  0.5315 -0.9122
  931MPD2    H213624   2.005   1.305   0.570 -1.5698  0.5344 -1.4950
  931MPD2    H313625   2.116   1.170   0.716  0.0726 -0.5512  0.9774
  931MPD2     N13626   1.764   1.071   0.975  0.5215  0.2927  0.1997
  931MPD2    H513627   1.816   1.001   1.026  1.2872  0.7661  0.0601
  931MPD2    N113628   1.746   1.367   0.576  0.4252  0.9948  0.5719
  931MPD2    H713629   1.803   1.379   0.493 -0.3220 -0.9007 -0.2278
  932MPD2     C13630   3.201   0.402  11.255 -0.2923  0.7646  0.7210
  932MPD2    C113631   3.223   0.491  11.359 -0.3644 -0.6987  0.6541
  932MPD2    C213632   3.299   0.456  11.468  0.2680 -0.9857 -0.2954
  932MPD2    C313633   3.338   0.322  11.485  0.1489  0.0779 -0.4766
  932MPD2    C413634   3.322   0.234  11.383  0.4033 -0.2511 -0.0431
  932MPD2    C513635   3.250   0.269  11.270 -0.0266  0.5434  0.4158
  932MPD2     H13636   3.318   0.525  11.550  1.0378  0.7556 -1.9369
  932MPD2    H113637   3.362   0.134  11.385 -2.9332 -1.5983  0.2213
  932MPD2    H213638   3.148   0.434  11.166  1.2888 -0.1203 -0.5300
  932MPD2    H313639   3.235   0.204  11.185 -2.6639  1.0984  0.4375
  932MPD2     N13640   3.411   0.267  11.592 -0.1860 -0.0838 -0.4495
  932MPD2    H513641   3.441   0.171  11.581 -0.4077 -0.2410  0.3264
  932MPD2    N113642   3.186   0.620  11.331 -0.5001  0.4720 -0.5462
  932MPD2    H713643   3.158   0.645  11.237 -0.2478  1.3196 -0.3956
  933MPD2     C13644   3.042   0.586   1.258  0.7457 -0.1395 -0.7893
  933MPD2    C113645   3.139   0.677   1.286  0.0152 -0.4271 -1.2931
  933MPD2    C213646   3.101   0.805   1.320  0.0544  0.1322 -0.4572
  933MPD2    C313647   2.968   0.845   1.323  0.2832 -0.3360  0.0974
  933MPD2    C413648   2.867   0.751   1.301  0.2398  0.4962  0.3939
  933MPD2    C513649   2.907   0.627   1.261  0.0484  0.3830  0.0453
  933MPD2     H13650   3.177   0.879   1.342  0.7172 -0.3271 -1.1756
  933MPD2    H113651   2.762   0.779   1.299 -0.2110 -1.4442 -3.5400
  933MPD2    H213652   3.059   0.479   1.248  0.8823 -0.1478 -0.4888
  933MPD2    H313653   2.833   0.550   1.240 -1.2143  1.2324  1.3976
  933MPD2     N13654   2.940   0.972   1.367  0.0251 -0.0175  0.8120
  933MPD2    H513655   3.016   1.033   1.396 -1.1823  1.9498 -0.1790
  933MPD2    N113656   3.274   0.626   1.281  0.0315 -0.1943 -0.1204
  933MPD2    H713657   3.292   0.530   1.254 -0.6583 -0.5697  0.7690
  934MPD2     C13658   0.436   2.780   2.015  0.3148 -0.2060  0.3471
  934MPD2    C113659   0.540   2.708   1.953  0.3316 -0.3927 -0.5544
  934MPD2    C213660   0.511   2.613   1.861  0.3185 -0.0756 -0.2158
  934MPD2    C313661   0.377   2.574   1.840  0.2689  0.3842  0.1018
  934MPD2    C413662   0.277   2.650   1.889 -0.1913  0.0439 -0.3625
  934MPD2    C513663   0.304   2.749   1.986  0.0905  0.2040  0.9016
  934MPD2     H13664   0.591   2.557   1.814  0.4730  0.3456 -0.4570
  934MPD2    H113665   0.173   2.648   1.861  0.0788 -0.4886 -1.3283
  934MPD2    H213666   0.462   2.867   2.075  1.2188 -0.6167  0.5450
  934MPD2    H313667   0.220   2.803   2.027  1.5223  3.1280 -0.0746
  934MPD2     N13668   0.342   2.482   1.741 -0.5041  0.4191  0.6568
  934MPD2    H513669   0.250   2.492   1.699 -1.3963  2.2444  3.0287
  934MPD2    N113670   0.680   2.736   1.968  0.1184 -0.6117 -0.2882
  934MPD2    H713671   0.740   2.710   1.891 -1.7938  0.5059 -2.1550
  935MPD2     C13672   0.753   1.710   1.200 -0.0609  0.3993  0.1121
  935MPD2    C113673   0.657   1.762   1.118 -0.5434 -0.0352  0.5908
  935MPD2    C213674   0.571   1.859   1.170 -0.1386  0.2943  0.5922
  935MPD2    C313675   0.590   1.908   1.295  0.4093  0.3088 -0.0385
  935MPD2    C413676   0.694   1.861   1.371 -0.0876 -0.0600  0.3137
  935MPD2    C513677   0.772   1.764   1.320 -0.7216  0.4615 -0.3830
  935MPD2     H13678   0.492   1.894   1.105 -0.1866 -1.2594 -0.1829
  935MPD2    H113679   0.716   1.892   1.473 -1.6519  0.9039  0.3491
  935MPD2    H213680   0.811   1.622   1.177 -1.0717 -0.4327  0.7632
  935MPD2    H313681   0.839   1.719   1.393  1.1461  1.0888 -1.7249
  935MPD2     N13682   0.502   1.999   1.360 -0.2132  0.2463 -0.2650
  935MPD2    H513683   0.518   2.010   1.460  1.6094 -0.4268 -0.4716
  935MPD2    N113684   0.616   1.698   0.996  0.4385  0.0554  0.2784
  935MPD2    H713685   0.524   1.724   0.961  1.1999  1.3113 -0.7895
  936MPD2     C13686   3.281   4.571  12.576  0.5830  0.7520  0.7703
  936MPD2    C113687   3.305   4.434  12.560  0.2643  0.4633  0.0696
  936MPD2    C213688   3.422   4.394  12.493 -0.1445  0.3474 -0.0305
  936MPD2    C313689   3.517   4.485  12.450 -0.5623  0.4968 -0.3607
  936MPD2    C413690   3.502   4.618  12.488  0.4571 -0.8646  0.0676
  936MPD2    C513691   3.375   4.661  12.536  1.0596  0.0994 -0.7576
  936MPD2     H13692   3.429   4.287  12.477  2.8755  0.5170  0.2542
  936MPD2    H113693   3.574   4.689  12.450 -0.8435  0.2013 -0.4059
  936MPD2    H213694   3.184   4.607  12.607  0.6901 -0.3304  2.3491
  936MPD2    H313695   3.354   0.042  12.538  0.4815  0.0145 -2.2514
  936MPD2     N13696   3.632   4.449  12.371  0.5973 -0.2019  0.8198
  936MPD2    H513697   3.683   4.522  12.324 -0.8507 -0.6969 -1.5012
  936MPD2    N113698   3.216   4.331  12.605 -0.1155 -0.4617 -0.0892
  936MPD2    H713699   3.241   4.236  12.580  1.4821 -0.2199  0.5606
  937MPD2     C13700   1.471   0.521  11.679 -0.1921 -1.0520 -0.2918
  937MPD2    C113701   1.482   0.646  11.629  0.3475  0.3623  0.4100
  937MPD2    C213702   1.529   0.665  11.501 -0.9665 -0.1251 -0.0748
  937MPD2    C313703   1.591   0.558  11.430 -0.4546 -0.2326 -0.1989
  937MPD2    C413704   1.602   0.434  11.495 -0.2576  0.0795 -0.9680
  937MPD2    C513705   1.541   0.420  11.621  0.5862 -0.0116 -0.8636
  937MPD2     H13706   1.527   0.763  11.456  0.5305 -0.8972 -1.8448
  937MPD2    H113707   1.659   0.355  11.448 -0.0749 -0.9640  1.0310
  937MPD2    H213708   1.423   0.509  11.775 -0.6819 -0.2377 -0.4317
  937MPD2    H313709   1.541   0.327  11.676  0.1403  0.9234  0.7099
  937MPD2     N13710   1.643   0.588  11.302  0.4008 -0.4315 -0.3035
  937MPD2    H513711   1.627   0.680  11.264  0.3246 -1.5458 -2.9775
  937MPD2    N113712   1.406   0.753  11.688 -0.1088  0.1643  0.0312
  937MPD2    H713713   1.401   0.833  11.626 -0.9699 -1.3734 -1.9082
  938MPD2     C13714   4.368   2.020   0.608  0.1033  0.5520 -0.2662
  938MPD2    C113715   4.394   2.110   0.717 -0.4443 -0.3252  0.0615
  938MPD2    C213716   4.367   2.075   0.848 -0.0521 -0.2993 -0.0910
  938MPD2    C313717   4.323   1.948   0.879 -0.1192  0.3641  0.2855
  938MPD2    C413718   4.324   1.859   0.769 -0.8906  0.1096  0.1650
  938MPD2    C513719   4.338   1.891   0.639 -0.1815 -0.7845  0.6112
  938MPD2     H13720   4.383   2.148   0.926 -1.0695  1.2542 -1.3328
  938MPD2    H113721   4.304   1.755   0.793  1.4705  0.2455  2.7336
  938MPD2    H213722   4.373   2.050   0.504  0.1956 -2.4366 -1.1305
  938MPD2    H313723   4.310   1.817   0.566  0.0177 -0.7111  0.4602
  938MPD2     N13724   4.289   1.905   1.007  0.7492  0.0897  0.0009
  938MPD2    H513725   4.294   1.805   1.027  2.9432  0.3325  0.6997
  938MPD2    N113726   4.445   2.241   0.698  0.1136 -0.2093  0.1547
  938MPD2    H713727   4.459   2.298   0.780  0.9907 -3.6275  2.3689
  939MPD2     C13728   0.566   3.263   1.022  0.1832  0.0306  0.0178
  939MPD2    C113729   0.697   3.279   1.055 -0.2570  1.1134 -0.2124
  939MPD2    C213730   0.789   3.287   0.948 -0.2131  0.3503  0.1623
  939MPD2    C313731   0.743   3.282   0.817 -0.0202  0.0253 -0.3454
  939MPD2    C413732   0.606   3.274   0.788  0.1766 -1.2263 -0.3392
  939MPD2    C513733   0.519   3.266   0.894  0.8260  0.0559 -0.3927
  939MPD2     H13734   0.896   3.296   0.967 -0.3881  3.1820 -0.1675
  939MPD2    H113735   0.568   3.280   0.687  0.3020  3.7776 -0.0968
  939MPD2    H213736   0.484   3.265   1.093  1.2137  0.1139  1.1999
  939MPD2    H313737   0.413   3.257   0.873  0.6670 -0.6498  0.7195
  939MPD2     N13738   0.822   3.269   0.702  0.0384 -0.2491  0.8091
  939MPD2    H513739   0.917   3.306   0.705 -0.2681  0.5240  1.0346
  939MPD2    N113740   0.717   3.297   1.194  0.4304  1.0386 -0.5855
  939MPD2    H713741   0.638   3.273   1.253  0.0438  0.6421 -1.2737
  940MPD2     C13742   4.029   4.252  13.521 -0.4461  0.2351 -0.1642
  940MPD2    C113743   4.083   4.169  13.619  0.2461 -0.4743 -0.0149
  940MPD2    C213744   4.179   4.077  13.591 -0.8251  0.0766  0.1167
  940MPD2    C313745   4.230   4.072  13.458 -0.3841  0.2676  0.6460
  940MPD2    C413746   4.184   4.160  13.364 -0.1936 -0.1137 -0.0679
  940MPD2    C513747   4.078   4.244  13.394  0.0080  0.3641 -0.2042
  940MPD2     H13748   4.211   4.008  13.668  0.1123  0.9110  0.4820
  940MPD2    H113749   4.221   4.159  13.262 -1.5892 -0.7298 -0.5704
  940MPD2    H213750   3.939   4.310  13.540 -2.2822 -2.3992 -0.6925
  940MPD2    H313751   4.037   4.305  13.315 -0.3422 -1.3455 -1.3594
  940MPD2     N13752   4.326   3.983  13.416 -0.0675 -0.5208 -0.1645
  940MPD2    H513753   4.358   3.990  13.320 -1.1370 -2.1355 -0.6408
  940MPD2    N113754   4.041   4.179  13.757  0.3955  0.0789  0.1150
  940MPD2    H713755   4.083   4.110  13.819 -1.9142 -0.8065  0.6810
  941MPD2     C13756   4.075   2.546   8.932  0.3334  0.1139  0.0515
  941MPD2    C113757   4.176   2.543   9.029 -0.2612 -0.7830 -0.8381
  941MPD2    C213758   4.138   2.512   9.163 -0.1826 -0.4721  0.6014
  941MPD2    C313759   4.008   2.488   9.200 -0.5740 -0.8900  0.5198
  941MPD2    C413760   3.907   2.502   9.106 -0.7159  0.3688 -0.2072
  941MPD2    C513761   3.941   2.527   8.971 -0.0335  0.2768 -0.5281
  941MPD2     H13762   4.212   2.523   9.242  0.8470  1.6905 -0.6459
  941MPD2    H113763   3.804   2.473   9.120 -1.4113  1.7370 -2.4330
  941MPD2    H213764   4.084   2.569   8.826 -0.8468 -0.3292 -0.1472
  941MPD2    H313765   3.862   2.520   8.898  1.8699 -0.3373 -2.5259
  941MPD2     N13766   3.964   2.445   9.319 -0.9777  0.3745  0.3302
  941MPD2    H513767   3.864   2.437   9.338 -0.8847  0.0775  0.7052
  941MPD2    N113768   4.315   2.564   9.002 -0.2093 -0.5417  0.2853
  941MPD2    H713769   4.383   2.553   9.077  1.3370  0.8652 -0.9084
  942MPD2     C13770   3.805   0.406   9.433 -0.2826 -0.5410  0.1429
  942MPD2    C113771   3.896   0.438   9.339  0.0086 -0.3431  0.0406
  942MPD2    C213772   3.977   0.337   9.290 -0.2005 -0.2081  0.4298
  942MPD2    C313773   3.977   0.207   9.347  0.0578  1.0691  0.3068
  942MPD2    C413774   3.882   0.175   9.437 -0.3830  0.4484 -0.3199
  942MPD2    C513775   3.796   0.272   9.482  0.2257 -0.2228 -0.0382
  942MPD2     H13776   4.055   0.352   9.217 -0.1276  2.8929  1.1453
  942MPD2    H113777   3.882   0.075   9.478  1.2709  0.3923 -0.4831
  942MPD2    H213778   3.734   0.483   9.462 -0.3332 -0.2886 -0.6479
  942MPD2    H313779   3.713   0.248   9.549 -0.0763  0.6722 -0.0918
  942MPD2     N13780   4.059   0.102   9.302 -0.2332 -0.3706  0.6321
  942MPD2    H513781   4.072   0.023   9.364 -1.7075 -0.4076  0.8941
  942MPD2    N113782   3.906   0.557   9.284 -0.2263 -0.2151  0.0336
  942MPD2    H713783   3.981   0.565   9.216 -1.0808 -0.8312 -0.9622
  943MPD2     C13784   2.788   3.279  10.438  0.7110  0.6320 -0.1042
  943MPD2    C113785   2.756   3.156  10.498 -0.8291 -0.5914  0.1822
  943MPD2    C213786   2.678   3.147  10.614 -0.6621 -0.0134 -0.2475
  943MPD2    C313787   2.637   3.258  10.681 -0.2688  0.2838 -0.2147
  943MPD2    C413788   2.663   3.376  10.618 -0.7101 -0.5479  0.0065
  943MPD2    C513789   2.732   3.393  10.497  0.3003  0.1869  0.0758
  943MPD2     H13790   2.655   3.046  10.646 -1.7778  0.0304 -0.9135
  943MPD2    H113791   2.623   3.466  10.664  1.5867  0.8703 -0.7268
  943MPD2    H213792   2.831   3.295  10.340  0.0574 -0.8282 -0.6247
  943MPD2    H313793   2.739   3.486  10.441 -1.4401  0.8891  0.9986
  943MPD2     N13794   2.557   3.250  10.806  0.0822 -0.1509  0.5917
  943MPD2    H513795   2.538   3.337  10.855 -0.7996  0.7599 -1.4121
  943MPD2    N113796   2.793   3.038  10.426  0.0614  0.1868  0.1834
  943MPD2    H713797   2.853   3.046  10.345 -0.7663  0.1609 -0.4227
  944MPD2     C13798   2.152   1.413  11.053  0.3171  0.4036 -0.0155
  944MPD2    C113799   2.236   1.500  11.122  0.5298  0.5629 -0.9640
  944MPD2    C213800   2.208   1.528  11.255 -0.2086 -0.3614 -0.1772
  944MPD2    C313801   2.109   1.469  11.327  0.1206 -0.4249 -0.4710
  944MPD2    C413802   2.042   1.373  11.256  0.2190 -0.3768 -0.1311
  944MPD2    C513803   2.059   1.352  11.122 -0.9801  0.0628  0.2558
  944MPD2     H13804   2.262   1.609  11.303 -0.1762 -0.5293  0.0695
  944MPD2    H113805   1.964   1.315  11.305 -0.5660  0.9412  0.1529
  944MPD2    H213806   2.169   1.378  10.952 -0.1305  0.6836 -0.1914
  944MPD2    H313807   2.001   1.272  11.078 -0.9624 -1.0511  2.2122
  944MPD2     N13808   2.098   1.489  11.467 -0.2349  0.1187  0.0488
  944MPD2    H513809   2.174   1.517  11.528  0.7186 -0.0188 -1.0706
  944MPD2    N113810   2.349   1.545  11.055 -0.1811  0.2005 -0.1244
  944MPD2    H713811   2.352   1.519  10.957  1.9405 -0.7785  0.1865
    1TCq1    O113812   3.887   3.181  15.024  0.2814  0.4633 -0.3021
    1TCq1    C113813   3.841   3.265  14.925  0.1463 -0.1634 -0.3248
    1TCq1    O213814   3.729   3.310  14.909 -0.2430 -0.0073  0.0696
    1TCq1    C213815   3.963   3.324  14.858 -0.3973  0.1056  0.5386
    1TCq1    C313816   3.946   3.375  14.729 -0.2775  0.7026 -0.0679
    1TCq1    C413817   4.035   3.468  14.674  0.6539  0.9259  0.8504
    1TCq1    C513818   4.149   3.506  14.743 -0.4613  0.1781  0.1176
    1TCq1    C613819   4.169   3.456  14.871  0.6460  0.6465  0.2590
    1TCq1    C713820   4.072   3.370  14.924  0.5535 -0.1638 -0.5066
    1TCq1    C813821   4.293   3.482  14.943  0.0182  0.0964 -0.3352
    1TCq1    O413822   4.289   3.458  15.067 -0.3765  0.0253 -0.5836
    1TCq1    C913823   4.020   3.513  14.537 -0.1348  0.4550  0.3607
    1TCq1    O513824   4.098   3.604  14.503  0.1884 -0.2581  0.4384
    1TCq1    O613825   3.921   3.461  14.473  0.7818  0.3843 -0.5637
    1TCq1    H113826   3.984   3.173  15.019  0.3178 -0.3477  1.8933
    1TCq1    H213827   3.857   3.354  14.670  2.6799 -3.8183 -2.9672
    1TCq1    H313828   4.221   3.570  14.694  0.4043 -0.5780  0.4049
    1TCq1    H413829   4.095   3.324  15.020  1.8306 -2.0968 -1.7452
    2MPD2     C13830   0.066   3.629  14.955  0.1350 -0.6871  0.3314
    2MPD2    C113831   0.011   3.687  14.847 -0.4188 -0.0534 -0.3396
    2MPD2    C213832   4.611   3.657  14.813 -0.1640 -0.3929  0.6960
    2MPD2    C313833   4.527   3.582  14.900  0.5753  0.7077  0.0945
    2MPD2    C413834   4.587   3.523  15.008 -0.4256 -0.8700  0.5497
    2MPD2    C513835   4.717   3.539  15.032 -0.3885 -0.0421  0.0690
    2MPD2     H13836   4.564   3.695  14.723 -2.6149 -1.5078  1.5175
    2MPD2    H113837   4.528   3.456  15.070 -0.7931 -1.0169  0.0392
    2MPD2    H213838   0.170   3.644  14.981 -0.2003  1.2235  0.5288
    2MPD2    H313839   0.040   3.489  15.116  0.5308 -0.6188 -0.7873
    2MPD2     N13840   4.391   3.547  14.867 -0.8647 -0.0577  0.3411
    2MPD2    H513841   4.372   3.565  14.769 -0.7503 -0.4573  0.2451
    2MPD2    N113842   0.089   3.791  14.791  0.0032  0.6598  0.8669
    2MPD2    H713843   0.186   3.805  14.820  0.2796 -2.1838  1.2732
    3TMC2    C113844   0.145   3.997  14.689  0.3029 -0.2738  0.7824
    3TMC2    C213845   0.211   4.040  14.798 -0.7421 -0.3979 -0.4081
    3TMC2    C313846   0.309   4.134  14.786 -0.3454 -0.0812  0.0094
    3TMC2    C413847   0.168   4.052  14.570 -0.4423  0.2583 -0.2263
    3TMC2    C513848   0.267   4.152  14.558 -0.9157  0.0977  0.7097
    3TMC2    C613849   0.343   4.185  14.665 -0.6908  0.2960  0.7754
    3TMC2     C13850   0.050   3.882  14.698  0.0483 -0.3885  1.2244
    3TMC2     O13851   4.667   3.888  14.639  0.3209 -0.7197 -0.0805
    3TMC2     H13852   0.186   4.011  14.900  1.0761 -1.2850 -0.2033
    3TMC2    H113853   0.102   4.014  14.492 -0.7673 -0.2045  0.2746
    3TMC2    H213854   0.415   4.266  14.663 -0.8636  0.3879 -1.2503
    3TMC2    C713855   0.348   4.150  14.442 -0.2004 -0.2023  0.3002
    3TMC2    C813856   0.412   4.151  14.889  0.1652  0.1184  0.2544
    3TMC2    O113857   0.470   4.166  14.460 -0.1823 -0.1401  0.3742
    3TMC2    O213858   0.479   4.250  14.911  0.6963  0.2871  0.0081
    3TMC2    O513859   0.435   4.027  14.946 -0.4288  0.2067 -0.2450
    3TMC2    H513860   0.387   3.953  14.905  1.4886 -0.9582 -0.4138
    4MPD2     C13861   4.107   4.607  13.245 -0.2084  0.3184 -0.2002
    4MPD2    C113862   4.173   4.515  13.170  0.2549  0.2389  0.4661
    4MPD2    C213863   4.278   4.447  13.229 -0.6558  0.4990  0.3658
    4MPD2    C313864   4.305   4.470  13.363  0.0100  0.3111 -0.8309
    4MPD2    C413865   4.235   4.558  13.434 -0.0693 -0.2379 -0.0801
    4MPD2    C513866   4.135   4.624  13.375 -0.4306  0.2639 -0.0100
    4MPD2     H13867   4.333   4.371  13.174 -2.8976  0.3411 -1.6481
    4MPD2    H113868   4.255   4.582  13.538  0.4371  0.6330 -0.3849
    4MPD2    H213869   4.029   4.668  13.200  0.7786 -0.5011 -2.9964
    4MPD2    H313870   4.082   4.702  13.429 -1.5981  0.4045 -1.3651
    4MPD2     N13871   4.411   4.394  13.416 -0.3826  0.2038  0.3916
    4MPD2    H513872   4.449   4.323  13.355 -2.8844  0.8162 -1.9051
    4MPD2    N113873   4.119   4.487  13.046 -0.2692  0.1557 -0.1554
    4MPD2    H713874   4.037   4.536  13.011 -0.0651  0.0731 -0.7609
    5TCq2    C113875   4.484   4.421  13.529  0.1973  0.5453  0.2733
    5TCq2    O213876   4.459   4.513  13.606 -0.0181  0.0242 -0.3932
    5TCq2    C213877   4.586   4.315  13.559  0.2306  0.2803 -0.9101
    5TCq2    C313878   4.610   4.211  13.475  0.2519  0.2305 -0.1977
    5TCq2    C413879   4.698   4.112  13.513 -0.4601  0.4141  0.1783
    5TCq2    C513880   0.036   4.113  13.633  0.2045 -0.1372 -0.5903
    5TCq2    C613881   4.720   4.209  13.725  0.1003  0.2054 -0.1466
    5TCq2    C713882   4.648   4.315  13.684 -0.2553  0.0557 -0.2437
    5TCq2    C813883   0.067   4.226  13.853  0.2558  0.2598 -0.4037
    5TCq2    O413884   0.011   4.290  13.942 -0.0514 -0.1839 -0.0635
    5TCq2    C913885   0.001   3.990  13.425  0.0612  0.4949  0.4374
    5TCq2    O513886   0.074   3.901  13.477 -0.4983  0.0444 -0.4808
    5TCq2    O613887   4.674   3.984  13.313  0.0337  0.1973 -0.5529
    5TCq2    H213888   4.544   4.186  13.393 -0.7632  0.3333  0.5974
    5TCq2    H313889   0.099   4.031  13.665  0.6829 -0.1559 -1.5800
    5TCq2    H413890   4.644   4.405  13.745 -1.0508 -1.3555  1.7972
    6MPD1     C13891   3.361   0.343  14.219  0.4290  0.5602  0.0335
    6MPD1    C113892   3.286   0.400  14.118 -0.0184  0.3133  0.2879
    6MPD1    C213893   3.329   0.376  13.989 -0.4950  0.5537  0.3220
    6MPD1    C313894   3.438   0.290  13.964  0.1192  0.3855 -0.7421
    6MPD1    C413895   3.502   0.227  14.061  0.0864 -0.1396  0.0270
    6MPD1    C513896   3.466   0.261  14.192 -0.1846  0.2451  0.5424
    6MPD1     H13897   3.273   0.425  13.911  1.6915  0.6243 -1.1936
    6MPD1    H113898   3.576   0.150  14.044  0.6885  0.3236  0.5485
    6MPD1    H213899   3.335   0.358  14.323  0.4987 -0.3741  0.1919
    6MPD1    H313900   3.531   0.230  14.273  0.2704 -0.5200 -0.1067
    6MPD1     N13901   3.481   0.254  13.830 -0.2937  0.3153  0.0069
    6MPD1    H513902   3.529   0.165  13.818  2.2258  1.5937  0.6308
    6MPD1    N113903   3.196   0.499  14.140  0.7917 -0.1973 -0.2476
    6MPD1    H613904   3.142   0.515  14.056  0.2391 -2.2949 -0.2865
    6MPD1    H713905   3.135   0.480  14.219 -2.9349  0.9376 -2.8828
    7MPD2     C13906   3.375   4.530  13.174  0.8768 -0.1320  0.7786
    7MPD2    C113907   3.503   4.512  13.224 -0.0657 -0.9850 -0.4715
    7MPD2    C213908   3.593   4.428  13.148  0.2301  0.0266 -1.2917
    7MPD2    C313909   3.559   4.379  13.030 -0.2801  0.7218  0.1087
    7MPD2    C413910   3.426   4.385  12.991  0.2361 -0.4574  1.0568
    7MPD2    C513911   3.339   4.461  13.063 -0.0988  0.4083 -0.1641
    7MPD2     H13912   3.698   4.431  13.174  0.2159  0.3937 -1.2711
    7MPD2    H113913   3.391   4.360  12.892 -0.9245  1.6590  0.9154
    7MPD2    H213914   3.290   4.585  13.213  1.3650  1.1872 -0.0050
    7MPD2    H313915   3.241   4.486  13.024  0.1018  1.3288 -0.0697
    7MPD2     N13916   3.648   4.336  12.928  0.3120 -0.1748  0.2985
    7MPD2    H513917   3.614   4.355  12.834  2.8409  2.1695 -0.1401
    7MPD2    N113918   3.549   4.589  13.336 -0.2142 -0.7328  0.5820
    7MPD2    H713919   3.646   4.568  13.358 -0.3904 -0.8617  1.2191
    8TMC3    C113920   3.849   4.310  12.821  0.2288 -0.6488 -0.6191
    8TMC3    C213921   3.976   4.280  12.859  0.0855  0.1186 -0.4273
    8TMC3    C313922   4.068   4.381  12.851  0.1886  0.1372  0.3063
    8TMC3    C413923   3.810   4.423  12.755 -0.7165 -0.0759 -0.1382
    8TMC3    C513924   3.898   4.527  12.772  0.7142 -0.1466 -0.9759
    8TMC3    C613925   4.031   4.505  12.805  0.1742  0.3034  0.3472
    8TMC3     C13926   3.777   4.301  12.949 -0.6517 -0.2261  0.0973
    8TMC3     O13927   3.834   4.282  13.056  0.2048  1.0451 -0.0975
    8TMC3     H13928   4.007   4.183  12.895  1.6496  0.4039 -1.0141
    8TMC3    H113929   3.706   4.439  12.729 -0.8376 -0.9768 -0.2030
    8TMC3    H213930   4.098   4.587  12.828  2.4107 -0.9118 -1.7595
    8TMC3    C713931   3.844   4.628  12.858 -0.3310 -0.4926 -0.5427
    8TMC3    C813932   4.149   4.377  12.969 -0.2652  0.1765  0.5912
    8TMC3    O113933   3.902   4.640  12.967  0.1367  0.6357 -0.6366
    8TMC3    O213934   4.209   4.271  12.989 -0.4550 -0.0618  0.5233
    9TMC3    C113935   3.482   0.247  13.595 -0.0629  0.0329 -0.5170
    9TMC3    C213936   3.531   0.319  13.495 -0.5420 -0.2089 -0.4123
    9TMC3    C313937   3.595   0.260  13.393  0.1185 -0.3809 -0.7734
    9TMC3    C413938   3.482   0.110  13.588 -0.0533  0.0628 -0.3323
    9TMC3    C513939   3.551   0.048  13.490 -0.2950 -0.4835  0.2257
    9TMC3    C613940   3.613   0.122  13.395 -0.4326  0.0915 -0.3840
    9TMC3     C13941   3.451   0.322  13.716  0.1498  0.3979  0.1026
    9TMC3     O13942   3.433   0.444  13.703  0.1315 -0.1130  0.1981
    9TMC3     H13943   3.526   0.427  13.495 -2.1391 -0.2894  0.5239
    9TMC3    H113944   3.438   0.057  13.672  0.3808  1.5830  0.8662
    9TMC3    H213945   3.671   0.073  13.318 -4.7503 -0.1539 -3.4841
    9TMC3    C713946   3.473   4.674  13.418  0.4392  0.6279 -0.1556
    9TMC3    C813947   3.542   0.301  13.266 -0.2716 -0.5382  0.0313
    9TMC3    O113948   3.352   4.696  13.411  0.0694 -0.5803 -0.1065
    9TMC3    O213949   3.422   0.341  13.257 -0.7962  0.1702 -0.3658
   10MPD2     C13950   3.539   0.101  12.801 -0.0005 -0.0492 -0.3965
   10MPD2    C113951   3.656   0.066  12.863 -0.1814  0.2013  1.0150
   10MPD2    C213952   3.677   0.127  12.988 -0.4098  0.4649  0.0571
   10MPD2    C313953   3.584   0.206  13.049 -0.7178 -0.3983 -0.6585
   10MPD2    C413954   3.465   0.230  12.989 -0.1460 -0.2750 -0.3140
   10MPD2    C513955   3.449   0.187  12.857  0.5282  0.6402  0.2776
   10MPD2     H13956   3.768   0.108  13.042 -0.1184  1.7157  0.0074
   10MPD2    H113957   3.390   0.290  13.040 -0.3852 -0.6246 -0.2593
   10MPD2    H213958   3.501   0.058  12.709 -4.1304  0.8062  0.8869
   10MPD2    H313959   3.362   0.210  12.798  0.3242 -1.8634 -0.3934
   10MPD2     N13960   3.623   0.250  13.174 -0.1724  0.2013 -0.4374
   10MPD2    H513961   3.717   0.220  13.200 -0.4518 -0.5870 -0.3357
   10MPD2    N113962   3.739   4.697  12.801  0.5232 -0.1525 -0.3737
   10MPD2    H713963   3.705   4.671  12.708  0.1218  1.5580 -0.7146
   11MPD2     C13964   0.456   4.122  14.168 -0.2699  0.1829  0.0124
   11MPD2    C113965   0.323   4.151  14.196 -0.0027  0.1971 -0.0557
   11MPD2    C213966   0.227   4.163  14.095  0.5034 -0.2322  0.4233
   11MPD2    C313967   0.272   4.148  13.962 -0.0340  0.9001  0.5352
   11MPD2    C413968   0.404   4.115  13.934  0.0404  0.0953 -0.3780
   11MPD2    C513969   0.487   4.105  14.039  0.0224 -0.0827 -0.1130
   11MPD2     H13970   0.123   4.176  14.125  0.2315 -0.9279 -0.2017
   11MPD2    H113971   0.446   4.081  13.839 -1.5253  0.3801 -1.1756
   11MPD2    H213972   0.531   4.097  14.242 -1.5659 -0.0615  1.2453
   11MPD2    H313973   0.588   4.076  14.011 -0.2249 -1.8489  0.8613
   11MPD2     N13974   0.185   4.155  13.851 -0.3702  0.1179  0.6238
   11MPD2    H513975   0.212   4.116  13.762  0.9367 -0.3756  1.2309
   11MPD2    N113976   0.272   4.154  14.329  0.4848  0.6045  0.4407
   11MPD2    H713977   0.172   4.166  14.343  0.0477 -0.4272 -1.8184
    1MPD1     C13978   2.623   0.658   0.177  0.5478  0.0017  1.3667
    1MPD1    C113979   2.758   0.684   0.154  0.0574 -0.7645 -0.5851
    1MPD1    C213980   2.812   0.664   0.029  0.2921 -0.2505  0.4742
    1MPD1    C313981   2.731   0.628  17.623 -0.1826 -0.7452  0.0257
    1MPD1    C413982   2.600   0.592  17.649  0.1518  0.4018  0.4710
    1MPD1    C513983   2.546   0.611   0.074 -0.0587  0.3298  0.9510
    1MPD1     H13984   2.917   0.680   0.011  0.4845 -0.8454  1.0721
    1MPD1    H113985   2.523   0.569  17.576 -0.4555 -0.3295  1.3297
    1MPD1    H213986   2.579   0.664   0.275  1.1870  0.2540  1.6374
    1MPD1    H313987   2.443   0.581   0.090 -0.9932  1.6776 -2.5332
    1MPD1     N13988   2.768   0.620  17.488 -0.2749 -0.3667  0.6116
    1MPD1    H513989   2.707   0.572  17.423  1.4397 -1.2948 -0.3308
    1MPD1    N113990   2.841   0.695   0.273 -0.1775  0.7049  0.3708
    1MPD1    H613991   2.791   0.740   0.350 -0.4082  1.3927 -0.1906
    1MPD1    H713992   2.925   0.747   0.249 -0.4042  0.1445 -1.5843
    2MPD1     C13993   3.520   1.107  17.031  1.4739  0.1825 -0.3553
    2MPD1    C113994   3.406   1.162  17.089  0.8136  0.2337  1.1961
    2MPD1    C213995   3.299   1.078  17.117 -0.1233  0.1382 -0.3752
    2MPD1    C313996   3.308   0.946  17.078  0.3554  0.2450  0.1935
    2MPD1    C413997   3.419   0.893  17.008 -0.0461  0.7892  0.2913
    2MPD1    C513998   3.528   0.970  16.991  0.5021 -0.4138 -0.0021
    2MPD1     H13999   3.207   1.105  17.167 -0.1915  0.1624 -0.5145
    2MPD1    H114000   3.421   0.791  16.972  2.0113  1.0827 -0.3950
    2MPD1    H214001   3.616   1.156  17.016  1.6034 -0.4542 -1.6079
    2MPD1    H314002   3.614   0.931  16.937  1.0488 -0.1795  0.7053
    2MPD1     N14003   3.202   0.859  17.111  0.4467 -0.0749 -0.0641
    2MPD1    H514004   3.141   0.907  17.177  1.6602  1.4929 -0.0957
    2MPD1    N114005   3.410   1.292  17.139 -0.3675 -0.3884 -0.2797
    2MPD1    H614006   3.482   1.316  17.207 -1.1975  1.2365  0.0248
    2MPD1    H714007   3.327   1.338  17.177  0.2815 -1.4027  2.3588
    3TMC3    C114008   3.054   0.682  17.117  0.1344  0.0733  0.1573
    3TMC3    C214009   2.978   0.595  17.044 -0.1288 -0.5092 -0.0517
    3TMC3    C314010   2.862   0.547  17.094  0.1378  0.6108 -0.2512
    3TMC3    C414011   3.032   0.699  17.254  0.1514 -0.3355  0.1131
    3TMC3    C514012   2.920   0.631  17.311 -0.3982  0.0423  0.3861
    3TMC3    C614013   2.832   0.564  17.229  0.1542  0.3013 -0.5849
    3TMC3     C14014   3.173   0.740  17.058 -0.4201 -0.2695 -0.6348
    3TMC3     O14015   3.214   0.690  16.958 -0.0374  0.4301 -0.4788
    3TMC3     H14016   3.007   0.568  16.943  0.9850  1.1367 -0.1764
    3TMC3    H114017   3.108   0.754  17.309 -0.5584 -0.8904  1.6447
    3TMC3    H214018   2.736   0.532  17.267  0.9472 -2.1740 -0.6909
    3TMC3    C714019   2.877   0.685  17.440 -0.8614 -0.1430 -0.0674
    3TMC3    C814020   2.773   0.462  17.011  0.3804  0.3412  1.5542
    3TMC3    O114021   2.954   0.765  17.496 -0.6140  0.8443  0.1584
    3TMC3    O214022   2.691   0.386  17.065 -0.4741  0.2042 -0.3877
    4MPD1     C14023   2.584   0.240  16.568  0.3334  0.5452  0.4768
    4MPD1    C114024   2.645   0.356  16.533 -0.5132  0.6011 -0.2943
    4MPD1    C214025   2.696   0.436  16.635  0.2917  0.0030 -0.7899
    4MPD1    C314026   2.705   0.394  16.772  0.3456 -0.5268 -0.2208
    4MPD1    C414027   2.647   0.275  16.800  0.4327 -0.3837 -0.5361
    4MPD1    C514028   2.587   0.200  16.700  0.1064 -0.0086 -0.2689
    4MPD1     H14029   2.741   0.533  16.614  2.6792 -0.6577  1.3475
    4MPD1    H114030   2.648   0.238  16.902 -1.1028  1.1874  0.0404
    4MPD1    H214031   2.541   0.182  16.488  0.9262  1.8284 -0.7618
    4MPD1    H314032   2.538   0.108  16.730  0.9032 -0.3179  0.0917
    4MPD1     N14033   2.773   0.478  16.871  0.3279 -0.2854  0.3325
    4MPD1    H514034   2.807   0.566  16.833 -1.7982  0.4416  0.1287
    4MPD1    N114035   2.632   0.395  16.398  0.0457 -0.0574  0.1032
    4MPD1    H614036   2.632   0.319  16.330 -1.0746 -1.6259  1.8452
    4MPD1    H714037   2.702   0.464  16.373 -1.8491  0.7245 -3.1483
    1TCq1    O114038   4.277   3.923  12.101 -0.3725  0.2338 -0.0016
    1TCq1    C114039   4.185   3.964  12.182 -0.6990 -0.5974 -0.5016
    1TCq1    O214040   4.222   4.015  12.287  0.4790 -0.0338  0.2641
    1TCq1    C214041   4.119   4.051  12.084  0.1169  0.5548  0.5560
    1TCq1    C314042   4.095   4.001  11.962  0.3589 -0.2451  0.8370
    1TCq1    C414043   4.086   4.083  11.854 -0.1818  0.3352 -1.4651
    1TCq1    C514044   4.128   4.206  11.863 -0.3672  0.3602  0.3068
    1TCq1    C614045   4.152   4.269  11.986  0.5134  1.1665  0.1810
    1TCq1    C714046   4.154   4.188  12.097  0.1086 -0.3196  0.4361
    1TCq1    C814047   4.217   4.394  11.998 -0.1480  1.0127 -0.5340
    1TCq1    O414048   4.284   4.413  12.100  0.4118  0.2063  0.0435
    1TCq1    C914049   4.082   4.025  11.722  0.3681  0.5319 -0.3510
    1TCq1    O514050   4.027   4.085  11.629 -0.1889  0.3695 -0.1316
    1TCq1    O614051   4.117   3.903  11.710 -0.7078 -0.0638  0.5841
    1TCq1    H114052   4.251   3.856  12.034  4.3435 -1.2635 -0.3601
    1TCq1    H214053   4.063   3.897  11.957  1.2721 -0.5090  0.5185
    1TCq1    H314054   4.144   4.262  11.771 -1.0067 -2.6642 -1.6164
    1TCq1    H414055   4.185   4.223  12.195 -1.8849 -0.3433  1.0816
    2MPD1     C14056   4.310   0.144  11.848  0.1671  1.0585  0.4866
    2MPD1    C114057   4.284   0.073  11.730  0.3233  0.4716  0.1195
    2MPD1    C214058   4.246   4.665  11.753  0.1679 -0.3894 -0.2284
    2MPD1    C314059   4.250   4.608  11.878  0.8127  0.8851  0.9822
    2MPD1    C414060   4.290   4.675  11.990 -0.1212 -0.1326  0.1714
    2MPD1    C514061   4.316   0.084  11.970  0.2120  0.1394  0.3232
    2MPD1     H14062   4.197   4.617  11.669 -3.2633  0.9226  1.0647
    2MPD1    H114063   4.294   4.628  12.088  0.1247  1.9262  1.1573
    2MPD1    H214064   4.336   0.249  11.839  2.5183  0.3362 -1.3893
    2MPD1    H314065   4.339   0.134  12.063 -0.5258  1.4356 -0.1951
    2MPD1     N14066   4.197   4.478  11.890  0.1110  0.6752  0.2177
    2MPD1    H514067   4.145   4.454  11.807  1.1182  0.2032 -0.2748
    2MPD1    N114068   4.250   0.127  11.604 -0.0737 -0.2713 -0.0291
    2MPD1    H614069   4.264   0.052  11.537 -1.1354 -0.7859  0.3256
    2MPD1    H714070   4.295   0.211  11.567 -0.8640  1.1016  2.0841
    1TCq1    O114071   2.562   4.611   1.255 -0.2649 -0.0730  0.0582
    1TCq1    C114072   2.651   4.548   1.337  0.8487 -0.3591 -0.0383
    1TCq1    O214073   2.670   4.566   1.454  0.2281 -0.0585 -0.5272
    1TCq1    C214074   2.761   4.506   1.256 -1.3574 -0.3171  0.0805
    1TCq1    C314075   2.885   4.516   1.309  0.3828 -0.1050 -0.2903
    1TCq1    C414076   2.994   4.496   1.228 -0.4020 -0.5187  0.3822
    1TCq1    C514077   2.984   4.438   1.103  0.0573  0.5365 -0.5106
    1TCq1    C614078   2.854   4.423   1.062 -0.1671  0.1265 -0.0423
    1TCq1    C714079   2.744   4.454   1.131 -0.0876 -0.1174  0.0840
    1TCq1    C814080   2.834   4.396   0.919  0.7440  0.1529 -0.0676
    1TCq1    O414081   2.723   4.373   0.877  0.0178  0.0517 -0.0456
    1TCq1    C914082   3.125   4.513   1.289  0.2918  0.2882 -0.4022
    1TCq1    O514083   3.135   4.561   1.401 -0.0329 -0.1131  0.6230
    1TCq1    O614084   3.226   4.476   1.219  0.0579  0.0351 -0.1956
    1TCq1    H114085   2.594   4.624   1.163  0.8783  1.3972  0.6817
    1TCq1    H214086   2.905   4.566   1.403 -0.1622  0.6446 -0.5744
    1TCq1    H314087   3.071   4.403   1.048 -0.1177 -0.6508 -0.0320
    1TCq1    H414088   2.646   4.449   1.084 -0.3785 -0.3956  0.7255
    2MPD1     C14089   3.047   4.443   0.449  0.0407 -0.6203  0.1916
    2MPD1    C114090   3.131   4.497   0.543  0.1643  0.5450 -0.1106
    2MPD1    C214091   3.094   4.480   0.672  0.0313 -0.1217  0.7348
    2MPD1    C314092   2.970   4.430   0.716  1.0500 -0.2400  0.0984
    2MPD1    C414093   2.892   4.372   0.619 -0.5727 -0.3365  0.0915
    2MPD1    C514094   2.935   4.378   0.489  0.0986  0.6343 -0.1046
    2MPD1     H14095   3.172   4.505   0.743  2.1136 -0.8525 -1.3047
    2MPD1    H114096   2.797   4.322   0.634 -0.6195 -0.6238 -1.1705
    2MPD1    H214097   3.079   4.436   0.345 -0.8564 -1.0965 -0.0486
    2MPD1    H314098   2.870   4.327   0.420 -0.1428  0.2053  0.4343
    2MPD1     N14099   2.947   4.426   0.848  0.0130  0.5957 -0.2250
    2MPD1    H514100   3.034   4.448   0.897 -1.0128 -0.6752  2.1706
    2MPD1    N114101   3.258   4.545   0.511 -0.4037  0.0034 -0.0389
    2MPD1    H614102   3.289   4.616   0.577  0.7555 -0.3229 -0.2293
    2MPD1    H714103   3.270   4.571   0.413 -0.2774 -1.6041 -0.4512
    1MPD1     C14104   0.085   1.065  11.340 -0.1179  0.0596  0.5919
    1MPD1    C114105   0.165   1.009  11.438 -0.0724 -0.0359 -0.3537
    1MPD1    C214106   0.298   1.041  11.445  0.2039  0.6331 -0.1045
    1MPD1    C314107   0.347   1.150  11.375 -0.0661  0.0336  0.2853
    1MPD1    C414108   0.262   1.216  11.283 -0.1698 -0.4558 -0.2198
    1MPD1    C514109   0.133   1.163  11.266  0.2369  0.1668 -0.0534
    1MPD1     H14110   0.364   0.982  11.507  1.1273  0.5002 -1.2206
    1MPD1    H114111   0.290   1.285  11.204 -0.1637  1.0451  1.0893
    1MPD1    H214112   4.710   1.034  11.312 -0.4322  0.7890  0.9017
    1MPD1    H314113   0.072   1.206  11.187  2.0668  1.0185 -0.9953
    1MPD1     N14114   0.484   1.182  11.389  0.1922 -0.0372 -0.0020
    1MPD1    H514115   0.542   1.132  11.455  1.3286 -1.6049 -2.1939
    1MPD1    N114116   0.125   0.887  11.492 -0.2257 -0.3068  0.7282
    1MPD1    H614117   0.183   0.858  11.571  0.3741  0.4946  0.5832
    1MPD1    H714118   0.032   0.880  11.532 -0.2475 -1.1119  0.5338
    2MPD1     C14119   1.002   3.744  10.576  0.2134  0.0436  0.2793
    2MPD1    C114120   0.882   3.781  10.514  0.6297 -0.3413 -0.3306
    2MPD1    C214121   0.854   3.918  10.515 -0.1992  0.5179  0.6873
    2MPD1    C314122   0.924   4.006  10.594 -0.1382  0.3964  0.0355
    2MPD1    C414123   1.043   3.963  10.660 -0.0564 -0.1718 -0.0415
    2MPD1    C514124   1.081   3.828  10.645 -0.1081 -0.5752 -0.4740
    2MPD1     H14125   0.759   3.947  10.471 -0.7813  0.4770  1.9032
    2MPD1    H114126   1.113   4.018  10.722  1.7834 -1.5386 -0.9266
    2MPD1    H214127   1.044   3.645  10.567  1.2330  0.5685 -0.8601
    2MPD1    H314128   1.175   3.791  10.682  0.1736  0.0804 -0.5341
    2MPD1     N14129   0.891   4.142  10.600 -0.2594  0.4455  0.0558
    2MPD1    H514130   0.940   4.185  10.678  0.2620  2.6138 -1.4599
    2MPD1    N114131   0.817   3.685  10.442 -1.1682 -0.5346 -0.2567
    2MPD1    H614132   0.716   3.693  10.454 -1.2853 -2.1135 -0.1291
    2MPD1    H714133   0.853   3.599  10.483  0.4853 -0.2774 -1.1721
    3MPD1     C14134   0.183   0.238  10.696 -0.5285 -0.4825  0.3823
    3MPD1    C114135   0.298   0.306  10.673 -0.3419  0.6498  0.0349
    3MPD1    C214136   0.401   0.230  10.623 -0.2873  0.3507 -0.1147
    3MPD1    C314137   0.390   0.091  10.614  0.2110 -0.1259 -0.5712
    3MPD1    C414138   0.264   0.033  10.632 -0.1679 -0.0333 -0.7547
    3MPD1    C514139   0.157   0.110  10.668  0.6398  0.2536  0.3644
    3MPD1     H14140   0.500   0.272  10.611  0.8251 -1.8335  1.5026
    3MPD1    H114141   0.242   4.655  10.606  2.6330 -0.4036 -1.7254
    3MPD1    H214142   0.094   0.277  10.741  0.1675  2.7187 -1.0288
    3MPD1    H314143   0.067   0.062  10.706  0.6235  0.7273  0.9248
    3MPD1     N14144   0.505   0.016  10.590  0.2257 -0.2378 -0.3597
    3MPD1    H514145   0.590   0.072  10.585 -0.3657  0.5942 -1.2714
    3MPD1    N114146   0.325   0.426  10.734 -0.1741 -0.0522 -0.4222
    3MPD1    H614147   0.394   0.474  10.677  1.1340  2.2982  3.1553
    3MPD1    H714148   0.239   0.480  10.741  0.8141  1.6311 -1.2791
    4MPD2     C14149   0.993   1.102  10.915  0.1039 -0.7888  0.4504
    4MPD2    C114150   1.011   1.090  11.048  0.0050 -0.3274  0.9324
    4MPD2    C214151   1.066   0.971  11.095 -0.0559  0.2792 -0.7857
    4MPD2    C314152   1.072   0.857  11.015  0.4823  0.1383  0.1512
    4MPD2    C414153   1.046   0.876  10.878  1.0335  0.2378 -0.6012
    4MPD2    C514154   1.020   0.996  10.834 -0.2118 -0.0612  0.4513
    4MPD2     H14155   1.105   0.980  11.196 -1.8911  0.7058 -0.1232
    4MPD2    H114156   1.078   0.800  10.808 -2.2920  0.3474 -2.2166
    4MPD2    H214157   0.959   1.192  10.866  0.5989  0.5063  2.5065
    4MPD2    H314158   1.009   1.009  10.727 -1.9920  0.5062  0.7202
    4MPD2     N14159   1.120   0.733  11.059 -1.1238  0.2548 -0.7475
    4MPD2    H514160   1.132   0.662  10.988 -1.3211  2.4240 -2.9315
    4MPD2    N114161   0.992   1.187  11.148 -0.0040 -0.4513 -0.3618
    4MPD2    H714162   1.019   1.154  11.241  0.2686 -0.9952 -0.6360
    5TMC3    C114163   0.894   1.359  11.251 -0.5539 -0.5423  0.8658
    5TMC3    C214164   0.758   1.355  11.242  0.9351 -0.1146  0.4159
    5TMC3    C314165   0.691   1.290  11.336  1.3840  0.9781 -0.9405
    5TMC3    C414166   0.962   1.305  11.358  0.6668 -0.4943 -0.4027
    5TMC3    C514167   0.886   1.245  11.451  0.4385  0.1231 -0.4857
    5TMC3    C614168   0.751   1.239  11.443  0.2528 -0.0329  0.2792
    5TMC3     C14169   0.947   1.310  11.127  0.2125  0.9748 -0.6747
    5TMC3     O14170   0.909   1.361  11.022  0.2132  0.4793  0.2829
    5TMC3     H14171   0.705   1.378  11.149  1.5978  0.5592  0.2123
    5TMC3    H114172   1.070   1.310  11.360  0.5092  2.8080  0.2491
    5TMC3    H214173   0.690   1.199  11.524 -1.7011  1.5405 -0.4223
    5TMC3    C714174   0.951   1.122  11.490  0.6395  0.1832  0.5109
    5TMC3    C814175   0.548   1.274  11.314  0.8106  0.3757  0.2375
    5TMC3    O114176   1.031   1.079  11.406 -0.9418 -0.5596 -0.4376
    5TMC3    O214177   0.503   1.349  11.231  0.4236 -0.6090  0.2935
    6TMC3    C114178   0.768   4.340  10.572 -0.1706  0.2232 -0.2514
    6TMC3    C214179   0.658   4.413  10.527  0.2346 -0.0826 -0.0196
    6TMC3    C314180   0.647   4.545  10.564 -0.3498 -0.3612 -0.2473
    6TMC3    C414181   0.859   4.402  10.659 -0.2611 -0.1638  0.0767
    6TMC3    C514182   0.843   4.535  10.693 -0.5518  1.0585  0.5394
    6TMC3    C614183   0.732   4.604  10.655  0.6275  0.1068 -0.2341
    6TMC3     C14184   0.788   4.204  10.529  0.1095  0.3335 -0.1352
    6TMC3     O14185   0.689   4.160  10.480 -0.0597 -0.5703 -0.0583
    6TMC3     H14186   0.576   4.366  10.473  0.7923  0.2415 -1.1517
    6TMC3    H114187   0.954   4.352  10.678 -0.2709  0.2237  1.1600
    6TMC3    H214188   0.712   4.706  10.686 -1.6036 -0.1905 -0.6579
    6TMC3    C714189   0.922   4.605  10.793  0.6827 -0.5682 -0.1137
    6TMC3    C814190   0.513   4.598  10.565  0.3970  0.0844  0.5585
    6TMC3    O114191   0.894   4.724  10.817 -0.3579 -0.3851  0.5634
    6TMC3    O214192   0.424   4.518  10.551  0.6649 -0.8707  0.4300
    7MPD2     C14193   1.021   0.687  11.748  0.2196  0.1090  0.1896
    7MPD2    C114194   1.039   0.720  11.614 -0.7286  0.1144  0.4999
    7MPD2    C214195   1.014   0.850  11.568  0.2912  0.2224  0.5114
    7MPD2    C314196   0.957   0.938  11.647 -0.5389  0.5835 -0.1032
    7MPD2    C414197   0.930   0.911  11.785 -0.3241 -0.6385  0.6043
    7MPD2    C514198   0.970   0.783  11.836  0.1498 -0.3115 -0.5072
    7MPD2     H14199   1.036   0.871  11.464 -0.2574  0.5194  0.4535
    7MPD2    H114200   0.890   0.989  11.848 -0.3975  0.1625 -0.4320
    7MPD2    H214201   1.054   0.594  11.791 -1.1649  1.0217  3.2398
    7MPD2    H314202   0.961   0.765  11.943  1.9727 -0.5383 -0.3830
    7MPD2     N14203   0.912   1.064  11.608  0.1251 -0.4196 -0.0556
    7MPD2    H514204   0.858   1.125  11.668 -0.2331 -1.0100  0.2183
    7MPD2    N114205   1.106   0.636  11.523  0.0544  0.0108 -0.7486
    7MPD2    H714206   1.141   0.679  11.438  0.3087 -0.5112 -0.9056
    8TMC3    C114207   1.196   0.451  11.422  0.1519  0.5367  0.5734
    8TMC3    C214208   1.111   0.357  11.360  0.3881  0.5718  0.3519
    8TMC3    C314209   1.085   0.370  11.230 -0.0069  0.8395 -0.0948
    8TMC3    C414210   1.247   0.551  11.342 -0.5950  0.3010 -0.3686
    8TMC3    C514211   1.200   0.572  11.214 -0.0431 -0.0285  0.1668
    8TMC3    C614212   1.112   0.485  11.162  0.2578  0.3954  0.4298
    8TMC3     C14213   1.126   0.500  11.536 -0.7335 -0.2041  0.1954
    8TMC3     O14214   1.067   0.420  11.610 -0.1171  0.1810  0.5133
    8TMC3     H14215   1.061   0.285  11.424  1.8049 -1.2790 -0.6179
    8TMC3    H114216   1.331   0.605  11.386 -1.6347  1.1467  0.5770
    8TMC3    H214217   1.099   0.468  11.055 -1.0809  0.3400  0.5954
    8TMC3    C714218   1.165   0.707  11.188 -0.1300  0.7115 -0.1158
    8TMC3    C814219   1.063   0.250  11.149  0.1332  0.0055  0.4320
    8TMC3    O114220   1.188   0.778  11.284  0.4529  0.1368  0.2456
    8TMC3    O214221   0.986   0.261  11.056 -0.1004  0.2421  0.0705
    9MPD2     C14222   1.293   4.673  11.139 -0.4233 -0.0144  0.6439
    9MPD2    C114223   1.184   0.026  11.103 -0.0189 -1.0183  0.0925
    9MPD2    C214224   1.099   4.708  11.006  0.2897  0.1654  0.0835
    9MPD2    C314225   1.112   4.582  10.946 -0.3098 -0.0365 -0.0775
    9MPD2    C414226   1.224   4.502  10.984  0.4499  0.2475  0.4877
    9MPD2    C514227   1.314   4.552  11.075 -0.2178  0.5192  0.0772
    9MPD2     H14228   1.010   0.043  10.991  2.1225  3.3939  2.2192
    9MPD2    H114229   1.231   4.396  10.960 -1.5145  0.8161 -2.5941
    9MPD2    H214230   1.361   4.706  11.217 -0.2659 -0.1710  0.5736
    9MPD2    H314231   1.386   4.483  11.118 -0.5158  0.9722  1.2822
    9MPD2     N14232   1.024   4.532  10.847 -0.0465  0.1533  0.8143
    9MPD2    H514233   1.038   4.435  10.820  0.2072  1.2787 -3.0641
    9MPD2    N114234   1.154   0.150  11.179  0.8451 -0.0658 -0.0594
    9MPD2    H714235   1.221   0.171  11.253  1.4285 -2.3543  0.0536
    1MPD1     C14236   0.435   0.613   0.234  0.5980 -0.1961 -0.1298
    1MPD1    C114237   0.431   0.488   0.282  0.0730  0.3062 -0.6358
    1MPD1    C214238   0.310   0.416   0.258 -0.6356 -0.0996 -0.0697
    1MPD1    C314239   0.211   0.458   0.171 -0.4903 -0.0238 -0.6427
    1MPD1    C414240   0.221   0.592   0.132 -0.0676  0.4343  0.3569
    1MPD1    C514241   0.331   0.669   0.165  0.2593  1.0161  0.1319
    1MPD1     H14242   0.309   0.315   0.296  0.5798  0.2092  0.7748
    1MPD1    H114243   0.139   0.642   0.082 -0.5134 -0.7085 -0.0672
    1MPD1    H214244   0.500   0.697   0.256  0.4590 -0.6430  1.9965
    1MPD1    H314245   0.331   0.774   0.140  2.8957  0.9333 -0.2550
    1MPD1     N14246   0.101   0.375   0.145 -0.0852 -0.6184 -0.1954
    1MPD1    H514247   0.097   0.280   0.183  0.8570 -0.5734  0.0118
    1MPD1    N114248   0.524   0.440   0.371  0.4332  0.2132 -0.0961
    1MPD1    H614249   0.615   0.475   0.339  0.7392 -2.2529 -1.9371
    1MPD1    H714250   0.532   0.341   0.350 -0.6359 -0.0474  0.7110
    2MPD1     C14251   4.270   4.533  17.098  0.2401  0.0011 -0.4464
    2MPD1    C114252   4.231   4.493  17.227 -0.5550 -0.1020  0.8029
    2MPD1    C214253   4.301   4.548  17.332 -0.6805  0.5563  0.7620
    2MPD1    C314254   4.380   4.665  17.312  0.4262  0.4368 -0.3654
    2MPD1    C414255   4.405   4.719  17.188 -0.6730 -0.0845  0.5167
    2MPD1    C514256   4.349   4.645  17.079  0.0453  0.8329 -1.0657
    2MPD1     H14257   4.268   4.528  17.433 -0.8826 -0.5437  0.4784
    2MPD1    H114258   4.468   0.078  17.162 -0.8649  0.1505  0.8094
    2MPD1    H214259   4.235   4.483  17.009 -1.3591  1.0020 -0.3982
    2MPD1    H314260   4.365   4.684  16.978  1.7628 -1.4669 -1.6784
    2MPD1     N14261   4.450   4.712  17.434  0.1795  0.0208 -0.4378
    2MPD1    H514262   4.435   4.653  17.515 -0.0563 -0.7115 -1.0129
    2MPD1    N114263   4.152   4.376  17.233  0.6646  0.0566 -0.3600
    2MPD1    H614264   4.098   4.370  17.147  0.9281  1.8898 -0.6643
    2MPD1    H714265   4.088   4.376  17.313  2.0049 -0.6019  0.7201
    3TCq2    C114266   4.525   0.103  17.440 -0.0272 -0.0963  0.3433
    3TCq2    O214267   4.553   0.186  17.355 -0.3515 -0.8600  0.3703
    3TCq2    C214268   4.586   0.124  17.569 -0.3330 -0.1140  0.3251
    3TCq2    C314269   4.581   0.029  17.661  0.5309 -0.2343  0.3356
    3TCq2    C414270   4.608   0.058   0.087 -0.0474  0.2743  0.6257
    3TCq2    C514271   4.649   0.185   0.119 -0.5499  0.1284  0.2157
    3TCq2    C614272   4.660   0.282   0.020  0.2370  0.3442 -0.1918
    3TCq2    C714273   4.623   0.249  17.596 -0.6537 -0.2935  0.6170
    3TCq2    C814274   0.001   0.400   0.059  0.9469 -0.2584 -0.7230
    3TCq2    O414275   4.720   0.486  17.673 -0.0181  0.2521  0.0465
    3TCq2    C914276   4.588   4.696   0.193 -0.3511  1.3072 -0.4006
    3TCq2    O514277   4.580   4.570   0.163  0.1805 -0.1172 -0.1292
    3TCq2    O614278   4.572   0.016   0.306  0.0884  0.3534 -0.0265
    3TCq2    H214279   4.573   4.649  17.637  1.2410 -0.4871  1.1839
    3TCq2    H314280   4.648   0.206   0.226  1.0781 -1.0264  0.4624
    3TCq2    H414281   4.627   0.319  17.513 -1.0563 -0.0431  0.8041
    1TCq1    O114282   3.173   3.892  13.303 -0.0339 -0.4600 -0.1024
    1TCq1    C114283   3.125   3.778  13.240 -0.6025 -0.2571  0.3827
    1TCq1    O214284   3.032   3.772  13.160  0.2265 -0.0952  0.1716
    1TCq1    C214285   3.174   3.668  13.315 -0.5418 -0.2197  0.6794
    1TCq1    C314286   3.081   3.579  13.353  0.1388  0.2401 -0.1054
    1TCq1    C414287   3.130   3.458  13.400  0.3358 -0.4209  0.3363
    1TCq1    C514288   3.259   3.421  13.387 -0.1670 -0.4865 -0.1005
    1TCq1    C614289   3.345   3.516  13.339 -0.1824  0.6678  0.2785
    1TCq1    C714290   3.303   3.637  13.298  0.3419  1.0244 -0.8369
    1TCq1    C814291   3.482   3.490  13.313 -0.1225 -0.4837  0.2476
    1TCq1    O414292   3.542   3.585  13.261 -0.2888  0.1147  0.5103
    1TCq1    C914293   3.041   3.354  13.449 -0.6537 -0.1276 -0.0985
    1TCq1    O514294   3.086   3.236  13.454  0.6159  0.7614 -0.3362
    1TCq1    O614295   2.922   3.380  13.442 -0.2032  0.5834 -0.0143
    1TCq1    H114296   3.240   3.881  13.374  1.9106 -0.0831 -1.8799
    1TCq1    H214297   2.976   3.605  13.355  0.0279 -0.2254  0.2000
    1TCq1    H314298   3.290   3.323  13.423  0.8207 -0.2310 -0.2422
    1TCq1    H414299   3.362   3.724  13.272  0.5063  0.9208 -0.8097
    2MPD2     C14300   3.768   3.391  13.294 -0.4294  0.6524  0.1442
    2MPD2    C114301   3.661   3.324  13.355  0.9265  0.1517 -0.0349
    2MPD2    C214302   3.685   3.205  13.412 -0.0558  0.1984 -0.3966
    2MPD2    C314303   3.808   3.140  13.399  0.0047  0.4178 -0.3137
    2MPD2    C414304   3.907   3.217  13.351  0.4510  0.3677  1.0612
    2MPD2    C514305   3.892   3.345  13.297 -0.7240 -0.2659  0.6621
    2MPD2     H14306   3.614   3.146  13.469  1.3103 -0.4942  0.5837
    2MPD2    H114307   4.011   3.186  13.357  0.2747 -0.5694 -0.5683
    2MPD2    H214308   3.760   3.490  13.251 -0.5729  0.9986  0.9882
    2MPD2    H314309   3.980   3.401  13.265 -1.5170 -0.2018 -1.4170
    2MPD2     N14310   3.825   3.020  13.471  0.1183 -0.6716  0.7240
    2MPD2    H514311   3.745   2.984  13.521 -1.2115  0.5350 -0.5466
    2MPD2    N114312   3.525   3.367  13.358  0.3143  0.1114  0.3988
    2MPD2    H714313   3.461   3.295  13.391 -0.1878 -0.0786 -0.9951
    3TCq1    O114314   4.107   2.458  13.759  0.2313  0.0245  0.4251
    3TCq1    C114315   4.087   2.512  13.637 -0.9040  0.3135 -0.5574
    3TCq1    O214316   4.151   2.483  13.538  0.0942  0.0604 -0.0617
    3TCq1    C214317   4.001   2.626  13.651  0.5722 -0.1603  0.4266
    3TCq1    C314318   3.906   2.621  13.757  0.0470 -0.4276  0.0173
    3TCq1    C414319   3.826   2.734  13.767  0.5873  0.5267 -0.2749
    3TCq1    C514320   3.836   2.837  13.681 -0.0253 -0.5784  0.1485
    3TCq1    C614321   3.936   2.835  13.581 -0.1877 -0.1961 -0.3664
    3TCq1    C714322   4.018   2.731  13.563  0.1533  0.4185  0.3898
    3TCq1    C814323   3.942   2.947  13.481 -0.2270  0.3253  0.2136
    3TCq1    O414324   4.041   2.962  13.413 -0.4021  0.6738 -0.3259
    3TCq1    C914325   3.717   2.737  13.861  0.0311 -0.3522  0.6909
    3TCq1    O514326   3.605   2.767  13.813  0.5433 -0.0707  0.0350
    3TCq1    O614327   3.730   2.659  13.958  0.3291 -0.0221 -0.0551
    3TCq1    H114328   4.101   2.520  13.835  1.2841  0.0842  0.4692
    3TCq1    H214329   3.885   2.524  13.800 -1.6771 -0.0316  0.0847
    3TCq1    H314330   3.773   2.926  13.689 -1.1469 -1.5113  1.6444
    3TCq1    H414331   4.098   2.731  13.490 -0.1851 -0.9235  0.0114
    1MPD2     C14332   2.764   4.286  14.336 -0.3635  0.4864 -0.0646
    1MPD2    C114333   2.771   4.273  14.471 -0.0290  0.3516 -0.1443
    1MPD2    C214334   2.837   4.168  14.527 -0.2904 -0.7138  0.2914
    1MPD2    C314335   2.900   4.075  14.443 -0.4311 -0.4840 -0.2559
    1MPD2    C414336   2.890   4.097  14.309  0.6650  0.2721 -0.0006
    1MPD2    C514337   2.816   4.198  14.254 -0.8960  0.3957 -0.2695
    1MPD2     H14338   2.824   4.142  14.632  1.2077  1.9511  1.1209
    1MPD2    H114339   2.931   4.021  14.244 -1.2932 -1.0268  0.2729
    1MPD2    H214340   2.708   4.367  14.292 -2.7297 -0.6227  0.9080
    1MPD2    H314341   2.791   4.214  14.150 -0.9130 -1.9862 -0.6341
    1MPD2     N14342   2.986   3.972  14.486 -0.6235  0.0872  0.4333
    1MPD2    H514343   3.021   3.912  14.411  2.0923 -1.2507  2.7614
    1MPD2    N114344   2.727   4.383  14.548  0.1366 -0.0250 -0.0023
    1MPD2    H714345   2.675   4.456  14.500 -1.0656 -0.5997  0.4484
    2TMC3    C114346   2.722   4.513  14.745  0.4703 -0.6157 -0.4904
    2TMC3    C214347   2.819   4.545  14.839  0.5017  0.5932 -0.3232
    2TMC3    C314348   2.784   4.575  14.971  0.0781  0.4229 -0.0805
    2TMC3    C414349   2.587   4.514  14.788 -0.5841 -0.0869  0.2108
    2TMC3    C514350   2.554   4.539  14.923  0.0203 -0.2561 -0.8445
    2TMC3    C614351   2.655   4.555  15.011 -0.3795 -0.6305  0.4632
    2TMC3     C14352   2.774   4.400  14.673 -0.1939 -0.5952 -0.1747
    2TMC3     O14353   2.869   4.352  14.733 -0.6332  0.3943  0.1566
    2TMC3     H14354   2.921   4.561  14.806  1.0134 -1.4641  0.2564
    2TMC3    H114355   2.512   4.483  14.716 -1.2877  1.3665  0.3201
    2TMC3    H214356   2.638   4.568  15.118 -0.7447  1.5859  0.1360
    2TMC3    C714357   2.419   4.533  14.965  0.2083 -0.2678 -0.3328
    2TMC3    C814358   2.882   4.521  15.064  0.0798  0.2751 -0.1054
    2TMC3    O114359   2.410   4.498  15.082  0.2781 -0.3879 -0.1289
    2TMC3    O214360   2.914   4.596  15.157  0.2100 -0.4873  0.2810
    3TCq1    O114361   1.396   0.017  14.259  0.1735 -0.4677 -0.2454
    3TCq1    C114362   1.404   4.667  14.368 -0.0341  0.8723  0.9553
    3TCq1    O214363   1.310   4.652  14.450 -0.2256  0.0131  0.2739
    3TCq1    C214364   1.538   4.640  14.391  0.8154  0.2856 -0.1337
    3TCq1    C314365   1.620   4.602  14.288  0.2856  0.3654 -0.2894
    3TCq1    C414366   1.751   4.576  14.318  0.3035 -0.4113 -0.6344
    3TCq1    C514367   1.801   4.588  14.442 -0.3172 -0.0106  0.5565
    3TCq1    C614368   1.713   4.613  14.542  0.3112  1.0346 -0.5126
    3TCq1    C714369   1.584   4.630  14.520  0.5646  0.2317 -0.0574
    3TCq1    C814370   1.754   4.604  14.681  0.1673  0.7438  0.0269
    3TCq1    O414371   1.672   4.567  14.763  0.5751  0.6233  0.4599
    3TCq1    C914372   1.836   4.539  14.201  0.8336  0.1188  0.5208
    3TCq1    O514373   1.782   4.503  14.092 -0.2797 -0.0328  0.4127
    3TCq1    O614374   1.958   4.526  14.221 -0.0270 -0.0519 -0.0323
    3TCq1    H114375   1.483   0.050  14.226  0.2033  2.7358  2.9741
    3TCq1    H214376   1.580   4.604  14.187  1.0112  2.2852 -0.5481
    3TCq1    H314377   1.906   4.574  14.466  0.3449 -0.0281 -2.2547
    3TCq1    H414378   1.516   4.650  14.603 -0.4239  1.4077 -1.1609
    4MPD2     C14379   1.913   4.529  14.927  0.6456  0.3541 -0.5493
    4MPD2    C114380   1.961   4.583  14.808  0.1847 -0.5641  0.8626
    4MPD2    C214381   2.098   4.573  14.792 -0.0950 -1.3985  0.0115
    4MPD2    C314382   2.186   4.531  14.899 -0.2961  0.4628  0.1311
    4MPD2    C414383   2.131   4.502  15.017  0.0676  0.6443 -0.1190
    4MPD2    C514384   1.996   4.492  15.026 -0.9031  0.3384 -0.0503
    4MPD2     H14385   2.140   4.613  14.701  0.8555 -2.0334  0.1728
    4MPD2    H114386   2.194   4.473  15.101 -0.9195  0.4570  0.5663
    4MPD2    H214387   1.807   4.531  14.950  0.5570  0.3504 -0.9513
    4MPD2    H314388   1.960   4.475  15.126 -0.5410 -0.7273 -0.0960
    4MPD2     N14389   2.324   4.543  14.865  0.5067  0.2922 -0.6116
    4MPD2    H514390   2.344   4.586  14.776 -1.8260  0.6201 -0.9833
    4MPD2    N114391   1.889   4.619  14.692  0.0805  0.5650 -0.4887
    4MPD2    H714392   1.949   4.638  14.612 -0.2070 -0.5558 -0.9623
    5TMC2    C114393   3.280   3.842  14.820 -0.3777 -0.2221 -0.1733
    5TMC2    C214394   3.391   3.837  14.735 -0.1443  0.5903 -0.2353
    5TMC2    C314395   3.369   3.837  14.599 -0.2796  0.9716 -0.3499
    5TMC2    C414396   3.150   3.840  14.767 -0.5518  0.1202 -0.3306
    5TMC2    C514397   3.132   3.854  14.633  0.3663  0.0619  0.3886
    5TMC2    C614398   3.239   3.846  14.551  0.3627  0.2876  0.5271
    5TMC2     C14399   3.296   3.936  14.924 -0.5821 -0.2310  0.2291
    5TMC2     O14400   3.407   3.951  14.978  0.3326 -0.4648 -0.3479
    5TMC2     H14401   3.493   3.853  14.770 -0.3707  2.1856 -0.3241
    5TMC2    H114402   3.059   3.837  14.825  1.0294 -1.4884  2.0659
    5TMC2    H214403   3.235   3.873  14.446  1.5572  0.4330  0.5084
    5TMC2    C714404   3.034   3.959  14.614  0.5892 -0.3118 -1.1249
    5TMC2    C814405   3.483   3.841  14.503  0.0957  0.0720 -0.5122
    5TMC2    O114406   3.023   4.045  14.699  0.0204 -0.2044  0.2212
    5TMC2    O214407   3.566   3.927  14.512 -0.3558  0.0576  0.5517
    5TMC2    O514408   3.437   3.792  14.384 -0.1475 -0.4041 -0.2524
    5TMC2    H514409   3.382   3.712  14.393  3.1947 -2.8886 -1.5704
    6MPD2     C14410   3.091   4.334  15.183 -0.5358 -0.3359 -0.5712
    6MPD2    C114411   3.029   4.318  15.063 -0.6059 -0.3420 -0.3296
    6MPD2    C214412   3.073   4.221  14.975  0.1342 -0.0992  1.0245
    6MPD2    C314413   3.174   4.140  15.013 -0.0971  0.0447 -0.1977
    6MPD2    C414414   3.233   4.150  15.134 -0.9443 -0.5727  0.2899
    6MPD2    C514415   3.194   4.244  15.221 -0.5394 -0.1473  0.2019
    6MPD2     H14416   3.023   4.210  14.880  0.0663  0.6879  0.9691
    6MPD2    H114417   3.299   4.071  15.169 -1.3731 -0.8460  0.4771
    6MPD2    H214418   3.072   4.414  15.254  1.0552 -1.1604  0.7892
    6MPD2    H314419   3.237   4.249  15.321 -0.8644  0.1256  0.3298
    6MPD2     N14420   3.196   4.032  14.920  0.0306 -0.6265 -0.0490
    6MPD2    H514421   3.141   4.034  14.835 -1.7609 -0.2698  1.1144
    6MPD2    N114422   2.927   4.402  15.012  0.5833 -0.7001  0.4135
    6MPD2    H714423   2.891   4.379  14.920 -0.8523  2.5565  0.1520
  945NH3     N114424   3.500   2.109  13.512  0.5768 -0.1850 -0.6669
  945NH3     H214425   3.533   2.013  13.513  0.8747 -0.0733  0.4588
  945NH3     H314426   3.562   2.156  13.577  1.6113 -0.4446 -1.4642
  945NH3     H414427   3.525   2.142  13.420  2.8837 -0.0021  0.0103
  946SOD     NA14428   1.355   2.340  15.458 -0.0466 -0.1489 -0.0642
  947SOD     NA14429   1.090   4.449  15.251 -0.1903  0.1266 -0.1447
  948SOD     NA14430   1.137   1.409  17.086  0.2774  0.6691  0.5212
  949SOD     NA14431   3.228   0.175  10.118  0.0115 -0.3699  0.1178
  950SOD     NA14432   4.644   4.502  15.701 -0.0919  0.1849 -0.2673
  951SOD     NA14433   0.382   0.016   1.277 -0.3018  0.0692  0.2607
  952SOD     NA14434   4.000   0.447  15.049 -0.1989 -0.6084 -0.1764
  953SOD     NA14435   0.363   1.157  10.846  0.1381 -0.0870  0.3298
  954SOD     NA14436   0.466   3.927  13.073  0.2654  0.5725 -0.0939
  955SOD     NA14437   2.975   3.072  13.526 -0.2122  0.2877  0.2420
  956SOD     NA14438   3.073   1.492  11.313  0.0266  0.1229 -0.4209
  957SOD     NA14439   3.699   2.525  10.705  0.0983  0.3614 -0.1798
  958SOD     NA14440   2.142   0.655   1.371 -0.1090 -0.1093 -0.0107
  959SOD     NA14441   4.378   4.113  12.958  0.4473  0.0392  0.0844
  960SOD     NA14442   4.449   4.338  12.501  0.3249  0.3132 -0.0930
  961SOD     NA14443   2.587   1.536   6.061 -0.4658  0.3953  0.0097
  962SOD     NA14444   0.195   3.730   0.466 -0.2141  0.0166 -0.4566
  963SOD     NA14445   4.165   2.583   0.310  0.0113 -0.1936 -0.2540
  964SOD     NA14446   4.381   0.894  13.919 -0.1303 -0.3939 -0.3926
  965SOD     NA14447   2.717   1.299   9.220  0.5044  0.4351 -0.3300
  966SOD     NA14448   0.390   4.016  15.273  0.2146  0.4939  0.3279
  967SOD     NA14449   0.046   3.289  17.417 -0.1246  0.2340 -0.1319
  968SOD     NA14450   1.018   4.421   9.549 -0.1411 -0.0557 -0.3447
  969SOD     NA14451   2.958   1.863   9.792  0.4535  0.4118 -0.0141
  970SOD     NA14452   3.644   2.317  12.629 -0.0544  0.2976 -0.0382
  971SOD     NA14453   0.083   2.288  12.887 -0.2351 -0.0073 -0.2238
  972SOD     NA14454   1.519   4.030  13.747  0.2726 -0.2171 -0.2323
  973SOD     NA14455   4.226   3.727  11.759  0.3527 -0.1465 -0.7019
  974SOD     NA14456   2.335   2.527  13.304 -0.2826  0.0350 -0.4039
  975SOD     NA14457   3.946   1.606  17.194 -0.5472 -0.2618 -0.4707
  976SOD     NA14458   3.932   3.528  11.657 -0.0287 -0.5321  0.1476
  977SOD     NA14459   3.419   2.549  12.168  0.7017 -0.2593  0.1433
  978SOD     NA14460   3.999   3.940   2.457  0.3978  0.1441 -1.1209
  979SOD     NA14461   3.013   3.409  11.604  0.4142 -0.1631 -0.0767
  980SOD     NA14462   3.948   3.449  14.255 -0.0004 -0.6124  0.0628
  981SOD     NA14463   1.882   0.799   0.424  0.2682 -0.0357 -0.3835
  982SOD     NA14464   4.002   0.407   8.070  0.1375  0.5616 -0.3165
  983SOD     NA14465   1.171   3.703   0.225  0.3446  0.0057  0.3004
  984SOD     NA14466   1.279   3.770  12.267  0.1853  0.0145 -0.0534
  985SOD     NA14467   0.569   1.192   2.092 -0.2339 -0.2901 -0.6956
  986SOD     NA14468   1.874   1.994   1.785  0.2063 -0.0867 -0.6608
  987SOD     NA14469   3.531   0.698   9.503  0.0284 -0.7306 -0.3643
  988SOD     NA14470   3.309   0.611  11.878 -0.2718 -0.5635  0.0361
  989SOD     NA14471   2.620   4.295   2.809  0.5430  0.1760  0.0665
  990SOD     NA14472   2.872   0.076  15.548  0.2256  0.0702  0.7488
  991SOD     NA14473   2.093   1.972  14.999  0.3268 -0.0574  0.0666
  992SOD     NA14474   3.812   3.940  14.922 -0.0413  0.2604 -0.1483
  993SOD     NA14475   1.852   3.375  10.780 -0.4215 -0.1580  0.4228
  994SOD     NA14476   2.912   4.172   0.060 -0.1935 -0.2357  0.0948
  995SOD     NA14477   4.033   3.731  14.342 -0.1069 -0.0359  0.0953
  996SOD     NA14478   1.047   1.841   1.712 -0.4353  0.0580  0.4251
  997SOD     NA14479   0.667   3.685   2.086 -0.4592  0.6337 -0.5550
  998SOD     NA14480   3.348   4.632   1.359  0.1795  0.5692 -0.2565
  999SOD     NA14481   0.847   0.025   6.177 -0.2829 -0.0804 -0.3554
 1000SOD     NA14482   1.232   3.619   1.771  0.0993  0.2447 -0.0951
 1001SOD     NA14483   3.470   2.158   9.882 -0.0273  0.5233 -0.0151
 1002SOD     NA14484   0.119   3.745  15.370  0.0405 -0.1736  0.1448
 1003SOD     NA14485   2.573   3.855   8.351  0.0748  0.3870  0.1180
 1004SOD     NA14486   3.672   2.210  10.569 -0.3643  0.3475  0.1781
 1005SOD     NA14487   1.397   2.209  13.069  0.2737  0.1233 -0.0771
 1006SOD     NA14488   3.932   4.136  11.441  0.0367 -0.0362 -0.1889
 1007SOD     NA14489   3.270   4.081   1.121  0.0962 -0.2612 -0.5079
 1008SOD     NA14490   4.314   3.716  14.501 -0.0958  0.5666 -0.5902
 1009SOD     NA14491   4.711   1.985   8.005 -0.0457  0.3379 -0.3048
 1010SOD     NA14492   2.287   3.663  10.972  0.1312  0.1055 -0.0427
 1011SOD     NA14493   1.483   3.368  12.419  0.0446  0.1245  0.4973
 1012SOL     OW14494   3.021   2.286   4.405 -0.3545  0.1698  0.0186
 1012SOL    HW114495   3.018   2.328   4.319 -3.6222  0.8228  0.4579
 1012SOL    HW214496   3.096   2.332   4.443 -2.1500  0.9014  2.7013
 1013SOL     OW14497   1.345   2.764   2.473 -0.4395  0.3637 -0.1132
 1013SOL    HW114498   1.350   2.819   2.395  3.3327 -0.9254 -0.7614
 1013SOL    HW214499   1.287   2.695   2.442 -0.0963  0.1833 -0.3577
 1014SOL     OW14500   2.489   0.431  16.065  0.1251  0.3380 -0.0485
 1014SOL    HW114501   2.524   0.518  16.086 -4.1997  2.1420 -0.4715
 1014SOL    HW214502   2.535   0.432  15.981  2.3290 -0.2160  1.1350
 1015SOL     OW14503   4.435   1.471  12.347  0.3073  0.0179  0.1155
 1015SOL    HW114504   4.381   1.429  12.281  1.4685 -1.2148 -0.0480
 1015SOL    HW214505   4.519   1.472  12.302 -0.4939  0.3586 -1.3704
 1016SOL     OW14506   1.042   3.824   2.628  0.3344  0.4763  0.1032
 1016SOL    HW114507   1.027   3.827   2.723  1.9941 -0.9236  0.4067
 1016SOL    HW214508   1.071   3.913   2.607  1.7667  0.2147  0.9756
 1017SOL     OW14509   3.040   2.157  13.100 -0.5786 -0.3848 -0.2222
 1017SOL    HW114510   3.042   2.072  13.142 -0.3895 -0.8747 -1.2099
 1017SOL    HW214511   3.096   2.144  13.023  0.2980 -0.3920  0.4058
 1018SOL     OW14512   3.089   4.696  12.840  0.1913  0.0873 -0.4732
 1018SOL    HW114513   3.072   4.616  12.789 -2.1085  1.6065 -2.0723
 1018SOL    HW214514   3.097   4.666  12.930  2.0673 -1.2347 -1.0863
 1019SOL     OW14515   1.698   3.415   1.018 -0.0925 -0.6857  0.0872
 1019SOL    HW114516   1.623   3.359   1.037 -0.7534  0.4511  0.8355
 1019SOL    HW214517   1.769   3.357   1.046 -0.4421 -1.4552 -0.6198
 1020SOL     OW14518   2.221   3.361   4.573 -0.6488  0.2013  0.4086
 1020SOL    HW114519   2.208   3.282   4.625  1.1171  0.5427  1.3905
 1020SOL    HW214520   2.292   3.331   4.517 -1.1363  0.1293 -0.1679
 1021SOL     OW14521   0.863   4.484   4.374 -0.0090 -0.1378 -0.2689
 1021SOL    HW114522   0.877   4.505   4.467  2.9816  0.4761 -0.8644
 1021SOL    HW214523   0.857   4.389   4.377 -0.1393 -0.0956  0.7674
 1022SOL     OW14524   3.135   3.658   4.850  0.1578 -0.0084  0.4763
 1022SOL    HW114525   3.103   3.720   4.915 -2.1659 -0.1747 -0.4985
 1022SOL    HW214526   3.053   3.656   4.800 -0.7724 -0.4923  2.0366
 1023SOL     OW14527   4.466   1.315  14.087  0.6641 -0.0671  0.5997
 1023SOL    HW114528   4.503   1.403  14.090 -0.2255  0.4274 -3.7244
 1023SOL    HW214529   4.550   1.271  14.100  0.8313  0.2739  0.6795
 1024SOL     OW14530   1.215   0.829   9.089  0.3778 -0.2896  0.2167
 1024SOL    HW114531   1.251   0.765   9.028  0.6167 -0.8042  0.8991
 1024SOL    HW214532   1.201   0.901   9.027  0.7547  0.3107  0.8389
 1025SOL     OW14533   3.195   3.886   1.534 -0.0171 -1.0345 -0.0605
 1025SOL    HW114534   3.254   3.842   1.595  0.2042 -1.0310 -0.2739
 1025SOL    HW214535   3.126   3.905   1.598  0.5491  1.3123 -0.1415
 1026SOL     OW14536   1.198   4.260   2.660  0.1193  0.6395  0.4616
 1026SOL    HW114537   1.224   4.332   2.717 -1.5337 -1.3527  3.7157
 1026SOL    HW214538   1.136   4.231   2.727 -0.3139  1.1024  0.2578
 1027SOL     OW14539   1.888   1.324   8.265  0.0307 -0.0495 -0.0793
 1027SOL    HW114540   1.950   1.318   8.338  0.8805  3.0086 -0.5554
 1027SOL    HW214541   1.816   1.377   8.297  0.7596  1.5141 -1.0586
 1028SOL     OW14542   0.524   1.577   3.227 -0.0905  0.2986  1.0796
 1028SOL    HW114543   0.607   1.620   3.247 -0.8201  1.5746  1.3361
 1028SOL    HW214544   0.525   1.573   3.131  0.1607 -0.3149  1.1055
 1029SOL     OW14545   1.316   1.484   8.373 -0.1633 -0.3691  0.0720
 1029SOL    HW114546   1.236   1.458   8.328 -0.6575  0.3601  0.5336
 1029SOL    HW214547   1.376   1.434   8.318 -0.3163 -0.4014 -0.0643
 1030SOL     OW14548   0.881   2.608   7.860  0.7017 -0.6253  0.2020
 1030SOL    HW114549   0.880   2.643   7.949 -2.0131  0.9397 -0.4697
 1030SOL    HW214550   0.848   2.519   7.872  1.4918 -1.1311 -1.3022
 1031SOL     OW14551   4.143   2.628   4.933  0.6990  0.3045  0.3146
 1031SOL    HW114552   4.166   2.598   4.845 -0.2589 -0.4248  0.3125
 1031SOL    HW214553   4.176   2.718   4.929  0.8971  0.2000 -0.4044
 1032SOL     OW14554   3.420   0.341   2.831  0.6140  0.2012  0.3688
 1032SOL    HW114555   3.497   0.334   2.775  1.6031 -1.2480  1.8897
 1032SOL    HW214556   3.452   0.337   2.922  0.5715 -1.2346  0.3184
 1033SOL     OW14557   3.593   3.945   2.853 -0.2326  0.0551 -0.1773
 1033SOL    HW114558   3.504   3.918   2.875  0.2875 -1.1510  0.4573
 1033SOL    HW214559   3.639   3.869   2.890  1.9336  1.3487 -0.2309
 1034SOL     OW14560   2.485   1.003   8.720 -0.1195 -0.0395 -0.2200
 1034SOL    HW114561   2.552   1.056   8.676  1.2793 -1.0377  0.6862
 1034SOL    HW214562   2.524   0.986   8.806  1.0447 -0.9794 -0.9275
 1035SOL     OW14563   4.345   2.438   3.767  0.1929  0.0446 -0.4313
 1035SOL    HW114564   4.308   2.356   3.735 -0.3353 -0.3444  1.1456
 1035SOL    HW214565   4.420   2.446   3.708  1.3333  0.4068  1.0773
 1036SOL     OW14566   0.845   3.040  15.552 -0.5763 -0.2204  0.3072
 1036SOL    HW114567   0.935   3.011  15.570 -0.3385 -0.3728 -1.1699
 1036SOL    HW214568   0.802   2.958  15.577 -0.7962 -0.6309 -1.4532
 1037SOL     OW14569   0.217   2.775   5.577  0.2042  0.4334  0.0586
 1037SOL    HW114570   0.310   2.775   5.598 -0.1324  0.9961  1.5742
 1037SOL    HW214571   0.203   2.869   5.593 -2.0418  0.1263 -0.0598
 1038SOL     OW14572   0.254   2.790  13.215 -0.4432 -0.0260 -0.2735
 1038SOL    HW114573   0.196   2.775  13.140 -2.1543 -1.2991  1.3125
 1038SOL    HW214574   0.196   2.825  13.283 -1.0828  2.7420 -2.2197
 1039SOL     OW14575   1.862   4.342  12.323  0.1683  0.7861 -0.4115
 1039SOL    HW114576   1.914   4.291  12.385  0.9297  0.7485 -1.0685
 1039SOL    HW214577   1.917   4.332  12.245 -0.5723 -1.0169 -0.6944
 1040SOL     OW14578   1.773   0.939  15.747  0.0857  0.6765  0.3868
 1040SOL    HW114579   1.724   0.857  15.746 -2.9012  2.5107 -2.4961
 1040SOL    HW214580   1.860   0.900  15.749  0.2790  1.3001  3.2820
 1041SOL     OW14581   4.083   3.148   8.347 -0.8119 -0.1264  0.3455
 1041SOL    HW114582   4.138   3.080   8.308 -0.3481  0.5061 -0.1043
 1041SOL    HW214583   4.082   3.119   8.438 -2.6410  0.2697  0.4468
 1042SOL     OW14584   2.365   2.316  13.365  0.0575  0.0876  0.5295
 1042SOL    HW114585   2.311   2.285  13.438  0.1953  0.7885  0.9203
 1042SOL    HW214586   2.360   2.237  13.311  4.1873  0.0359  0.2932
 1043SOL     OW14587   0.853   2.043   4.324 -0.4866 -0.0742  0.6375
 1043SOL    HW114588   0.872   1.973   4.262  0.5564 -0.0213  0.8926
 1043SOL    HW214589   0.936   2.057   4.369 -0.1476  4.0912 -1.3114
 1044SOL     OW14590   4.211   4.606   9.817 -0.4030  0.1481 -0.7564
 1044SOL    HW114591   4.246   4.670   9.755  0.7930  1.2365  1.0466
 1044SOL    HW214592   4.131   4.579   9.771  0.4682 -1.2088 -1.4420
 1045SOL     OW14593   3.006   2.425   8.220 -0.4358  0.6780 -0.0633
 1045SOL    HW114594   3.066   2.445   8.292 -1.7812  1.1321  0.9291
 1045SOL    HW214595   2.983   2.515   8.195  0.9766  0.7630 -1.0494
 1046SOL     OW14596   2.920   1.029   3.098 -0.1336 -0.4250 -0.2156
 1046SOL    HW114597   2.978   1.008   3.171 -0.5045 -0.6526  0.0101
 1046SOL    HW214598   2.984   1.028   3.026  0.8960  0.3106  0.6793
 1047SOL     OW14599   3.365   1.032   3.422 -0.2058  0.5336  0.1595
 1047SOL    HW114600   3.359   1.013   3.515 -1.3593 -1.7870 -0.4122
 1047SOL    HW214601   3.279   1.012   3.384 -0.8808 -1.5436  2.8032
 1048SOL     OW14602   2.119   0.807   0.356  0.2448  0.1386  0.3989
 1048SOL    HW114603   2.189   0.807   0.421 -0.1054  0.9260  0.7665
 1048SOL    HW214604   2.124   0.725   0.306 -3.4795  0.1820 -0.0473
 1049SOL     OW14605   0.066   4.487   1.613  0.0771 -0.3469  0.2948
 1049SOL    HW114606   0.034   4.410   1.659 -0.6692  0.4400  1.1024
 1049SOL    HW214607   4.709   4.519   1.575 -0.3535 -1.6981  0.0904
 1050SOL     OW14608   0.147   3.785   8.259  0.3804 -0.0039 -0.4864
 1050SOL    HW114609   0.170   3.747   8.344 -3.3186  2.6715  1.7033
 1050SOL    HW214610   0.068   3.736   8.238  0.1433  1.8010 -3.8840
 1051SOL     OW14611   3.407   4.578   8.886 -0.9432 -0.6917  0.6460
 1051SOL    HW114612   3.471   4.519   8.845 -2.5626 -1.0415 -1.3756
 1051SOL    HW214613   3.467   4.618   8.948  2.6018 -0.3054 -2.9864
 1052SOL     OW14614   2.034   0.512   1.505 -0.5697  0.1540  0.3996
 1052SOL    HW114615   2.019   0.425   1.469  0.9234 -0.1274  0.4382
 1052SOL    HW214616   2.045   0.497   1.599  2.9989  1.9194  0.2644
 1053SOL     OW14617   1.695   2.370   5.681 -0.0166 -0.3134  0.1453
 1053SOL    HW114618   1.718   2.456   5.645  0.3318 -0.3903  0.1847
 1053SOL    HW214619   1.727   2.320   5.606  0.4627 -1.1964  0.9362
 1054SOL     OW14620   1.933   1.241   1.772  0.1302  0.5238 -0.3026
 1054SOL    HW114621   1.955   1.321   1.724  0.4469  1.7099  1.8135
 1054SOL    HW214622   1.842   1.217   1.755  0.3696 -1.4790  1.1747
 1055SOL     OW14623   1.346   1.228   8.516  0.3449  0.0825  0.6177
 1055SOL    HW114624   1.307   1.159   8.462 -2.0566  1.1070  1.0585
 1055SOL    HW214625   1.283   1.293   8.487  1.3924  0.4391 -0.8889
 1056SOL     OW14626   2.415   1.282   7.581 -0.2190  0.0026  0.9801
 1056SOL    HW114627   2.484   1.217   7.586 -0.4584 -0.3899 -0.7872
 1056SOL    HW214628   2.352   1.224   7.537  0.7008 -0.3432  0.1208
 1057SOL     OW14629   4.405   2.411  13.571  0.6104  0.1821 -0.4040
 1057SOL    HW114630   4.318   2.415  13.531  0.3126  1.8723  0.3885
 1057SOL    HW214631   4.389   2.471  13.645 -1.4007  0.7394 -1.2735
 1058SOL     OW14632   4.230   1.803  12.245  0.3443  0.4548  0.0323
 1058SOL    HW114633   4.290   1.774  12.314  0.9428  1.1895 -0.1792
 1058SOL    HW214634   4.151   1.832  12.292 -0.9381  1.0060 -2.5043
 1059SOL     OW14635   0.627   4.503   5.245  0.1745  0.1956 -0.0822
 1059SOL    HW114636   0.647   4.439   5.177  1.3443 -0.6413  1.0462
 1059SOL    HW214637   0.547   4.547   5.215  0.1792  0.1886 -0.1047
 1060SOL     OW14638   0.684   3.217   2.366  0.1639  0.0869  0.1368
 1060SOL    HW114639   0.766   3.219   2.414 -0.1452  1.7342  0.5877
 1060SOL    HW214640   0.656   3.309   2.361  1.8973  0.6309  0.7524
 1061SOL     OW14641   1.657   0.737   8.525  0.0870 -0.6110  0.5614
 1061SOL    HW114642   1.709   0.669   8.483  0.6130  0.3970 -0.4384
 1061SOL    HW214643   1.690   0.732   8.614  0.7578 -0.2382  0.3360
 1062SOL     OW14644   0.567   2.173  13.348 -0.0594  0.1234  0.7006
 1062SOL    HW114645   0.641   2.234  13.351  0.3996 -0.4404  0.6507
 1062SOL    HW214646   0.494   2.225  13.312  0.0788  0.7667  1.3653
 1063SOL     OW14647   0.590   0.937   5.073  0.2380  0.7667 -0.5174
 1063SOL    HW114648   0.502   0.971   5.087 -0.4412 -1.9941  1.8364
 1063SOL    HW214649   0.621   0.978   4.992 -0.2343  2.2248  0.0384
 1064SOL     OW14650   2.951   4.266   6.124 -0.0016 -0.5966  0.1061
 1064SOL    HW114651   2.909   4.337   6.075 -2.0279 -0.8697  1.4425
 1064SOL    HW214652   2.944   4.185   6.073 -0.6557 -0.4513 -0.0364
 1065SOL     OW14653   4.496   2.572   9.237 -0.1078  0.0924 -0.0162
 1065SOL    HW114654   4.591   2.577   9.249  0.0898 -1.8491 -0.6347
 1065SOL    HW214655   4.469   2.612   9.319  1.2315  1.4109 -0.2107
 1066SOL     OW14656   3.531   1.466   7.455  0.1231 -0.3356  0.0239
 1066SOL    HW114657   3.557   1.374   7.460  0.9866 -0.1573 -1.0415
 1066SOL    HW214658   3.490   1.479   7.369  0.2595 -0.7858 -0.1093
 1067SOL     OW14659   0.924   1.785  16.314  0.1559 -0.1402  0.6861
 1067SOL    HW114660   0.885   1.868  16.286  0.3331 -0.0948  0.5705
 1067SOL    HW214661   0.871   1.764  16.391 -2.1532  0.2211 -0.7905
 1068SOL     OW14662   3.492   0.425   2.083  0.2222 -0.0996  0.1134
 1068SOL    HW114663   3.471   0.334   2.101 -0.7715 -0.0071 -0.5888
 1068SOL    HW214664   3.572   0.420   2.030  0.1119  1.2114 -0.1822
 1069SOL     OW14665   1.997   3.541   7.608 -0.4131  0.2137 -0.6236
 1069SOL    HW114666   2.054   3.535   7.685 -0.1762 -1.7624 -0.9526
 1069SOL    HW214667   2.063   3.566   7.544 -0.2362 -0.2100 -0.6068
 1070SOL     OW14668   0.588   0.812   7.826 -0.8234  0.6135  0.0430
 1070SOL    HW114669   0.601   0.755   7.901 -0.7134  0.5508 -0.0239
 1070SOL    HW214670   0.516   0.771   7.777  0.2485 -1.7268  0.4822
 1071SOL     OW14671   2.781   4.251   1.562  0.4273  0.2601 -0.1466
 1071SOL    HW114672   2.875   4.248   1.543  0.6288 -2.7061  1.3021
 1071SOL    HW214673   2.757   4.161   1.581  0.4159  0.6001  1.4500
 1072SOL     OW14674   2.160   0.882   3.545  0.5138 -0.0503 -0.1935
 1072SOL    HW114675   2.252   0.911   3.543  0.4973  0.1592  1.5476
 1072SOL    HW214676   2.134   0.857   3.457  3.8937  0.0440 -1.2174
 1073SOL     OW14677   4.362   4.042  16.900 -0.1405  0.6268  0.2674
 1073SOL    HW114678   4.417   4.112  16.935  0.8797  1.4227 -2.8596
 1073SOL    HW214679   4.339   3.997  16.981  1.3863 -2.3060 -0.9038
 1074SOL     OW14680   4.278   0.983   3.784 -0.0706  0.3318 -0.4760
 1074SOL    HW114681   4.203   1.035   3.812 -0.6966 -0.3310 -0.9104
 1074SOL    HW214682   4.347   1.028   3.833 -0.0275  0.5983 -0.7849
 1075SOL     OW14683   2.709   2.837   9.293 -0.0473 -0.4402 -0.5305
 1075SOL    HW114684   2.745   2.907   9.347  0.9257  0.7948 -2.7945
 1075SOL    HW214685   2.644   2.797   9.351  0.1755 -1.1466 -0.7646
 1076SOL     OW14686   4.321   4.083   8.298  0.1654 -0.8285  0.2321
 1076SOL    HW114687   4.396   4.055   8.351 -2.3627 -3.2697  2.4952
 1076SOL    HW214688   4.344   4.084   8.205  0.8584  2.8781  0.4545
 1077SOL     OW14689   1.205   1.084  16.596 -0.8361 -0.7630  0.5151
 1077SOL    HW114690   1.260   1.125  16.663 -2.9503  2.7108  0.1334
 1077SOL    HW214691   1.160   1.010  16.635 -1.8204  0.1501  1.0949
 1078SOL     OW14692   3.942   0.740   7.638  0.1894  0.1925  0.1420
 1078SOL    HW114693   4.027   0.698   7.654  0.9598  0.9244 -1.9966
 1078SOL    HW214694   3.942   0.819   7.693 -0.4115  0.5252 -0.3302
 1079SOL     OW14695   3.524   4.294   9.112 -0.3395  0.4654 -0.0358
 1079SOL    HW114696   3.547   4.333   9.028  1.6243  2.4266  1.4084
 1079SOL    HW214697   3.501   4.378   9.153  1.0628  0.3435  1.0043
 1080SOL     OW14698   3.120   2.191  15.857  0.0822  0.4055  0.1643
 1080SOL    HW114699   3.053   2.146  15.806  0.8161 -1.8432  1.1843
 1080SOL    HW214700   3.128   2.130  15.930  1.6326 -0.4569 -0.7257
 1081SOL     OW14701   3.920   3.575   3.998  0.4600  0.3709  0.3656
 1081SOL    HW114702   3.828   3.571   3.971  1.0301  0.4483 -1.5578
 1081SOL    HW214703   3.916   3.516   4.073 -0.7193  1.9463  1.5355
 1082SOL     OW14704   4.483   1.332   2.148  0.4738 -0.0137 -0.4197
 1082SOL    HW114705   4.482   1.371   2.060  0.5759  0.0015 -0.4141
 1082SOL    HW214706   4.555   1.382   2.187  1.3438 -0.4632 -1.4258
 1083SOL     OW14707   0.578   1.500   8.442 -0.0919 -0.1382  0.2062
 1083SOL    HW114708   0.666   1.462   8.445 -0.1820 -0.4204 -0.6477
 1083SOL    HW214709   0.589   1.575   8.384  3.4917 -0.4945  0.4203
 1084SOL     OW14710   2.853   3.636   5.789 -0.0035 -0.2138 -0.3182
 1084SOL    HW114711   2.835   3.724   5.756  0.7431  0.7316  1.7746
 1084SOL    HW214712   2.929   3.626   5.732  1.4834  0.0643  1.6121
 1085SOL     OW14713   1.542   0.843  15.371  0.0061  0.4771  0.4427
 1085SOL    HW114714   1.544   0.912  15.438  1.4524  0.3988  0.4897
 1085SOL    HW214715   1.521   0.900  15.298 -0.4459 -0.9651 -0.5623
 1086SOL     OW14716   4.411   1.627  17.062 -0.5174  0.0879 -0.1908
 1086SOL    HW114717   4.432   1.542  17.024  0.3373 -0.3092  1.1863
 1086SOL    HW214718   4.419   1.683  16.984 -0.3258  0.4684  0.0988
 1087SOL     OW14719   3.142   1.389   5.028  0.0226  0.1194 -0.1265
 1087SOL    HW114720   3.054   1.423   5.013  0.2929  0.6005 -0.6094
 1087SOL    HW214721   3.137   1.345   5.113  2.0323 -1.0219 -0.6018
 1088SOL     OW14722   2.849   2.586   2.226 -0.4111 -0.1848  0.0506
 1088SOL    HW114723   2.806   2.577   2.312 -1.8575 -1.6449 -0.8209
 1088SOL    HW214724   2.940   2.576   2.253  0.3161  2.7510 -1.4421
 1089SOL     OW14725   1.867   3.553  16.588 -0.2387 -0.0328 -0.3480
 1089SOL    HW114726   1.797   3.495  16.559 -1.3655  0.7938  0.7043
 1089SOL    HW214727   1.907   3.551  16.501 -1.9501  0.4286 -1.1545
 1090SOL     OW14728   0.120   4.439   4.223 -0.7279 -0.2321 -0.8008
 1090SOL    HW114729   0.181   4.507   4.194 -1.5592  1.4823  1.4220
 1090SOL    HW214730   0.142   4.371   4.159  2.4423 -1.1856  1.2929
 1091SOL     OW14731   0.044   4.668  15.822  0.9493 -0.5839  0.0705
 1091SOL    HW114732   4.716   4.696  15.896  2.0387  0.2109  0.5534
 1091SOL    HW214733   0.124   4.709  15.855 -0.4033  1.7047  0.5421
 1092SOL     OW14734   3.982   1.030  10.446  0.2376  0.1822  0.3071
 1092SOL    HW114735   4.037   1.016  10.523  1.1294  0.3878 -0.2960
 1092SOL    HW214736   3.894   1.004  10.474  0.8290  0.1278  2.1234
 1093SOL     OW14737   2.668   1.795   1.790 -0.2130 -0.4993 -0.3275
 1093SOL    HW114738   2.748   1.820   1.838 -0.0495  1.4360 -1.6005
 1093SOL    HW214739   2.660   1.703   1.813  0.1079 -0.1434  1.2695
 1094SOL     OW14740   4.123   0.091   8.287 -0.1756  0.0112  0.5541
 1094SOL    HW114741   4.202   0.053   8.248 -0.6884 -0.9148  0.4072
 1094SOL    HW214742   4.121   0.180   8.252  3.1018  0.4524  1.4540
 1095SOL     OW14743   0.928   4.469  16.584  0.2694 -0.0879 -0.1351
 1095SOL    HW114744   0.861   4.435  16.525  0.3489 -0.3163 -0.0914
 1095SOL    HW214745   0.920   4.407  16.656  0.4696  0.9204  0.7589
 1096SOL     OW14746   1.437   2.283   8.353  0.2824 -0.8178 -0.1146
 1096SOL    HW114747   1.376   2.285   8.279  0.5239 -1.8017 -0.3448
 1096SOL    HW214748   1.496   2.215   8.319  2.6089  1.6709 -1.0767
 1097SOL     OW14749   0.347   1.478   2.366 -0.3557 -0.7404  0.1279
 1097SOL    HW114750   0.379   1.524   2.444 -3.6832  0.2840  0.8896
 1097SOL    HW214751   0.284   1.537   2.326  1.1236  0.8025  0.1053
 1098SOL     OW14752   1.272   0.527  13.261 -0.9829 -0.2938 -0.0577
 1098SOL    HW114753   1.288   0.452  13.319 -1.0284 -0.8665 -0.7864
 1098SOL    HW214754   1.234   0.487  13.183 -0.1928  0.0284 -0.6031
 1099SOL     OW14755   2.330   0.838   6.222  0.6317  0.1495 -0.3494
 1099SOL    HW114756   2.368   0.909   6.273  2.8555 -0.4569 -1.1564
 1099SOL    HW214757   2.322   0.769   6.289  0.1702 -1.6685 -2.2717
 1100SOL     OW14758   1.780   1.204  15.739 -0.3044  0.2650  0.1631
 1100SOL    HW114759   1.794   1.110  15.753 -0.5566  0.4423  1.6238
 1100SOL    HW214760   1.712   1.218  15.805 -0.9636  0.8680 -0.6323
 1101SOL     OW14761   1.664   0.923  10.942 -0.5045  0.8762  0.5081
 1101SOL    HW114762   1.695   0.949  10.855  0.8428  0.8432  0.9834
 1101SOL    HW214763   1.685   1.005  10.987  2.5449 -0.3767  1.3558
 1102SOL     OW14764   1.551   1.948  10.130  0.1697 -0.2982 -0.2966
 1102SOL    HW114765   1.621   1.897  10.089  0.3184 -1.3049  1.2206
 1102SOL    HW214766   1.604   2.022  10.159  0.7531 -1.2161  0.9648
 1103SOL     OW14767   3.421   1.127   4.373 -0.3050  0.2241  0.5712
 1103SOL    HW114768   3.484   1.196   4.351 -1.0380  0.5075 -0.6450
 1103SOL    HW214769   3.480   1.055   4.396 -0.2582  0.6260  1.7016
 1104SOL     OW14770   3.316   2.856   6.105 -0.0163  0.1843 -0.2290
 1104SOL    HW114771   3.263   2.778   6.122  0.7861 -0.4353 -0.6014
 1104SOL    HW214772   3.239   2.908   6.081  0.0601 -0.2859 -1.4857
 1105SOL     OW14773   2.249   1.389   2.252  0.4435  0.2124 -0.4595
 1105SOL    HW114774   2.293   1.417   2.333  0.3408  2.0482 -1.0423
 1105SOL    HW214775   2.160   1.386   2.287  0.0434 -0.3169 -1.5265
 1106SOL     OW14776   1.818   1.481   4.866  0.1624 -0.3486 -0.2020
 1106SOL    HW114777   1.901   1.479   4.817  1.1279 -0.1960  1.4366
 1106SOL    HW214778   1.840   1.522   4.950 -0.3329  1.8329 -1.1296
 1107SOL     OW14779   1.950   2.259  15.712  0.7064 -0.5493 -0.3499
 1107SOL    HW114780   1.895   2.329  15.676  0.7183  0.1546  1.0077
 1107SOL    HW214781   2.037   2.296  15.699  0.2406  0.4714 -0.5993
 1108SOL     OW14782   3.209   3.033  11.717  0.2117 -0.0877  0.0769
 1108SOL    HW114783   3.232   3.018  11.808 -0.2939 -1.2070  0.0238
 1108SOL    HW214784   3.223   2.947  11.677  4.6290  1.1536 -0.9554
 1109SOL     OW14785   2.211   2.644   9.311  0.2230 -0.1647  0.6115
 1109SOL    HW114786   2.196   2.710   9.378  0.0790  0.8838 -0.4447
 1109SOL    HW214787   2.125   2.611   9.285  1.1915 -0.0495 -2.7022
 1110SOL     OW14788   1.832   4.053   7.822  0.1198  0.3537 -0.9012
 1110SOL    HW114789   1.918   4.091   7.836 -0.6424  0.9780  2.1106
 1110SOL    HW214790   1.777   4.089   7.892 -1.0068 -2.6382 -0.2721
 1111SOL     OW14791   0.610   0.469  10.690  0.0085  0.0035  0.0292
 1111SOL    HW114792   0.646   0.407  10.753  0.9570 -2.9174 -3.4139
 1111SOL    HW214793   0.689   0.487  10.640 -1.6632  1.9727 -1.8919
 1112SOL     OW14794   1.816   0.308   9.921  0.2933 -0.6522  0.4091
 1112SOL    HW114795   1.847   0.252   9.992 -1.2653 -1.9000  0.0924
 1112SOL    HW214796   1.873   0.286   9.847  1.7242 -0.9073  1.5777
 1113SOL     OW14797   3.562   2.047   2.303 -0.2220 -0.0578  0.0714
 1113SOL    HW114798   3.612   2.115   2.257  0.5347 -0.6996 -0.0549
 1113SOL    HW214799   3.477   2.056   2.261  0.5162  2.7616 -0.8070
 1114SOL     OW14800   0.759   2.732   9.307 -0.3854  0.3641 -0.0809
 1114SOL    HW114801   0.724   2.686   9.383  0.2241 -0.9077 -0.5553
 1114SOL    HW214802   0.847   2.756   9.336 -0.2680 -0.8020  0.5292
 1115SOL     OW14803   3.575   2.288   3.907 -0.5394 -0.4990 -0.6037
 1115SOL    HW114804   3.488   2.296   3.947 -0.7306 -3.5025 -0.4058
 1115SOL    HW214805   3.545   2.344   3.835 -0.2529  0.4523  0.0295
 1116SOL     OW14806   3.518   3.787   1.237  0.4103  0.4837 -0.1287
 1116SOL    HW114807   3.493   3.699   1.210  0.3751  0.2249  0.7738
 1116SOL    HW214808   3.522   3.821   1.147  1.2624  0.8376  0.0392
 1117SOL     OW14809   3.192   4.292   8.288 -0.1106 -0.2195 -0.0225
 1117SOL    HW114810   3.117   4.330   8.334 -0.7142 -1.6838  0.2082
 1117SOL    HW214811   3.215   4.367   8.234 -0.1737 -0.1034  0.1125
 1118SOL     OW14812   2.610   3.374  11.465  0.9579  0.5114  0.1333
 1118SOL    HW114813   2.590   3.370  11.559  3.4244  0.1036  0.6524
 1118SOL    HW214814   2.528   3.409  11.430  0.0318  0.4225  2.1857
 1119SOL     OW14815   1.380   0.237   4.569  0.0554  0.4603  0.2750
 1119SOL    HW114816   1.292   0.244   4.604  0.5638  2.1366  1.1756
 1119SOL    HW214817   1.368   0.200   4.481  0.0456 -1.5143  1.1101
 1120SOL     OW14818   2.512   0.291   9.707  0.2884  0.1352  0.7784
 1120SOL    HW114819   2.433   0.309   9.758 -1.6001  1.9241 -2.8667
 1120SOL    HW214820   2.564   0.370   9.722  0.3495  0.7311 -2.7927
 1121SOL     OW14821   0.954   2.680   5.223 -0.0374  0.1263  0.4328
 1121SOL    HW114822   0.906   2.747   5.176 -2.8767 -2.4361 -0.3313
 1121SOL    HW214823   1.036   2.727   5.238  1.6538 -2.3324 -1.1621
 1122SOL     OW14824   1.668   0.557   5.942  0.1509  0.1310  0.5209
 1122SOL    HW114825   1.640   0.528   6.029 -1.3719  0.2864  0.0965
 1122SOL    HW214826   1.585   0.586   5.902  0.8064  1.0616 -0.1562
 1123SOL     OW14827   3.521   1.370   5.181 -0.4119  0.0369 -0.0338
 1123SOL    HW114828   3.470   1.423   5.241  0.2589  1.7145 -0.9659
 1123SOL    HW214829   3.464   1.301   5.145 -0.3321 -0.1196  0.1371
 1124SOL     OW14830   4.520   4.494   6.079 -0.1829  0.2851 -0.3517
 1124SOL    HW114831   4.445   4.465   6.131  0.0976  1.9502  0.9863
 1124SOL    HW214832   4.512   4.433   6.006 -0.4892  0.5201 -0.5131
 1125SOL     OW14833   0.270   3.050   6.047 -0.1903  0.1262  0.1300
 1125SOL    HW114834   0.313   2.982   5.995 -0.6005  0.6121 -0.8501
 1125SOL    HW214835   0.211   2.992   6.095  0.6538 -1.1151 -0.3246
 1126SOL     OW14836   1.681   2.375   5.135 -0.2396 -0.1772  0.2785
 1126SOL    HW114837   1.607   2.319   5.112  0.3100 -0.3580 -1.0753
 1126SOL    HW214838   1.639   2.418   5.209  3.3815  0.3363  2.0700
 1127SOL     OW14839   4.138   2.942   4.179 -0.5191 -0.2366 -0.0752
 1127SOL    HW114840   4.215   2.888   4.163 -0.0579  0.1958  0.7086
 1127SOL    HW214841   4.170   3.030   4.159 -2.5095  0.6780  0.7120
 1128SOL     OW14842   1.536   1.388   1.090 -1.1514 -0.8436  0.0516
 1128SOL    HW114843   1.594   1.356   1.160  1.0600  1.6080 -0.6801
 1128SOL    HW214844   1.534   1.313   1.031 -0.3445 -2.2869  1.8261
 1129SOL     OW14845   3.706   4.548   5.526  0.3479 -0.0371  0.1227
 1129SOL    HW114846   3.621   4.591   5.512  1.1658  1.6429  0.3392
 1129SOL    HW214847   3.696   4.510   5.613  0.2144 -0.3136 -0.0126
 1130SOL     OW14848   1.239   1.284   0.482 -0.3966 -0.3683 -0.5564
 1130SOL    HW114849   1.160   1.230   0.472 -1.4750  1.0507  0.1963
 1130SOL    HW214850   1.216   1.330   0.563  1.7416 -1.4948  0.6946
 1131SOL     OW14851   2.290   2.139   6.816 -0.7649 -0.5682 -0.0336
 1131SOL    HW114852   2.318   2.051   6.790  0.7314 -0.5159  1.3627
 1131SOL    HW214853   2.349   2.154   6.891 -1.2454 -0.7584  0.3842
 1132SOL     OW14854   4.013   0.238   5.460 -0.2956 -0.0770 -0.0574
 1132SOL    HW114855   3.986   0.174   5.395 -0.8998  0.2663 -0.1391
 1132SOL    HW214856   4.108   0.225   5.467 -0.0659  1.4502 -0.3725
 1133SOL     OW14857   0.718   0.435  11.304 -0.0628 -0.2088  0.5914
 1133SOL    HW114858   0.732   0.416  11.396  0.2477 -0.3654  0.5146
 1133SOL    HW214859   0.623   0.435  11.307 -0.1340  1.7630 -1.3987
 1134SOL     OW14860   2.825   1.812   3.852  0.1185 -0.7567 -0.2209
 1134SOL    HW114861   2.765   1.763   3.795  1.5192 -2.6319 -0.0709
 1134SOL    HW214862   2.828   1.755   3.929  0.5988  2.0358  1.8236
 1135SOL     OW14863   3.458   1.114   3.963 -0.6579  0.5308  0.1009
 1135SOL    HW114864   3.387   1.107   4.027 -1.7142  1.9851 -0.9236
 1135SOL    HW214865   3.423   1.064   3.889 -0.2245  0.7115 -0.2252
 1136SOL     OW14866   1.125   2.154   4.972 -0.2355  0.2707  0.0419
 1136SOL    HW114867   1.164   2.206   5.043  0.2404 -0.5503  0.3851
 1136SOL    HW214868   1.128   2.065   5.007  0.1673  1.6218  3.5254
 1137SOL     OW14869   4.626   0.415   1.853  0.6866 -0.3880  0.2212
 1137SOL    HW114870   4.664   0.502   1.844 -0.0160  0.1265  2.3656
 1137SOL    HW214871   4.607   0.377   1.767  1.3292  1.1019 -0.5861
 1138SOL     OW14872   3.211   4.425  17.493  0.1636 -0.2063 -0.1324
 1138SOL    HW114873   3.222   4.388  17.580 -2.5146 -0.5229  0.0858
 1138SOL    HW214874   3.291   4.473  17.474  0.1019  0.6062  1.7129
 1139SOL     OW14875   3.472   4.357   0.850 -0.5525  0.5256  0.4871
 1139SOL    HW114876   3.564   4.379   0.835 -0.5438  1.1821  1.5181
 1139SOL    HW214877   3.458   4.328   0.760 -1.3739  0.8426  0.5133
 1140SOL     OW14878   1.358   3.483  11.065  0.5964  0.2396 -0.5898
 1140SOL    HW114879   1.443   3.484  11.108  0.4520 -1.4961 -0.2408
 1140SOL    HW214880   1.358   3.391  11.037 -2.7880  0.1314 -0.2191
 1141SOL     OW14881   4.194   3.650   8.333  0.1581 -0.4003 -0.3331
 1141SOL    HW114882   4.286   3.622   8.334 -1.0190 -4.2140  0.9924
 1141SOL    HW214883   4.178   3.682   8.422  0.4937 -1.7743  0.2263
 1142SOL     OW14884   2.958   1.929   4.862 -0.6667 -0.2516  0.8173
 1142SOL    HW114885   3.002   1.851   4.827  0.1864  0.3254  0.6292
 1142SOL    HW214886   2.934   1.984   4.788 -0.1294  0.0020  0.8362
 1143SOL     OW14887   1.398   4.074   2.595 -0.1450  0.7799 -0.2558
 1143SOL    HW114888   1.318   4.127   2.593  0.2154  1.3537  0.4439
 1143SOL    HW214889   1.375   4.014   2.666 -1.9615  0.1003 -1.4189
 1144SOL     OW14890   1.561   2.943   5.576  0.0327  0.7567  0.0729
 1144SOL    HW114891   1.514   2.974   5.653  0.0220  0.0928  0.3314
 1144SOL    HW214892   1.536   3.003   5.505 -2.5060 -1.7608 -1.1645
 1145SOL     OW14893   2.137   3.821   7.957  0.2151  0.4388  0.1487
 1145SOL    HW114894   2.049   3.823   7.993  0.2624 -0.3749  0.3123
 1145SOL    HW214895   2.183   3.760   8.015 -0.1237 -1.9503 -2.1034
 1146SOL     OW14896   3.065   1.811  12.107  0.0647 -0.1656  0.7899
 1146SOL    HW114897   3.142   1.756  12.090  1.9538  3.2564 -1.8316
 1146SOL    HW214898   3.079   1.881  12.044  2.0220 -1.4248 -0.1838
 1147SOL     OW14899   2.169   3.774  10.803  0.0608 -0.0217  0.2857
 1147SOL    HW114900   2.145   3.729  10.722  1.5630 -2.2012  1.0543
 1147SOL    HW214901   2.144   3.866  10.798 -3.5926 -0.9940  0.6788
 1148SOL     OW14902   4.233   3.710   4.862  0.2868 -0.2003 -0.2802
 1148SOL    HW114903   4.209   3.619   4.841  1.8091 -1.2047  2.3358
 1148SOL    HW214904   4.220   3.755   4.778  0.8118 -0.0982 -0.3068
 1149SOL     OW14905   2.642   3.652   6.269 -0.8023  0.4997 -0.1648
 1149SOL    HW114906   2.703   3.580   6.257 -1.8614 -0.2876 -0.8487
 1149SOL    HW214907   2.625   3.643   6.363 -1.4532 -2.4511 -0.5639
 1150SOL     OW14908   1.328   0.164  11.689  0.1107  0.1467  0.1107
 1150SOL    HW114909   1.314   0.240  11.745 -0.9340  1.7169 -2.3084
 1150SOL    HW214910   1.419   0.133  11.691 -0.6066 -2.0415 -1.3917
 1151SOL     OW14911   2.220   4.449   8.943 -0.1012 -0.2082 -0.0308
 1151SOL    HW114912   2.289   4.435   8.879  2.0202  2.4500  1.6828
 1151SOL    HW214913   2.184   4.534   8.918 -1.4733 -1.2953 -1.7577
 1152SOL     OW14914   0.785   3.660   2.277  0.0909  0.3967  0.8772
 1152SOL    HW114915   0.752   3.691   2.362  2.2293  2.0278  1.0881
 1152SOL    HW214916   0.854   3.603   2.312  0.9909  1.2883  0.5350
 1153SOL     OW14917   2.763   3.565  12.575  0.2332 -0.1870  0.2911
 1153SOL    HW114918   2.793   3.492  12.521 -1.9902 -0.2506 -0.8846
 1153SOL    HW214919   2.757   3.637  12.512  1.4274  0.1679  0.5946
 1154SOL     OW14920   2.184   4.054  11.376  0.1655  0.0498 -0.0668
 1154SOL    HW114921   2.121   4.090  11.438  2.4718  1.4544  1.4632
 1154SOL    HW214922   2.186   3.964  11.408 -0.4330 -0.4338 -1.3568
 1155SOL     OW14923   1.484   3.276   5.795  0.0651  0.9428  0.1457
 1155SOL    HW114924   1.557   3.223   5.825 -0.7510  0.1798  0.8002
 1155SOL    HW214925   1.524   3.356   5.761  0.7636  0.5291 -0.0064
 1156SOL     OW14926   3.777   2.494   6.281  0.4248  0.6646  0.3180
 1156SOL    HW114927   3.721   2.434   6.330  1.2308 -0.5432 -0.2662
 1156SOL    HW214928   3.852   2.437   6.269  0.5034  1.1229 -1.2792
 1157SOL     OW14929   4.232   2.906   3.015 -0.1308  0.0917  0.2825
 1157SOL    HW114930   4.241   2.836   3.079 -3.4817  0.8802  1.6401
 1157SOL    HW214931   4.257   2.854   2.939  0.3573  1.0971 -0.2416
 1158SOL     OW14932   0.544   1.975   0.811  0.1407  0.4983 -0.0704
 1158SOL    HW114933   0.499   2.051   0.773  0.5821 -0.0082 -1.5551
 1158SOL    HW214934   0.610   1.954   0.746 -0.3104  0.0872 -0.3930
 1159SOL     OW14935   1.659   3.207  11.468 -0.2185 -0.7286 -0.2569
 1159SOL    HW114936   1.586   3.150  11.445 -1.3979  0.6592  0.0828
 1159SOL    HW214937   1.725   3.140  11.485 -2.4426 -3.1169 -1.1709
 1160SOL     OW14938   2.213   4.004   6.689 -0.3573  0.7018 -0.1854
 1160SOL    HW114939   2.254   4.071   6.743  1.3342  1.0288 -1.8613
 1160SOL    HW214940   2.287   3.968   6.640  0.6963  0.2935  1.7120
 1161SOL     OW14941   4.444   2.276  14.364  0.6006 -0.0248 -0.3749
 1161SOL    HW114942   4.387   2.290  14.288  0.7134 -2.4113 -0.8924
 1161SOL    HW214943   4.533   2.289  14.331  0.5086  1.5692 -0.0014
 1162SOL     OW14944   2.292   0.055   4.892  0.5363  0.0911  0.1552
 1162SOL    HW114945   2.220   0.039   4.954 -0.4519 -1.8558 -1.5229
 1162SOL    HW214946   2.269   0.140   4.855 -0.4924  0.3937  1.4907
 1163SOL     OW14947   3.776   1.051   8.282  0.5341 -0.2272 -0.4362
 1163SOL    HW114948   3.862   1.011   8.298  0.2648 -0.3091  0.8052
 1163SOL    HW214949   3.801   1.138   8.252 -0.7307  0.5752  0.8263
 1164SOL     OW14950   0.755   1.278   3.655  0.5623 -0.2234  0.1352
 1164SOL    HW114951   0.672   1.232   3.639  1.0016 -1.2446  0.7968
 1164SOL    HW214952   0.804   1.219   3.712  1.7730  0.7439  0.0843
 1165SOL     OW14953   2.211   4.666   3.140 -0.8370 -0.1786  0.5505
 1165SOL    HW114954   2.124   4.626   3.130 -1.5546  1.4260  0.3861
 1165SOL    HW214955   2.228   4.695   3.051 -1.1866 -0.8441  0.2680
 1166SOL     OW14956   2.822   1.715   9.002  0.3938  0.4586  0.2534
 1166SOL    HW114957   2.915   1.718   8.979  0.0702  1.0836 -0.9333
 1166SOL    HW214958   2.819   1.738   9.095  0.9480 -2.1960  0.9286
 1167SOL     OW14959   4.044   1.504   4.254  0.3431  0.4605 -0.1811
 1167SOL    HW114960   4.072   1.582   4.205  0.9648 -0.6934 -1.6448
 1167SOL    HW214961   3.958   1.494   4.212 -0.1087  0.5767  0.7123
 1168SOL     OW14962   1.040   4.641  15.381 -0.3283 -0.1641  0.2428
 1168SOL    HW114963   0.954   4.674  15.353 -0.6210 -0.6717  0.5443
 1168SOL    HW214964   1.042   4.697  15.459 -0.1065  0.0001  0.1195
 1169SOL     OW14965   1.192   0.510  12.648 -0.3562  0.0786  0.2871
 1169SOL    HW114966   1.246   0.539  12.722  0.1792  1.1978 -0.5387
 1169SOL    HW214967   1.235   0.554  12.574 -0.3486 -1.9784 -0.9348
 1170SOL     OW14968   3.976   2.648  17.526  0.5432  0.1565  0.8480
 1170SOL    HW114969   4.001   2.680  17.439 -3.4106 -1.9008 -1.0278
 1170SOL    HW214970   3.947   2.560  17.502 -0.2800  0.5529  0.4089
 1171SOL     OW14971   1.669   3.281  15.455  0.3651  0.1241  0.4372
 1171SOL    HW114972   1.621   3.218  15.400 -0.0852  1.0679 -0.2505
 1171SOL    HW214973   1.703   3.343  15.390  0.9919 -0.5595  0.1159
 1172SOL     OW14974   1.373   1.202  16.413  0.1408 -0.2491 -0.5159
 1172SOL    HW114975   1.420   1.256  16.476  0.4964 -1.8012  0.5647
 1172SOL    HW214976   1.326   1.148  16.476  0.3445  2.7894  2.2269
 1173SOL     OW14977   4.639   4.289   1.713  0.0673 -0.0272  1.1305
 1173SOL    HW114978   4.554   4.260   1.679  1.0726 -0.7381 -0.7730
 1173SOL    HW214979   4.616   4.277   1.805 -0.0174  1.2466  1.2717
 1174SOL     OW14980   3.837   1.498   4.773 -0.0632 -0.7836 -0.4072
 1174SOL    HW114981   3.836   1.525   4.682 -4.9743  1.0599  0.1778
 1174SOL    HW214982   3.796   1.414   4.756  1.3864 -1.0163 -2.6762
 1175SOL     OW14983   2.795   2.624   9.644  0.1014  0.5972  0.3109
 1175SOL    HW114984   2.888   2.609   9.661 -0.1703  1.0336  2.1814
 1175SOL    HW214985   2.754   2.636   9.729  0.1509 -0.5228  0.4853
 1176SOL     OW14986   2.989   1.022   3.677  0.2207  0.0524  0.0020
 1176SOL    HW114987   2.989   1.102   3.624  1.5334 -2.4339 -3.7122
 1176SOL    HW214988   2.954   0.970   3.605  0.0435 -0.6240  0.5773
 1177SOL     OW14989   2.928   0.125   1.921 -0.5091 -0.0414 -0.4898
 1177SOL    HW114990   2.884   0.085   1.845 -0.5092  1.3526 -1.2377
 1177SOL    HW214991   3.016   0.107   1.888 -0.3917 -0.9364  0.3378
 1178SOL     OW14992   4.066   0.981   6.775  0.3760 -0.2230  0.0715
 1178SOL    HW114993   4.017   0.930   6.839  0.7617 -0.1344  0.4404
 1178SOL    HW214994   4.000   1.035   6.732  0.0854 -0.4506  0.2273
 1179SOL     OW14995   0.414   3.555   3.605  0.2584  0.0521  0.3944
 1179SOL    HW114996   0.387   3.531   3.517 -1.5746  0.0743  0.9418
 1179SOL    HW214997   0.460   3.474   3.627 -0.4544 -1.0810 -2.2914
 1180SOL     OW14998   3.664   1.257   6.088  0.1469 -0.2128 -1.0869
 1180SOL    HW114999   3.708   1.195   6.029  0.4042 -0.7300 -0.3421
 1180SOL    HW215000   3.737   1.287   6.142 -0.3552 -1.2284  0.1554
 1181SOL     OW15001   2.020   3.291   4.773  0.4947 -0.1022  0.4625
 1181SOL    HW115002   2.064   3.375   4.784 -1.1896  1.1636 -2.4021
 1181SOL    HW215003   2.061   3.241   4.844 -0.2021  0.9930  1.6261
 1182SOL     OW15004   4.326   2.919   1.975 -0.3123 -0.0188 -0.2395
 1182SOL    HW115005   4.326   2.824   1.979 -2.5793  0.0212  0.7306
 1182SOL    HW215006   4.261   2.956   2.035 -1.6846 -0.2759 -1.5579
 1183SOL     OW15007   4.644   1.290   3.101 -0.5082 -0.1429  0.2171
 1183SOL    HW115008   4.697   1.363   3.133 -3.0571  0.8894  2.0916
 1183SOL    HW215009   4.559   1.293   3.144  0.1739 -1.3226  1.6563
 1184SOL     OW15010   0.240   0.294   8.765 -0.1035  0.4805 -0.1830
 1184SOL    HW115011   0.192   0.365   8.723  0.2269  0.1329 -1.1589
 1184SOL    HW215012   0.329   0.328   8.772 -0.2733  0.8970 -0.0538
 1185SOL     OW15013   0.910   1.232   3.432  0.0303 -0.6536 -0.0531
 1185SOL    HW115014   0.856   1.278   3.368 -0.4735  0.7578  1.3908
 1185SOL    HW215015   0.861   1.218   3.513  2.5074  2.6661  2.0234
 1186SOL     OW15016   3.046   0.828  16.781  0.7641  0.4591  0.3018
 1186SOL    HW115017   3.087   0.908  16.749 -0.1899  0.6681 -0.4090
 1186SOL    HW215018   3.103   0.788  16.847  1.0885  0.8451  0.2590
 1187SOL     OW15019   1.042   1.033   7.316 -0.0029 -0.2272 -0.4521
 1187SOL    HW115020   0.964   1.050   7.264  0.2032  0.0564 -0.6678
 1187SOL    HW215021   1.042   1.100   7.385 -1.0919 -0.7136  0.0203
 1188SOL     OW15022   0.911   0.113   9.647 -0.1718 -0.3389  1.0889
 1188SOL    HW115023   0.936   0.177   9.581 -1.2826 -1.2920 -0.2304
 1188SOL    HW215024   0.996   0.074   9.670  0.1225 -1.4462 -1.8972
 1189SOL     OW15025   4.683   2.494  16.605 -0.2559  0.8432  0.2294
 1189SOL    HW115026   4.701   2.400  16.597  1.9874  1.2260  0.6840
 1189SOL    HW215027   4.602   2.499  16.655  0.0466 -0.2895  0.8272
 1190SOL     OW15028   3.653   4.162   0.501  0.2898 -0.2216  0.1610
 1190SOL    HW115029   3.599   4.092   0.467  0.7116 -0.8503  0.7930
 1190SOL    HW215030   3.589   4.232   0.514  0.9704  0.7293 -1.6003
 1191SOL     OW15031   0.639   2.052   3.125 -0.5811  0.4270  0.0440
 1191SOL    HW115032   0.582   2.111   3.075  1.3566  1.1200 -1.3567
 1191SOL    HW215033   0.721   2.094   3.096 -0.7025  0.1524 -0.7098
 1192SOL     OW15034   0.922   3.478   5.065 -0.5854  0.4522 -0.1519
 1192SOL    HW115035   0.896   3.486   4.973  0.6743  0.8927 -0.4761
 1192SOL    HW215036   0.834   3.469   5.101 -0.7484 -2.3148 -1.2107
 1193SOL     OW15037   2.747   0.818  10.220  0.4455 -0.1744 -0.1958
 1193SOL    HW115038   2.785   0.732  10.197  3.0096 -0.1789  3.9873
 1193SOL    HW215039   2.778   0.877  10.152 -0.2752 -0.6844 -0.9652
 1194SOL     OW15040   4.090   2.789   6.536  0.5822  0.4406 -0.4123
 1194SOL    HW115041   4.017   2.766   6.478  0.0645  0.0918  0.3772
 1194SOL    HW215042   4.045   2.831   6.609  0.2651  1.9645 -1.4784
 1195SOL     OW15043   4.010   3.510  10.342  0.3266  0.0201 -0.1875
 1195SOL    HW115044   4.029   3.591  10.390 -1.3273  1.4567 -1.9517
 1195SOL    HW215045   3.924   3.534  10.309  1.3422  0.6761 -2.3377
 1196SOL     OW15046   3.815   1.399   6.324 -0.2847  0.2212 -0.2269
 1196SOL    HW115047   3.825   1.464   6.254 -3.2510 -0.1096 -0.9412
 1196SOL    HW215048   3.882   1.337   6.294  1.3047  1.1307  1.4340
 1197SOL     OW15049   2.239   0.506   5.153  0.2965 -0.4951 -0.0224
 1197SOL    HW115050   2.226   0.561   5.076 -1.7878 -0.1125  0.5930
 1197SOL    HW215051   2.183   0.550   5.217  1.2226  2.5515 -1.3332
 1198SOL     OW15052   2.780   4.406  10.787 -0.5374 -0.1131 -0.5081
 1198SOL    HW115053   2.708   4.367  10.738  2.2829 -1.3250 -3.6681
 1198SOL    HW215054   2.808   4.326  10.831  3.3542  0.5398 -1.7850
 1199SOL     OW15055   1.448   2.196   5.233  0.2089 -0.2454  0.1996
 1199SOL    HW115056   1.481   2.122   5.183  1.4223  0.8191 -0.5794
 1199SOL    HW215057   1.455   2.170   5.325  0.7016 -2.0339 -0.3492
 1200SOL     OW15058   4.037   1.280   7.034  0.1859 -0.3604  0.3227
 1200SOL    HW115059   4.077   1.283   6.947 -0.6481 -0.1829 -0.0626
 1200SOL    HW215060   4.060   1.189   7.055  3.1889  0.2523 -0.3470
 1201SOL     OW15061   0.312   4.139   5.250  0.0677  0.1941  0.3472
 1201SOL    HW115062   0.402   4.111   5.265 -0.7554 -2.1500  0.9802
 1201SOL    HW215063   0.263   4.065   5.286  0.5803 -0.0962  0.4535
 1202SOL     OW15064   0.103   4.518   1.959  0.0590 -0.6109 -0.2889
 1202SOL    HW115065   0.031   4.541   1.900 -0.7792 -1.5004  0.3838
 1202SOL    HW215066   0.057   4.544   2.039 -0.4819  0.7022 -1.0197
 1203SOL     OW15067   3.711   1.004   2.290  0.0391 -0.3840  0.0143
 1203SOL    HW115068   3.699   0.914   2.260 -2.2305 -0.6478  1.6922
 1203SOL    HW215069   3.732   1.046   2.207  1.7051 -0.6219  0.3009
 1204SOL     OW15070   3.495   1.439   9.826  0.2469  0.6182 -0.2679
 1204SOL    HW115071   3.428   1.467   9.889 -0.3439  1.0395 -1.0889
 1204SOL    HW215072   3.526   1.363   9.875  3.5431  2.4871  0.5256
 1205SOL     OW15073   3.985   0.696   5.696 -0.0282  0.4851 -0.5002
 1205SOL    HW115074   3.970   0.601   5.688  1.7551  0.0811  0.8352
 1205SOL    HW215075   3.974   0.717   5.788 -0.1096  1.9753 -0.8617
 1206SOL     OW15076   3.413   3.837   5.543  0.1937 -0.5998 -0.1059
 1206SOL    HW115077   3.422   3.807   5.453 -0.2110 -1.4950  0.1576
 1206SOL    HW215078   3.326   3.877   5.542  0.2878 -0.4090 -0.8064
 1207SOL     OW15079   1.612   0.294   5.825  0.2878 -0.0265  0.4939
 1207SOL    HW115080   1.646   0.381   5.846  0.7157  0.0771 -0.6332
 1207SOL    HW215081   1.555   0.317   5.751 -1.6194 -1.0809  1.6391
 1208SOL     OW15082   0.751   4.551   6.387  0.0430 -0.2467 -0.1472
 1208SOL    HW115083   0.689   4.615   6.352  1.5832  0.7540 -1.0869
 1208SOL    HW215084   0.697   4.476   6.408 -1.8352  0.3129 -2.9691
 1209SOL     OW15085   3.243   4.182   9.482  0.2066 -0.3242 -0.2365
 1209SOL    HW115086   3.293   4.102   9.495  1.7239  0.4947 -1.1332
 1209SOL    HW215087   3.170   4.169   9.544  0.1722  2.5792  0.3706
 1210SOL     OW15088   4.500   3.869  12.261  0.2523 -0.1685  0.2607
 1210SOL    HW115089   4.428   3.906  12.211  1.4462  0.4985 -0.9423
 1210SOL    HW215090   4.524   3.805  12.194 -0.3192 -0.7674  0.6286
 1211SOL     OW15091   2.942   0.919   2.484  0.4228  0.0778 -0.0079
 1211SOL    HW115092   2.944   0.963   2.399 -0.0783  0.7338  0.3167
 1211SOL    HW215093   2.957   0.826   2.468 -4.7723 -1.2888  3.0379
 1212SOL     OW15094   3.170   0.350   9.979  0.4445  0.4839 -0.1318
 1212SOL    HW115095   3.257   0.346   9.940 -1.8541 -1.2796 -5.0790
 1212SOL    HW215096   3.134   0.425   9.931 -0.6073 -0.8074 -1.3580
 1213SOL     OW15097   3.953   2.956  14.680  0.4600  0.0772  0.3608
 1213SOL    HW115098   3.964   2.869  14.641 -1.7833 -0.6598  1.3492
 1213SOL    HW215099   3.857   2.958  14.677  0.4493 -0.1489  0.5226
 1214SOL     OW15100   0.367   1.593   7.082 -0.1347  0.4232 -0.1245
 1214SOL    HW115101   0.409   1.512   7.110  1.1741  0.7370 -1.1896
 1214SOL    HW215102   0.279   1.574   7.049 -1.0386  2.6049  1.0332
 1215SOL     OW15103   3.262   1.415   9.368 -0.1623  0.5263  0.8316
 1215SOL    HW115104   3.269   1.436   9.461  1.3277  2.1041  0.3692
 1215SOL    HW215105   3.312   1.334   9.355 -2.3809 -0.6925 -0.1409
 1216SOL     OW15106   3.711   3.528  11.607  0.0454 -0.1464  0.9234
 1216SOL    HW115107   3.687   3.586  11.535  1.3928 -0.9287 -0.1577
 1216SOL    HW215108   3.623   3.502  11.633  0.6501 -1.6953  1.4742
 1217SOL     OW15109   2.549   1.373  13.829 -0.3467  0.0065 -0.4856
 1217SOL    HW115110   2.486   1.303  13.846  0.3103 -0.2809  0.7372
 1217SOL    HW215111   2.523   1.434  13.898  0.0991  0.6856 -0.9244
 1218SOL     OW15112   4.004   2.042  11.391 -0.2709 -0.3085 -0.0877
 1218SOL    HW115113   4.039   2.120  11.434 -0.5552 -1.5791  2.4804
 1218SOL    HW215114   3.936   2.015  11.453  0.3088  1.6657  1.4171
 1219SOL     OW15115   3.710   0.145   3.317 -0.1456  0.0281 -0.3012
 1219SOL    HW115116   3.760   0.226   3.320 -2.9372  1.6933  0.9752
 1219SOL    HW215117   3.629   0.178   3.277 -0.2149 -0.5867 -0.6648
 1220SOL     OW15118   3.047   3.566   9.498 -0.0229  0.3722 -0.0335
 1220SOL    HW115119   3.118   3.630   9.495  1.6105 -1.1906  4.5208
 1220SOL    HW215120   2.982   3.617   9.450 -2.0735 -0.8010  1.5251
 1221SOL     OW15121   3.458   2.865  16.644 -0.2360  0.5453  0.2538
 1221SOL    HW115122   3.380   2.811  16.627  0.8030 -0.7693 -0.3169
 1221SOL    HW215123   3.451   2.911  16.727  0.4460 -0.2830  0.7647
 1222SOL     OW15124   0.067   4.157  17.680  0.0810  0.0265  0.0343
 1222SOL    HW115125   0.112   4.177  17.598 -0.1408  0.5156  0.0346
 1222SOL    HW215126   0.066   4.244   0.018  0.2241  0.6955 -1.4321
 1223SOL     OW15127   4.143   2.296   4.664 -0.2369 -0.1199 -0.3416
 1223SOL    HW115128   4.049   2.281   4.666 -0.1054 -1.3096 -2.8304
 1223SOL    HW215129   4.159   2.262   4.576  1.7372  0.0548 -0.0442
 1224SOL     OW15130   2.962   1.296  16.315  0.0060  0.1447  0.1144
 1224SOL    HW115131   3.050   1.284  16.279  0.9471  2.3053  1.7264
 1224SOL    HW215132   2.975   1.382  16.356 -1.1367  0.0766  0.5983
 1225SOL     OW15133   1.179   0.455   3.150 -0.7035 -0.5960  0.1297
 1225SOL    HW115134   1.179   0.541   3.194 -1.5254 -0.1511 -0.7532
 1225SOL    HW215135   1.170   0.485   3.060 -0.7298  0.6850  0.5576
 1226SOL     OW15136   1.139   1.649   8.027  0.3286 -0.4131 -0.6752
 1226SOL    HW115137   1.063   1.600   7.994 -1.4872  1.6893  0.4342
 1226SOL    HW215138   1.142   1.654   8.123 -2.0859 -0.8840 -0.5667
 1227SOL     OW15139   2.532   0.547   1.171  0.3302  0.0512  0.0732
 1227SOL    HW115140   2.581   0.627   1.150 -0.3407 -0.4260 -3.2802
 1227SOL    HW215141   2.564   0.494   1.098  0.8646  0.3914  0.0564
 1228SOL     OW15142   2.206   0.579   3.960  0.1407 -0.2151 -0.0832
 1228SOL    HW115143   2.300   0.560   3.961  0.1934 -0.0334 -1.4002
 1228SOL    HW215144   2.208   0.675   3.968  1.3586 -0.2659  0.3557
 1229SOL     OW15145   3.038   3.018   8.273 -0.3216 -0.6361 -0.1840
 1229SOL    HW115146   2.986   2.939   8.287 -1.0099 -0.0208  0.7181
 1229SOL    HW215147   2.982   3.079   8.321 -1.1922  0.2260 -2.2549
 1230SOL     OW15148   2.560   2.995   6.673 -0.6622 -0.2284 -0.6398
 1230SOL    HW115149   2.492   3.012   6.738 -0.1840  1.9824 -0.7014
 1230SOL    HW215150   2.608   3.077   6.685 -2.2387  0.2071  2.5847
 1231SOL     OW15151   2.639   1.356   5.678  0.0537 -0.4807 -0.1774
 1231SOL    HW115152   2.678   1.417   5.616 -2.0858 -0.1152 -1.1721
 1231SOL    HW215153   2.715   1.336   5.732 -0.1108  1.9064  0.9242
 1232SOL     OW15154   2.791   4.206   8.154  0.4675  0.0098  0.7874
 1232SOL    HW115155   2.812   4.216   8.061 -1.2708 -1.3537  0.2437
 1232SOL    HW215156   2.715   4.262   8.164 -0.3545 -1.0365  0.4114
 1233SOL     OW15157   2.422   3.975   5.920  0.0915  0.3886  0.2090
 1233SOL    HW115158   2.357   3.936   5.978  2.2260 -0.6548  1.9165
 1233SOL    HW215159   2.384   4.063   5.911 -0.1046  0.5280  2.4151
 1234SOL     OW15160   1.147   1.828   9.219 -0.1042 -0.2932 -0.0722
 1234SOL    HW115161   1.059   1.792   9.222  0.0854 -0.7577 -0.0524
 1234SOL    HW215162   1.193   1.752   9.255  0.4512  0.4937  0.8523
 1235SOL     OW15163   1.951   2.522  11.413 -0.3170 -0.1733  0.4785
 1235SOL    HW115164   1.877   2.462  11.418  0.1371 -1.0628 -3.1060
 1235SOL    HW215165   1.899   2.586  11.364 -1.9082 -0.0711  2.2937
 1236SOL     OW15166   3.359   3.830   4.678 -0.0121  0.1778 -0.7430
 1236SOL    HW115167   3.274   3.819   4.635 -0.1827  1.6167 -0.7524
 1236SOL    HW215168   3.349   3.896   4.746 -0.0494  0.0838 -0.6574
 1237SOL     OW15169   1.184   3.763  13.119 -0.6103 -0.1526 -0.0997
 1237SOL    HW115170   1.219   3.685  13.077  1.9216  2.1942 -2.3984
 1237SOL    HW215171   1.239   3.761  13.196  0.2982  1.5978 -0.6942
 1238SOL     OW15172   2.351   0.451   7.425  0.1837 -0.3103  0.1175
 1238SOL    HW115173   2.412   0.381   7.401 -0.3208 -0.8278  0.3522
 1238SOL    HW215174   2.272   0.400   7.442 -1.1385  1.4584 -0.7287
 1239SOL     OW15175   3.508   3.812   0.638 -0.1993 -0.0906 -0.2051
 1239SOL    HW115176   3.416   3.790   0.647 -0.0727 -0.2588  0.6940
 1239SOL    HW215177   3.533   3.785   0.550 -0.2707  1.0308 -0.5655
 1240SOL     OW15178   4.095   0.069   4.125  0.5220 -0.1169 -0.1415
 1240SOL    HW115179   4.039   0.017   4.067  1.1883  1.0974 -1.9095
 1240SOL    HW215180   4.036   0.089   4.197  2.1504 -0.8064  1.3700
 1241SOL     OW15181   4.416   1.240   7.486 -0.2302 -0.2995 -0.3738
 1241SOL    HW115182   4.357   1.294   7.434  0.1027 -1.0864 -1.5555
 1241SOL    HW215183   4.411   1.291   7.567 -0.5135  0.0987 -0.6381
 1242SOL     OW15184   3.962   1.735  10.749  0.2429 -0.5523  0.0322
 1242SOL    HW115185   3.935   1.826  10.743  1.5619 -0.2077 -0.6186
 1242SOL    HW215186   3.996   1.728  10.838  1.8404  2.1630 -0.3730
 1243SOL     OW15187   4.464   4.102   4.864 -0.2767 -0.5710 -0.5835
 1243SOL    HW115188   4.381   4.096   4.818  0.1046 -1.2980 -1.1771
 1243SOL    HW215189   4.427   4.123   4.950  1.1825  0.6023 -0.2412
 1244SOL     OW15190   3.459   1.441   7.165 -0.0764 -0.4040 -0.4857
 1244SOL    HW115191   3.460   1.362   7.111  1.0649 -1.0792  0.5134
 1244SOL    HW215192   3.379   1.480   7.130 -0.6778  0.3116  1.6441
 1245SOL     OW15193   4.253   1.952  11.967 -0.4778  0.1391 -0.2050
 1245SOL    HW115194   4.202   1.930  12.045  0.1820  1.6557  0.6743
 1245SOL    HW215195   4.343   1.944  12.001 -0.4925  0.3724 -0.1050
 1246SOL     OW15196   3.543   0.319   8.214 -0.1084  0.0636 -0.6689
 1246SOL    HW115197   3.551   0.383   8.143 -0.0077 -1.4650 -2.0461
 1246SOL    HW215198   3.459   0.342   8.252  0.6672 -0.2693  1.2392
 1247SOL     OW15199   1.886   2.625   7.598 -0.2879 -0.0551 -0.0365
 1247SOL    HW115200   1.936   2.707   7.594 -0.0833 -0.1378  0.9800
 1247SOL    HW215201   1.872   2.621   7.692 -1.2777  0.1402 -0.1669
 1248SOL     OW15202   4.219   3.695   6.940  0.3736  0.0717  0.0870
 1248SOL    HW115203   4.151   3.746   6.985 -1.3198 -1.7669 -0.3443
 1248SOL    HW215204   4.189   3.605   6.958  0.3440 -0.3149 -1.9336
 1249SOL     OW15205   4.641   3.400   3.597 -0.3378  0.1956 -0.1399
 1249SOL    HW115206   4.650   3.451   3.516 -0.3089  2.5065  1.3203
 1249SOL    HW215207   4.556   3.357   3.591 -0.2514  0.1118 -0.8572
 1250SOL     OW15208   1.707   0.237   6.831  0.0021 -0.7672 -0.1504
 1250SOL    HW115209   1.684   0.301   6.899  0.2023  0.5282 -1.3177
 1250SOL    HW215210   1.644   0.243   6.760  0.1205  0.3855 -0.1524
 1251SOL     OW15211   2.689   4.555   3.644  0.7353 -0.0083 -0.4323
 1251SOL    HW115212   2.613   4.497   3.649  1.1369 -0.5760 -0.9040
 1251SOL    HW215213   2.722   4.532   3.557 -2.5901  1.6366 -2.1283
 1252SOL     OW15214   3.608   0.536   7.141  0.4315  0.1276 -0.2477
 1252SOL    HW115215   3.656   0.513   7.221 -0.3455  0.6853  0.3846
 1252SOL    HW215216   3.526   0.492   7.164  0.7321 -1.1469 -1.6411
 1253SOL     OW15217   2.488   1.907   7.037 -0.5435 -0.1051  0.5203
 1253SOL    HW115218   2.393   1.902   7.047 -0.5878 -0.0840  0.1138
 1253SOL    HW215219   2.519   1.862   7.115 -1.1726 -0.0447  0.8013
 1254SOL     OW15220   1.205   1.017  16.230 -0.3293  0.0003  0.3097
 1254SOL    HW115221   1.264   0.968  16.173  1.3162  0.7693  1.3444
 1254SOL    HW215222   1.269   1.062  16.285 -0.8675  1.6792 -0.4496
 1255SOL     OW15223   0.150   2.085  17.681  0.1937  0.0986  0.0115
 1255SOL    HW115224   0.072   2.031  17.668 -0.7484  1.4287  0.0879
 1255SOL    HW215225   0.226   2.029  17.668  0.9171  1.1050 -0.1260
 1256SOL     OW15226   0.260   4.369   8.459 -0.7131 -0.0938 -0.0529
 1256SOL    HW115227   0.301   4.338   8.378 -0.1185 -0.2652  0.3126
 1256SOL    HW215228   0.245   4.461   8.437  2.6517  0.8602  1.5188
 1257SOL     OW15229   4.677   0.413  11.807  0.3708  0.3372 -0.0843
 1257SOL    HW115230   4.618   0.359  11.754  0.2872 -0.7010  1.0654
 1257SOL    HW215231   0.026   0.360  11.837  1.9469  2.8918  0.5264
 1258SOL     OW15232   0.485   3.807   9.801 -0.6381  0.2476 -0.2952
 1258SOL    HW115233   0.495   3.713   9.785  0.3624 -0.0962  2.2711
 1258SOL    HW215234   0.512   3.806   9.893 -0.1687  1.0365 -0.4224
 1259SOL     OW15235   2.345   2.006   3.783  0.4539 -0.1222  0.2851
 1259SOL    HW115236   2.358   1.911   3.789 -1.2351 -0.1960  2.6290
 1259SOL    HW215237   2.252   2.009   3.759  0.4487 -0.6170  0.2260
 1260SOL     OW15238   2.930   4.036   6.405  0.1462  0.0352 -0.1716
 1260SOL    HW115239   2.846   4.017   6.445  0.0134 -1.6373 -1.2507
 1260SOL    HW215240   2.958   3.949   6.376  0.0290  0.5127 -1.6939
 1261SOL     OW15241   1.089   3.650   4.641  0.2923  0.5681  0.0873
 1261SOL    HW115242   1.113   3.615   4.726  0.6223 -1.2765 -0.7754
 1261SOL    HW215243   0.994   3.645   4.650  0.5561 -3.0045  0.9328
 1262SOL     OW15244   1.898   2.877   9.773  0.1494  0.1568 -0.5524
 1262SOL    HW115245   1.894   2.805   9.710 -0.4533 -0.3991  0.1216
 1262SOL    HW215246   1.819   2.927   9.753  0.0309  0.2487  0.1361
 1263SOL     OW15247   2.590   0.570  11.571  0.2067 -0.3902  0.4947
 1263SOL    HW115248   2.532   0.611  11.506 -0.0725  1.8625  2.1654
 1263SOL    HW215249   2.609   0.655  11.612 -0.8765  0.1141 -0.0457
 1264SOL     OW15250   4.014   1.159   4.561  0.0555 -0.0264 -0.0678
 1264SOL    HW115251   4.009   1.253   4.575  2.1288  0.4183 -2.2510
 1264SOL    HW215252   3.923   1.127   4.567 -1.1951  3.7067  0.8199
 1265SOL     OW15253   3.030   0.086   0.244  0.3060 -0.6408  0.0971
 1265SOL    HW115254   3.099   0.134   0.199 -0.3066 -0.6879 -0.9148
 1265SOL    HW215255   3.038   0.110   0.336 -1.5932  0.2226  0.0400
 1266SOL     OW15256   2.678   2.550   3.137 -0.3731 -0.2724  0.6463
 1266SOL    HW115257   2.695   2.566   3.044  1.5767  0.0483  1.0452
 1266SOL    HW215258   2.616   2.479   3.120  0.6560 -0.8453 -0.7724
 1267SOL     OW15259   3.263   3.427   7.395  0.7545  0.0004  0.0134
 1267SOL    HW115260   3.310   3.500   7.436 -0.7063  0.7665  0.3176
 1267SOL    HW215261   3.191   3.412   7.456  1.2464  0.7735  0.7884
 1268SOL     OW15262   1.701   2.161   2.359 -0.0057 -0.3819 -0.7357
 1268SOL    HW115263   1.613   2.122   2.359 -0.1756  0.0285  1.4821
 1268SOL    HW215264   1.724   2.141   2.449  0.4488  0.4704 -0.6716
 1269SOL     OW15265   0.850   3.935   8.004 -0.1846  0.7116  0.3461
 1269SOL    HW115266   0.801   3.942   7.923  0.5025 -1.1939 -0.2217
 1269SOL    HW215267   0.937   3.964   7.975  0.8671 -2.3976  0.4163
 1270SOL     OW15268   2.692   3.976   7.665 -0.2168  0.2737  0.0207
 1270SOL    HW115269   2.641   4.054   7.690  0.1119 -0.2145  2.2238
 1270SOL    HW215270   2.707   3.940   7.752  0.7127  0.1882 -0.1815
 1271SOL     OW15271   2.341   2.280   5.693 -0.3847 -0.1396  0.0390
 1271SOL    HW115272   2.329   2.305   5.785 -1.0804 -0.3486  0.0074
 1271SOL    HW215273   2.265   2.326   5.659 -0.3536  0.6484  1.0078
 1272SOL     OW15274   0.548   1.383   3.964 -0.0225 -0.6593  0.3377
 1272SOL    HW115275   0.508   1.410   3.881 -1.1720  2.3252  1.8794
 1272SOL    HW215276   0.474   1.417   4.015 -1.5863 -0.8972 -1.7709
 1273SOL     OW15277   0.852   2.837   4.339  0.6143 -0.6235 -0.5024
 1273SOL    HW115278   0.839   2.775   4.411  2.4429 -1.6609 -1.0432
 1273SOL    HW215279   0.920   2.784   4.297  1.3811 -0.0215 -0.0112
 1274SOL     OW15280   4.370   4.463   3.044 -0.7447 -0.3455 -0.0373
 1274SOL    HW115281   4.460   4.495   3.036 -1.6746  2.3726  0.6523
 1274SOL    HW215282   4.371   4.411   3.125 -0.4887 -0.0592  0.1449
 1275SOL     OW15283   1.238   1.175  15.488  0.0671  0.1010  0.6448
 1275SOL    HW115284   1.254   1.100  15.544 -0.0902  0.4877  1.2066
 1275SOL    HW215285   1.288   1.241  15.536  1.4316 -1.6563  1.6120
 1276SOL     OW15286   4.301   0.341   8.685  0.1190  0.4470  0.5343
 1276SOL    HW115287   4.391   0.318   8.708  0.6956  1.4391 -0.7372
 1276SOL    HW215288   4.259   0.346   8.771 -2.4717 -1.9427 -0.5981
 1277SOL     OW15289   1.826   0.085   9.688 -0.0806 -0.3606  0.3093
 1277SOL    HW115290   1.875   0.060   9.767 -1.6584  0.0124  1.3915
 1277SOL    HW215291   1.887   0.075   9.615 -0.6160  0.4772 -0.2423
 1278SOL     OW15292   1.769   2.214   0.026  0.5146 -0.3214  0.0826
 1278SOL    HW115293   1.789   2.123   0.049  1.3600  0.0032  0.6211
 1278SOL    HW215294   1.698   2.203  17.664  1.1401  1.2713 -0.8824
 1279SOL     OW15295   3.116   0.874   3.294  0.0586  0.0373 -0.3394
 1279SOL    HW115296   3.188   0.863   3.232 -0.0289  2.0198 -0.7864
 1279SOL    HW215297   3.080   0.786   3.287 -2.1007  0.8467  0.6422
 1280SOL     OW15298   3.576   0.702  13.214  0.4074 -0.2512 -0.7599
 1280SOL    HW115299   3.629   0.656  13.148 -0.9986 -0.8641 -1.4560
 1280SOL    HW215300   3.493   0.707  13.167 -0.7048 -0.2847  1.2077
 1281SOL     OW15301   2.672   2.487   2.066 -0.1962  0.2460  0.5726
 1281SOL    HW115302   2.688   2.394   2.082 -0.8570 -0.2101 -1.3517
 1281SOL    HW215303   2.747   2.521   2.114  0.4463  2.3123 -1.8762
 1282SOL     OW15304   1.019   0.427   1.267  0.1184 -0.5932 -0.1812
 1282SOL    HW115305   0.932   0.467   1.265  0.4323  0.1891  1.6292
 1282SOL    HW215306   1.008   0.347   1.318 -3.5700  0.6977  1.0105
 1283SOL     OW15307   0.883   1.423  10.337 -0.2311  0.5906 -0.5662
 1283SOL    HW115308   0.789   1.403  10.334  0.1013 -0.6974 -2.6322
 1283SOL    HW215309   0.875   1.519  10.340  0.8206  0.6864 -1.0084
 1284SOL     OW15310   0.896   0.844   2.264  0.0096  0.2464 -0.0504
 1284SOL    HW115311   0.820   0.862   2.209 -1.0160 -1.2243  0.8914
 1284SOL    HW215312   0.962   0.815   2.202  0.0240 -0.7499  0.4301
 1285SOL     OW15313   1.720   4.016   4.581  0.2062  0.1286  0.3138
 1285SOL    HW115314   1.651   4.013   4.647 -0.0580  0.0239  0.0308
 1285SOL    HW215315   1.776   3.946   4.616 -0.1121 -0.1363  0.2928
 1286SOL     OW15316   4.395   3.424  10.130 -0.1816 -0.5947 -0.3359
 1286SOL    HW115317   4.447   3.504  10.144  0.9592 -1.1544 -1.4656
 1286SOL    HW215318   4.458   3.353  10.140  0.6041  0.1317 -0.0585
 1287SOL     OW15319   0.053   3.192  14.078  0.2953  0.5513 -0.2964
 1287SOL    HW115320   4.684   3.193  14.092  0.6876 -2.6916  2.7904
 1287SOL    HW215321   0.060   3.226  13.989 -0.0520  1.1590 -0.0876
 1288SOL     OW15322   2.173   1.058   5.667 -0.6267 -0.1627 -0.6381
 1288SOL    HW115323   2.253   1.093   5.629  0.6573 -1.6189  0.7057
 1288SOL    HW215324   2.149   0.990   5.603  1.0818  0.1340 -1.5812
 1289SOL     OW15325   4.433   2.558   7.043  0.1115 -0.4854 -0.0048
 1289SOL    HW115326   4.367   2.626   7.057 -1.2034 -1.6950 -0.2712
 1289SOL    HW215327   4.460   2.578   6.953 -1.7226  2.2561  0.0727
 1290SOL     OW15328   0.875   0.002   2.343  0.3980  0.1956 -0.0748
 1290SOL    HW115329   0.828   0.044   2.271  0.4188 -1.6305 -1.1574
 1290SOL    HW215330   0.805   4.668   2.370  1.6372 -1.5324 -0.6048
 1291SOL     OW15331   0.049   4.023   3.298  0.2104 -0.0289  0.0997
 1291SOL    HW115332   0.106   4.041   3.223 -0.4249 -0.2001 -0.4223
 1291SOL    HW215333   0.007   3.941   3.272 -0.7249  0.3138  0.5152
 1292SOL     OW15334   4.016   0.590   2.520  0.4936  0.3295 -0.1514
 1292SOL    HW115335   3.969   0.556   2.595  0.0218  2.0465  0.3225
 1292SOL    HW215336   3.949   0.643   2.478 -0.6792 -2.1661 -1.4473
 1293SOL     OW15337   1.955   2.961  10.089  0.3028 -0.1173  0.9606
 1293SOL    HW115338   1.981   2.932  10.002 -1.8786  0.2627  0.1923
 1293SOL    HW215339   1.860   2.972  10.081 -0.0204 -0.4134  4.1916
 1294SOL     OW15340   4.426   3.917   6.842  0.1720  0.0552 -0.3892
 1294SOL    HW115341   4.386   3.909   6.929  3.4831 -2.5142  0.9089
 1294SOL    HW215342   4.479   3.996   6.851 -1.0085  0.9860 -1.6038
 1295SOL     OW15343   2.178   1.981   1.660 -0.1347 -0.0435 -0.7614
 1295SOL    HW115344   2.272   1.967   1.671 -0.1306 -0.9791 -1.9343
 1295SOL    HW215345   2.151   2.028   1.739 -3.7591  0.0956 -2.0849
 1296SOL     OW15346   2.000   1.935   3.522  0.0761 -0.6620  0.1868
 1296SOL    HW115347   1.919   1.986   3.512  1.5912  1.8915  0.9054
 1296SOL    HW215348   2.038   1.930   3.434  1.2603 -1.0110  0.7225
 1297SOL     OW15349   0.781   2.184   4.670 -0.0609 -0.2525 -0.8321
 1297SOL    HW115350   0.724   2.108   4.659 -1.2114  0.1712  2.4578
 1297SOL    HW215351   0.730   2.252   4.626 -1.9435 -1.0277  0.1703
 1298SOL     OW15352   3.458   4.177   4.668 -0.5364  0.8289 -0.1847
 1298SOL    HW115353   3.540   4.149   4.710 -0.5797 -0.1251 -0.7194
 1298SOL    HW215354   3.403   4.158   4.743 -1.5655 -1.1291 -1.4224
 1299SOL     OW15355   1.642   0.065  13.499 -0.2385  0.1004  0.9318
 1299SOL    HW115356   1.606   0.146  13.535 -2.5008 -0.4710  0.0098
 1299SOL    HW215357   1.577   0.041  13.432 -0.9373  2.4435  0.7407
 1300SOL     OW15358   0.297   0.308   6.553  0.0484  0.2467 -0.0542
 1300SOL    HW115359   0.234   0.252   6.598  2.4342 -0.6642  2.1536
 1300SOL    HW215360   0.345   0.337   6.630  0.6131  2.2884 -1.1838
 1301SOL     OW15361   3.735   0.025   0.047 -0.0355  0.1656  0.2525
 1301SOL    HW115362   3.784   0.046   0.127  0.7042  0.1802 -0.2030
 1301SOL    HW215363   3.647   0.015   0.083  0.4715 -2.5366  0.6908
 1302SOL     OW15364   0.374   3.555  12.941 -0.8254  0.1312  0.2536
 1302SOL    HW115365   0.280   3.566  12.950 -0.8327  0.9660 -0.7536
 1302SOL    HW215366   0.379   3.459  12.934  2.1965  0.3626 -0.7725
 1303SOL     OW15367   1.744   0.625   7.107  0.5317 -0.8511 -0.2516
 1303SOL    HW115368   1.833   0.614   7.140  0.5455 -0.3491 -0.1234
 1303SOL    HW215369   1.716   0.698   7.161 -0.8479 -1.7028  0.1796
 1304SOL     OW15370   1.681   3.813   6.302  0.4779 -0.6681  0.2468
 1304SOL    HW115371   1.701   3.719   6.307  1.1993 -0.4998  0.5474
 1304SOL    HW215372   1.593   3.818   6.266  0.6824  0.5521 -0.0719
 1305SOL     OW15373   2.574   1.310   8.741 -0.3462  0.3828  0.5001
 1305SOL    HW115374   2.608   1.389   8.700 -0.7165  0.8345  1.0702
 1305SOL    HW215375   2.497   1.299   8.685 -0.8866 -3.2238  1.9509
 1306SOL     OW15376   3.466   3.466  11.253  0.0959 -0.0886 -0.4235
 1306SOL    HW115377   3.373   3.489  11.249  0.4722  1.6057  0.7010
 1306SOL    HW215378   3.497   3.555  11.236  0.7454 -0.3395 -0.5306
 1307SOL     OW15379   4.270   1.976   7.604 -0.3740  0.0483 -0.1994
 1307SOL    HW115380   4.241   1.904   7.661 -1.8510  0.8459  0.0483
 1307SOL    HW215381   4.315   2.034   7.665 -1.6142  0.2550  0.5248
 1308SOL     OW15382   0.156   0.020   7.997 -0.7747 -0.2854 -0.4722
 1308SOL    HW115383   0.207   0.046   7.920  1.6628 -2.0841  0.5352
 1308SOL    HW215384   0.178   0.097   8.049 -0.2978 -1.0555  0.4735
 1309SOL     OW15385   1.460   3.187  11.026 -0.1364  0.4596  0.0971
 1309SOL    HW115386   1.465   3.092  11.016  1.7735  0.5517  0.1041
 1309SOL    HW215387   1.548   3.215  11.001  0.7628 -1.2282  1.4106
 1310SOL     OW15388   4.137   3.434   7.008 -0.8960  0.4177  0.3468
 1310SOL    HW115389   4.170   3.347   6.985 -1.2657 -0.0948  1.7548
 1310SOL    HW215390   4.089   3.410   7.087 -1.1144 -1.5697 -0.4009
 1311SOL     OW15391   0.809   0.929  10.532 -0.3140 -0.1874  0.2731
 1311SOL    HW115392   0.774   0.997  10.589  1.0357  0.5207  0.2371
 1311SOL    HW215393   0.777   0.953  10.444  0.9939 -1.1977 -0.4749
 1312SOL     OW15394   0.220   4.567  14.558 -0.1654 -0.2443 -0.0983
 1312SOL    HW115395   0.149   4.523  14.604  1.0733 -0.4372  1.6308
 1312SOL    HW215396   0.201   4.537  14.469 -1.5927 -0.4996  0.2968
 1313SOL     OW15397   3.233   2.146   1.646  0.6844  0.8890 -0.0698
 1313SOL    HW115398   3.311   2.169   1.697 -1.2740  2.2612  2.3152
 1313SOL    HW215399   3.206   2.062   1.682 -0.3905  1.2896  0.0673
 1314SOL     OW15400   2.096   1.366   7.711 -0.6510  0.7389 -0.1077
 1314SOL    HW115401   2.149   1.287   7.725 -0.5150  0.2488 -3.3069
 1314SOL    HW215402   2.115   1.413   7.792  0.2678  0.6393 -0.2583
 1315SOL     OW15403   4.698   0.888   7.144  0.2229  0.4973 -0.3621
 1315SOL    HW115404   0.020   0.874   7.062 -0.5890 -0.1120 -0.7301
 1315SOL    HW215405   0.050   0.904   7.198  1.0579  0.2142 -1.4679
 1316SOL     OW15406   3.078   1.152   5.595 -0.0825 -0.5337 -0.2321
 1316SOL    HW115407   3.089   1.233   5.546  0.5350 -0.7743 -0.4880
 1316SOL    HW215408   2.983   1.136   5.599 -0.4737  1.8924  0.1795
 1317SOL     OW15409   3.530   0.658  11.942  0.1537  0.2694  0.0700
 1317SOL    HW115410   3.599   0.626  11.884  0.3182 -1.0462  0.9816
 1317SOL    HW215411   3.582   0.670  12.022 -0.9872 -1.0589  1.0108
 1318SOL     OW15412   0.238   2.623  11.960 -0.3557 -0.4248 -0.4830
 1318SOL    HW115413   0.264   2.531  11.949  1.5598  0.1905 -1.1882
 1318SOL    HW215414   0.224   2.626  12.054  1.4455 -0.1190 -0.2245
 1319SOL     OW15415   2.761   4.368   2.416  0.0775 -0.6211 -0.5616
 1319SOL    HW115416   2.769   4.368   2.320  0.9191  0.4197 -0.5051
 1319SOL    HW215417   2.835   4.423   2.442  0.7149 -0.5267 -2.5363
 1320SOL     OW15418   0.113   3.551  13.816 -0.1869  0.0267 -0.4735
 1320SOL    HW115419   0.093   3.554  13.722 -0.3821 -2.1670 -0.4995
 1320SOL    HW215420   0.164   3.631  13.829  0.2564 -0.4090  0.3954
 1321SOL     OW15421   1.285   2.136   9.551  0.4740 -0.6697 -0.2294
 1321SOL    HW115422   1.332   2.053   9.544  0.9851 -0.2449 -1.7393
 1321SOL    HW215423   1.227   2.123   9.626  0.5017  0.2461 -0.0550
 1322SOL     OW15424   4.666   0.615   7.949 -0.2211  0.0292 -0.3647
 1322SOL    HW115425   4.710   0.656   7.875  0.6628 -2.2333 -1.0570
 1322SOL    HW215426   4.691   0.523   7.945 -1.4704 -0.1673 -3.5033
 1323SOL     OW15427   3.781   1.258   5.180  0.0907  0.2776 -0.1791
 1323SOL    HW115428   3.691   1.288   5.170 -0.4624 -1.5326 -0.5849
 1323SOL    HW215429   3.834   1.314   5.123  1.8913 -0.1507  1.0548
 1324SOL     OW15430   4.266   4.225  17.595  0.1263  0.6279 -0.5239
 1324SOL    HW115431   4.253   4.217  17.690  1.2779 -1.2864 -0.5134
 1324SOL    HW215432   4.180   4.209  17.556  1.0843 -2.5716 -1.3299
 1325SOL     OW15433   1.955   1.024  14.083  0.1591  0.0604 -0.3763
 1325SOL    HW115434   1.999   1.057  14.161 -0.4729  1.7475 -0.7351
 1325SOL    HW215435   1.987   1.089  14.020 -1.1013  0.7497 -0.3159
 1326SOL     OW15436   4.638   0.081  14.150 -0.3559 -0.4862 -0.1987
 1326SOL    HW115437   4.567   0.022  14.175  0.0486 -1.1134 -0.5171
 1326SOL    HW215438   4.706   0.014  14.139  0.1053  0.0684 -0.6852
 1327SOL     OW15439   3.314   1.456   5.772  0.2634  0.5349 -0.4813
 1327SOL    HW115440   3.387   1.496   5.818  2.2795 -0.0226 -3.2585
 1327SOL    HW215441   3.338   1.466   5.680  1.6339 -0.4721 -0.2320
 1328SOL     OW15442   0.271   4.688   7.499  0.1806 -0.0914 -0.5795
 1328SOL    HW115443   0.350   4.656   7.456 -0.3123 -2.1617  0.0673
 1328SOL    HW215444   0.213   4.635   7.444  0.6868 -0.6029 -0.6169
 1329SOL     OW15445   1.614   0.203   7.738 -0.2787 -0.1396 -0.0313
 1329SOL    HW115446   1.660   0.148   7.803  1.0092 -1.1500 -1.8046
 1329SOL    HW215447   1.687   0.255   7.705  0.1471 -0.0987  0.9543
 1330SOL     OW15448   3.138   1.296   9.138 -0.0510 -0.5204  0.2155
 1330SOL    HW115449   3.078   1.291   9.213 -1.4930 -1.2595 -1.0027
 1330SOL    HW215450   3.199   1.225   9.153  0.0427  0.0632  2.5979
 1331SOL     OW15451   1.252   2.701   5.694  0.3656  0.0488 -0.1722
 1331SOL    HW115452   1.340   2.688   5.729 -0.4630 -2.9650  0.8138
 1331SOL    HW215453   1.206   2.621   5.721 -0.6501  0.7847  0.2419
 1332SOL     OW15454   3.669   2.326   5.220 -0.0046 -0.1807  0.1723
 1332SOL    HW115455   3.695   2.352   5.132 -1.5947 -1.6109 -0.6991
 1332SOL    HW215456   3.661   2.231   5.215 -0.1408 -0.1940  0.6456
 1333SOL     OW15457   4.505   0.162   9.877  0.2731 -0.0020  0.4458
 1333SOL    HW115458   4.476   0.091   9.821  0.8078  0.8926 -0.9582
 1333SOL    HW215459   4.569   0.202   9.818 -1.2568  1.5950 -0.1241
 1334SOL     OW15460   4.047   1.711   3.889 -0.4064 -0.2799 -0.1550
 1334SOL    HW115461   3.968   1.765   3.895 -0.3464 -0.4316  1.8632
 1334SOL    HW215462   4.086   1.737   3.972 -1.0217 -0.1778  0.1021
 1335SOL     OW15463   3.131   0.686   6.837 -0.5045 -0.1843  0.1579
 1335SOL    HW115464   3.196   0.749   6.870  0.0435 -0.6819  0.0352
 1335SOL    HW215465   3.091   0.651   6.917  1.8138 -0.0467  1.3892
 1336SOL     OW15466   0.028   4.325   0.617 -0.0020 -0.0117 -1.0825
 1336SOL    HW115467   0.075   4.405   0.596  2.0307 -1.2092 -1.0497
 1336SOL    HW215468   4.669   4.370   0.634  2.0307  3.5613 -0.4717
 1337SOL     OW15469   4.424   0.212   8.366  0.1854  0.0733  0.1517
 1337SOL    HW115470   4.450   0.230   8.276  0.8682 -0.3183  0.2685
 1337SOL    HW215471   4.406   0.301   8.397  2.1777 -0.0041  1.5708
 1338SOL     OW15472   0.046   1.318   2.827  0.5198 -0.0493 -0.1835
 1338SOL    HW115473   0.025   1.311   2.920  0.5216 -2.9030 -0.4125
 1338SOL    HW215474   4.693   1.277   2.790 -0.7822  2.8263 -0.6548
 1339SOL     OW15475   2.824   3.252   8.212  0.8143  0.4975  0.0044
 1339SOL    HW115476   2.828   3.265   8.307  2.6762  1.6838 -0.2304
 1339SOL    HW215477   2.855   3.162   8.202  0.5828  0.2394  1.6098
 1340SOL     OW15478   2.885   3.275   1.642 -0.1847 -0.4365  0.5756
 1340SOL    HW115479   2.803   3.268   1.690 -0.6205 -0.2566 -0.1421
 1340SOL    HW215480   2.844   3.248   1.560  2.0147 -0.7746 -0.3999
 1341SOL     OW15481   1.651   3.491  11.490  0.0530 -0.2485  0.7063
 1341SOL    HW115482   1.596   3.542  11.431  3.3703  1.0055 -1.2752
 1341SOL    HW215483   1.632   3.400  11.466  1.6609 -0.1744 -0.8409
 1342SOL     OW15484   0.183   0.541   6.163 -0.4652  0.3187  0.3896
 1342SOL    HW115485   0.268   0.581   6.146 -0.1737 -0.2606  0.4895
 1342SOL    HW215486   0.211   0.459   6.122 -0.1017  0.3610  0.5513
 1343SOL     OW15487   4.447   0.678   4.361 -0.0632  0.0961 -1.1643
 1343SOL    HW115488   4.459   0.586   4.335  0.9466 -1.1094  3.5518
 1343SOL    HW215489   4.393   0.660   4.439  0.2745  1.0201 -0.7264
 1344SOL     OW15490   4.254   0.524  10.601 -0.3040  0.8754 -0.4489
 1344SOL    HW115491   4.222   0.479  10.524  1.3718  0.9097 -1.1646
 1344SOL    HW215492   4.210   0.608  10.585 -0.4788  0.1673 -3.5222
 1345SOL     OW15493   3.422   4.087  17.413 -0.9205  0.1450  0.0791
 1345SOL    HW115494   3.331   4.078  17.443 -0.9679  0.7662  0.1237
 1345SOL    HW215495   3.456   4.012  17.461  2.7217  0.2293 -2.4084
 1346SOL     OW15496   4.442   0.422   4.067  0.1579 -0.3503  0.3125
 1346SOL    HW115497   4.391   0.342   4.068 -2.3803  1.2479 -1.0703
 1346SOL    HW215498   4.375   0.489   4.057  0.4147 -0.1319  0.0403
 1347SOL     OW15499   3.612   3.996  16.309  0.3834  0.3388  0.4586
 1347SOL    HW115500   3.693   4.044  16.329 -0.3650  1.8339 -0.1227
 1347SOL    HW215501   3.576   3.955  16.387  0.2375  0.1695  0.3013
 1348SOL     OW15502   3.412   1.246  13.306  0.5073 -0.7142 -0.7003
 1348SOL    HW115503   3.366   1.298  13.240 -0.9048 -0.9307  0.1328
 1348SOL    HW215504   3.493   1.297  13.299 -0.4192  0.9654  0.8913
 1349SOL     OW15505   4.578   4.706  11.796 -0.2862  0.0122  0.2437
 1349SOL    HW115506   4.587   0.067  11.755 -1.5070  0.4594  0.9411
 1349SOL    HW215507   4.491   4.706  11.834  0.4349  1.3792  1.9343
 1350SOL     OW15508   4.375   1.120   0.626 -0.1804 -0.1016 -0.2641
 1350SOL    HW115509   4.316   1.119   0.551 -4.5396 -0.3553  3.1822
 1350SOL    HW215510   4.314   1.106   0.698 -1.0078 -1.4146 -1.2294
 1351SOL     OW15511   2.344   0.927   6.627 -0.0723  0.3083 -0.4828
 1351SOL    HW115512   2.257   0.966   6.635  0.1228  0.7925 -0.7004
 1351SOL    HW215513   2.356   0.897   6.717  0.3275  0.9812 -0.3126
 1352SOL     OW15514   3.665   0.716   8.250  0.2058  0.6706 -0.7140
 1352SOL    HW115515   3.617   0.796   8.270 -1.1247 -0.3185  0.0259
 1352SOL    HW215516   3.605   0.650   8.285  1.0315 -0.3846 -1.2652
 1353SOL     OW15517   0.790   0.142  11.843  0.4774 -1.0093 -0.2608
 1353SOL    HW115518   0.703   0.180  11.835  0.7254 -0.9618 -2.6104
 1353SOL    HW215519   0.842   0.206  11.892  0.7362 -0.6222 -1.0496
 1354SOL     OW15520   2.826   1.030   8.836  0.5782  0.0020 -0.0031
 1354SOL    HW115521   2.864   1.004   8.920 -0.1648 -0.0125  0.3313
 1354SOL    HW215522   2.816   0.947   8.789 -0.1563 -1.0942  2.0805
 1355SOL     OW15523   2.941   0.401   3.144 -0.1590  0.3216  0.1729
 1355SOL    HW115524   2.995   0.326   3.120 -0.5050  0.4804 -1.1047
 1355SOL    HW215525   2.939   0.386   3.239 -2.5026  3.7637  0.6647
 1356SOL     OW15526   0.581   1.471   4.818  0.5353 -0.8048 -0.6074
 1356SOL    HW115527   0.613   1.560   4.809  1.6705 -1.0017  1.3198
 1356SOL    HW215528   0.629   1.442   4.896 -0.3630  0.3846  0.3875
 1357SOL     OW15529   1.715   4.430   9.338  0.2668  0.4592  0.2193
 1357SOL    HW115530   1.630   4.473   9.348  0.5288  0.9166  0.4399
 1357SOL    HW215531   1.744   4.432   9.429  1.3178 -1.6841 -0.0727
 1358SOL     OW15532   4.036   4.030   4.920 -0.1501  0.2306  0.0092
 1358SOL    HW115533   4.079   4.054   4.838 -2.1657  1.0125 -0.8103
 1358SOL    HW215534   4.013   3.939   4.900  0.9849  0.0845 -0.6184
 1359SOL     OW15535   2.304   0.826   7.751  0.1002  0.4959 -0.0527
 1359SOL    HW115536   2.340   0.833   7.840  1.6756  1.6118 -0.7828
 1359SOL    HW215537   2.280   0.734   7.741 -2.3805  1.0183  1.0912
 1360SOL     OW15538   2.322   3.003   5.437  0.4001  0.1153  0.6074
 1360SOL    HW115539   2.258   3.073   5.453  0.4148  0.4567 -0.8004
 1360SOL    HW215540   2.294   2.931   5.493  1.6239  0.1536  1.2677
 1361SOL     OW15541   1.928   2.872   5.917  0.0408  0.2623  0.2255
 1361SOL    HW115542   1.896   2.783   5.902 -0.4153  0.7165 -1.5108
 1361SOL    HW215543   1.901   2.915   5.836 -1.6462 -2.3486 -0.5725
 1362SOL     OW15544   1.861   3.292   7.106 -0.1165 -0.0644  0.5651
 1362SOL    HW115545   1.834   3.329   7.022 -0.5367 -1.8801 -0.1121
 1362SOL    HW215546   1.876   3.366   7.164 -1.2030 -0.1336  0.9456
 1363SOL     OW15547   2.698   2.076   9.182  0.0875  0.0334  0.2415
 1363SOL    HW115548   2.651   2.159   9.179 -0.3781 -0.2184  0.6088
 1363SOL    HW215549   2.714   2.062   9.089 -0.4972  1.4067 -0.0545
 1364SOL     OW15550   0.656   1.150   4.245 -0.4764 -0.3667 -0.3779
 1364SOL    HW115551   0.567   1.161   4.212 -1.3866 -2.2208  1.5188
 1364SOL    HW215552   0.670   1.237   4.282 -2.5045  0.0379 -0.5681
 1365SOL     OW15553   1.328   0.950  11.477  0.2901 -0.4265  0.2802
 1365SOL    HW115554   1.355   0.947  11.386 -0.0436 -0.0459  0.1694
 1365SOL    HW215555   1.233   0.955  11.464  0.4265 -0.3620 -0.6666
 1366SOL     OW15556   0.276   0.849  11.738  0.0877  0.5780  0.3920
 1366SOL    HW115557   0.241   0.854  11.827  0.9117 -0.5820  0.7832
 1366SOL    HW215558   0.368   0.872  11.751  0.8193 -0.3933 -3.1394
 1367SOL     OW15559   2.154   0.663  14.939  0.2995  0.3584  0.2128
 1367SOL    HW115560   2.139   0.629  14.851  2.6174  0.1109 -0.0913
 1367SOL    HW215561   2.104   0.611  15.002 -1.2615 -0.7841 -1.9593
 1368SOL     OW15562   1.042   1.533   3.545 -0.1283  0.3775 -0.1428
 1368SOL    HW115563   0.981   1.567   3.610 -1.4584  0.0560 -1.2402
 1368SOL    HW215564   1.012   1.442   3.539  0.1299  0.2022  1.1053
 1369SOL     OW15565   0.126   3.005   6.673  0.1170 -0.1058 -0.1562
 1369SOL    HW115566   0.070   3.070   6.715  1.3050  2.0333 -1.8587
 1369SOL    HW215567   0.091   2.927   6.716  2.2510  0.4503  2.5881
 1370SOL     OW15568   2.181   3.352  13.224 -0.1009 -0.0041 -0.3843
 1370SOL    HW115569   2.151   3.371  13.313  0.6760  0.0942 -0.1477
 1370SOL    HW215570   2.276   3.344  13.225 -0.2336 -1.5309 -0.2716
 1371SOL     OW15571   0.851   0.614  12.107 -0.3834  0.2913 -0.0404
 1371SOL    HW115572   0.901   0.579  12.181  1.0628  0.6972 -0.8131
 1371SOL    HW215573   0.792   0.680  12.144 -0.0018  0.4501  0.3010
 1372SOL     OW15574   0.182   0.367   5.273 -0.3092  0.6937  0.2475
 1372SOL    HW115575   0.209   0.452   5.306 -0.5722  1.0304 -0.3959
 1372SOL    HW215576   0.190   0.308   5.348 -0.4023  1.7340  1.0771
 1373SOL     OW15577   3.608   0.331   3.058 -0.4392  0.1305 -0.2842
 1373SOL    HW115578   3.618   0.237   3.042 -3.2766 -0.0342 -1.0873
 1373SOL    HW215579   3.553   0.321   3.135  1.3875  3.0844  1.4097
 1374SOL     OW15580   4.017   3.738   2.817 -0.1013 -0.1098 -0.3079
 1374SOL    HW115581   3.992   3.708   2.729  3.5085 -1.4019 -0.8731
 1374SOL    HW215582   4.075   3.666   2.842 -0.9747 -1.1971 -1.3473
 1375SOL     OW15583   2.615   3.667   7.019 -0.3635 -0.0804 -0.2987
 1375SOL    HW115584   2.524   3.648   6.996 -0.8686  4.7116 -2.0488
 1375SOL    HW215585   2.604   3.672   7.114  0.2922 -0.2595 -0.2167
 1376SOL     OW15586   3.928   3.593   2.604  0.9732 -0.5527  0.4706
 1376SOL    HW115587   3.987   3.610   2.530  0.1300 -0.8333 -0.2737
 1376SOL    HW215588   3.869   3.529   2.565 -0.3483  0.3585  0.9886
 1377SOL     OW15589   0.347   3.068   4.165 -0.2335 -0.3403  0.6000
 1377SOL    HW115590   0.436   3.040   4.182  0.2230 -0.6168 -2.4050
 1377SOL    HW215591   0.344   3.156   4.205  1.7957  0.5559 -1.2914
 1378SOL     OW15592   4.134   0.149   3.155  0.2590  0.4674  0.0772
 1378SOL    HW115593   4.087   0.120   3.076  0.9976 -1.1075  0.2280
 1378SOL    HW215594   4.126   0.071   3.209 -0.0104  0.4308 -0.0150
 1379SOL     OW15595   0.159   3.566  16.312 -0.1539  0.5929 -0.4005
 1379SOL    HW115596   0.197   3.526  16.234  0.1187 -0.5112  0.3060
 1379SOL    HW215597   0.231   3.621  16.342  0.1990  0.0957 -0.3468
 1380SOL     OW15598   0.850   4.445   4.959 -0.2505  0.8637 -0.5894
 1380SOL    HW115599   0.879   4.395   4.882  0.8297  0.3665  0.1332
 1380SOL    HW215600   0.778   4.387   4.983 -0.2369  1.2744  0.4457
 1381SOL     OW15601   3.063   2.940   9.150  0.1008 -0.2273  0.5983
 1381SOL    HW115602   3.061   2.877   9.078  0.9828  0.5065 -0.0659
 1381SOL    HW215603   3.058   2.891   9.232 -1.0200 -2.3605 -0.7329
 1382SOL     OW15604   3.524   3.161   5.073  0.1101 -0.4874  0.2755
 1382SOL    HW115605   3.431   3.145   5.057 -0.0989  0.5550  0.4968
 1382SOL    HW215606   3.560   3.161   4.984 -2.5884  0.4967 -0.7948
 1383SOL     OW15607   1.592   2.792   4.150  0.3175  0.0387  0.0338
 1383SOL    HW115608   1.668   2.815   4.204  0.5486 -1.6338  0.4287
 1383SOL    HW215609   1.616   2.822   4.063  0.5023 -1.5604 -0.4574
 1384SOL     OW15610   4.333   1.569   6.921 -0.1826 -0.2224  0.0450
 1384SOL    HW115611   4.323   1.487   6.970 -0.3300 -1.3822 -1.9204
 1384SOL    HW215612   4.425   1.561   6.896 -0.3054 -0.9588 -0.1935
 1385SOL     OW15613   1.130   2.773   5.458 -0.2686 -0.2101 -0.1444
 1385SOL    HW115614   1.169   2.766   5.545  3.1665  2.5261 -1.4398
 1385SOL    HW215615   1.197   2.726   5.407 -0.6879 -0.2694 -0.6470
 1386SOL     OW15616   2.173   0.856   0.781  0.6348 -0.1051  0.7018
 1386SOL    HW115617   2.191   0.950   0.791  0.2307 -0.4217  4.3333
 1386SOL    HW215618   2.237   0.832   0.714 -0.6642 -0.8530 -0.2697
 1387SOL     OW15619   0.171   3.702   5.320 -0.8124  0.2274  0.1104
 1387SOL    HW115620   0.172   3.794   5.347 -0.3298 -0.2685  1.8096
 1387SOL    HW215621   0.089   3.698   5.271 -0.9434  0.9309  0.2660
 1388SOL     OW15622   0.554   2.767  11.579 -0.3805  0.1078 -0.6182
 1388SOL    HW115623   0.530   2.819  11.656  1.0873  0.0322 -0.1025
 1388SOL    HW215624   0.491   2.791  11.511 -0.6940  0.2794 -0.2700
 1389SOL     OW15625   4.436   0.821   8.407 -0.5495  0.0818  0.9524
 1389SOL    HW115626   4.490   0.858   8.337 -0.1331 -2.6827 -0.1914
 1389SOL    HW215627   4.500   0.780   8.466 -0.4506 -1.0884  0.0250
 1390SOL     OW15628   1.914   0.583   9.950 -0.3099 -0.2148 -0.0403
 1390SOL    HW115629   1.892   0.635  10.027  1.0191 -1.4988  1.2223
 1390SOL    HW215630   1.843   0.519   9.950  0.2410 -0.8246  1.3826
 1391SOL     OW15631   2.758   1.676  14.317 -0.3046 -0.1209  0.3040
 1391SOL    HW115632   2.725   1.744  14.258 -0.5012  0.3292  0.9333
 1391SOL    HW215633   2.804   1.738  14.374 -2.2046  0.1172  1.5548
 1392SOL     OW15634   2.017   1.807   4.868  0.1566  0.0276 -0.8208
 1392SOL    HW115635   2.050   1.895   4.854 -0.7804  0.5543  0.2596
 1392SOL    HW215636   2.007   1.785   4.776 -1.4136 -2.1188 -0.1476
 1393SOL     OW15637   4.016   0.254   3.509 -0.2164 -0.2632 -0.9579
 1393SOL    HW115638   3.937   0.272   3.561 -0.5131  1.4437 -2.0119
 1393SOL    HW215639   4.001   0.164   3.479 -1.3062 -0.4259  0.0418
 1394SOL     OW15640   2.747   3.861  10.402 -0.2924  0.3527 -0.0112
 1394SOL    HW115641   2.826   3.903  10.436  2.3431 -1.7867 -3.4665
 1394SOL    HW215642   2.713   3.829  10.485 -0.1422 -0.1278 -0.1340
 1395SOL     OW15643   2.756   3.349   0.497 -0.1413  0.0600 -0.3708
 1395SOL    HW115644   2.670   3.393   0.497 -0.1078  0.1251 -0.6518
 1395SOL    HW215645   2.748   3.270   0.550  0.1817  0.4085  0.1912
 1396SOL     OW15646   1.651   0.598   6.473 -0.1421 -0.7725  0.0543
 1396SOL    HW115647   1.677   0.674   6.525 -0.7982  0.1037 -0.8844
 1396SOL    HW215648   1.732   0.568   6.432  1.4743  0.3980  2.3669
 1397SOL     OW15649   2.508   2.068   0.432  0.3392  0.6590 -0.3687
 1397SOL    HW115650   2.441   2.079   0.365 -0.5566  0.5018  0.5037
 1397SOL    HW215651   2.494   2.143   0.489 -0.6830 -0.5601  0.9718
 1398SOL     OW15652   3.242   2.764   4.306  0.4951 -0.4478 -0.1174
 1398SOL    HW115653   3.169   2.825   4.297  1.1045  0.3925  0.6332
 1398SOL    HW215654   3.247   2.775   4.401  0.1505  1.7732 -0.3496
 1399SOL     OW15655   3.860   3.495  13.947 -0.6281  0.2088 -0.2775
 1399SOL    HW115656   3.789   3.559  13.959 -0.2348  0.3823  1.1431
 1399SOL    HW215657   3.806   3.418  13.932 -0.0918 -0.1980 -0.1138
 1400SOL     OW15658   0.042   2.596   5.166  0.3858 -0.1161  0.5263
 1400SOL    HW115659   0.124   2.604   5.215 -0.1552  0.1051  1.3834
 1400SOL    HW215660   0.068   2.565   5.079 -0.1898 -0.5940  0.5249
 1401SOL     OW15661   0.397   1.374   1.377 -0.8085  0.5357  0.2776
 1401SOL    HW115662   0.473   1.399   1.324 -1.0726 -1.4765 -1.0420
 1401SOL    HW215663   0.387   1.456   1.426  0.3962  1.0423 -0.3344
 1402SOL     OW15664   2.889   1.339   6.412  0.0451  0.3483  0.0799
 1402SOL    HW115665   2.871   1.428   6.382  1.0789  0.4456 -0.2448
 1402SOL    HW215666   2.875   1.290   6.332  1.1149 -0.5103  0.4227
 1403SOL     OW15667   1.385   1.195   9.416 -0.3690 -0.2510  0.2391
 1403SOL    HW115668   1.316   1.149   9.368 -1.5877 -0.7277  2.4646
 1403SOL    HW215669   1.359   1.167   9.504 -1.1449 -0.6902 -0.1260
 1404SOL     OW15670   1.864   0.106   5.386 -0.0767  0.3093  0.1942
 1404SOL    HW115671   1.776   0.140   5.402 -1.0675 -2.1434  0.0428
 1404SOL    HW215672   1.894   0.150   5.307  2.3386 -0.3565  0.7470
 1405SOL     OW15673   0.891   3.784   3.259 -0.1195 -0.2936 -0.1126
 1405SOL    HW115674   0.810   3.806   3.213  0.2362 -1.8481 -1.4675
 1405SOL    HW215675   0.897   3.840   3.336  0.0384 -0.2071 -0.1864
 1406SOL     OW15676   3.867   0.358   3.278  0.7593 -0.2282  0.0658
 1406SOL    HW115677   3.944   0.305   3.257  1.9516  1.8465 -0.7325
 1406SOL    HW215678   3.911   0.436   3.312 -0.2877  0.4725 -0.1971
 1407SOL     OW15679   1.860   3.798   4.186 -0.5353  0.4610  0.1758
 1407SOL    HW115680   1.953   3.795   4.206 -0.5118 -2.0698 -0.2263
 1407SOL    HW215681   1.855   3.723   4.126 -0.5512  1.3957 -0.9810
 1408SOL     OW15682   1.594   4.331   3.271 -0.2948  0.0984  0.1544
 1408SOL    HW115683   1.503   4.311   3.250  0.5977 -2.3341 -1.4823
 1408SOL    HW215684   1.622   4.257   3.325  1.4134  1.2100  0.7879
 1409SOL     OW15685   3.738   2.903   6.947 -0.1401 -0.5873  0.7717
 1409SOL    HW115686   3.694   2.878   6.866 -3.1799  1.7563  1.7330
 1409SOL    HW215687   3.703   2.840   7.010  1.5582 -3.5173 -1.2426
 1410SOL     OW15688   3.297   2.796   4.999  0.0009  0.5084 -0.2067
 1410SOL    HW115689   3.278   2.838   5.083 -1.2687 -0.3967 -0.0350
 1410SOL    HW215690   3.388   2.771   5.015 -0.6707 -1.2877  0.8465
 1411SOL     OW15691   2.247   2.908   1.884  0.4992 -0.5837  1.0126
 1411SOL    HW115692   2.188   2.982   1.898 -0.4497 -0.4852 -3.5108
 1411SOL    HW215693   2.186   2.838   1.859 -0.7816 -0.1236  2.8889
 1412SOL     OW15694   0.484   4.573   1.143 -0.0642  0.5765 -0.1072
 1412SOL    HW115695   0.565   4.567   1.193 -0.6358 -1.4332  0.6011
 1412SOL    HW215696   0.510   4.555   1.053  2.8469 -0.4284  0.9443
 1413SOL     OW15697   1.117   3.657   2.144 -0.0529  0.7139  0.7176
 1413SOL    HW115698   1.151   3.708   2.070 -1.8738  1.9090  0.7219
 1413SOL    HW215699   1.197   3.654   2.197  0.3298 -0.9538  0.0816
 1414SOL     OW15700   2.468   2.341  17.211 -0.1939 -0.6372 -0.6876
 1414SOL    HW115701   2.397   2.393  17.250 -0.5699 -1.9120  0.3378
 1414SOL    HW215702   2.520   2.413  17.176 -2.1463  1.6694  1.1305
 1415SOL     OW15703   4.364   2.252   4.834  0.0245 -0.1074 -0.4354
 1415SOL    HW115704   4.275   2.235   4.803 -0.7155  0.6627  1.2885
 1415SOL    HW215705   4.412   2.264   4.752 -1.7329  1.8776 -1.2068
 1416SOL     OW15706   2.532   1.339   4.292 -0.2362 -0.5975  0.2242
 1416SOL    HW115707   2.511   1.316   4.202  0.5828 -1.0787  0.1483
 1416SOL    HW215708   2.454   1.388   4.319 -0.1201  0.3893 -1.2548
 1417SOL     OW15709   1.943   2.484   5.261 -0.3594 -0.2101  0.6948
 1417SOL    HW115710   1.860   2.447   5.229 -0.9239  0.2918  1.5714
 1417SOL    HW215711   2.002   2.425   5.215 -1.7619 -3.2158  2.7227
 1418SOL     OW15712   4.078   3.136  16.559  0.0922 -0.4112 -0.3691
 1418SOL    HW115713   4.062   3.221  16.598 -0.4525  0.3445 -2.2685
 1418SOL    HW215714   4.066   3.137  16.464 -0.0674  0.0735 -0.3422
 1419SOL     OW15715   1.859   4.456   4.543 -0.3608 -1.0111 -0.1716
 1419SOL    HW115716   1.849   4.521   4.473 -0.1571  0.0761  0.8072
 1419SOL    HW215717   1.941   4.414   4.517  0.1588 -0.7792  1.0963
 1420SOL     OW15718   2.925   3.972   8.702  0.0249 -0.0907  0.1340
 1420SOL    HW115719   2.967   3.890   8.727  0.3995  0.2195  0.5364
 1420SOL    HW215720   2.865   3.939   8.635  0.4544  1.2196 -0.8966
 1421SOL     OW15721   0.307   2.864  10.800 -0.1901 -0.1096  0.5900
 1421SOL    HW115722   0.237   2.801  10.819 -1.3762  0.8754 -0.5267
 1421SOL    HW215723   0.366   2.811  10.747 -0.2812  0.4927 -0.1111
 1422SOL     OW15724   3.115   0.117   8.706  0.3427  0.0658 -0.2020
 1422SOL    HW115725   3.128   0.092   8.797  1.4533  0.8301 -0.1460
 1422SOL    HW215726   3.031   0.085   8.672  0.8359  1.0115 -2.3617
 1423SOL     OW15727   1.369   0.511  14.827  0.3509  0.3066 -0.2542
 1423SOL    HW115728   1.448   0.557  14.799 -0.5182  1.3715 -0.9726
 1423SOL    HW215729   1.307   0.583  14.816  0.1447  0.4084  1.6645
 1424SOL     OW15730   4.246   4.527   6.128  0.8870 -0.2499 -0.2286
 1424SOL    HW115731   4.180   4.458   6.126 -0.2422  0.7370  3.5128
 1424SOL    HW215732   4.218   4.584   6.199 -1.7800  0.8234 -2.1611
 1425SOL     OW15733   2.836   4.627   9.949  0.2128  0.2385  0.6334
 1425SOL    HW115734   2.804   4.616   9.860  2.0225 -0.8054  0.1144
 1425SOL    HW215735   2.888   4.707   9.946 -0.3645  0.4726 -3.3066
 1426SOL     OW15736   3.140   3.291   3.865  0.5224  0.0148  0.0135
 1426SOL    HW115737   3.105   3.248   3.787 -0.2741  0.5269  0.0841
 1426SOL    HW215738   3.069   3.354   3.879 -0.1750 -0.3535 -1.9071
 1427SOL     OW15739   1.924   1.691  14.653 -0.2339  0.5158 -0.7382
 1427SOL    HW115740   1.915   1.662  14.562  1.8028 -0.4155 -0.6285
 1427SOL    HW215741   1.838   1.732  14.670 -0.1944  0.2565  0.0958
 1428SOL     OW15742   4.385   2.873  15.386 -0.7269  0.0800 -0.1601
 1428SOL    HW115743   4.340   2.823  15.455  1.5151 -0.4693  0.8889
 1428SOL    HW215744   4.314   2.869  15.322 -0.9827 -2.5727  0.2801
 1429SOL     OW15745   2.277   3.283  10.202  0.1215 -0.0020  0.2424
 1429SOL    HW115746   2.280   3.324  10.288 -0.8779  0.3360  0.1221
 1429SOL    HW215747   2.361   3.310  10.165 -0.3021  0.4362 -0.3985
 1430SOL     OW15748   0.561   0.901  11.783  0.1626 -0.7006  0.5172
 1430SOL    HW115749   0.594   0.950  11.707 -2.4411  0.8655  0.4038
 1430SOL    HW215750   0.590   0.816  11.750  0.4169 -0.9723  1.4629
 1431SOL     OW15751   3.254   1.880   6.673 -0.1797  0.0840  0.0742
 1431SOL    HW115752   3.323   1.906   6.735  0.7864 -1.2814 -0.4228
 1431SOL    HW215753   3.255   1.789   6.701  0.4723  0.4571  1.2750
 1432SOL     OW15754   1.829   2.151   3.530  0.2003  0.1417 -0.4157
 1432SOL    HW115755   1.788   2.173   3.447  1.1089  1.0650 -0.6132
 1432SOL    HW215756   1.786   2.216   3.586  0.1331 -0.8028  0.6353
 1433SOL     OW15757   1.719   2.294   4.014 -0.4209 -0.7019 -0.0534
 1433SOL    HW115758   1.643   2.335   4.054  0.7263  0.1379  1.2984
 1433SOL    HW215759   1.692   2.202   4.024 -1.4951 -0.4035 -0.2525
 1434SOL     OW15760   1.530   0.220   8.315  0.4429  0.2632 -0.5064
 1434SOL    HW115761   1.512   0.156   8.384  0.6913 -0.7964 -1.4412
 1434SOL    HW215762   1.506   0.300   8.362 -1.4265 -0.7304  0.2151
 1435SOL     OW15763   1.778   2.152   1.952  0.4223  0.2371 -0.0381
 1435SOL    HW115764   1.770   2.226   2.013 -3.2350  2.6514 -3.4809
 1435SOL    HW215765   1.745   2.191   1.871  0.5806  1.3826  0.4519
 1436SOL     OW15766   0.063   3.938   4.166  0.7838 -0.2543  0.1412
 1436SOL    HW115767   4.703   3.948   4.124 -0.0150 -2.7863  1.0950
 1436SOL    HW215768   0.126   3.927   4.095 -1.3936 -0.0809 -1.8201
 1437SOL     OW15769   3.620   1.217   9.932  0.8876 -0.1395 -0.8830
 1437SOL    HW115770   3.664   1.199  10.015 -0.7564  0.9787  0.2316
 1437SOL    HW215771   3.668   1.151   9.883 -0.3070 -1.8669  0.2515
 1438SOL     OW15772   4.704   1.942   9.317 -0.0178 -0.5166 -0.3119
 1438SOL    HW115773   4.693   1.853   9.284  0.1547 -0.2096 -1.1934
 1438SOL    HW215774   0.057   1.935   9.372 -0.1004  0.7802 -0.0206
 1439SOL     OW15775   1.601   2.282   1.736 -0.5817  0.0602 -0.2128
 1439SOL    HW115776   1.522   2.336   1.739 -0.3732  0.5707 -3.5341
 1439SOL    HW215777   1.560   2.206   1.693  0.1045  0.4532 -1.5608
 1440SOL     OW15778   1.428   0.050   6.965  0.0715 -0.0320  0.1644
 1440SOL    HW115779   1.509   0.040   6.916  1.5146  0.3337  2.5110
 1440SOL    HW215780   1.370   0.098   6.906 -0.4153  0.1150  0.7565
 1441SOL     OW15781   3.401   2.438   3.096 -0.9180  0.1869  0.1945
 1441SOL    HW115782   3.489   2.430   3.134 -0.6537 -0.3453 -0.5190
 1441SOL    HW215783   3.412   2.394   3.011 -0.4390  2.5887 -0.9932
 1442SOL     OW15784   4.262   1.057  12.916 -0.0767 -0.1459  0.3830
 1442SOL    HW115785   4.191   1.119  12.932  0.2757  0.5517 -0.7203
 1442SOL    HW215786   4.223   1.007  12.845 -0.1005  0.4085  0.0013
 1443SOL     OW15787   0.950   4.606   6.582 -0.2551 -0.0293  0.3274
 1443SOL    HW115788   0.906   4.676   6.630  0.4501  0.4642  0.2533
 1443SOL    HW215789   0.885   4.592   6.513  0.2056 -3.0952  0.4922
 1444SOL     OW15790   4.356   3.700   2.099 -0.0982 -0.1163  0.0820
 1444SOL    HW115791   4.402   3.620   2.073 -0.0828 -0.5200  1.3657
 1444SOL    HW215792   4.290   3.671   2.162 -0.2647 -1.6983 -0.8257
 1445SOL     OW15793   4.413   2.335   4.207 -0.7030  0.2009  0.3626
 1445SOL    HW115794   4.507   2.349   4.201 -0.5427 -1.6583 -1.1134
 1445SOL    HW215795   4.379   2.405   4.151  1.0885 -1.0789 -2.2838
 1446SOL     OW15796   4.028   1.820   5.329  0.3922  0.0397 -0.2207
 1446SOL    HW115797   3.985   1.789   5.249  0.2871 -1.7285  0.5318
 1446SOL    HW215798   3.998   1.910   5.340  0.3020 -0.0537  0.3275
 1447SOL     OW15799   3.492   0.857  17.349 -0.0101 -0.4272 -0.1943
 1447SOL    HW115800   3.480   0.863  17.254 -0.9364 -1.8251 -0.1739
 1447SOL    HW215801   3.502   0.762  17.353  0.4747 -0.3237  0.7936
 1448SOL     OW15802   4.579   0.777   2.543  0.5883 -0.0846  0.0023
 1448SOL    HW115803   4.668   0.773   2.506  0.5127 -1.5368  0.0017
 1448SOL    HW215804   4.515   0.737   2.484 -2.7781  1.5978  2.5473
 1449SOL     OW15805   4.441   1.410   7.713 -0.1582  0.1317 -0.2277
 1449SOL    HW115806   4.515   1.458   7.750  0.9153  0.0193 -2.2921
 1449SOL    HW215807   4.388   1.410   7.793 -0.4758  0.4637 -0.4398
 1450SOL     OW15808   1.666   3.734   3.290  0.4208  0.5462  0.0298
 1450SOL    HW115809   1.761   3.721   3.299  0.5612  1.1584 -0.5859
 1450SOL    HW215810   1.654   3.755   3.383  0.8957  0.2327  0.1611
 1451SOL     OW15811   0.510   2.456   0.835 -0.1130 -0.3541  0.2655
 1451SOL    HW115812   0.446   2.517   0.799  1.4255 -0.0947 -1.9844
 1451SOL    HW215813   0.552   2.504   0.906  1.3563 -0.6696 -0.3895
 1452SOL     OW15814   0.708   3.496   5.235 -0.2955 -0.5406  0.0025
 1452SOL    HW115815   0.632   3.515   5.290 -0.2512  2.3362 -0.9181
 1452SOL    HW215816   0.740   3.415   5.275 -1.1956 -0.9201 -0.0549
 1453SOL     OW15817   2.374   1.085   4.778  0.1894  0.4068 -0.1207
 1453SOL    HW115818   2.449   1.131   4.741  0.5332 -0.1715 -0.1275
 1453SOL    HW215819   2.315   1.157   4.801 -2.3196 -1.4283 -0.8173
 1454SOL     OW15820   0.653   3.052   4.800  0.7685  0.6183 -0.3667
 1454SOL    HW115821   0.642   3.032   4.893  0.5603  1.3526 -0.2328
 1454SOL    HW215822   0.635   2.967   4.760  0.3875  0.3559  0.3452
 1455SOL     OW15823   0.314   1.046   4.525 -0.5332 -0.4755  0.6602
 1455SOL    HW115824   0.296   1.056   4.619 -1.0741 -0.8564  0.5934
 1455SOL    HW215825   0.395   1.096   4.517 -1.0990  0.8670  3.1403
 1456SOL     OW15826   1.894   3.878   2.561 -0.2519 -0.4269  0.6323
 1456SOL    HW115827   1.952   3.880   2.637 -0.6615 -0.5081  0.9473
 1456SOL    HW215828   1.919   3.957   2.512 -0.0620  0.7119  2.5794
 1457SOL     OW15829   0.651   0.280   3.125 -0.2675 -0.3615 -0.2968
 1457SOL    HW115830   0.718   0.334   3.083  0.1313  0.4895  1.4324
 1457SOL    HW215831   0.569   0.326   3.109 -1.6621 -1.6637  2.9816
 1458SOL     OW15832   0.668   1.552   2.783  0.3989  0.4123 -0.7756
 1458SOL    HW115833   0.701   1.463   2.774  0.7415  0.3407  1.1838
 1458SOL    HW215834   0.739   1.586   2.837  1.1179 -0.0056 -1.4762
 1459SOL     OW15835   0.625   2.859   0.316 -0.3207  0.3464  0.4460
 1459SOL    HW115836   0.628   2.951   0.289 -0.1133  0.1150 -0.3062
 1459SOL    HW215837   0.574   2.822   0.244 -0.8793 -1.8336  1.9522
 1460SOL     OW15838   0.070   2.981   0.096 -0.0434  0.0979  0.2559
 1460SOL    HW115839   0.053   2.895   0.058  1.3511 -0.1610  0.2235
 1460SOL    HW215840   4.723   2.995   0.158 -0.1347 -2.5098  0.7529
 1461SOL     OW15841   3.926   2.054   7.568  0.1823  0.6061 -0.4006
 1461SOL    HW115842   3.983   2.091   7.635 -0.3455 -0.4804  0.6603
 1461SOL    HW215843   3.972   1.971   7.555  1.2977  0.8701  1.9235
 1462SOL     OW15844   3.057   3.387   0.112  0.4664  0.1065  0.1161
 1462SOL    HW115845   3.034   3.381   0.204  0.4831 -1.4676  0.0206
 1462SOL    HW215846   3.004   3.322   0.064 -0.0147 -0.4671  1.4413
 1463SOL     OW15847   0.887   3.242   4.442  0.0765 -0.2420 -0.2506
 1463SOL    HW115848   0.966   3.241   4.388 -0.1415 -2.3881 -0.5555
 1463SOL    HW215849   0.921   3.269   4.527  0.8054 -1.3331 -0.1990
 1464SOL     OW15850   3.902   0.780   2.840  0.1505  0.1188 -0.0930
 1464SOL    HW115851   3.971   0.770   2.905  2.1159  0.6200 -2.1026
 1464SOL    HW215852   3.855   0.705   2.878  1.1485  0.0645  1.0059
 1465SOL     OW15853   3.235   2.068  10.890  0.1553  0.3415  0.0609
 1465SOL    HW115854   3.167   2.007  10.862 -0.5490  0.5733  1.2807
 1465SOL    HW215855   3.310   2.033  10.842 -0.4074  2.0264 -2.0780
 1466SOL     OW15856   3.972   3.775  15.086  0.0221  0.1621  0.1528
 1466SOL    HW115857   3.912   3.706  15.057  0.1329  0.2054 -0.1787
 1466SOL    HW215858   3.914   3.833  15.135 -0.8908  0.1798 -0.9468
 1467SOL     OW15859   3.733   4.017  17.522 -0.8289 -0.0764 -0.2748
 1467SOL    HW115860   3.649   4.023  17.569 -0.4592 -2.1672  0.6621
 1467SOL    HW215861   3.705   4.051  17.437  2.0827 -2.5737 -2.1994
 1468SOL     OW15862   2.222   3.210   4.051 -0.7372 -0.0059  1.0904
 1468SOL    HW115863   2.160   3.188   4.120 -1.1131 -0.8488  0.4837
 1468SOL    HW215864   2.300   3.171   4.089 -0.5023 -0.8851 -0.2999
 1469SOL     OW15865   0.956   4.512   1.456 -0.0300  0.2622  0.1011
 1469SOL    HW115866   0.943   4.474   1.543  1.4472  0.3541  0.3693
 1469SOL    HW215867   1.016   4.446   1.420  0.1477  0.8533 -0.7001
 1470SOL     OW15868   3.053   3.873   4.987 -0.3807 -0.0283  0.5107
 1470SOL    HW115869   2.960   3.891   4.977 -0.0184  0.3710 -2.0867
 1470SOL    HW215870   3.083   3.932   5.057  0.2068  0.3427 -0.0579
 1471SOL     OW15871   1.649   4.324  17.368 -0.2501  0.0516  1.1028
 1471SOL    HW115872   1.633   4.410  17.328 -1.1674 -0.2726  0.7641
 1471SOL    HW215873   1.699   4.284  17.296 -1.9263 -0.5636  0.2840
 1472SOL     OW15874   0.416   4.306  11.944 -0.5916 -0.2641 -0.1871
 1472SOL    HW115875   0.440   4.304  11.852  1.3161  2.7353  0.2475
 1472SOL    HW215876   0.488   4.366  11.964 -0.3979 -1.5942  3.1142
 1473SOL     OW15877   2.814   0.879  16.222  0.1586 -0.2069  0.3827
 1473SOL    HW115878   2.871   0.855  16.149 -0.5337 -0.1921 -0.1653
 1473SOL    HW215879   2.878   0.886  16.293 -2.5587  0.7916  2.7354
 1474SOL     OW15880   2.948   2.000   9.262  0.8469 -0.7400 -0.2941
 1474SOL    HW115881   2.892   2.075   9.238  0.5049  0.4074  4.0386
 1474SOL    HW215882   3.030   2.013   9.215 -0.1984  1.4702 -1.5174
 1475SOL     OW15883   0.563   3.982   4.802 -0.1607  0.0617  0.1457
 1475SOL    HW115884   0.573   4.077   4.809  0.4987  0.0973 -1.3621
 1475SOL    HW215885   0.497   3.976   4.733 -1.8990 -1.6484  1.9343
 1476SOL     OW15886   3.817   0.769   2.462  0.0380 -0.3579  0.1530
 1476SOL    HW115887   3.844   0.860   2.473 -0.0872 -0.1035 -1.5704
 1476SOL    HW215888   3.817   0.766   2.366 -1.6525 -3.4879  0.2517
 1477SOL     OW15889   3.201   2.061   8.145  0.3067 -0.0932  0.0879
 1477SOL    HW115890   3.150   2.001   8.199 -2.3781  1.3306 -0.8827
 1477SOL    HW215891   3.233   2.118   8.215  0.3243 -0.8690  0.7017
 1478SOL     OW15892   2.138   2.602   2.054 -0.1799  0.1033 -0.3806
 1478SOL    HW115893   2.226   2.566   2.061 -1.6724 -3.4644  0.0367
 1478SOL    HW215894   2.112   2.583   2.144  1.3039 -0.0384  0.0087
 1479SOL     OW15895   3.466   3.535  12.256 -0.5836 -0.3209 -0.3094
 1479SOL    HW115896   3.422   3.616  12.281 -1.2349 -0.8986  0.4332
 1479SOL    HW215897   3.404   3.470  12.288  0.3480  0.4653  3.1240
 1480SOL     OW15898   3.032   2.035   6.614 -0.1919  0.3467  0.1852
 1480SOL    HW115899   3.032   2.105   6.680  2.1646  1.0810 -0.6134
 1480SOL    HW215900   3.096   1.976   6.654 -1.0382 -0.4764  0.3222
 1481SOL     OW15901   4.269   2.104   4.064 -0.0607 -0.6166  0.3831
 1481SOL    HW115902   4.339   2.078   4.004  1.0841  0.5072  1.2388
 1481SOL    HW215903   4.307   2.180   4.107  1.4408 -1.0681 -0.1622
 1482SOL     OW15904   4.234   1.994  15.488 -0.9629  0.0343  0.0096
 1482SOL    HW115905   4.315   1.954  15.455 -1.7185  0.5300 -2.4305
 1482SOL    HW215906   4.271   2.078  15.514  3.8833 -1.9660 -0.4303
 1483SOL     OW15907   1.020   2.721  13.291 -0.0558 -0.5009 -0.4013
 1483SOL    HW115908   1.000   2.698  13.382 -0.6288  2.5775  0.2443
 1483SOL    HW215909   1.007   2.816  13.292 -0.6711 -0.5966  1.0176
 1484SOL     OW15910   1.231   4.238   8.986  0.6057 -0.7119 -0.5172
 1484SOL    HW115911   1.140   4.211   8.974  0.1882  1.3025 -1.7791
 1484SOL    HW215912   1.224   4.296   9.062  0.2933 -2.1316  0.5549
 1485SOL     OW15913   3.486   1.891   3.082  0.1445  0.2540  0.3844
 1485SOL    HW115914   3.474   1.801   3.113 -2.3459  0.9651  1.4761
 1485SOL    HW215915   3.527   1.936   3.155  0.5062  0.5502 -0.0052
 1486SOL     OW15916   0.889   2.377  14.494  0.4306  0.0298  0.1813
 1486SOL    HW115917   0.953   2.402  14.560 -0.1552  2.4558 -0.1645
 1486SOL    HW215918   0.885   2.282  14.507  0.7384  0.0920  0.7332
 1487SOL     OW15919   1.011   4.597  17.061  0.0853  0.3750  0.3669
 1487SOL    HW115920   1.076   4.602  16.991  0.2730 -1.7027  0.4148
 1487SOL    HW215921   1.048   4.536  17.124  1.3712  1.0489  0.2809
 1488SOL     OW15922   2.491   3.829   9.140  0.0931 -0.9379 -0.0066
 1488SOL    HW115923   2.400   3.848   9.163  1.1451  1.3915  2.3032
 1488SOL    HW215924   2.542   3.888   9.197  0.8797 -1.4467 -0.1838
 1489SOL     OW15925   4.231   1.491  14.506  0.1093  0.0879  0.0664
 1489SOL    HW115926   4.164   1.543  14.551  0.1485  0.2885 -0.1063
 1489SOL    HW215927   4.187   1.461  14.426 -1.3230 -0.0024  0.8752
 1490SOL     OW15928   0.514   0.572   2.132  0.5420  0.1603 -0.0128
 1490SOL    HW115929   0.521   0.641   2.198  0.0709  0.5978 -0.4139
 1490SOL    HW215930   0.449   0.517   2.177  1.7448  0.9085  2.6075
 1491SOL     OW15931   4.205   1.423   6.088 -0.3788  0.5853  0.7585
 1491SOL    HW115932   4.274   1.443   6.024  0.9980  0.3335  2.1625
 1491SOL    HW215933   4.133   1.455   6.032 -0.2589 -0.1956  0.1610
 1492SOL     OW15934   3.908   2.673   8.698  0.3187  0.2634  0.1025
 1492SOL    HW115935   3.877   2.714   8.617 -0.0784  1.1045  0.6714
 1492SOL    HW215936   3.899   2.582   8.671 -1.1042  0.0616  1.2400
 1493SOL     OW15937   2.486   0.745   0.825 -0.5127 -0.4508  0.3281
 1493SOL    HW115938   2.429   0.765   0.751  2.1149  1.4221 -1.2024
 1493SOL    HW215939   2.427   0.742   0.900 -0.7959 -0.6031  0.0988
 1494SOL     OW15940   3.542   0.573   8.979 -0.3074  1.0466  0.0222
 1494SOL    HW115941   3.468   0.534   8.933  0.4091  1.8391 -1.8089
 1494SOL    HW215942   3.542   0.515   9.055  0.4034 -1.1518 -1.6551
 1495SOL     OW15943   3.324   3.410   3.137 -0.7401 -0.3906 -0.2734
 1495SOL    HW115944   3.299   3.345   3.072 -1.0994  0.6587 -1.1867
 1495SOL    HW215945   3.385   3.467   3.090  0.5931 -2.4502 -1.0493
 1496SOL     OW15946   0.044   3.127  17.257 -0.0905 -0.2767 -0.9650
 1496SOL    HW115947   4.709   3.053  17.249  0.5457 -0.8560 -0.3933
 1496SOL    HW215948   0.106   3.123  17.185 -1.2029  2.0409 -2.0780
 1497SOL     OW15949   2.935   3.009  14.694  0.1408  0.4135  0.5150
 1497SOL    HW115950   2.896   2.951  14.759 -1.4249 -0.3694 -1.1017
 1497SOL    HW215951   2.897   3.090  14.728  0.9998  0.6854  0.8215
 1498SOL     OW15952   0.924   3.117   5.134 -0.7131 -0.0078  0.5103
 1498SOL    HW115953   0.949   3.119   5.226  0.5273  0.4359  0.1572
 1498SOL    HW215954   0.850   3.178   5.132  0.6450  1.6732  2.0583
 1499SOL     OW15955   2.954   1.384   0.717  0.3224 -0.0264  0.5864
 1499SOL    HW115956   2.975   1.291   0.725  1.2157  0.1309  0.0148
 1499SOL    HW215957   3.037   1.415   0.681  1.6535 -3.3148  0.9045
 1500SOL     OW15958   1.729   4.030   6.165 -0.0423 -0.0933  0.1432
 1500SOL    HW115959   1.703   3.962   6.227 -0.1122  0.3093  0.5594
 1500SOL    HW215960   1.752   3.975   6.091 -1.8308 -1.0199  0.2844
 1501SOL     OW15961   1.320   4.709  16.285  0.0969  0.4100 -0.0569
 1501SOL    HW115962   1.326   0.078  16.267 -3.4616  0.9534  1.4437
 1501SOL    HW215963   1.352   4.701  16.375  0.0772  1.2886  0.0355
 1502SOL     OW15964   2.723   1.686   3.464  0.3997  0.0516 -0.0392
 1502SOL    HW115965   2.772   1.635   3.528  0.0020  0.3268  0.4871
 1502SOL    HW215966   2.691   1.758   3.518  0.2167 -0.7498  0.9200
 1503SOL     OW15967   2.828   2.921  16.867  0.1217 -0.2884  0.2909
 1503SOL    HW115968   2.805   2.836  16.905  2.0589 -0.6938  0.5594
 1503SOL    HW215969   2.784   2.979  16.929 -1.1865 -0.1196 -0.8124
 1504SOL     OW15970   0.669   1.652  16.020  1.0355  0.2871  0.2800
 1504SOL    HW115971   0.727   1.586  16.058 -1.7921 -2.6312 -0.4649
 1504SOL    HW215972   0.718   1.734  16.023  0.0438  0.9723 -1.7017
 1505SOL     OW15973   1.867   1.666   3.259 -0.1984  0.1607  0.4290
 1505SOL    HW115974   1.867   1.761   3.254  1.6773  0.2181  1.3716
 1505SOL    HW215975   1.804   1.643   3.190 -0.8551  0.2199  1.0144
 1506SOL     OW15976   0.783   3.962   0.410 -0.1043  0.5020  0.4680
 1506SOL    HW115977   0.702   3.912   0.422  0.8558 -1.2957 -0.6485
 1506SOL    HW215978   0.751   4.002   0.329 -0.5843 -0.4265  0.2018
 1507SOL     OW15979   0.386   2.096   3.678 -0.1509  0.0117  0.0675
 1507SOL    HW115980   0.394   2.002   3.660 -3.8426 -0.3419  0.2308
 1507SOL    HW215981   0.291   2.101   3.668 -0.2266  1.1354  1.3688
 1508SOL     OW15982   2.166   2.659   8.886 -0.8226 -0.4070  0.5333
 1508SOL    HW115983   2.199   2.569   8.881  3.6739  1.2329 -0.1267
 1508SOL    HW215984   2.073   2.641   8.892 -1.1623  2.0130  2.3692
 1509SOL     OW15985   1.356   4.422   5.102  0.4886 -0.3468 -0.4705
 1509SOL    HW115986   1.390   4.437   5.013 -0.2786  2.2770 -0.3025
 1509SOL    HW215987   1.370   4.506   5.146  1.1212 -0.6871 -0.0159
 1510SOL     OW15988   3.897   1.502   3.376 -0.5475 -0.2043 -0.3763
 1510SOL    HW115989   3.972   1.462   3.420 -0.9557 -0.8505 -0.2610
 1510SOL    HW215990   3.858   1.422   3.341 -1.0931 -0.4695  0.8504
 1511SOL     OW15991   1.894   4.661   6.354  0.0672 -0.3864 -0.0034
 1511SOL    HW115992   1.938   4.583   6.389 -0.4822 -0.2883  0.9316
 1511SOL    HW215993   1.884   4.631   6.264 -0.4885 -1.6662  0.4647
 1512SOL     OW15994   0.464   0.421  11.543 -0.0800  0.2112 -0.2029
 1512SOL    HW115995   0.448   0.409  11.449 -0.2127 -0.7119 -0.0616
 1512SOL    HW215996   0.378   0.450  11.573 -0.0089 -0.7339  0.9062
 1513SOL     OW15997   4.376   1.378   1.684 -0.0455  1.1866 -0.1211
 1513SOL    HW115998   4.426   1.297   1.675  0.9423  1.9710 -1.5711
 1513SOL    HW215999   4.315   1.376   1.611  0.2317 -0.3649 -0.3310
 1514SOL     OW16000   1.653   2.002  14.901  0.9302 -0.5200  0.1546
 1514SOL    HW116001   1.609   2.081  14.932 -0.7361 -1.0160 -0.9669
 1514SOL    HW216002   1.748   2.012  14.916  0.4774  0.9005  2.1006
 1515SOL     OW16003   1.158   1.872   3.798 -0.3652 -0.5281 -0.4225
 1515SOL    HW116004   1.065   1.857   3.783 -0.4133  1.5757 -2.2734
 1515SOL    HW216005   1.172   1.824   3.880 -1.7102 -0.3824 -0.1015
 1516SOL     OW16006   4.007   0.010   4.969 -0.0605  0.5628 -0.3270
 1516SOL    HW116007   4.082   4.676   4.975  0.2884  0.9451 -0.8398
 1516SOL    HW216008   4.042   0.086   4.922 -1.9288  0.6652 -1.5470
 1517SOL     OW16009   3.204   0.456   9.357 -0.1461 -0.3768 -0.2426
 1517SOL    HW116010   3.151   0.396   9.411 -1.0548  1.1185  0.5195
 1517SOL    HW216011   3.137   0.463   9.289 -0.3707  1.1390  0.1350
 1518SOL     OW16012   4.277   4.672  10.457 -0.0053  0.3912 -0.3873
 1518SOL    HW116013   4.193   4.662  10.502 -0.5585  1.3561 -1.1984
 1518SOL    HW216014   4.337   4.707  10.523  1.2274  1.2841 -2.0131
 1519SOL     OW16015   2.465   0.219  11.492  0.2401  0.4203 -0.5238
 1519SOL    HW116016   2.527   0.275  11.446 -1.0554  2.5996  0.3178
 1519SOL    HW216017   2.485   0.128  11.473 -0.1514  0.1435  0.3807
 1520SOL     OW16018   1.082   2.869   2.689 -0.0749 -0.5533  0.5786
 1520SOL    HW116019   1.128   2.938   2.641  2.5535 -1.7631  1.3732
 1520SOL    HW216020   1.032   2.826   2.619 -0.2622  2.6081 -1.2380
 1521SOL     OW16021   1.960   2.866   3.765  0.2362  0.0749  0.0465
 1521SOL    HW116022   1.997   2.838   3.682 -1.0164 -0.2105 -0.4178
 1521SOL    HW216023   2.010   2.945   3.782  0.0029  0.3094 -0.3871
 1522SOL     OW16024   0.200   3.606   0.026  0.5456 -0.1394 -0.0307
 1522SOL    HW116025   0.154   3.576  17.649 -0.3994 -1.2271  0.9388
 1522SOL    HW216026   0.266   3.537   0.036  1.8640  0.9845 -0.8495
 1523SOL     OW16027   2.408   1.655  12.187 -0.5541  0.3371  0.2296
 1523SOL    HW116028   2.447   1.742  12.199  4.6410 -1.8518 -0.5613
 1523SOL    HW216029   2.350   1.679  12.115  0.0791 -0.0547 -0.4248
 1524SOL     OW16030   2.533   0.601   1.488 -0.7268  0.0806 -0.5106
 1524SOL    HW116031   2.568   0.605   1.399 -1.1509 -1.4963 -0.7535
 1524SOL    HW216032   2.490   0.515   1.494 -1.3849  0.2647 -2.4609
 1525SOL     OW16033   3.441   0.210   5.140 -0.0261  0.1999 -0.3014
 1525SOL    HW116034   3.384   0.279   5.105 -0.1397 -0.1754 -0.8693
 1525SOL    HW216035   3.448   0.242   5.230 -0.9722 -0.7154  0.1110
 1526SOL     OW16036   3.039   0.934   7.551  0.1783  0.1566  0.2391
 1526SOL    HW116037   3.056   0.841   7.535  2.3024  0.6537 -0.4206
 1526SOL    HW216038   3.114   0.962   7.604  0.8270 -0.4593 -0.3458
 1527SOL     OW16039   1.303   1.256   2.441  0.1484  0.1911  0.4408
 1527SOL    HW116040   1.345   1.171   2.448  1.5451  0.8766  0.3196
 1527SOL    HW216041   1.308   1.260   2.346 -1.1318 -0.6193  0.3439
 1528SOL     OW16042   0.903   4.521   1.731 -0.6637  0.2672  0.4946
 1528SOL    HW116043   0.861   4.607   1.726  0.7753  1.0236  1.4691
 1528SOL    HW216044   0.937   4.520   1.820 -0.8295 -0.4667  0.5490
 1529SOL     OW16045   0.383   2.734   4.962  0.2976 -0.2630 -0.4500
 1529SOL    HW116046   0.438   2.812   4.962 -0.5247  0.3222 -0.9701
 1529SOL    HW216047   0.435   2.670   5.010  1.9326  0.7633 -0.8677
 1530SOL     OW16048   3.111   0.265  12.746  0.3998 -0.4415 -0.3471
 1530SOL    HW116049   3.095   0.179  12.785 -1.4350 -0.0188 -0.1827
 1530SOL    HW216050   3.130   0.308  12.829 -3.4903 -1.0789  0.8479
 1531SOL     OW16051   3.533   3.730  16.111  0.0177 -0.1309  0.2750
 1531SOL    HW116052   3.459   3.768  16.063  2.7565  1.8703 -2.3384
 1531SOL    HW216053   3.518   3.765  16.199 -0.6073 -1.1358  0.5725
 1532SOL     OW16054   3.713   3.228   9.129  0.0080  0.5541  0.2816
 1532SOL    HW116055   3.680   3.155   9.181  0.7767 -1.5927 -2.2673
 1532SOL    HW216056   3.793   3.200   9.086 -1.0079  2.0103 -2.6187
 1533SOL     OW16057   2.427   3.660   6.718 -0.1821 -0.5712 -0.3103
 1533SOL    HW116058   2.408   3.591   6.781 -2.2260  0.6870  0.4674
 1533SOL    HW216059   2.415   3.736   6.776 -1.4263  0.1897 -1.5551
 1534SOL     OW16060   0.257   0.973   9.994 -0.2498 -0.0855 -0.2237
 1534SOL    HW116061   0.283   1.029  10.068  0.5925  0.8972 -1.2652
 1534SOL    HW216062   0.342   0.935   9.972 -0.7536 -0.1300 -2.0478
 1535SOL     OW16063   4.503   4.288   3.249 -0.0808  0.0433 -0.8167
 1535SOL    HW116064   4.472   4.344   3.321  1.2663  0.7639 -0.7990
 1535SOL    HW216065   4.595   4.267   3.265 -0.4701  2.1379  4.2066
 1536SOL     OW16066   2.727   3.327   5.180 -0.2083  0.0729 -0.2588
 1536SOL    HW116067   2.682   3.407   5.206 -0.1867 -0.3991  1.2612
 1536SOL    HW216068   2.702   3.271   5.253 -0.8648 -0.3799 -0.8290
 1537SOL     OW16069   0.133   0.230   3.225 -0.4389 -0.3779  0.2764
 1537SOL    HW116070   0.146   0.322   3.249 -1.2894 -0.6882  1.9793
 1537SOL    HW216071   0.076   0.240   3.149  0.6475 -0.4239 -0.5287
 1538SOL     OW16072   2.540   2.449   9.352 -0.1830  0.0352 -0.0142
 1538SOL    HW116073   2.635   2.440   9.347 -0.2358 -0.9546  1.0328
 1538SOL    HW216074   2.532   2.531   9.401 -1.0066 -0.5284  0.7940
 1539SOL     OW16075   2.362   0.579   3.317 -0.8050  0.2083 -0.3299
 1539SOL    HW116076   2.384   0.564   3.409  2.3511 -1.0525 -1.2838
 1539SOL    HW216077   2.267   0.571   3.324 -0.6611  0.3175  1.8843
 1540SOL     OW16078   3.332   3.074  12.000 -0.5093 -0.3600  0.0067
 1540SOL    HW116079   3.286   3.016  12.061 -3.0212  2.4714  0.8007
 1540SOL    HW216080   3.371   3.009  11.941 -2.0374 -0.5473 -0.8036
 1541SOL     OW16081   2.286   4.382   6.259 -0.1658 -0.2668 -0.1663
 1541SOL    HW116082   2.197   4.404   6.231 -0.0349 -0.6100 -0.8560
 1541SOL    HW216083   2.297   4.291   6.231 -1.7191  0.0676 -1.8860
 1542SOL     OW16084   4.252   1.518   0.687  0.1082 -0.5341  0.1485
 1542SOL    HW116085   4.242   1.466   0.608  0.7234 -2.3423  1.2585
 1542SOL    HW216086   4.338   1.489   0.717 -0.6376  0.1854  3.0249
 1543SOL     OW16087   4.190   0.679   6.916 -0.1852 -0.1280  0.5189
 1543SOL    HW116088   4.273   0.725   6.903 -1.2783  2.2976  2.0912
 1543SOL    HW216089   4.203   0.606   6.855 -0.1458  0.1451  0.2018
 1544SOL     OW16090   1.494   3.990   7.908 -0.4558  0.2601 -0.0451
 1544SOL    HW116091   1.526   4.020   7.993  0.8722 -2.3858  0.3778
 1544SOL    HW216092   1.530   3.902   7.898 -2.6542 -1.0590  3.7414
 1545SOL     OW16093   1.632   0.183   3.177 -0.3874 -0.1360 -0.5067
 1545SOL    HW116094   1.601   0.140   3.097 -1.3617 -0.6032  0.1228
 1545SOL    HW216095   1.585   0.265   3.161  1.4219  0.8806 -0.5676
 1546SOL     OW16096   0.281   0.297   6.089  0.2807  0.2474  0.1898
 1546SOL    HW116097   0.377   0.297   6.082  0.3438  1.0733  1.0343
 1546SOL    HW216098   0.275   0.215   6.138 -1.3737  1.1308  1.4501
 1547SOL     OW16099   1.304   1.075   3.584  0.3749  0.2206  0.6857
 1547SOL    HW116100   1.308   1.032   3.669 -0.6822 -2.0466 -0.4163
 1547SOL    HW216101   1.256   1.152   3.615 -1.3965  0.0266 -1.5900
 1548SOL     OW16102   1.605   0.308  13.627 -0.1721 -0.1117  0.0054
 1548SOL    HW116103   1.531   0.361  13.600  1.0035  1.6382  0.2491
 1548SOL    HW216104   1.646   0.365  13.692 -0.4945 -1.0306  1.0255
 1549SOL     OW16105   3.623   4.527   4.791 -0.1637  0.4507 -0.4635
 1549SOL    HW116106   3.638   4.620   4.808 -0.3702  0.0913  1.7738
 1549SOL    HW216107   3.580   4.509   4.875  1.0805  0.8637  0.2554
 1550SOL     OW16108   0.295   3.464  16.099  0.2364  0.3152 -0.0737
 1550SOL    HW116109   0.244   3.402  16.047 -0.9100  1.1533  0.0533
 1550SOL    HW216110   0.385   3.430  16.103 -0.9465 -2.4864  3.2671
 1551SOL     OW16111   4.010   4.535   5.990 -1.1242 -0.6566  0.3102
 1551SOL    HW116112   3.996   4.493   5.906 -0.4422 -2.3591  1.0350
 1551SOL    HW216113   3.965   4.472   6.046 -0.6737 -1.2918 -0.0412
 1552SOL     OW16114   3.388   3.732   6.694  0.1387 -0.1542 -0.3157
 1552SOL    HW116115   3.398   3.694   6.781 -0.7914 -0.8995 -0.5316
 1552SOL    HW216116   3.475   3.771   6.684 -0.5967  2.1050  1.9872
 1553SOL     OW16117   3.475   3.405   6.557 -0.0249 -0.5061  0.2846
 1553SOL    HW116118   3.483   3.496   6.586  0.3879 -0.6189  0.5236
 1553SOL    HW216119   3.397   3.372   6.602  1.0636  0.7055  3.0013
 1554SOL     OW16120   1.246   2.375  11.798 -0.4626  0.2554 -0.9135
 1554SOL    HW116121   1.272   2.466  11.792  3.2697 -0.3743  4.8972
 1554SOL    HW216122   1.330   2.333  11.780 -0.8951 -1.0343  0.0198
 1555SOL     OW16123   2.297   0.476   7.988  0.1767  0.1277 -0.1517
 1555SOL    HW116124   2.350   0.522   8.053 -2.0533 -0.2171  1.9085
 1555SOL    HW216125   2.210   0.479   8.027  0.1037  1.4964 -0.4387
 1556SOL     OW16126   1.286   1.908   2.084 -0.5308  0.2390  0.4970
 1556SOL    HW116127   1.269   1.814   2.097  1.6461 -0.6712 -3.3901
 1556SOL    HW216128   1.369   1.907   2.133 -2.4748 -2.7091  3.7756
 1557SOL     OW16129   1.884   3.164   3.707  0.4130 -0.2055  0.0174
 1557SOL    HW116130   1.844   3.194   3.625 -1.8311 -2.3667  0.3066
 1557SOL    HW216131   1.879   3.073   3.678  0.6121 -0.1648 -0.1379
 1558SOL     OW16132   0.754   4.159   5.418  0.2229  0.3684 -0.4224
 1558SOL    HW116133   0.755   4.147   5.323 -1.4825  2.2517 -0.6821
 1558SOL    HW216134   0.823   4.097   5.441 -0.4140 -0.3051 -0.3126
 1559SOL     OW16135   3.614   4.219   3.335  0.2147  0.3859 -0.1440
 1559SOL    HW116136   3.692   4.165   3.323 -0.3098 -0.3335 -0.3155
 1559SOL    HW216137   3.553   4.149   3.311 -0.5938  0.6660  1.0780
 1560SOL     OW16138   3.025   2.943   5.271 -0.0809 -0.2001  0.5368
 1560SOL    HW116139   3.119   2.955   5.256  0.1549 -0.4044  1.8976
 1560SOL    HW216140   2.985   3.009   5.213  0.0924 -1.8254 -1.4302
 1561SOL     OW16141   0.832   2.764   0.656  0.5235 -0.7800 -0.0272
 1561SOL    HW116142   0.881   2.703   0.711  0.1718 -2.2772 -1.3814
 1561SOL    HW216143   0.882   2.845   0.665  1.8227 -1.6710  0.8065
 1562SOL     OW16144   1.321   3.640   3.075 -0.3651  0.4133 -0.1396
 1562SOL    HW116145   1.354   3.627   2.986  0.2671  1.6965 -0.1023
 1562SOL    HW216146   1.396   3.598   3.117 -0.5703 -0.9724 -1.1766
 1563SOL     OW16147   3.223   4.107   1.843  0.4778  0.1323  0.0753
 1563SOL    HW116148   3.149   4.063   1.802  0.9473  0.9509 -1.6380
 1563SOL    HW216149   3.263   4.034   1.890  1.4151  1.7703  1.8355
 1564SOL     OW16150   3.272   3.124   7.916  0.2708 -0.6328  0.4255
 1564SOL    HW116151   3.271   3.108   7.822  1.2720 -0.9063  0.4553
 1564SOL    HW216152   3.328   3.202   7.924 -1.9605  1.0208 -0.3428
 1565SOL     OW16153   1.717   3.421  15.239  0.1106 -0.1751  0.4793
 1565SOL    HW116154   1.667   3.450  15.162 -1.3901 -2.6157  0.5333
 1565SOL    HW216155   1.796   3.469  15.214  0.4120  0.1750  2.1639
 1566SOL     OW16156   3.571   1.656   8.502  0.0444 -0.6017 -0.2356
 1566SOL    HW116157   3.524   1.584   8.545 -0.9629 -0.0853 -0.4791
 1566SOL    HW216158   3.514   1.731   8.519 -0.8630 -0.9485 -1.7142
 1567SOL     OW16159   1.266   3.364   0.033  0.0782  0.3443 -0.3075
 1567SOL    HW116160   1.254   3.430  17.666  2.9640  0.1814 -0.9741
 1567SOL    HW216161   1.230   3.414   0.107 -0.8282 -0.5381 -0.1580
 1568SOL     OW16162   1.199   3.055  12.048 -0.4571  0.1693 -0.3881
 1568SOL    HW116163   1.280   3.084  12.005 -0.3101 -0.1185 -0.3086
 1568SOL    HW216164   1.137   3.078  11.979 -0.8833  0.2491  0.0258
 1569SOL     OW16165   0.892   3.997   3.454  0.4658 -0.0087  0.4174
 1569SOL    HW116166   0.838   4.068   3.488  1.2544  0.0038  1.6234
 1569SOL    HW216167   0.888   3.938   3.530  0.0939 -0.1262  0.3081
 1570SOL     OW16168   4.517   2.666   6.783  0.3105  0.1873 -0.3515
 1570SOL    HW116169   4.445   2.724   6.757 -1.1222 -0.4640  2.2098
 1570SOL    HW216170   4.592   2.708   6.741  0.7735  0.2521  0.5520
 1571SOL     OW16171   2.078   2.082   8.778  0.0297  0.3782 -0.0646
 1571SOL    HW116172   2.007   2.046   8.831 -0.3269  1.7941  0.3960
 1571SOL    HW216173   2.157   2.037   8.808 -1.4418 -1.6734  0.7538
 1572SOL     OW16174   0.006   1.823   3.327  0.3672  0.9238 -0.2820
 1572SOL    HW116175   0.093   1.809   3.363  0.4181  0.9642 -0.3918
 1572SOL    HW216176   4.691   1.833   3.414 -0.4632 -2.4073 -0.2499
 1573SOL     OW16177   1.885   2.965  11.266  0.3781 -0.2019  0.7161
 1573SOL    HW116178   1.974   2.929  11.276 -0.0524 -1.5458 -0.2229
 1573SOL    HW216179   1.904   3.055  11.292 -1.2182 -0.0238  1.2810
 1574SOL     OW16180   2.284   0.578   7.169  0.5000 -0.0517  1.1254
 1574SOL    HW116181   2.333   0.514   7.222  3.0574  1.9800  1.2572
 1574SOL    HW216182   2.357   0.639   7.156 -0.7133  0.9492 -0.8217
 1575SOL     OW16183   1.341   0.182   7.222 -0.0667 -0.6802 -0.3847
 1575SOL    HW116184   1.411   0.135   7.176  0.3552 -0.8639  0.4504
 1575SOL    HW216185   1.316   0.246   7.155 -0.3983  0.6190  1.0011
 1576SOL     OW16186   4.692   1.285  13.012 -0.3614  0.2478 -0.5897
 1576SOL    HW116187   0.061   1.269  13.003 -0.5108 -0.9055 -0.1331
 1576SOL    HW216188   4.662   1.257  12.925 -0.6337  1.1241 -0.7755
 1577SOL     OW16189   2.187   1.080   7.787 -0.4480  0.1487 -0.1106
 1577SOL    HW116190   2.234   1.000   7.808 -2.2416 -0.8715 -0.0235
 1577SOL    HW216191   2.189   1.125   7.872 -0.2846 -0.3161  0.1320
 1578SOL     OW16192   1.352   0.017   5.832 -0.3560 -0.1642  0.1734
 1578SOL    HW116193   1.275   0.072   5.849 -0.0387  0.2395  0.3068
 1578SOL    HW216194   1.406   0.063   5.768 -1.6141  1.7402  0.4658
 1579SOL     OW16195   3.825   4.041   8.905 -0.3488  0.3005 -0.5849
 1579SOL    HW116196   3.761   4.022   8.837 -0.1302 -0.3458 -0.6018
 1579SOL    HW216197   3.824   3.965   8.962  2.4572  1.1862  0.6636
 1580SOL     OW16198   4.404   3.220   6.248 -0.2689 -0.1033  0.0172
 1580SOL    HW116199   4.320   3.265   6.255 -0.4303 -0.4745  0.4367
 1580SOL    HW216200   4.447   3.229   6.333  2.8475  0.0387 -1.5555
 1581SOL     OW16201   1.779   0.442  13.785  0.3579 -0.0179 -0.5121
 1581SOL    HW116202   1.719   0.430  13.858  0.4358  0.2483 -0.4027
 1581SOL    HW216203   1.852   0.476  13.837  0.1018 -0.5023  0.1557
 1582SOL     OW16204   0.407   3.399   4.862 -0.1259  0.5074 -0.0455
 1582SOL    HW116205   0.415   3.372   4.771  0.3624  0.8927 -0.1164
 1582SOL    HW216206   0.368   3.485   4.846  0.6555  0.3962 -2.5434
 1583SOL     OW16207   4.632   1.132   5.903  0.0970  0.2934  0.5065
 1583SOL    HW116208   4.633   1.041   5.871  0.3825  0.9935 -1.4518
 1583SOL    HW216209   4.720   1.165   5.887 -0.3263  1.1160 -0.0828
 1584SOL     OW16210   0.707   4.565   5.669  0.4892  0.6487  0.0227
 1584SOL    HW116211   0.722   4.511   5.746  1.3383  1.7112  0.6078
 1584SOL    HW216212   0.749   4.516   5.598  0.1579 -0.0285  0.2928
 1585SOL     OW16213   1.216   2.402   2.069 -0.0555 -0.0841 -0.7195
 1585SOL    HW116214   1.248   2.491   2.085  0.9400 -0.2232 -2.0080
 1585SOL    HW216215   1.242   2.388   1.978  0.8782 -0.8051 -0.3447
 1586SOL     OW16216   2.606   4.642  14.445  0.4484 -0.1004  0.2261
 1586SOL    HW116217   2.605   4.657  14.351 -0.1108 -0.0530  0.2395
 1586SOL    HW216218   2.696   4.675  14.451  0.8524 -1.0316 -0.5616
 1587SOL     OW16219   1.035   4.331   9.331  0.2967 -0.5202  0.4895
 1587SOL    HW116220   1.089   4.365   9.260 -0.3563  0.1525  0.3221
 1587SOL    HW216221   0.948   4.343   9.294  0.1817 -0.5365  0.7561
 1588SOL     OW16222   3.787   4.512   3.683 -0.0240  0.1859 -0.4102
 1588SOL    HW116223   3.880   4.494   3.666  0.1899  1.9800 -1.1034
 1588SOL    HW216224   3.769   4.561   3.602  0.9024  2.3519  0.6989
 1589SOL     OW16225   1.607   0.900   2.172 -0.3558  0.2017 -0.4377
 1589SOL    HW116226   1.582   0.834   2.107  0.5951  1.9676 -2.5902
 1589SOL    HW216227   1.517   0.932   2.180 -0.3264  0.0295  0.5468
 1590SOL     OW16228   1.772   2.995   2.443  0.9557  0.2753  0.6215
 1590SOL    HW116229   1.758   2.919   2.499  0.0866 -1.1745 -1.5743
 1590SOL    HW216230   1.697   3.053   2.453  0.4700 -0.3941  0.8601
 1591SOL     OW16231   2.002   3.874   8.210  0.2932 -0.1414 -0.1390
 1591SOL    HW116232   1.967   3.798   8.258  0.2270  0.9323  1.5215
 1591SOL    HW216233   2.079   3.891   8.264 -0.8524 -3.2695  2.4991
 1592SOL     OW16234   2.220   1.039   5.257 -0.4079 -0.1881 -0.3556
 1592SOL    HW116235   2.253   1.116   5.303  1.4175 -0.6968 -0.7816
 1592SOL    HW216236   2.291   0.981   5.287  0.2643  1.4596  1.2027
 1593SOL     OW16237   2.290   3.345   2.033  0.3675  0.4382  0.6090
 1593SOL    HW116238   2.195   3.351   2.022  0.6940  0.5421 -2.2068
 1593SOL    HW216239   2.310   3.299   2.114 -0.3995 -3.1718 -1.2384
 1594SOL     OW16240   4.492   3.039   5.395  0.8854  0.4129 -0.2740
 1594SOL    HW116241   4.517   3.101   5.464 -2.3918  2.5801 -1.0478
 1594SOL    HW216242   4.528   2.956   5.425  0.8296  1.2985  2.3380
 1595SOL     OW16243   2.646   4.061   4.982  0.1702  0.2013  0.6278
 1595SOL    HW116244   2.727   4.083   5.030  1.3829 -3.3630  0.2127
 1595SOL    HW216245   2.575   4.107   5.026 -1.0666 -2.0010  0.8960
 1596SOL     OW16246   4.366   0.965  12.152  0.6770 -0.1283 -0.5284
 1596SOL    HW116247   4.395   1.019  12.079 -0.5403  2.4850  0.9424
 1596SOL    HW216248   4.280   1.008  12.152  2.4373  3.3529 -2.2760
 1597SOL     OW16249   2.228   1.794  15.412 -0.5190 -0.2316  0.1657
 1597SOL    HW116250   2.231   1.715  15.466  2.1870 -0.6883 -0.6207
 1597SOL    HW216251   2.173   1.852  15.465  2.7350  0.8837  2.3601
 1598SOL     OW16252   1.457   2.067   1.399  0.6083  0.2024  0.2083
 1598SOL    HW116253   1.451   1.979   1.362 -1.7152  0.2414  0.5164
 1598SOL    HW216254   1.489   2.116   1.324 -1.2631 -0.7415 -1.2066
 1599SOL     OW16255   0.129   4.257   2.751  0.5834  0.4921  0.0374
 1599SOL    HW116256   0.140   4.224   2.662 -1.1754  1.1995 -0.4405
 1599SOL    HW216257   0.185   4.334   2.753  1.4326 -0.1608  1.4762
 1600SOL     OW16258   0.656   2.653   4.143 -0.2441  0.0162  0.5026
 1600SOL    HW116259   0.693   2.569   4.116 -1.0352 -0.9672  2.4632
 1600SOL    HW216260   0.739   2.696   4.127 -0.1965  0.1166  1.0162
 1601SOL     OW16261   1.945   3.948   3.373 -0.3341  0.6961 -0.0838
 1601SOL    HW116262   2.020   4.002   3.349 -0.2279  0.8888  0.6994
 1601SOL    HW216263   1.879   3.997   3.323 -0.1478  2.0081  0.9687
 1602SOL     OW16264   0.425   3.081   3.053 -0.3434  0.2890  0.6145
 1602SOL    HW116265   0.494   3.025   3.089 -0.4995  0.5594  1.3255
 1602SOL    HW216266   0.463   3.116   2.972 -0.2729  2.3665  1.5482
 1603SOL     OW16267   2.132   4.716  12.721  0.2568 -0.0640 -0.3363
 1603SOL    HW116268   2.154   4.698  12.812  2.9741  2.5396 -0.4570
 1603SOL    HW216269   2.218   0.022  12.694 -0.2319  0.9611 -0.7472
 1604SOL     OW16270   1.867   2.649   3.450  0.3713  0.2228 -0.0413
 1604SOL    HW116271   1.874   2.655   3.355 -0.7311  0.6084 -0.0961
 1604SOL    HW216272   1.937   2.711   3.468  1.6637 -1.1814 -0.1820
 1605SOL     OW16273   2.646   1.182   6.513 -0.2310  0.0155 -0.1710
 1605SOL    HW116274   2.707   1.255   6.496 -2.6323  2.2545  0.8060
 1605SOL    HW216275   2.651   1.185   6.609  0.9686  2.6382 -0.3122
 1606SOL     OW16276   2.480   4.120   2.718 -0.4900  0.2774 -0.4042
 1606SOL    HW116277   2.539   4.046   2.703  0.2260  0.8441 -0.3615
 1606SOL    HW216278   2.402   4.101   2.666  0.3510 -0.1550 -1.4999
 1607SOL     OW16279   3.578   1.396   3.499 -0.1904  0.6792 -0.2436
 1607SOL    HW116280   3.524   1.461   3.543  0.3596  2.4698 -2.2543
 1607SOL    HW216281   3.663   1.421   3.535  0.5165 -3.5466  1.1006
 1608SOL     OW16282   1.276   3.843   3.701  0.5889  0.0012  0.2136
 1608SOL    HW116283   1.202   3.904   3.711 -0.9523 -1.2387 -3.6396
 1608SOL    HW216284   1.320   3.840   3.786 -0.0376 -1.3619  0.4702
 1609SOL     OW16285   1.267   2.102   3.857  0.3001  0.2080 -0.6861
 1609SOL    HW116286   1.327   2.131   3.789  1.0645  0.8139  0.2531
 1609SOL    HW216287   1.238   2.017   3.822 -1.9839 -0.4715  2.8342
 1610SOL     OW16288   0.808   0.229   6.089  0.0030  0.0798  0.1105
 1610SOL    HW116289   0.773   0.300   6.142  0.7139 -0.0182  0.7030
 1610SOL    HW216290   0.886   0.269   6.052 -1.4819  2.7899 -0.0484
 1611SOL     OW16291   1.762   2.302  11.381 -0.2467  0.3797  0.1556
 1611SOL    HW116292   1.822   2.239  11.342 -0.0763 -0.7657  2.2266
 1611SOL    HW216293   1.721   2.249  11.450  0.1850  1.5676  1.3098
 1612SOL     OW16294   3.360   0.613  14.353 -0.3758  0.3127 -0.4816
 1612SOL    HW116295   3.327   0.557  14.283  0.3941  0.7991 -1.2362
 1612SOL    HW216296   3.429   0.565  14.399 -0.6703 -0.5724 -0.9718
 1613SOL     OW16297   3.743   0.495   6.073  0.4034 -0.0256  0.2315
 1613SOL    HW116298   3.655   0.477   6.040  0.1594  1.3511  0.1660
 1613SOL    HW216299   3.788   0.481   5.990  0.6089  2.1798 -0.0242
 1614SOL     OW16300   2.995   0.472   8.341 -0.1247 -0.0537  0.2253
 1614SOL    HW116301   3.029   0.470   8.251  0.1422 -1.2413  0.3526
 1614SOL    HW216302   2.979   0.380   8.365 -2.4515  0.4997  0.7753
 1615SOL     OW16303   2.680   3.879   2.783  0.3541 -0.4665  0.0273
 1615SOL    HW116304   2.762   3.919   2.812 -0.2821  2.5704 -2.3051
 1615SOL    HW216305   2.694   3.787   2.802 -0.4495 -0.4392  0.7696
 1616SOL     OW16306   3.392   0.600   3.282  0.3970 -0.7476  0.2017
 1616SOL    HW116307   3.391   0.677   3.225 -0.9877 -1.9411 -1.3950
 1616SOL    HW216308   3.487   0.592   3.290  0.5691  0.4022 -0.5861
 1617SOL     OW16309   1.187   3.353   2.391 -0.0581  0.2094 -0.1788
 1617SOL    HW116310   1.227   3.283   2.339  0.0352 -0.2544  0.5041
 1617SOL    HW216311   1.262   3.403   2.423  0.9527 -1.8401  0.6614
 1618SOL     OW16312   3.958   1.859   6.823  0.0314 -0.0587 -0.0086
 1618SOL    HW116313   3.917   1.780   6.786 -1.1928  0.4344  0.3195
 1618SOL    HW216314   4.009   1.885   6.746  0.5253 -0.5479  0.1499
 1619SOL     OW16315   3.548   2.685   1.661 -0.1876 -0.2924 -0.2697
 1619SOL    HW116316   3.575   2.593   1.665 -0.9237 -0.4614  0.9104
 1619SOL    HW216317   3.479   2.689   1.728  0.5272 -1.4147  0.5308
 1620SOL     OW16318   1.219   3.345   3.217 -0.4701 -0.2183  0.3144
 1620SOL    HW116319   1.137   3.298   3.203 -0.2428  0.0749 -1.9975
 1620SOL    HW216320   1.174   3.429   3.218 -1.2965 -0.6536 -0.2364
 1621SOL     OW16321   1.356   2.046   4.424  0.4331  0.3527  0.3737
 1621SOL    HW116322   1.387   2.136   4.433  0.9593  0.3839 -1.7759
 1621SOL    HW216323   1.332   2.026   4.514  1.7790  0.6060  0.7920
 1622SOL     OW16324   4.554   2.586   3.685  0.4610  0.1434 -0.6115
 1622SOL    HW116325   4.618   2.646   3.723 -1.4872  1.3414  0.8051
 1622SOL    HW216326   4.605   2.516   3.645 -1.8553 -0.9447 -1.6794
 1623SOL     OW16327   0.365   1.068   3.124  0.5322  0.6752  0.6275
 1623SOL    HW116328   0.272   1.049   3.112  0.6379 -0.7998  2.0579
 1623SOL    HW216329   0.409   0.984   3.141 -1.2455  0.1667  2.6844
 1624SOL     OW16330   2.832   0.127   2.173 -0.0910  0.7084 -0.2560
 1624SOL    HW116331   2.751   0.173   2.148 -1.0638 -0.9983 -0.2558
 1624SOL    HW216332   2.883   0.137   2.093  0.1008  0.6375 -0.1412
 1625SOL     OW16333   4.681   3.880  13.919 -0.1359  0.1580 -0.2681
 1625SOL    HW116334   0.046   3.849  13.908  0.1128  0.3845  1.1423
 1625SOL    HW216335   4.678   3.908  14.010  1.8374 -2.7766  0.7016
 1626SOL     OW16336   3.479   3.416   9.520  0.2087 -0.3087 -0.1636
 1626SOL    HW116337   3.451   3.389   9.608  0.6167  2.7525  0.8924
 1626SOL    HW216338   3.572   3.433   9.533 -0.1599  1.5127  0.1503
 1627SOL     OW16339   2.305   0.166   5.857 -0.6618 -0.0866  0.2252
 1627SOL    HW116340   2.380   0.205   5.903  0.0575 -1.5600  0.3006
 1627SOL    HW216341   2.236   0.226   5.884 -0.0272  1.1209 -0.7973
 1628SOL     OW16342   0.511   3.421  16.926  0.0458  0.2343 -0.7064
 1628SOL    HW116343   0.470   3.401  17.011 -1.3986  0.9318 -1.2422
 1628SOL    HW216344   0.442   3.391  16.867  0.6063 -0.8215 -0.8355
 1629SOL     OW16345   4.600   3.599   2.266 -0.0745  0.0705 -0.4236
 1629SOL    HW116346   4.630   3.689   2.255  2.0003 -0.4991  0.6597
 1629SOL    HW216347   4.679   3.559   2.230  0.2838  1.3151 -1.0050
 1630SOL     OW16348   1.980   4.559   5.796 -0.3818  0.8122 -0.4549
 1630SOL    HW116349   1.933   4.552   5.713 -0.7766  1.7960 -0.3161
 1630SOL    HW216350   2.067   4.559   5.755 -0.6923 -0.0352 -1.1021
 1631SOL     OW16351   3.879   2.170   6.542  0.1309  0.7195 -0.2182
 1631SOL    HW116352   3.938   2.128   6.480 -0.5446  0.7607 -0.8859
 1631SOL    HW216353   3.930   2.218   6.608 -0.8999  1.1284  0.2817
 1632SOL     OW16354   1.778   3.081   6.438 -0.1014  1.1041 -0.3219
 1632SOL    HW116355   1.817   3.064   6.352 -0.5865 -0.1636 -0.2984
 1632SOL    HW216356   1.685   3.058   6.434  0.1491  0.3206 -1.6031
 1633SOL     OW16357   2.887   4.517   6.936 -0.1710  0.2824 -0.3427
 1633SOL    HW116358   2.893   4.520   6.841  0.8815  0.5115 -0.2752
 1633SOL    HW216359   2.807   4.569   6.940  0.7099  1.6077  0.0365
 1634SOL     OW16360   0.241   4.613   8.379  0.1782  0.4024 -0.3097
 1634SOL    HW116361   0.252   4.693   8.430 -1.2011  0.3844  0.0178
 1634SOL    HW216362   0.175   4.649   8.320  0.6894  2.0075  0.1060
 1635SOL     OW16363   0.635   4.083   4.180 -0.0691  0.4697  0.2715
 1635SOL    HW116364   0.688   4.003   4.177 -0.4042  0.2197  0.8899
 1635SOL    HW216365   0.546   4.049   4.189 -0.4850  1.1991 -1.1470
 1636SOL     OW16366   3.025   1.322   9.399  0.2096 -0.1982  0.9075
 1636SOL    HW116367   3.100   1.381   9.398 -1.2532  1.6553  0.0153
 1636SOL    HW216368   3.023   1.291   9.490  1.2988  0.3942  1.1344
 1637SOL     OW16369   0.647   3.806  16.721 -0.1005  0.4382  0.1082
 1637SOL    HW116370   0.683   3.891  16.743 -0.2998  0.0660  1.8344
 1637SOL    HW216371   0.596   3.828  16.642 -0.0166  0.0279 -0.0650
 1638SOL     OW16372   0.775   2.123  15.860  0.1110 -0.3011 -0.3312
 1638SOL    HW116373   0.756   2.192  15.924  1.2105  0.8429 -1.2455
 1638SOL    HW216374   0.834   2.169  15.800 -2.2145  0.6115 -1.9249
 1639SOL     OW16375   3.280   3.838   3.425 -0.0760  0.0685  0.4877
 1639SOL    HW116376   3.306   3.752   3.459  0.1243  0.2395  0.7647
 1639SOL    HW216377   3.347   3.890   3.469 -0.0279  1.2982 -1.0315
 1640SOL     OW16378   3.981   2.645  11.947  0.0194 -0.2059 -0.5072
 1640SOL    HW116379   3.961   2.727  11.900  0.9642  0.6053  0.5007
 1640SOL    HW216380   3.987   2.668  12.039 -1.0789 -1.2748 -0.1720
 1641SOL     OW16381   3.136   3.962   3.166  0.6641 -0.2461 -0.2644
 1641SOL    HW116382   3.058   4.018   3.161  0.8499  0.5047  4.5676
 1641SOL    HW216383   3.200   4.020   3.125  0.3527 -0.1519 -0.6117
 1642SOL     OW16384   2.734   4.207   4.689  0.1000  0.6487 -0.2110
 1642SOL    HW116385   2.755   4.116   4.710 -2.3264  0.4171  1.1580
 1642SOL    HW216386   2.800   4.232   4.625  2.2903  0.1296  1.8397
 1643SOL     OW16387   4.440   2.038  16.759  0.7704  0.6621 -0.5165
 1643SOL    HW116388   4.457   2.088  16.679  0.4705  0.7164 -0.5470
 1643SOL    HW216389   4.507   2.073  16.817 -0.4339  0.8631  0.7586
 1644SOL     OW16390   0.691   3.921  13.136 -0.0740 -0.2002  0.5928
 1644SOL    HW116391   0.741   3.982  13.082 -0.1874  0.7533  1.5750
 1644SOL    HW216392   0.763   3.867  13.168  1.9664  2.0859 -0.0882
 1645SOL     OW16393   2.945   3.598   2.271  0.2193  0.2597  0.3404
 1645SOL    HW116394   3.032   3.617   2.238  1.3846 -0.6041  2.9381
 1645SOL    HW216395   2.934   3.681   2.319 -0.3849  0.2238  0.2636
 1646SOL     OW16396   4.508   1.689   6.547  0.0751  0.1664  0.1443
 1646SOL    HW116397   4.432   1.635   6.524  0.2911  0.0910 -0.3830
 1646SOL    HW216398   4.504   1.752   6.475  0.9697  0.3084  0.2219
 1647SOL     OW16399   4.495   0.743   7.265  0.4731 -0.4570  0.2317
 1647SOL    HW116400   4.560   0.694   7.316  2.4887  2.2895  0.2960
 1647SOL    HW216401   4.550   0.792   7.203 -0.9442  0.7355 -0.0820
 1648SOL     OW16402   2.347   2.668   4.174  0.5146 -0.8433 -0.0507
 1648SOL    HW116403   2.281   2.612   4.215 -1.0893  1.8741  1.1125
 1648SOL    HW216404   2.302   2.719   4.106 -0.0851  0.1717  1.1013
 1649SOL     OW16405   2.944   0.631   8.000  0.0621  0.7231 -0.4415
 1649SOL    HW116406   2.892   0.672   7.931 -1.4354  1.5141  1.1506
 1649SOL    HW216407   2.888   0.562   8.036  0.2394  0.7664 -0.0874
 1650SOL     OW16408   2.737   1.872   2.123 -0.2021 -1.0239 -0.1757
 1650SOL    HW116409   2.774   1.864   2.035  0.0021 -0.2296 -0.1588
 1650SOL    HW216410   2.643   1.888   2.115 -0.0158 -0.0251 -0.3335
 1651SOL     OW16411   0.505   1.659   6.663 -0.4013 -0.0745 -0.8208
 1651SOL    HW116412   0.418   1.620   6.662 -0.2158 -0.4537 -2.5299
 1651SOL    HW216413   0.490   1.741   6.710 -3.7182 -0.9642 -0.3393
 1652SOL     OW16414   3.877   0.622   3.072 -0.0875  0.5167  0.1847
 1652SOL    HW116415   3.916   0.628   3.159  0.7549 -3.5738  0.1080
 1652SOL    HW216416   3.882   0.527   3.058  1.4516  0.5044  0.7546
 1653SOL     OW16417   3.887   0.022   0.271  0.4800 -0.5563 -0.1605
 1653SOL    HW116418   3.982   0.034   0.277  0.3116  2.0357 -2.8117
 1653SOL    HW216419   3.862   0.072   0.348 -2.1433 -0.9359 -0.7598
 1654SOL     OW16420   4.203   2.446   2.198 -0.2618 -0.1288 -0.0480
 1654SOL    HW116421   4.189   2.455   2.292 -3.2688  1.0009 -0.6194
 1654SOL    HW216422   4.122   2.482   2.161 -0.9163 -1.9709 -0.4399
 1655SOL     OW16423   1.872   1.624   5.152 -0.2877  0.1886 -0.0674
 1655SOL    HW116424   1.950   1.605   5.203  0.1624 -0.6120 -1.0559
 1655SOL    HW216425   1.805   1.565   5.187 -0.4819 -1.3676 -3.0689
 1656SOL     OW16426   3.763   2.388  11.999  0.0362  0.7520  0.2864
 1656SOL    HW116427   3.788   2.296  11.993 -2.5261  0.1738 -1.8467
 1656SOL    HW216428   3.792   2.435  11.921  2.6490  0.9654  1.4159
 1657SOL     OW16429   1.621   1.513  16.255 -0.3420 -0.7882 -0.5132
 1657SOL    HW116430   1.569   1.544  16.181 -0.5126  1.9245  0.7190
 1657SOL    HW216431   1.625   1.596  16.304 -2.5555 -0.1033 -1.4929
 1658SOL     OW16432   2.491   2.433   6.772  0.0182  0.2698 -0.0513
 1658SOL    HW116433   2.396   2.444   6.776 -0.0633 -0.4788  0.0339
 1658SOL    HW216434   2.485   2.351   6.722  2.0357 -1.0609  1.8786
 1659SOL     OW16435   2.306   4.251   7.853  0.1820  0.0021 -0.3448
 1659SOL    HW116436   2.214   4.224   7.855  0.2939 -0.2318  1.2139
 1659SOL    HW216437   2.323   4.211   7.938  0.9596  0.4639 -0.2862
 1660SOL     OW16438   1.789   0.088   6.560 -0.1465 -0.0738  0.0340
 1660SOL    HW116439   1.820   0.039   6.484  0.6340  1.4019 -0.6134
 1660SOL    HW216440   1.732   0.147   6.510 -0.6818 -0.3536  0.3152
 1661SOL     OW16441   0.453   0.511   5.758 -0.0681  0.2521 -0.0998
 1661SOL    HW116442   0.408   0.562   5.691 -1.2416  2.1368  2.1015
 1661SOL    HW216443   0.522   0.473   5.704 -0.0596 -1.3299  1.0320
 1662SOL     OW16444   0.541   2.247   7.626  0.0585  0.0259  0.0364
 1662SOL    HW116445   0.483   2.237   7.550  0.4271  0.5836 -0.3216
 1662SOL    HW216446   0.625   2.222   7.589  0.3932  2.1035 -0.5979
 1663SOL     OW16447   0.444   0.440  11.256  0.1695 -0.5346 -0.5422
 1663SOL    HW116448   0.372   0.389  11.218  0.5415 -0.0384 -1.8844
 1663SOL    HW216449   0.479   0.486  11.180  2.3532  2.3317  2.1987
 1664SOL     OW16450   1.784   0.854  13.896 -0.4003 -0.1394 -0.1050
 1664SOL    HW116451   1.847   0.882  13.962  0.7015  0.1445 -1.2835
 1664SOL    HW216452   1.716   0.826  13.958  0.4174 -0.1085  0.7958
 1665SOL     OW16453   0.784   4.673   7.215 -0.8043  0.0394 -0.2788
 1665SOL    HW116454   0.788   4.592   7.266  0.6627  1.0066  1.1539
 1665SOL    HW216455   0.877   4.698   7.219 -0.0514 -2.7275 -0.2994
 1666SOL     OW16456   0.941   4.238   5.701 -0.0451  0.1599 -0.3227
 1666SOL    HW116457   0.920   4.301   5.632 -0.7208 -0.0756 -0.3336
 1666SOL    HW216458   0.873   4.259   5.765  1.5869  0.4782  1.2794
 1667SOL     OW16459   4.479   4.165   3.813 -0.1868  0.1114  0.5539
 1667SOL    HW116460   4.439   4.151   3.727 -0.7115 -1.4522  1.0581
 1667SOL    HW216461   4.532   4.244   3.804 -2.1294  1.3980  0.3156
 1668SOL     OW16462   2.291   2.528  12.900  0.1084  0.5254  0.0188
 1668SOL    HW116463   2.225   2.591  12.929  0.3504  0.3337  1.0116
 1668SOL    HW216464   2.249   2.496  12.821 -1.5940  2.2772  0.1979
 1669SOL     OW16465   0.791   0.912   4.241  0.1530 -0.0615 -0.3177
 1669SOL    HW116466   0.726   0.843   4.229 -0.0397  0.3096 -1.3343
 1669SOL    HW216467   0.742   0.989   4.270  0.2029  0.0571 -0.5512
 1670SOL     OW16468   1.967   1.255   3.185  0.3149 -0.6483  0.4194
 1670SOL    HW116469   1.881   1.293   3.207  0.4671  0.2170 -0.4589
 1670SOL    HW216470   1.958   1.252   3.090 -0.0220 -1.6684  0.4875
 1671SOL     OW16471   4.272   3.307  14.456  0.8298 -0.7827 -0.2265
 1671SOL    HW116472   4.289   3.305  14.362  0.6539 -0.5097 -0.2653
 1671SOL    HW216473   4.207   3.238  14.469 -1.2212  1.6878  2.6236
 1672SOL     OW16474   1.958   2.987   4.651 -0.1585  0.0728 -0.0439
 1672SOL    HW116475   1.977   2.960   4.741 -2.9829  1.1900  0.8803
 1672SOL    HW216476   1.948   3.082   4.659  0.1644 -0.0112  1.4386
 1673SOL     OW16477   1.250   3.697   5.943  0.1683  0.4676  0.3807
 1673SOL    HW116478   1.304   3.754   5.888 -1.1059  0.6481 -0.6823
 1673SOL    HW216479   1.284   3.614   5.910 -0.4165  1.3528 -2.4846
 1674SOL     OW16480   4.318   3.899   5.046  0.7084 -0.4203 -0.0731
 1674SOL    HW116481   4.253   3.938   5.104 -0.0235 -1.2803 -0.3298
 1674SOL    HW216482   4.277   3.825   5.004 -0.6348  0.7639 -0.8287
 1675SOL     OW16483   0.745   4.336   5.850 -0.0164 -0.4691 -0.0352
 1675SOL    HW116484   0.728   4.336   5.944  0.3706  1.1586  0.0235
 1675SOL    HW216485   0.663   4.338   5.801 -0.2993 -1.0354  0.4049
 1676SOL     OW16486   0.976   2.979   7.433  0.0764  0.0509 -0.1581
 1676SOL    HW116487   1.052   2.983   7.376  0.3512 -1.0192  0.1240
 1676SOL    HW216488   0.954   2.886   7.426  3.3710 -0.5850 -1.9527
 1677SOL     OW16489   3.692   0.066   2.429 -0.5243  0.1078 -0.2277
 1677SOL    HW116490   3.703   0.043   2.336  1.0324 -0.3236  0.0553
 1677SOL    HW216491   3.716   0.158   2.432  1.3272 -0.4609  2.6966
 1678SOL     OW16492   1.157   4.050   3.135  0.1414 -0.2814 -0.4362
 1678SOL    HW116493   1.182   4.008   3.052 -1.0135 -0.9270 -0.4505
 1678SOL    HW216494   1.196   3.997   3.205  0.2374  0.0012 -0.2796
 1679SOL     OW16495   1.499   1.453   6.940  0.2044  0.0193  0.3980
 1679SOL    HW116496   1.532   1.411   7.020  2.9456  1.8014  0.2039
 1679SOL    HW216497   1.475   1.372   6.896 -1.5127  0.3393  0.7523
 1680SOL     OW16498   2.776   3.124   5.657  0.5456 -0.4503  0.0213
 1680SOL    HW116499   2.800   3.211   5.626  0.1643 -0.1635  0.5158
 1680SOL    HW216500   2.849   3.105   5.715 -1.5941 -0.8019  2.6421
 1681SOL     OW16501   3.961   2.966   2.489 -0.0360  0.1431 -0.3669
 1681SOL    HW116502   3.952   2.926   2.576  0.5508 -1.2816 -0.9649
 1681SOL    HW216503   3.961   2.890   2.431  1.4273 -0.4112  0.3763
 1682SOL     OW16504   4.235   4.068  15.519  0.2686 -0.2244 -0.4249
 1682SOL    HW116505   4.153   4.110  15.546  0.4016 -0.0659 -0.2715
 1682SOL    HW216506   4.285   4.138  15.478  0.0699 -0.2054 -0.6340
 1683SOL     OW16507   4.309   1.920   8.052  0.1407  0.0033  0.1994
 1683SOL    HW116508   4.394   1.930   8.009 -0.0458 -1.5882 -0.5497
 1683SOL    HW216509   4.316   1.987   8.119 -2.8820 -0.1510  0.6659
 1684SOL     OW16510   0.847   0.334   8.570 -0.6964 -0.0446  0.1662
 1684SOL    HW116511   0.923   0.276   8.579 -0.5942  0.2598  1.2852
 1684SOL    HW216512   0.788   0.269   8.533 -3.8787  1.1121  3.1871
 1685SOL     OW16513   3.876   0.587   0.602  0.1635 -0.0884  0.3621
 1685SOL    HW116514   3.810   0.649   0.633  0.0909 -1.6175  3.2187
 1685SOL    HW216515   3.819   0.515   0.576 -0.1439  0.6964 -1.1385
 1686SOL     OW16516   3.365   3.424   4.430 -0.4587 -0.5879 -0.0842
 1686SOL    HW116517   3.320   3.480   4.493 -2.0324 -0.3354 -1.4298
 1686SOL    HW216518   3.316   3.450   4.352 -1.6232 -0.2047  0.7784
 1687SOL     OW16519   3.353   1.454   2.679  0.4824  0.6136  0.1498
 1687SOL    HW116520   3.354   1.378   2.738 -1.0565 -2.5450 -3.9204
 1687SOL    HW216521   3.261   1.468   2.660  0.7124 -0.0255 -1.4595
 1688SOL     OW16522   1.824   1.857  16.391 -0.9489  0.1617  0.1280
 1688SOL    HW116523   1.846   1.936  16.341  1.0478  0.2543  1.1610
 1688SOL    HW216524   1.749   1.824  16.341 -2.8665  0.1635  2.9828
 1689SOL     OW16525   1.165   1.686  16.192 -0.1743  0.3279  0.4378
 1689SOL    HW116526   1.083   1.730  16.212 -0.0951  0.9617 -0.6370
 1689SOL    HW216527   1.176   1.622  16.262 -0.5635  1.5755  1.6458
 1690SOL     OW16528   2.352   4.622  14.571  0.0548  0.2900  0.1907
 1690SOL    HW116529   2.440   4.639  14.537  0.0997  0.7452  0.5373
 1690SOL    HW216530   2.304   4.633  14.488  1.0751  0.6405 -0.3606
 1691SOL     OW16531   3.882   0.734   0.365 -1.0999  0.1717  0.5442
 1691SOL    HW116532   3.866   0.676   0.439  2.3386 -1.0732  0.2984
 1691SOL    HW216533   3.957   0.778   0.405 -0.5468 -1.6468  1.4709
 1692SOL     OW16534   3.638   3.553   3.989 -0.5689 -0.2352  0.4387
 1692SOL    HW116535   3.588   3.615   3.937  0.2102  2.2122  2.5824
 1692SOL    HW216536   3.639   3.473   3.938  0.1865  0.0490  0.0071
 1693SOL     OW16537   3.875   2.470  14.049  0.0712 -0.1952 -0.5617
 1693SOL    HW116538   3.818   2.539  14.014  1.9682  1.8171  0.2904
 1693SOL    HW216539   3.962   2.507  14.031  0.5748 -1.1392 -0.0882
 1694SOL     OW16540   2.044   4.451   6.128 -0.2654  0.0946 -1.2009
 1694SOL    HW116541   2.087   4.520   6.077 -1.0764  1.3106 -0.2319
 1694SOL    HW216542   1.953   4.473   6.109 -1.4825 -3.5206  0.4732
 1695SOL     OW16543   1.165   3.983   4.316  0.0675  0.3476 -0.1371
 1695SOL    HW116544   1.102   4.009   4.383 -1.5702 -0.3657 -1.4088
 1695SOL    HW216545   1.162   3.893   4.350 -0.3920  1.2091  2.0924
 1696SOL     OW16546   1.150   0.608   0.509  0.0092 -0.2877  0.0457
 1696SOL    HW116547   1.240   0.639   0.501 -0.1926 -0.8822 -4.5017
 1696SOL    HW216548   1.129   0.652   0.591  0.1362  1.0750 -0.6480
 1697SOL     OW16549   0.021   1.422   6.546  0.1171  0.6472  0.0497
 1697SOL    HW116550   4.675   1.416   6.481  0.6047 -1.5383 -0.2656
 1697SOL    HW216551   4.699   1.418   6.629 -0.4932 -1.5940 -0.3990
 1698SOL     OW16552   0.085   2.660  16.413 -0.1472  0.0338  0.5106
 1698SOL    HW116553   0.168   2.679  16.455 -0.5230  0.6668  0.9726
 1698SOL    HW216554   0.036   2.603  16.472 -0.7286 -0.3561 -0.3408
 1699SOL     OW16555   1.219   3.197   8.240  0.1447 -0.5411  0.1876
 1699SOL    HW116556   1.229   3.255   8.315  0.2525 -1.5139  0.9232
 1699SOL    HW216557   1.156   3.252   8.194 -0.8014 -2.5992 -0.9841
 1700SOL     OW16558   2.636   3.952   8.550 -0.0700  0.1143 -0.2542
 1700SOL    HW116559   2.594   3.877   8.592  1.4110 -0.7633 -0.3286
 1700SOL    HW216560   2.624   4.008   8.626 -1.0979 -1.8933  1.0681
 1701SOL     OW16561   1.057   0.483   9.137  0.6469  0.4027  0.0121
 1701SOL    HW116562   1.007   0.556   9.100 -1.6260 -0.5798  1.1613
 1701SOL    HW216563   1.142   0.527   9.144 -0.2129  2.0111  0.2759
 1702SOL     OW16564   2.193   4.147   4.363 -0.2230 -0.1667 -0.6315
 1702SOL    HW116565   2.232   4.102   4.288  0.8538 -0.3820  0.0586
 1702SOL    HW216566   2.103   4.114   4.357 -1.0994  2.0124  0.2675
 1703SOL     OW16567   2.672   3.377   9.444 -0.3571  0.0798 -0.1758
 1703SOL    HW116568   2.732   3.398   9.516 -1.4550 -0.9465  1.0316
 1703SOL    HW216569   2.730   3.347   9.374 -1.7603 -0.6813 -1.0121
 1704SOL     OW16570   0.785   2.039   5.874  0.3397  0.1366  0.0785
 1704SOL    HW116571   0.715   2.094   5.838 -0.2564  0.2822  1.4267
 1704SOL    HW216572   0.749   2.021   5.961 -1.7119  0.7522 -0.6426
 1705SOL     OW16573   4.266   4.512   1.320 -0.3305 -0.1095 -0.6204
 1705SOL    HW116574   4.254   4.601   1.353  0.7003  0.2470 -1.1881
 1705SOL    HW216575   4.308   4.519   1.234  0.7008  0.6199 -0.0681
 1706SOL     OW16576   1.538   1.336  16.586 -0.3758  0.4455 -0.2000
 1706SOL    HW116577   1.504   1.424  16.605 -1.9943 -0.1654 -0.2359
 1706SOL    HW216578   1.625   1.349  16.623  0.6285 -0.8140 -2.0999
 1707SOL     OW16579   1.212   1.342  15.236 -0.1718  0.2037  1.0259
 1707SOL    HW116580   1.263   1.415  15.269  0.9683  0.6373 -1.6791
 1707SOL    HW216581   1.238   1.263  15.284 -1.7721 -0.9977 -0.0936
 1708SOL     OW16582   0.843   1.468  11.913 -0.1238  0.7474  0.0505
 1708SOL    HW116583   0.935   1.488  11.899  0.1641  0.9362  2.1868
 1708SOL    HW216584   0.838   1.443  12.005 -0.9879 -0.3551 -0.2863
 1709SOL     OW16585   3.301   1.595   7.576 -0.0008 -0.1205  0.7245
 1709SOL    HW116586   3.282   1.511   7.534 -1.4076  0.8269 -0.5084
 1709SOL    HW216587   3.395   1.602   7.563 -0.3659 -0.0791 -1.8287
 1710SOL     OW16588   1.080   0.527   0.946  0.0572 -0.0380 -0.6542
 1710SOL    HW116589   1.141   0.468   0.903 -0.8531 -1.0978 -0.4990
 1710SOL    HW216590   1.007   0.471   0.972  0.6760 -0.1634  0.8347
 1711SOL     OW16591   2.609   2.544  10.989 -0.0520 -0.4236  0.0222
 1711SOL    HW116592   2.606   2.627  11.037 -0.8674 -0.0855 -0.6161
 1711SOL    HW216593   2.600   2.572  10.898  3.0039  0.8252  0.1127
 1712SOL     OW16594   1.310   4.680   9.585  0.8861 -0.0957  0.2624
 1712SOL    HW116595   1.285   4.596   9.623 -0.7519  0.9894  1.5437
 1712SOL    HW216596   1.372   4.715   9.649 -0.6460  0.3215  1.5094
 1713SOL     OW16597   2.881   0.457  11.395  0.3394 -0.1342  0.0979
 1713SOL    HW116598   2.904   0.437  11.304  2.2083  1.6076  0.1822
 1713SOL    HW216599   2.914   0.546  11.405 -0.2763 -0.0677  1.4823
 1714SOL     OW16600   2.008   1.023  12.882  0.0327 -0.3665 -0.1142
 1714SOL    HW116601   1.919   1.051  12.860 -0.3840 -1.9949 -0.5319
 1714SOL    HW216602   2.062   1.100  12.865 -1.3235  0.1565 -1.9978
 1715SOL     OW16603   1.277   0.366   9.498  0.1060  0.2385 -0.0471
 1715SOL    HW116604   1.367   0.335   9.489  0.6761  1.6884  0.6329
 1715SOL    HW216605   1.234   0.318   9.427 -1.3318 -0.2055  1.1159
 1716SOL     OW16606   3.338   4.450   3.834 -0.0634  0.5857  0.2079
 1716SOL    HW116607   3.343   4.489   3.921  1.2803 -3.2811  1.8773
 1716SOL    HW216608   3.430   4.452   3.807 -0.2604  0.7664 -0.4475
 1717SOL     OW16609   0.551   2.236   9.150 -0.1989  0.4353 -0.3248
 1717SOL    HW116610   0.646   2.227   9.155 -0.3765 -1.4630 -0.4783
 1717SOL    HW216611   0.527   2.214   9.060 -0.9941  1.3272 -0.3276
 1718SOL     OW16612   1.481   4.706   4.642 -0.4203 -0.4229  0.1990
 1718SOL    HW116613   1.465   0.075   4.631 -0.6564 -0.8219 -2.8257
 1718SOL    HW216614   1.433   4.673   4.566 -2.0797  1.8850  0.2623
 1719SOL     OW16615   3.619   2.900   6.390  0.2366  0.2947 -0.2024
 1719SOL    HW116616   3.531   2.864   6.402  0.5408 -0.4060 -0.0463
 1719SOL    HW216617   3.665   2.833   6.440  0.6038 -0.4151 -1.4837
 1720SOL     OW16618   1.670   2.122   8.304  0.2473  0.3864 -0.1571
 1720SOL    HW116619   1.744   2.171   8.267 -0.1198 -0.9999 -2.6994
 1720SOL    HW216620   1.706   2.033   8.302  0.3583  0.4092  1.4086
 1721SOL     OW16621   3.395   0.730   4.683 -0.2359  0.9213 -0.6185
 1721SOL    HW116622   3.427   0.645   4.715  1.0965  3.0180  3.5534
 1721SOL    HW216623   3.465   0.744   4.619  1.5605 -0.9916  0.9351
 1722SOL     OW16624   2.230   1.160   4.371 -0.7970 -0.2553  0.6978
 1722SOL    HW116625   2.198   1.185   4.284 -0.2988 -0.3050  0.5045
 1722SOL    HW216626   2.170   1.205   4.431 -1.3696 -0.5165  0.3156
 1723SOL     OW16627   2.435   4.717   2.635  0.2515 -0.7218  0.1974
 1723SOL    HW116628   2.528   0.010   2.618 -0.8456 -0.6164 -5.5950
 1723SOL    HW216629   2.409   4.693   2.546  1.6524 -1.0755 -0.1171
 1724SOL     OW16630   4.297   0.663   6.125  0.0176 -0.3000  0.0126
 1724SOL    HW116631   4.356   0.588   6.122 -1.7708 -1.6917 -0.4664
 1724SOL    HW216632   4.259   0.663   6.037 -0.4511 -1.1952  0.2101
 1725SOL     OW16633   1.245   3.037   8.759 -0.1206  0.3262  0.2078
 1725SOL    HW116634   1.308   3.054   8.828  0.6354  0.9916 -0.6470
 1725SOL    HW216635   1.170   3.004   8.808 -1.6108 -0.0979 -2.3204
 1726SOL     OW16636   4.176   1.048   7.483 -0.3058 -0.1919  0.2335
 1726SOL    HW116637   4.258   1.095   7.470 -0.5636 -0.3076 -1.8278
 1726SOL    HW216638   4.203   0.957   7.473  2.9424  0.7054  0.7893
 1727SOL     OW16639   0.951   1.672   6.621 -0.3903  0.0495  0.5114
 1727SOL    HW116640   0.903   1.710   6.694 -0.8685 -1.2966  0.8941
 1727SOL    HW216641   1.040   1.685   6.653 -0.0065  0.5121 -0.7512
 1728SOL     OW16642   3.705   0.795   8.946  0.2484 -0.4860 -0.0788
 1728SOL    HW116643   3.720   0.796   8.851 -1.1383 -1.3298 -0.3076
 1728SOL    HW216644   3.655   0.716   8.966 -0.5650  0.6509  2.3436
 1729SOL     OW16645   0.589   2.059  16.560  0.1495  0.4852 -0.4096
 1729SOL    HW116646   0.607   2.125  16.628  0.8674  0.2962 -0.4208
 1729SOL    HW216647   0.498   2.033  16.576  0.7449 -1.1829  0.2383
 1730SOL     OW16648   3.862   3.274   8.140 -0.5508 -0.1863  0.0641
 1730SOL    HW116649   3.897   3.253   8.226 -0.2139 -1.5952 -0.4186
 1730SOL    HW216650   3.925   3.344   8.121 -0.4764 -0.3630 -0.3421
 1731SOL     OW16651   3.962   2.882  11.810  0.1512  0.1575  0.1877
 1731SOL    HW116652   3.989   2.971  11.787  1.6523 -0.5070 -0.5981
 1731SOL    HW216653   3.875   2.882  11.770  0.5740 -3.9040 -0.6581
 1732SOL     OW16654   0.955   3.873  13.240  0.1648 -0.5302  0.4571
 1732SOL    HW116655   0.976   3.965  13.252 -0.4791 -0.5386  1.6068
 1732SOL    HW216656   1.032   3.841  13.193 -0.5066 -0.9547 -0.3738
 1733SOL     OW16657   0.411   2.354  14.859 -0.2121 -0.1867  0.3616
 1733SOL    HW116658   0.322   2.323  14.841 -0.8583  1.4692  0.6768
 1733SOL    HW216659   0.460   2.273  14.869  1.0100  0.2610 -2.0806
 1734SOL     OW16660   2.727   0.492   6.895 -0.5476  0.0059  0.2065
 1734SOL    HW116661   2.787   0.545   6.842 -1.6019  0.1801 -0.8382
 1734SOL    HW216662   2.649   0.483   6.839 -1.2913  0.6972  1.1249
 1735SOL     OW16663   3.403   1.851   4.509  0.3258  0.3085  0.2879
 1735SOL    HW116664   3.314   1.884   4.492  0.9958  2.8126  1.6478
 1735SOL    HW216665   3.442   1.866   4.423 -3.9420 -0.5135 -1.8366
 1736SOL     OW16666   2.823   3.249  12.650  0.2302 -0.0274 -0.3401
 1736SOL    HW116667   2.914   3.223  12.633  0.5343  0.1917  0.9517
 1736SOL    HW216668   2.834   3.340  12.678  2.2439 -0.6338  0.8789
 1737SOL     OW16669   1.787   3.685   2.191 -0.6436 -0.0110 -0.2831
 1737SOL    HW116670   1.818   3.773   2.213 -0.3277 -0.1794 -0.0595
 1737SOL    HW216671   1.850   3.665   2.122 -0.2757 -0.0261  0.0591
 1738SOL     OW16672   1.586   2.467   8.981  0.0519 -0.3422 -0.3385
 1738SOL    HW116673   1.650   2.397   8.964  0.9338 -0.0700  1.7866
 1738SOL    HW216674   1.547   2.470   8.894 -0.2806 -0.5564 -0.1988
 1739SOL     OW16675   0.601   0.194   3.866  0.2772  0.1186  0.1585
 1739SOL    HW116676   0.601   0.138   3.788  0.9378 -0.6203  0.6777
 1739SOL    HW216677   0.585   0.137   3.941 -2.7726  1.0909  0.2467
 1740SOL     OW16678   3.742   1.606   4.363  0.7068 -0.0939 -0.8442
 1740SOL    HW116679   3.760   1.554   4.285 -0.0523  1.4759 -2.0583
 1740SOL    HW216680   3.700   1.678   4.316 -0.1104  1.0923  1.6913
 1741SOL     OW16681   3.685   0.861   3.232 -0.0369  0.2025 -0.0049
 1741SOL    HW116682   3.773   0.855   3.269 -0.1220  0.7494  0.2995
 1741SOL    HW216683   3.660   0.770   3.243 -2.1823  0.5008 -2.4232
 1742SOL     OW16684   3.578   3.712   9.293  0.1846 -0.5645  0.3808
 1742SOL    HW116685   3.491   3.751   9.286  0.1891 -0.8752 -1.5060
 1742SOL    HW216686   3.590   3.717   9.388 -0.1749  0.3095  0.3799
 1743SOL     OW16687   3.659   0.037   6.264  0.3653  0.2518  0.0395
 1743SOL    HW116688   3.569   0.026   6.292 -0.0858  1.3760 -0.9859
 1743SOL    HW216689   3.675   0.114   6.319 -0.7531  1.3039 -1.1121
 1744SOL     OW16690   2.873   1.080  11.333  0.7234 -0.3812  0.1555
 1744SOL    HW116691   2.892   1.173  11.327 -1.4192  0.0302 -0.4333
 1744SOL    HW216692   2.882   1.052  11.424  2.0428  0.8815  0.4036
 1745SOL     OW16693   2.803   4.512   6.036 -0.1790 -0.2075 -0.3763
 1745SOL    HW116694   2.797   4.547   6.125 -0.3522  0.4748 -0.6489
 1745SOL    HW216695   2.829   4.594   5.993 -0.0528 -1.0268 -1.8423
 1746SOL     OW16696   4.167   3.657   6.664 -0.1751  0.1437 -0.1566
 1746SOL    HW116697   4.168   3.653   6.760 -1.6813 -1.0559 -0.1865
 1746SOL    HW216698   4.099   3.723   6.654  0.8771  1.4756  1.5247
 1747SOL     OW16699   2.056   1.431   9.301 -0.1614 -0.4371  0.6927
 1747SOL    HW116700   2.119   1.436   9.373  1.2281 -1.9092 -0.4283
 1747SOL    HW216701   2.076   1.511   9.252 -0.7646 -0.9096 -0.3155
 1748SOL     OW16702   4.273   2.284   6.899  0.5830  0.1129 -0.7552
 1748SOL    HW116703   4.243   2.195   6.883  1.4212 -0.2292 -0.4161
 1748SOL    HW216704   4.367   2.270   6.906  0.1941 -2.1671 -0.1669
 1749SOL     OW16705   3.506   3.942   3.539 -0.0719 -0.2934  0.2613
 1749SOL    HW116706   3.551   4.023   3.564 -1.1262  1.0554 -2.2072
 1749SOL    HW216707   3.520   3.892   3.619  0.4055 -1.6433 -0.6828
 1750SOL     OW16708   1.217   1.341   5.944  0.0107 -0.7739 -1.0024
 1750SOL    HW116709   1.281   1.410   5.962 -0.8418 -1.0460  3.1546
 1750SOL    HW216710   1.233   1.285   6.020  0.8369  0.0466 -0.5665
 1751SOL     OW16711   2.310   0.345   6.852 -0.1481  0.4036 -0.0436
 1751SOL    HW116712   2.227   0.393   6.847 -1.8535 -2.4620  0.9224
 1751SOL    HW216713   2.370   0.419   6.861  1.0001 -0.3223 -1.8423
 1752SOL     OW16714   3.833   2.019  11.589  0.3887 -0.0856 -0.2805
 1752SOL    HW116715   3.793   2.103  11.612  1.9829  0.3043  1.0783
 1752SOL    HW216716   3.838   1.979  11.676  0.4062 -0.9533 -0.6794
 1753SOL     OW16717   1.585   0.504   3.115  0.1231 -0.2083  0.0001
 1753SOL    HW116718   1.652   0.567   3.088  1.8580 -1.0824  2.2978
 1753SOL    HW216719   1.510   0.524   3.059  0.4052  0.5766 -0.0862
 1754SOL     OW16720   0.815   3.960  12.899  0.1648 -0.2515 -0.1264
 1754SOL    HW116721   0.834   4.036  12.844  1.6385 -0.4898  0.0546
 1754SOL    HW216722   0.793   3.890  12.838 -0.2454 -1.8402  1.8375
 1755SOL     OW16723   2.574   0.638  12.607 -0.5108  0.0245 -0.1878
 1755SOL    HW116724   2.545   0.706  12.545 -1.1634  0.0386  0.1287
 1755SOL    HW216725   2.660   0.671  12.632 -0.7760 -0.4523  1.3621
 1756SOL     OW16726   0.607   1.725   7.099  0.4172  0.3690  0.3499
 1756SOL    HW116727   0.596   1.813   7.064 -1.1054  0.3062  0.6990
 1756SOL    HW216728   0.515   1.703   7.110 -0.3273  1.4608 -3.5823
 1757SOL     OW16729   2.127   1.163  17.661  0.4042 -0.0482  0.7706
 1757SOL    HW116730   2.083   1.082  17.636 -0.5942  0.7558 -0.1015
 1757SOL    HW216731   2.142   1.197  17.573 -0.9126 -2.0940 -0.2330
 1758SOL     OW16732   3.332   0.715   4.242  0.6511  0.0223 -0.3218
 1758SOL    HW116733   3.369   0.627   4.239 -1.1728 -0.6705 -2.3242
 1758SOL    HW216734   3.357   0.747   4.155  0.3640 -0.4716 -0.5881
 1759SOL     OW16735   3.419   3.563  14.122 -0.1882 -0.0958 -0.0843
 1759SOL    HW116736   3.376   3.479  14.105 -3.6830  2.0831 -2.2044
 1759SOL    HW216737   3.381   3.587  14.207  3.2532  1.1636  1.0973
 1760SOL     OW16738   1.226   2.350   5.195 -0.0558 -0.6319  0.2858
 1760SOL    HW116739   1.246   2.433   5.238  0.1851 -0.0741 -0.9077
 1760SOL    HW216740   1.307   2.302   5.213 -0.3182 -0.7514  1.1505
 1761SOL     OW16741   4.178   1.913   2.668 -0.1223 -0.9010  0.0663
 1761SOL    HW116742   4.169   1.818   2.661 -2.2866 -0.7953  1.5357
 1761SOL    HW216743   4.112   1.938   2.733  1.4465  1.2760  0.8443
 1762SOL     OW16744   1.740   3.091   4.254 -0.6243 -0.4689  0.7313
 1762SOL    HW116745   1.743   3.147   4.331 -0.5902 -0.8758  1.0275
 1762SOL    HW216746   1.737   3.158   4.185  1.5775 -0.7877  0.3464
 1763SOL     OW16747   1.355   2.663   7.993  0.2117  0.5681  0.2757
 1763SOL    HW116748   1.293   2.732   7.971  2.7577  2.4446 -1.0220
 1763SOL    HW216749   1.342   2.602   7.920 -0.2199  3.0887 -1.7403
 1764SOL     OW16750   1.546   2.134   9.293 -0.6607  0.2674  0.2629
 1764SOL    HW116751   1.535   2.159   9.201 -2.8899 -0.5827  0.2951
 1764SOL    HW216752   1.460   2.124   9.332  0.8515  0.2514  3.5825
 1765SOL     OW16753   1.186   4.575  14.145 -0.2061 -0.0128 -0.2629
 1765SOL    HW116754   1.193   4.585  14.050  0.5225  0.8063 -0.1255
 1765SOL    HW216755   1.256   4.632  14.177 -0.7372  0.6775 -0.3497
 1766SOL     OW16756   1.175   0.201   5.708  0.3448 -0.2036  0.2778
 1766SOL    HW116757   1.235   0.182   5.636  1.8856 -0.1497  1.5542
 1766SOL    HW216758   1.086   0.187   5.676 -0.1760  1.6330  0.9065
 1767SOL     OW16759   2.378   3.585   5.509 -0.1509 -0.2941 -0.8520
 1767SOL    HW116760   2.388   3.660   5.568  0.7125 -0.2455 -1.0660
 1767SOL    HW216761   2.284   3.589   5.490 -0.4322  1.6024  0.9822
 1768SOL     OW16762   3.722   2.835  17.308 -0.0929 -0.3369  0.5138
 1768SOL    HW116763   3.733   2.919  17.263 -1.3548  0.1852  1.1677
 1768SOL    HW216764   3.786   2.774  17.271 -0.0715 -0.8827  1.4652
 1769SOL     OW16765   2.548   2.212   6.624 -0.5302 -0.1494  0.1379
 1769SOL    HW116766   2.472   2.154   6.611  0.0881 -0.5442 -1.7933
 1769SOL    HW216767   2.576   2.222   6.533  0.9116  0.4446  0.6524
 1770SOL     OW16768   4.335   4.403   4.624 -0.2295  0.2902 -0.3281
 1770SOL    HW116769   4.270   4.463   4.659 -0.7444 -0.1831 -0.4688
 1770SOL    HW216770   4.414   4.441   4.663  0.3812 -1.8701  0.5735
 1771SOL     OW16771   0.807   1.527   6.192  0.4022  0.4389 -0.0980
 1771SOL    HW116772   0.829   1.574   6.112  0.0562 -0.1049 -0.5095
 1771SOL    HW216773   0.878   1.548   6.253  0.3213  1.4596 -0.3499
 1772SOL     OW16774   0.656   3.917   2.102  0.1217 -0.4006  0.0539
 1772SOL    HW116775   0.620   3.979   2.165 -1.9003  0.3908 -1.8858
 1772SOL    HW216776   0.581   3.907   2.044  0.1752 -1.0778  0.0999
 1773SOL     OW16777   0.846   3.917   5.522  0.8028 -0.4735 -0.8931
 1773SOL    HW116778   0.845   3.827   5.554  1.0455 -1.0777 -2.5826
 1773SOL    HW216779   0.805   3.908   5.436 -1.3646  1.2239 -0.0303
 1774SOL     OW16780   2.047   0.317   6.453  0.4480 -0.2335 -0.2981
 1774SOL    HW116781   2.061   0.245   6.515  1.0828 -0.5104 -0.7578
 1774SOL    HW216782   2.124   0.307   6.396 -0.1630 -1.0476 -0.9774
 1775SOL     OW16783   3.474   0.915   7.244  1.0498  0.0983 -0.6857
 1775SOL    HW116784   3.519   0.849   7.190  0.0701  0.9544 -2.5732
 1775SOL    HW216785   3.553   0.967   7.258  1.7072 -0.4551 -2.2390
 1776SOL     OW16786   0.429   2.375  15.759  0.1158 -0.6744 -0.2750
 1776SOL    HW116787   0.490   2.344  15.692  1.2979 -1.2470  1.0593
 1776SOL    HW216788   0.361   2.402  15.698 -0.7990 -1.4134  0.4325
 1777SOL     OW16789   1.955   3.697   0.884  0.0281 -0.2800 -1.0961
 1777SOL    HW116790   2.002   3.625   0.925  0.3304 -0.0225 -0.9895
 1777SOL    HW216791   1.950   3.672   0.792 -1.2826 -2.2187 -0.5050
 1778SOL     OW16792   2.844   3.639   8.945 -1.0720 -0.6840 -0.4554
 1778SOL    HW116793   2.833   3.547   8.921 -2.1483 -0.2480 -1.6279
 1778SOL    HW216794   2.833   3.633   9.040 -0.3811 -0.5136 -0.3671
 1779SOL     OW16795   3.649   2.029   2.898 -0.4783  0.1515 -0.1645
 1779SOL    HW116796   3.700   2.087   2.955 -0.0233  0.3308 -0.7635
 1779SOL    HW216797   3.602   1.978   2.965  1.7870  0.4485  1.6623
 1780SOL     OW16798   0.823   3.300  16.233  0.2587 -0.2444  0.8959
 1780SOL    HW116799   0.762   3.330  16.301  0.4301  1.0335  0.4915
 1780SOL    HW216800   0.886   3.372  16.228 -0.7436  0.8084  3.5457
 1781SOL     OW16801   1.288   1.481   3.445  0.4359 -0.6493 -0.8388
 1781SOL    HW116802   1.309   1.424   3.519  1.1643  0.9770  0.2057
 1781SOL    HW216803   1.196   1.499   3.464  0.5464 -0.2116 -0.7265
 1782SOL     OW16804   3.659   0.610   9.677 -0.4917 -0.3247  0.6137
 1782SOL    HW116805   3.599   0.599   9.752 -2.3979 -0.6068 -0.9443
 1782SOL    HW216806   3.742   0.582   9.716  0.3143  0.5701 -0.4670
 1783SOL     OW16807   0.302   3.814   3.421 -0.2426  0.0506  0.1089
 1783SOL    HW116808   0.294   3.774   3.335 -1.4647  0.5446  0.0018
 1783SOL    HW216809   0.374   3.757   3.451 -1.5486 -2.2615 -1.1974
 1784SOL     OW16810   0.072   3.319   0.922 -0.3860  0.0591 -0.1077
 1784SOL    HW116811   4.719   3.265   0.910 -0.2022 -0.3282  0.4128
 1784SOL    HW216812   0.133   3.245   0.926 -1.1843 -0.5499  0.7338
 1785SOL     OW16813   4.076   2.413   1.040 -0.1404  0.0535 -0.4697
 1785SOL    HW116814   4.118   2.379   1.120 -1.7257 -0.1752  0.2509
 1785SOL    HW216815   4.046   2.498   1.071  1.0012  0.5294 -0.6460
 1786SOL     OW16816   1.463   1.242   6.789  0.1892 -0.1233  0.2069
 1786SOL    HW116817   1.527   1.210   6.726 -0.7469  1.3518 -1.4922
 1786SOL    HW216818   1.401   1.169   6.785  2.1366 -1.8991  2.0977
 1787SOL     OW16819   2.172   3.924   8.416 -0.4298  0.1611 -0.3433
 1787SOL    HW116820   2.109   3.874   8.467  1.6364 -1.2967  0.8036
 1787SOL    HW216821   2.161   4.006   8.465 -1.1751 -0.0585 -0.1526
 1788SOL     OW16822   3.666   3.225   1.614 -0.2004 -0.4916 -0.0759
 1788SOL    HW116823   3.575   3.217   1.644 -0.8554  0.9856 -1.6783
 1788SOL    HW216824   3.680   3.132   1.597 -0.5695 -0.2002 -1.8957
 1789SOL     OW16825   1.821   3.855   5.959 -0.1573  0.4372 -0.6436
 1789SOL    HW116826   1.782   3.770   5.939 -0.6975  0.4303  0.4617
 1789SOL    HW216827   1.893   3.824   6.014 -1.9166  2.4873  2.8019
 1790SOL     OW16828   3.396   1.190   3.078  0.3449 -0.9079 -0.4093
 1790SOL    HW116829   3.429   1.210   3.165  2.3778  0.2028 -1.4247
 1790SOL    HW216830   3.304   1.214   3.086 -0.1093 -2.1240 -1.8288
 1791SOL     OW16831   2.721   1.298   8.986  0.0670 -0.0564 -0.6764
 1791SOL    HW116832   2.693   1.278   8.897 -1.7817 -0.9600  0.1107
 1791SOL    HW216833   2.804   1.339   8.962 -1.0029  1.8831 -1.0138
 1792SOL     OW16834   0.509   2.982   2.327  0.4976 -0.4053 -0.1841
 1792SOL    HW116835   0.550   2.924   2.263  0.3917 -0.6767 -0.0046
 1792SOL    HW216836   0.568   3.057   2.332  0.2057 -0.1448 -0.7056
 1793SOL     OW16837   1.093   4.465   4.119 -0.5970 -0.4895  0.1077
 1793SOL    HW116838   1.150   4.458   4.195 -2.3274 -1.5885  1.2989
 1793SOL    HW216839   1.047   4.545   4.142 -0.6653 -0.4786 -0.0635
 1794SOL     OW16840   0.594   0.853   6.253  0.3201  0.6797 -0.0081
 1794SOL    HW116841   0.547   0.857   6.170  1.4821  0.9367 -0.6451
 1794SOL    HW216842   0.684   0.839   6.223 -0.4743 -0.2765 -1.9362
 1795SOL     OW16843   0.437   4.651  15.529 -0.2656  0.0229  0.3528
 1795SOL    HW116844   0.430   0.005  15.582 -0.4770  0.6284 -0.5763
 1795SOL    HW216845   0.400   4.583  15.586 -2.5458  1.2773  0.3736
 1796SOL     OW16846   2.758   2.234   2.097 -0.4864 -0.5030 -0.2359
 1796SOL    HW116847   2.747   2.140   2.083 -0.2199 -0.6045  0.2560
 1796SOL    HW216848   2.829   2.256   2.038 -0.0650  0.4982  0.6418
 1797SOL     OW16849   2.455   0.241  15.421 -0.1010  0.0649  0.0948
 1797SOL    HW116850   2.484   0.297  15.493 -0.1696  1.6897 -1.1436
 1797SOL    HW216851   2.535   0.188  15.412  0.0426 -0.0178  1.8057
 1798SOL     OW16852   3.627   2.496   9.858 -0.1679  0.4230  0.1158
 1798SOL    HW116853   3.681   2.571   9.831 -0.8916 -0.3489 -3.4227
 1798SOL    HW216854   3.676   2.476   9.937  0.4778  1.6894  0.0493
 1799SOL     OW16855   4.300   3.796  14.721  0.4216  0.1233 -0.2841
 1799SOL    HW116856   4.284   3.820  14.812 -0.1183 -1.1058 -0.0613
 1799SOL    HW216857   4.369   3.860  14.705  1.0313 -0.6454 -0.6761
 1800SOL     OW16858   3.882   3.372   1.616 -0.1220  0.0356  0.0568
 1800SOL    HW116859   3.798   3.329   1.630  1.5506 -2.8389  1.4061
 1800SOL    HW216860   3.932   3.291   1.611  2.2219  1.3258  2.4030
 1801SOL     OW16861   0.896   4.545   9.996  0.0264 -0.9186 -0.3309
 1801SOL    HW116862   0.902   4.638  10.015 -0.6907 -0.5980 -1.6606
 1801SOL    HW216863   0.869   4.507  10.080 -4.1556 -1.3928 -1.8701
 1802SOL     OW16864   2.699   4.336   4.235  0.0538  0.2508 -0.2304
 1802SOL    HW116865   2.645   4.405   4.197 -0.1030 -0.0631 -0.5843
 1802SOL    HW216866   2.625   4.297   4.282 -0.4063  0.1450 -1.0483
 1803SOL     OW16867   0.651   2.839  15.494 -0.3701  0.2462 -0.1179
 1803SOL    HW116868   0.648   2.909  15.429 -0.8520 -0.3755 -0.7753
 1803SOL    HW216869   0.642   2.769  15.428 -1.2806  1.1700 -0.9689
 1804SOL     OW16870   2.592   0.558   8.770 -0.6774 -0.4058 -0.2148
 1804SOL    HW116871   2.601   0.579   8.677  0.4828  0.6657  0.1278
 1804SOL    HW216872   2.511   0.509   8.774  0.7224 -2.5108  1.7709
 1805SOL     OW16873   2.695   1.707   6.182  0.1447 -0.2556 -0.3294
 1805SOL    HW116874   2.650   1.720   6.265  1.4738 -0.4910  0.4337
 1805SOL    HW216875   2.773   1.657   6.208  0.1953 -0.6523 -1.2426
 1806SOL     OW16876   4.457   1.657  13.469  0.2767  0.3104 -0.2983
 1806SOL    HW116877   4.519   1.654  13.397 -0.8967  1.0005 -1.3343
 1806SOL    HW216878   4.470   1.743  13.509  0.3784 -0.0642  0.4888
 1807SOL     OW16879   3.332   2.007   9.704 -0.7828 -1.0466  0.1308
 1807SOL    HW116880   3.380   1.925   9.716 -0.5291 -0.3264  3.9146
 1807SOL    HW216881   3.404   2.054   9.661 -1.8914  0.8735  0.3811
 1808SOL     OW16882   1.362   1.573   6.273  0.3263 -0.8293 -0.0434
 1808SOL    HW116883   1.380   1.489   6.315  0.7980 -1.4129 -1.3842
 1808SOL    HW216884   1.351   1.548   6.181  1.9304 -2.2772  0.1485
 1809SOL     OW16885   1.532   0.797   4.620  0.1853 -0.1863 -0.0099
 1809SOL    HW116886   1.552   0.767   4.531 -1.2051  2.6307 -1.2285
 1809SOL    HW216887   1.568   0.885   4.626  0.1553 -0.1089 -1.0661
 1810SOL     OW16888   4.600   2.202   3.182  0.0152 -0.0183  0.2104
 1810SOL    HW116889   4.666   2.248   3.130  1.7629  0.3659  2.7638
 1810SOL    HW216890   4.569   2.146   3.111 -1.4486 -0.1368  0.9484
 1811SOL     OW16891   3.683   2.262   8.712  0.1598  0.2142 -0.0510
 1811SOL    HW116892   3.683   2.231   8.802 -1.9703  0.5055  0.0492
 1811SOL    HW216893   3.671   2.356   8.720 -2.3826 -0.1673  0.4482
 1812SOL     OW16894   4.234   0.502   5.609  0.2890 -0.1048 -0.5285
 1812SOL    HW116895   4.295   0.431   5.591 -0.5167 -1.4804  2.2192
 1812SOL    HW216896   4.193   0.466   5.688 -0.1452  0.8074 -0.3387
 1813SOL     OW16897   2.959   0.811   2.130 -0.4745  0.3910 -0.2492
 1813SOL    HW116898   2.942   0.777   2.218 -0.4383  0.0373 -0.3777
 1813SOL    HW216899   2.902   0.756   2.077  1.1205  0.5287 -2.1365
 1814SOL     OW16900   0.319   3.851  15.453  0.6138  0.2166 -0.8612
 1814SOL    HW116901   0.390   3.801  15.412  0.5183 -1.4513  1.0214
 1814SOL    HW216902   0.364   3.912  15.511  2.3671 -1.2292 -0.7104
 1815SOL     OW16903   3.847   2.722   6.404  0.0912  0.3416  0.0250
 1815SOL    HW116904   3.824   2.660   6.335  0.8892 -0.8099  0.8174
 1815SOL    HW216905   3.800   2.689   6.480 -0.3363 -1.9253 -1.2300
 1816SOL     OW16906   3.849   2.300  10.696  1.0620 -0.1717 -0.3871
 1816SOL    HW116907   3.813   2.261  10.776  1.0387  1.4303  0.3803
 1816SOL    HW216908   3.931   2.328  10.737  1.2553 -1.5737  0.1934
 1817SOL     OW16909   4.318   1.837   7.008  0.8189 -0.0999  0.2703
 1817SOL    HW116910   4.292   1.760   6.957 -4.3164  1.8268  0.0101
 1817SOL    HW216911   4.300   1.907   6.946  2.2949 -1.1813 -1.3607
 1818SOL     OW16912   3.353   1.406   4.847  0.2009 -0.0770  0.2098
 1818SOL    HW116913   3.306   1.410   4.764  0.7950 -0.6316 -0.1513
 1818SOL    HW216914   3.284   1.431   4.909  0.9717 -2.8730  2.2019
 1819SOL     OW16915   1.879   1.746   2.100  0.3186  0.1510 -0.6054
 1819SOL    HW116916   1.879   1.818   2.163  0.2407 -1.0843  0.8228
 1819SOL    HW216917   1.902   1.667   2.150  0.9250  0.8472  0.2201
 1820SOL     OW16918   2.061   3.666  10.263 -0.3114  0.4222  0.3975
 1820SOL    HW116919   2.041   3.584  10.309  0.2892 -1.0920 -2.0006
 1820SOL    HW216920   2.134   3.635  10.209 -0.7189 -0.0269  0.1013
 1821SOL     OW16921   2.012   2.811  10.332  0.3843 -0.5008  0.0128
 1821SOL    HW116922   1.955   2.827  10.257 -1.7172 -3.0702  1.0453
 1821SOL    HW216923   2.100   2.816  10.295  0.8021 -0.0048  1.0880
 1822SOL     OW16924   3.299   2.969   1.517  0.2163 -0.4470 -0.6663
 1822SOL    HW116925   3.365   2.900   1.514 -1.4181 -2.0815  0.9330
 1822SOL    HW216926   3.254   2.927   1.590  1.0224  1.7726  1.1272
 1823SOL     OW16927   2.161   2.344  11.352 -0.3185  0.3363 -0.1936
 1823SOL    HW116928   2.226   2.393  11.301  1.8727 -1.1454  1.2230
 1823SOL    HW216929   2.098   2.415  11.368 -0.1661  0.3902  0.1469
 1824SOL     OW16930   4.568   3.146  13.743  0.1077 -0.8184 -0.1549
 1824SOL    HW116931   4.568   3.241  13.730  0.2420 -0.4324  2.6507
 1824SOL    HW216932   4.651   3.136  13.790  1.2015 -2.6240 -2.4700
 1825SOL     OW16933   4.069   3.707   3.787 -0.3446  0.3260  0.2746
 1825SOL    HW116934   4.142   3.678   3.841 -0.3525  1.4769  0.9104
 1825SOL    HW216935   4.005   3.652   3.830 -0.4832 -0.0125 -0.3652
 1826SOL     OW16936   1.061   0.764   6.698  0.4518  0.1959 -0.3520
 1826SOL    HW116937   1.106   0.730   6.776 -1.2164  1.4121  1.1198
 1826SOL    HW216938   1.076   0.685   6.645  0.4321 -1.0249  1.4465
 1827SOL     OW16939   3.014   3.814   8.328 -0.4900  0.4461  0.4592
 1827SOL    HW116940   3.045   3.898   8.293 -0.0172 -0.9957 -2.6027
 1827SOL    HW216941   3.084   3.757   8.297  0.6287  1.5636  0.9510
 1828SOL     OW16942   4.669   0.382  13.319  0.2378  0.5124 -0.3846
 1828SOL    HW116943   4.614   0.434  13.378  0.4790  2.1354 -1.5886
 1828SOL    HW216944   4.630   0.295  13.322 -1.3111  1.2472  0.9523
 1829SOL     OW16945   2.972   0.640  12.172 -0.4170 -0.1953 -0.4999
 1829SOL    HW116946   3.044   0.674  12.226  2.7624 -2.8517 -3.1007
 1829SOL    HW216947   3.015   0.562  12.138 -1.4168 -0.5376 -0.9635
 1830SOL     OW16948   2.773   4.252   7.487  0.3652  0.5237 -0.0008
 1830SOL    HW116949   2.808   4.264   7.576  1.0043 -0.5645 -0.1000
 1830SOL    HW216950   2.684   4.287   7.497 -0.3340 -2.0581  3.0601
 1831SOL     OW16951   3.797   3.267   0.781 -0.1015 -0.3505 -0.2606
 1831SOL    HW116952   3.859   3.213   0.830 -0.1589 -1.1473 -1.0748
 1831SOL    HW216953   3.740   3.205   0.736 -0.4864  0.4345 -0.8626
 1832SOL     OW16954   2.101   0.041   6.600 -0.3621 -0.0081 -0.0840
 1832SOL    HW116955   2.077   0.018   6.511  1.5884 -1.2081 -0.2887
 1832SOL    HW216956   2.035   4.721   6.655 -0.7610  1.5582  0.7233
 1833SOL     OW16957   2.134   0.025  10.565  0.3620  0.0445  0.2547
 1833SOL    HW116958   2.077   0.001  10.492 -1.9834  0.7017  1.8606
 1833SOL    HW216959   2.209   0.057  10.514  2.1917 -0.4183  2.6637
 1834SOL     OW16960   3.853   1.744   5.091  0.2608  0.3588 -0.2299
 1834SOL    HW116961   3.794   1.673   5.115  0.1447  0.5988  0.1988
 1834SOL    HW216962   3.788   1.814   5.093 -1.5508 -1.3701  0.5467
 1835SOL     OW16963   2.191   3.490  11.747 -0.2228 -0.1312  0.2998
 1835SOL    HW116964   2.259   3.494  11.680 -1.3983 -0.6581 -0.9068
 1835SOL    HW216965   2.242   3.478  11.828  0.3351 -0.8784 -0.1632
 1836SOL     OW16966   1.928   0.106   5.851  0.8286 -0.2054 -0.1955
 1836SOL    HW116967   1.934   0.010   5.856 -2.8790 -0.4119  0.0699
 1836SOL    HW216968   1.992   0.129   5.919  1.3513 -1.1961 -0.3457
 1837SOL     OW16969   2.710   0.059   3.026 -0.3901  0.6357  0.5980
 1837SOL    HW116970   2.678   0.128   2.969 -0.1589  0.9831  0.8807
 1837SOL    HW216971   2.793   0.040   2.982 -0.1562  0.4641  1.1016
 1838SOL     OW16972   0.744   2.852   9.056  0.3648 -0.3076 -0.5283
 1838SOL    HW116973   0.761   2.770   9.010  3.1487  0.1758 -0.3747
 1838SOL    HW216974   0.743   2.810   9.142 -1.5194  1.5322  0.3477
 1839SOL     OW16975   1.449   2.478   2.697 -0.0938  0.0658 -0.1618
 1839SOL    HW116976   1.469   2.415   2.765 -0.0524 -0.0419 -0.2732
 1839SOL    HW216977   1.482   2.442   2.614  0.6187  1.2828 -0.4128
 1840SOL     OW16978   2.062   4.388   8.076 -0.3063  0.3349 -0.2010
 1840SOL    HW116979   2.024   4.438   8.148  0.9753 -1.2857  1.6110
 1840SOL    HW216980   1.986   4.335   8.052  1.4596 -1.6696 -1.4919
 1841SOL     OW16981   0.263   2.652  11.191 -0.1635 -0.5911  0.3138
 1841SOL    HW116982   0.234   2.568  11.156 -1.6207  0.1134 -0.1586
 1841SOL    HW216983   0.214   2.716  11.139 -0.4685 -1.5154 -0.5463
 1842SOL     OW16984   2.927   0.589  10.135  0.0270  0.6670  0.1559
 1842SOL    HW116985   2.994   0.599  10.203 -0.0689  1.4661  0.1274
 1842SOL    HW216986   2.979   0.611  10.058  0.8894 -0.7302  0.3403
 1843SOL     OW16987   2.374   0.243   3.881 -0.6833 -0.4158 -0.5611
 1843SOL    HW116988   2.293   0.202   3.850 -1.4791  0.8087 -0.1051
 1843SOL    HW216989   2.419   0.169   3.922  0.3745 -0.3691 -1.6441
 1844SOL     OW16990   2.438   4.371  11.218  0.2447 -0.7431  0.1713
 1844SOL    HW116991   2.379   4.298  11.201  1.4381 -1.4215 -1.0283
 1844SOL    HW216992   2.465   4.399  11.130 -1.0061  0.8123  0.2780
 1845SOL     OW16993   0.695   4.581   9.717 -0.0945 -0.5647 -0.2332
 1845SOL    HW116994   0.785   4.615   9.718  0.9009 -3.2963  0.9789
 1845SOL    HW216995   0.717   4.489   9.722  1.7644 -0.0800  0.4963
 1846SOL     OW16996   2.818   2.127  12.868 -0.0833  0.4028  0.8459
 1846SOL    HW116997   2.847   2.036  12.872 -1.4235 -0.1041 -0.8034
 1846SOL    HW216998   2.747   2.118  12.805  1.5924  1.7058 -1.2482
 1847SOL     OW16999   2.573   3.227   8.744 -0.2874 -0.0034 -0.4219
 1847SOL    HW117000   2.496   3.279   8.766 -0.1902  0.8316 -2.0779
 1847SOL    HW217001   2.590   3.192   8.831 -0.7793  0.2324 -0.2327
 1848SOL     OW17002   2.509   2.533   8.764 -0.2592  0.0491  0.2056
 1848SOL    HW117003   2.470   2.526   8.677  2.1517 -0.8210 -0.8153
 1848SOL    HW217004   2.547   2.621   8.770 -0.4146  0.0526  1.0961
 1849SOL     OW17005   3.234   2.033   7.767  0.2031 -0.0231 -0.5185
 1849SOL    HW117006   3.196   2.073   7.845  1.7043 -0.3012  0.3556
 1849SOL    HW217007   3.161   1.972   7.751 -0.6450  0.5746  1.1068
 1850SOL     OW17008   3.503   3.005   7.173  0.3224  0.3521  0.2008
 1850SOL    HW117009   3.528   2.913   7.184 -2.0738 -0.2717  0.5123
 1850SOL    HW217010   3.424   2.993   7.120  1.1743 -0.4033 -0.8813
 1851SOL     OW17011   3.093   3.243   4.703  0.0189  0.1794 -0.4507
 1851SOL    HW117012   3.065   3.236   4.612 -2.2513 -0.9885  0.3238
 1851SOL    HW217013   3.104   3.152   4.730  0.3953  0.2431 -0.3874
 1852SOL     OW17014   2.536   3.791   3.199 -0.3670  0.0488 -0.1088
 1852SOL    HW117015   2.469   3.811   3.133  0.6675  1.7493 -0.6404
 1852SOL    HW217016   2.489   3.763   3.277  1.4927  0.5655  1.1921
 1853SOL     OW17017   2.792   0.304   6.454 -0.5311 -0.1847 -0.5740
 1853SOL    HW117018   2.728   0.291   6.524 -0.0023 -1.5359 -0.3589
 1853SOL    HW217019   2.730   0.340   6.390 -0.1370 -0.7700 -1.2843
 1854SOL     OW17020   0.119   1.802   8.363 -0.0545  0.1803 -0.0500
 1854SOL    HW117021   0.104   1.884   8.410  1.0495  0.5917 -0.3979
 1854SOL    HW217022   0.205   1.787   8.403  0.5966  1.0016 -1.1616
 1855SOL     OW17023   1.406   3.608   2.815 -0.5386  0.0927 -0.4725
 1855SOL    HW117024   1.496   3.576   2.807 -0.2526  0.3948  1.5984
 1855SOL    HW217025   1.350   3.532   2.795 -0.0464 -0.7092  1.1557
 1856SOL     OW17026   0.436   2.877  11.798 -0.4073  0.1766  0.1027
 1856SOL    HW117027   0.347   2.873  11.832  0.2792 -1.2364  1.7220
 1856SOL    HW217028   0.442   2.972  11.786  0.5853  0.1306  0.2288
 1857SOL     OW17029   4.481   2.425   2.991 -0.5153 -0.4336  0.6631
 1857SOL    HW117030   4.542   2.416   3.064 -0.2646  1.9706  0.7719
 1857SOL    HW217031   4.532   2.483   2.934 -3.2627  0.6091 -0.7469
 1858SOL     OW17032   1.750   1.897   9.680 -0.2603 -0.0503 -0.2811
 1858SOL    HW117033   1.753   1.806   9.709 -1.6064 -0.1366 -0.3825
 1858SOL    HW217034   1.723   1.887   9.588 -1.4638 -0.8624  0.1631
 1859SOL     OW17035   3.140   2.089   9.101 -0.2979  0.1758  0.5773
 1859SOL    HW117036   3.207   2.097   9.032  1.2883  3.1605  2.4221
 1859SOL    HW217037   3.068   2.144   9.070 -0.3241 -0.8937 -1.2604
 1860SOL     OW17038   1.557   4.472  13.970 -0.0481 -1.3045 -1.0330
 1860SOL    HW117039   1.563   4.521  13.887 -0.6720  0.4571 -0.0327
 1860SOL    HW217040   1.642   4.491  14.010 -1.0234 -0.9830  0.8544
 1861SOL     OW17041   4.653   1.170   8.046 -0.7428  0.2654  0.4501
 1861SOL    HW117042   4.679   1.231   7.977 -0.8027 -1.6254 -1.2430
 1861SOL    HW217043   4.673   1.219   8.126  3.0559  0.7220 -0.7831
 1862SOL     OW17044   3.434   4.617   5.543  0.3218 -0.7171  0.0002
 1862SOL    HW117045   3.400   4.613   5.632  0.4542 -0.6524  0.0529
 1862SOL    HW217046   3.378   4.554   5.496 -0.3367 -1.2581  1.5306
 1863SOL     OW17047   2.776   2.953  12.146 -0.2607  0.1581  0.2181
 1863SOL    HW117048   2.686   2.983  12.145  0.1872  1.4240 -1.8714
 1863SOL    HW217049   2.786   2.930  12.239 -4.2633  2.4884  1.1969
 1864SOL     OW17050   3.908   4.195   6.388  0.6177 -0.0889 -0.5143
 1864SOL    HW117051   3.960   4.208   6.467 -1.5899 -1.4682  1.1238
 1864SOL    HW217052   3.913   4.100   6.379  0.8965 -0.1955  0.8350
 1865SOL     OW17053   3.334   4.595   3.512  0.2994 -0.5643 -0.4061
 1865SOL    HW117054   3.244   4.571   3.534  0.0298  0.6242 -0.1938
 1865SOL    HW217055   3.388   4.520   3.536 -0.7865 -1.1057  0.3481
 1866SOL     OW17056   2.391   3.098   4.244 -0.5185 -0.6913 -0.6003
 1866SOL    HW117057   2.406   3.005   4.227 -1.2608 -0.7331 -1.0221
 1866SOL    HW217058   2.353   3.097   4.332 -3.0104  1.9403 -1.6417
 1867SOL     OW17059   2.031   0.110  10.836  0.3030  0.0055  0.4923
 1867SOL    HW117060   2.040   0.024  10.878  0.0518  0.4516  1.4681
 1867SOL    HW217061   2.055   0.084  10.747 -0.5770 -1.4667  0.6892
 1868SOL     OW17062   2.302   0.265   2.950  0.7963 -0.3966  0.2558
 1868SOL    HW117063   2.353   0.305   3.021  0.9425  0.4933 -0.3503
 1868SOL    HW217064   2.305   0.333   2.884  0.3508 -1.9019 -1.3111
 1869SOL     OW17065   1.070   0.656   5.969 -0.7153 -0.3252 -0.6252
 1869SOL    HW117066   1.156   0.645   5.927 -0.9666 -0.7700 -1.0173
 1869SOL    HW217067   1.037   0.738   5.932 -1.3060 -0.3033 -0.0545
 1870SOL     OW17068   0.152   1.740   4.880  0.1192 -0.1257  0.3156
 1870SOL    HW117069   0.082   1.792   4.919  1.0497 -0.8009  2.8549
 1870SOL    HW217070   0.215   1.738   4.951 -1.0570 -1.1519  1.3303
 1871SOL     OW17071   1.700   4.571   4.766  0.6084 -0.2688 -0.3708
 1871SOL    HW117072   1.638   4.635   4.731  1.3717  0.5128 -0.2943
 1871SOL    HW217073   1.742   4.553   4.682 -0.2604 -3.4835 -0.1149
 1872SOL     OW17074   0.791   1.420   7.224 -0.5805 -0.1657 -0.7174
 1872SOL    HW117075   0.874   1.463   7.205 -0.0859 -0.3611  0.9694
 1872SOL    HW217076   0.798   1.446   7.316  1.3409 -1.4503 -0.4942
 1873SOL     OW17077   2.355   1.318   2.008 -0.4979 -0.5926 -0.3753
 1873SOL    HW117078   2.313   1.344   2.090  0.9011 -0.7822  0.3972
 1873SOL    HW217079   2.288   1.360   1.953 -1.7355  1.3496  2.6645
 1874SOL     OW17080   3.777   2.134  12.692 -0.2416 -0.1532  0.7340
 1874SOL    HW117081   3.843   2.170  12.751 -0.6071  1.3814  0.1864
 1874SOL    HW217082   3.820   2.053  12.664  0.2868 -0.5322  2.6129
 1875SOL     OW17083   1.082   2.702  11.623 -0.1583  0.0363 -0.4543
 1875SOL    HW117084   1.011   2.716  11.561 -0.5100  0.1049 -0.0382
 1875SOL    HW217085   1.078   2.608  11.640 -0.5128  0.1917  0.3301
 1876SOL     OW17086   3.805   4.218   5.430 -0.1645  0.3469 -0.3688
 1876SOL    HW117087   3.769   4.159   5.365 -1.5677  0.1693  0.5529
 1876SOL    HW217088   3.729   4.276   5.443 -0.7715 -0.6219  0.3729
 1877SOL     OW17089   2.426   0.366   1.740  0.1395 -0.8084 -0.2581
 1877SOL    HW117090   2.480   0.287   1.738 -0.3306 -1.0506 -3.1106
 1877SOL    HW217091   2.471   0.418   1.807 -0.8305  1.6091 -1.4549
 1878SOL     OW17092   3.492   3.754   7.818 -0.1937  0.0061 -0.0820
 1878SOL    HW117093   3.398   3.747   7.808  0.1384 -1.3966 -2.1678
 1878SOL    HW217094   3.528   3.672   7.851  1.1899 -0.0328 -1.6997
 1879SOL     OW17095   0.886   0.298  12.079  0.0656 -0.3302 -0.0036
 1879SOL    HW117096   0.913   0.369  12.137  0.0837 -0.2385 -0.1248
 1879SOL    HW217097   0.792   0.302  12.095 -0.4057 -1.2428 -2.4657
 1880SOL     OW17098   0.493   0.378   8.804  0.5593 -0.4955  0.2690
 1880SOL    HW117099   0.528   0.435   8.736  1.4655 -1.5156 -0.1081
 1880SOL    HW217100   0.567   0.318   8.804  0.5046 -0.5557 -1.1173
 1881SOL     OW17101   0.727   1.918   7.866  0.7795 -0.5455 -0.1289
 1881SOL    HW117102   0.634   1.936   7.854  1.0326 -0.1874 -1.5402
 1881SOL    HW217103   0.738   1.836   7.818  2.3313 -0.6045  0.3339
 1882SOL     OW17104   1.341   2.932   3.505  0.0668 -0.3170 -0.3576
 1882SOL    HW117105   1.325   2.896   3.593  1.9608  1.3286  0.6628
 1882SOL    HW217106   1.315   3.024   3.509  3.4875  0.5729  0.8852
 1883SOL     OW17107   4.585   3.898   5.011 -0.3978 -0.1023 -0.3025
 1883SOL    HW117108   4.492   3.905   5.031 -0.1768  1.5398  0.1669
 1883SOL    HW217109   4.586   3.934   4.923  0.5909 -2.1552 -1.1174
 1884SOL     OW17110   0.197   3.874   9.953  0.4537  0.0499  0.2634
 1884SOL    HW117111   0.226   3.965   9.941  2.2260 -0.8005 -1.9968
 1884SOL    HW217112   0.103   3.887   9.961  0.6883  1.1228  1.2909
 1885SOL     OW17113   3.340   4.308  16.749  0.2509 -0.0075  0.8166
 1885SOL    HW117114   3.268   4.264  16.703 -1.2719  3.4771 -0.1866
 1885SOL    HW217115   3.297   4.312  16.834 -0.4336 -3.7358  0.6605
 1886SOL     OW17116   1.278   3.735   5.389 -0.6208  0.4510 -0.1427
 1886SOL    HW117117   1.213   3.683   5.341  0.3361  0.2225 -1.2161
 1886SOL    HW217118   1.239   3.822   5.382 -0.2003  0.5479 -1.3250
 1887SOL     OW17119   3.069   1.078  10.679  0.6085  0.0347 -0.5150
 1887SOL    HW117120   3.049   1.172  10.674  1.2650  0.1131 -1.5634
 1887SOL    HW217121   3.007   1.051  10.746 -0.3564  3.0114 -0.1848
 1888SOL     OW17122   1.243   2.219   3.576  0.1107  0.1169 -0.2565
 1888SOL    HW117123   1.148   2.207   3.579  0.5504 -2.4829  2.3394
 1888SOL    HW217124   1.257   2.227   3.481  2.3412 -0.3874  0.0323
 1889SOL     OW17125   0.468   0.310   4.273  0.5495 -0.6459  0.0429
 1889SOL    HW117126   0.452   0.402   4.252 -0.7723 -0.6888  0.8978
 1889SOL    HW217127   0.561   0.318   4.296  0.6639  1.0867 -1.0360
 1890SOL     OW17128   2.628   0.996   3.304 -0.2869 -0.0738 -0.2794
 1890SOL    HW117129   2.553   1.032   3.350 -1.4619  1.7209 -3.6067
 1890SOL    HW217130   2.591   0.914   3.271  0.4401  0.2583 -1.9173
 1891SOL     OW17131   1.589   3.878   5.294 -0.2114  0.0909 -0.3748
 1891SOL    HW117132   1.498   3.863   5.266  0.0767  0.7617 -1.6461
 1891SOL    HW217133   1.604   3.939   5.222 -2.9787  1.2975  0.0473
 1892SOL     OW17134   2.899   3.549  12.811 -0.7377 -0.1205  0.1217
 1892SOL    HW117135   2.850   3.609  12.867 -0.3360 -1.9448  2.4555
 1892SOL    HW217136   2.846   3.548  12.732 -1.0766 -1.6901  0.3620
 1893SOL     OW17137   1.639   4.521   9.601 -0.2413 -0.1665  0.0285
 1893SOL    HW117138   1.679   4.529   9.687  0.1285  1.5336 -0.2967
 1893SOL    HW217139   1.551   4.484   9.605 -0.6479  0.7805 -0.1710
 1894SOL     OW17140   0.720   0.957   2.042 -0.1347  0.1593  0.7008
 1894SOL    HW117141   0.688   0.934   1.954 -0.2306 -0.5362  0.9186
 1894SOL    HW217142   0.789   1.020   2.024  1.6276 -1.2493  2.6185
 1895SOL     OW17143   0.575   1.945  15.730 -0.2037 -0.3383 -0.0385
 1895SOL    HW117144   0.517   1.940  15.805 -0.9761 -1.7291 -0.7231
 1895SOL    HW217145   0.635   2.012  15.763 -0.9442 -0.6756  1.9747
 1896SOL     OW17146   1.555   0.008  11.419  0.5669  0.6802  0.1183
 1896SOL    HW117147   1.462   0.022  11.399  1.0685  0.4275 -2.3875
 1896SOL    HW217148   1.568   0.043  11.508 -0.0914 -3.4507  1.8285
 1897SOL     OW17149   1.088   0.091  12.124  0.1766 -0.1180 -0.2567
 1897SOL    HW117150   1.015   0.150  12.105 -1.8219 -2.0462  1.3934
 1897SOL    HW217151   1.064   0.012  12.076  0.7212 -0.4634  0.0314
 1898SOL     OW17152   2.500   3.422   2.911  0.0067 -0.1371  0.5520
 1898SOL    HW117153   2.585   3.439   2.871 -0.4936 -0.0694 -0.4764
 1898SOL    HW217154   2.448   3.403   2.833  0.6124 -0.0604  0.1353
 1899SOL     OW17155   4.127   3.935  13.937  0.2492 -0.2115 -0.3011
 1899SOL    HW117156   4.092   3.847  13.947  2.3126 -1.0339 -0.3366
 1899SOL    HW217157   4.220   3.913  13.941  0.2869  0.0616  0.3039
 1900SOL     OW17158   3.958   2.909   8.893 -0.7074  0.0627 -0.6530
 1900SOL    HW117159   3.883   2.899   8.951 -1.6051  0.3012 -1.7700
 1900SOL    HW217160   3.981   2.819   8.871 -1.7876 -0.1292 -0.9957
 1901SOL     OW17161   0.118   0.765  10.093 -0.2950 -0.3205  0.2478
 1901SOL    HW117162   0.068   0.721  10.024  0.4960  3.4442 -2.7167
 1901SOL    HW217163   0.152   0.834  10.038  1.6551 -1.5722 -0.0927
 1902SOL     OW17164   3.193   4.123   2.882  0.3603 -0.1468 -0.1284
 1902SOL    HW117165   3.126   4.177   2.923 -0.2113 -1.1766  0.2790
 1902SOL    HW217166   3.203   4.170   2.799  1.7289 -0.5906 -0.2077
 1903SOL     OW17167   4.517   4.042  15.858 -0.5761 -0.4062 -0.2190
 1903SOL    HW117168   4.470   3.959  15.850  0.1677 -0.8805  0.2543
 1903SOL    HW217169   4.556   4.046  15.771 -3.7094  0.6244 -1.5519
 1904SOL     OW17170   1.565   4.082  13.530 -0.8646 -0.2694 -0.2570
 1904SOL    HW117171   1.657   4.109  13.533 -0.4267 -1.6467 -1.4166
 1904SOL    HW217172   1.550   4.069  13.436  0.3179 -0.5081 -0.4162
 1905SOL     OW17173   2.022   2.763   1.733  0.0529 -0.6565 -0.1537
 1905SOL    HW117174   1.953   2.799   1.789  0.3475  3.7859 -2.5869
 1905SOL    HW217175   1.998   2.807   1.651  3.4713  1.6791  0.1329
 1906SOL     OW17176   0.400   2.320   5.397  0.2828  0.6103  0.1285
 1906SOL    HW117177   0.365   2.373   5.469  1.9393  0.2517  1.2059
 1906SOL    HW217178   0.452   2.253   5.441  1.5979  2.2533  1.1065
 1907SOL     OW17179   3.066   3.439   5.817  0.0068 -0.6682  0.2144
 1907SOL    HW117180   3.161   3.443   5.804  0.0477 -2.1846  0.0565
 1907SOL    HW217181   3.043   3.502   5.885  0.7429  0.1273 -0.2684
 1908SOL     OW17182   1.578   1.317   4.601 -0.2173 -0.1589 -1.0034
 1908SOL    HW117183   1.629   1.251   4.554  0.3357  1.3925 -2.6007
 1908SOL    HW217184   1.529   1.269   4.668 -0.6462  1.5071 -0.1339
 1909SOL     OW17185   1.702   4.443   2.474 -0.0526  0.3250  0.3084
 1909SOL    HW117186   1.751   4.438   2.392 -0.7002  0.3118 -0.0718
 1909SOL    HW217187   1.647   4.519   2.455 -0.7470 -0.6903 -1.6858
 1910SOL     OW17188   1.084   0.030   9.053  0.1970  0.2423  0.5452
 1910SOL    HW117189   1.167   4.707   9.044 -0.7963 -1.8599  2.7049
 1910SOL    HW217190   1.103   0.099   8.989 -0.7557  1.0046  1.0938
 1911SOL     OW17191   3.251   0.346   1.064  0.0728  0.0122  0.3677
 1911SOL    HW117192   3.312   0.298   1.010 -0.3897 -1.6891  1.3449
 1911SOL    HW217193   3.176   0.371   1.010  0.8793 -0.0876 -0.7815
 1912SOL     OW17194   2.860   3.630   0.165  0.1108  0.2208 -0.0061
 1912SOL    HW117195   2.911   3.602   0.089  3.0984  0.5560  1.8734
 1912SOL    HW217196   2.784   3.573   0.154 -1.2472  1.4529  2.9926
 1913SOL     OW17197   1.393   2.248   7.654  0.1701  0.4498  0.1742
 1913SOL    HW117198   1.344   2.247   7.572  0.0453  0.9033  0.2397
 1913SOL    HW217199   1.419   2.157   7.640  2.2100  1.1752 -0.7360
 1914SOL     OW17200   1.156   3.062  10.425 -0.4285  0.1497  0.3326
 1914SOL    HW117201   1.114   3.144  10.399  2.4099  1.5370  0.0325
 1914SOL    HW217202   1.240   3.080  10.382 -0.9372  2.1962  0.1902
 1915SOL     OW17203   3.194   4.209   5.801  0.2137  0.0115  0.5115
 1915SOL    HW117204   3.245   4.270   5.854 -2.0620  0.0287  2.6819
 1915SOL    HW217205   3.228   4.127   5.838 -0.3784 -0.2497  0.4792
 1916SOL     OW17206   4.534   4.351  17.441  0.1573 -0.0545  0.5342
 1916SOL    HW117207   4.448   4.321  17.471 -0.3183  0.7348 -0.0436
 1916SOL    HW217208   4.551   4.427  17.496 -1.1184  0.2389  0.5080
 1917SOL     OW17209   3.723   1.800  10.040 -0.2067 -0.1345 -0.0715
 1917SOL    HW117210   3.731   1.819  10.134 -0.4931 -1.1716  0.1695
 1917SOL    HW217211   3.769   1.716  10.040  0.3030  0.1378  1.1243
 1918SOL     OW17212   2.887   3.667   6.657  0.4238  0.4774  0.4617
 1918SOL    HW117213   2.975   3.648   6.622 -0.5500 -0.5798 -1.4366
 1918SOL    HW217214   2.891   3.751   6.703  0.8945  0.1332  1.0560
 1919SOL     OW17215   0.137   2.889  14.294  0.0495  0.0913  0.5027
 1919SOL    HW117216   0.203   2.954  14.271 -0.6171  0.4083 -0.5384
 1919SOL    HW217217   0.171   2.861  14.379 -1.0678 -2.0872  0.2236
 1920SOL     OW17218   3.251   3.422   9.079  0.2255  0.5239 -0.2414
 1920SOL    HW117219   3.344   3.407   9.063  0.0218 -1.5374  0.3897
 1920SOL    HW217220   3.235   3.334   9.114 -2.0139  2.2261  2.9923
 1921SOL     OW17221   4.704   3.364   5.998  0.4504 -0.2191  0.0213
 1921SOL    HW117222   4.614   3.350   6.028  1.0237 -1.0653  1.3643
 1921SOL    HW217223   4.686   3.369   5.904  1.7547  1.1541 -0.1625
 1922SOL     OW17224   1.498   4.409   7.405  0.1162  0.4728  0.1897
 1922SOL    HW117225   1.481   4.460   7.485 -2.0612 -0.1518  0.1156
 1922SOL    HW217226   1.445   4.329   7.406 -1.3125  1.4110 -0.1378
 1923SOL     OW17227   1.614   4.514  16.475 -0.3097  0.0336 -0.0826
 1923SOL    HW117228   1.629   4.517  16.381  0.4733 -0.1325  0.0395
 1923SOL    HW217229   1.627   4.607  16.493 -0.9126  0.2177 -0.6039
 1924SOL     OW17230   3.164   1.739  13.400 -0.0319 -0.3177 -0.2889
 1924SOL    HW117231   3.246   1.700  13.370  1.5499  0.7686  2.5624
 1924SOL    HW217232   3.133   1.783  13.321  1.9316 -2.1329 -2.0872
 1925SOL     OW17233   2.537   2.991   7.979 -0.4506  0.0039  0.1570
 1925SOL    HW117234   2.464   3.053   7.970 -0.2551  0.2849  0.5000
 1925SOL    HW217235   2.607   3.055   7.968  0.3661 -1.0673 -0.8225
 1926SOL     OW17236   1.271   2.510   3.928 -0.1749  0.5510 -0.2681
 1926SOL    HW117237   1.363   2.530   3.914  0.1186 -0.1608  0.6078
 1926SOL    HW217238   1.261   2.486   4.020 -0.4780 -2.0893 -0.9947
 1927SOL     OW17239   0.118   3.545  11.239 -0.1391  0.3973 -0.0656
 1927SOL    HW117240   0.056   3.538  11.313 -0.0402 -0.6468 -0.0910
 1927SOL    HW217241   0.070   3.594  11.172 -0.1008 -1.9751 -1.8208
 1928SOL     OW17242   2.056   2.725   6.743  0.4243  0.2348 -0.8793
 1928SOL    HW117243   2.017   2.712   6.829  0.5659  1.2366 -0.6717
 1928SOL    HW217244   1.971   2.715   6.700  0.6896  0.5850 -1.4853
 1929SOL     OW17245   0.602   1.903   0.085  0.3285 -0.2535 -0.2978
 1929SOL    HW117246   0.640   1.844   0.020 -0.6573 -0.8636 -0.3245
 1929SOL    HW217247   0.679   1.927   0.137 -0.2807  0.7601  0.1329
 1930SOL     OW17248   3.765   0.406  11.507 -1.0025  0.0049 -0.2521
 1930SOL    HW117249   3.814   0.337  11.550 -0.6774  0.3396 -0.0848
 1930SOL    HW217250   3.809   0.419  11.422 -1.1822 -1.3171 -0.5494
 1931SOL     OW17251   2.992   0.404   2.827  0.4742 -0.3005  0.5425
 1931SOL    HW117252   3.017   0.339   2.892  0.4193 -1.2141 -0.3559
 1931SOL    HW217253   3.077   0.431   2.792 -0.8161  1.0043 -1.5779
 1932SOL     OW17254   1.592   2.035   5.065 -0.5505  0.8591 -0.1170
 1932SOL    HW117255   1.608   2.093   4.990  0.2658  0.6700 -0.0811
 1932SOL    HW217256   1.675   1.988   5.068 -1.1732 -0.0659  2.8080
 1933SOL     OW17257   4.658   4.104   0.450  0.1593  0.9146 -0.0267
 1933SOL    HW117258   4.725   4.145   0.505  1.0067 -0.8346  0.2540
 1933SOL    HW217259   4.590   4.170   0.437 -1.7364 -1.0422 -0.0120
 1934SOL     OW17260   1.820   2.825   1.165  0.1838  0.2649 -0.4051
 1934SOL    HW117261   1.786   2.911   1.188 -0.1288  1.0697 -3.9395
 1934SOL    HW217262   1.736   2.785   1.142  0.2892 -0.8594  1.1425
 1935SOL     OW17263   0.818   4.666   1.031  0.3130 -0.1188 -0.8141
 1935SOL    HW117264   0.818   4.697   1.122  1.0540 -0.1179 -0.8144
 1935SOL    HW217265   0.805   4.574   1.051 -0.8524  0.7097  2.3100
 1936SOL     OW17266   3.578   3.302   2.216  0.1542  0.1768 -0.1620
 1936SOL    HW117267   3.520   3.278   2.144 -2.2135 -0.8405  2.0589
 1936SOL    HW217268   3.510   3.311   2.283 -0.1244  1.1767 -0.5809
 1937SOL     OW17269   2.595   1.743   4.081  0.6110  0.0982 -0.0218
 1937SOL    HW117270   2.653   1.785   4.144  0.1703 -0.1532  0.5513
 1937SOL    HW217271   2.658   1.685   4.038  0.8031 -0.5163  1.0776
 1938SOL     OW17272   4.598   3.838   1.419  0.1262 -0.1887  0.0389
 1938SOL    HW117273   4.535   3.766   1.420  0.4305 -0.4609 -0.0808
 1938SOL    HW217274   4.589   3.872   1.508  0.5523  1.0955 -0.4136
 1939SOL     OW17275   2.688   0.477   3.073  0.4825  0.0160 -0.4495
 1939SOL    HW117276   2.774   0.444   3.097 -0.3709 -1.4416  0.5649
 1939SOL    HW217277   2.700   0.518   2.987 -1.7813 -0.4430 -0.9780
 1940SOL     OW17278   3.944   3.185   8.983  0.1696  0.0238  0.5293
 1940SOL    HW117279   3.957   3.094   8.956  0.8829  0.0421  0.8032
 1940SOL    HW217280   4.033   3.217   8.968 -0.1264  0.9656  0.8004
 1941SOL     OW17281   4.143   0.059   7.567  0.1394  0.0395  0.8300
 1941SOL    HW117282   4.234   0.089   7.576  0.6417 -0.3679 -3.0649
 1941SOL    HW217283   4.170   4.704   7.523 -0.8179  0.6028 -0.7760
 1942SOL     OW17284   3.912   4.559  17.357  0.6035 -0.1960  0.1114
 1942SOL    HW117285   3.952   4.622  17.296  0.2588 -0.3937 -0.3198
 1942SOL    HW217286   3.850   4.622  17.394 -1.4195 -0.1374 -3.3557
 1943SOL     OW17287   1.402   3.008   4.091  0.3610 -0.3630  0.4952
 1943SOL    HW117288   1.420   2.933   4.148 -0.6978  0.0996  1.4563
 1943SOL    HW217289   1.450   2.978   4.014  0.0339 -1.3029  0.6559
 1944SOL     OW17290   1.508   3.011  14.771  0.1200  0.0528  0.4554
 1944SOL    HW117291   1.450   3.072  14.816  0.5155 -0.2409  1.3670
 1944SOL    HW217292   1.464   3.023  14.687 -0.8367 -1.7781  0.7146
 1945SOL     OW17293   2.996   2.780  14.440  0.1223  0.5003  0.0374
 1945SOL    HW117294   2.985   2.701  14.387 -0.8118 -1.6574  3.3762
 1945SOL    HW217295   2.971   2.743  14.525  2.2584 -0.3346  0.2847
 1946SOL     OW17296   2.934   2.501   6.944 -0.2637  0.0351 -0.3032
 1946SOL    HW117297   2.930   2.548   7.027 -2.2597  1.3633 -1.1722
 1946SOL    HW217298   2.840   2.490   6.931 -0.1892 -2.8012  1.5870
 1947SOL     OW17299   4.079   1.446  14.270 -0.0777 -0.3848 -0.0101
 1947SOL    HW117300   3.996   1.403  14.289  0.9938 -2.4229  0.1069
 1947SOL    HW217301   4.125   1.367  14.239  1.9783  1.0896 -0.7208
 1948SOL     OW17302   1.813   4.482   0.804  0.3027  0.1727  0.0243
 1948SOL    HW117303   1.787   4.459   0.893 -1.5037  0.4334 -0.4373
 1948SOL    HW217304   1.871   4.410   0.778  0.9048  0.5140  0.4236
 1949SOL     OW17305   0.286   1.016  10.995  0.6694 -0.2930  0.7422
 1949SOL    HW117306   0.270   0.922  10.991 -0.8529  0.0415 -0.7406
 1949SOL    HW217307   0.334   1.030  11.076  1.0170 -2.9231  0.9976
 1950SOL     OW17308   1.106   2.278   9.984 -0.2466  0.1361  0.1349
 1950SOL    HW117309   1.181   2.338   9.985  0.1576 -0.3398 -1.8273
 1950SOL    HW217310   1.073   2.281  10.073 -1.5501 -0.5814 -0.3292
 1951SOL     OW17311   3.722   2.928  14.577  0.2766  0.8998 -0.0762
 1951SOL    HW117312   3.656   2.992  14.604 -1.7452  0.4276 -3.8975
 1951SOL    HW217313   3.721   2.951  14.484 -1.0709  0.3526 -0.1892
 1952SOL     OW17314   0.414   0.225   3.498  0.3316 -0.2445  0.0492
 1952SOL    HW117315   0.439   0.316   3.515 -0.2823  0.1901 -1.3649
 1952SOL    HW217316   0.481   0.191   3.439 -0.7992 -0.7605 -0.9390
 1953SOL     OW17317   4.323   3.077   4.733 -0.2168  0.3416  0.1802
 1953SOL    HW117318   4.318   3.038   4.646  1.4427 -1.2384  0.7772
 1953SOL    HW217319   4.343   2.995   4.779 -0.3953 -0.3272 -0.9424
 1954SOL     OW17320   0.211   1.521   7.724 -0.4478  0.1283  0.4968
 1954SOL    HW117321   0.120   1.548   7.729 -0.8102 -0.6202 -2.1539
 1954SOL    HW217322   0.204   1.439   7.676 -1.3368 -0.7720  2.1549
 1955SOL     OW17323   1.257   3.896   6.550  0.1814 -0.3014  0.1557
 1955SOL    HW117324   1.311   3.824   6.516 -1.4576 -1.5537  0.1800
 1955SOL    HW217325   1.175   3.894   6.500  0.1568  1.5877  0.1524
 1956SOL     OW17326   3.058   0.387   6.096  0.2368  0.1199 -0.3807
 1956SOL    HW117327   3.068   0.321   6.164 -0.3168 -0.7798 -1.1857
 1956SOL    HW217328   3.093   0.464   6.140 -1.5222 -0.2106  1.5786
 1957SOL     OW17329   1.297   0.610   8.930  0.3179 -0.0853  0.6872
 1957SOL    HW117330   1.246   0.598   8.850  0.8892  0.8096  0.1950
 1957SOL    HW217331   1.309   0.520   8.960  0.6494  0.3913  1.9970
 1958SOL     OW17332   1.791   0.593   4.431  0.0475  0.3342  0.4561
 1958SOL    HW117333   1.829   0.654   4.367  1.2794 -0.3003  0.5721
 1958SOL    HW217334   1.699   0.612   4.414 -0.1708 -2.5570 -1.6659
 1959SOL     OW17335   1.587   1.682   6.829 -0.5862  0.0872  0.6434
 1959SOL    HW117336   1.542   1.602   6.857  0.5563 -0.6779  0.2326
 1959SOL    HW217337   1.620   1.653   6.745 -1.3671  0.8713  0.0645
 1960SOL     OW17338   2.251   3.331   9.510 -0.1337  0.4163  0.3574
 1960SOL    HW117339   2.286   3.391   9.445  0.0718 -0.0491  0.0422
 1960SOL    HW217340   2.324   3.301   9.564 -0.4221 -0.6666  0.1508
 1961SOL     OW17341   3.991   3.594   1.222  0.2179 -0.2974  0.2643
 1961SOL    HW117342   3.936   3.519   1.200  0.7957 -0.8537  0.7460
 1961SOL    HW217343   3.964   3.615   1.311  3.3906 -0.3324  1.2225
 1962SOL     OW17344   3.340   1.173  15.233  0.0377 -0.7678  0.2785
 1962SOL    HW117345   3.391   1.254  15.239 -3.1660  1.3411 -1.1800
 1962SOL    HW217346   3.295   1.164  15.317  0.4128 -0.1647  0.5465
 1963SOL     OW17347   2.990   4.718   2.902 -0.2282 -0.2011 -0.4401
 1963SOL    HW117348   3.017   4.634   2.940  3.2941  1.4794  0.6806
 1963SOL    HW217349   3.005   4.698   2.810  1.0884  0.2868 -0.3159
 1964SOL     OW17350   2.777   3.599  11.387  0.1525  0.1142  0.0478
 1964SOL    HW117351   2.719   3.527  11.410 -0.5891  0.4231 -0.8594
 1964SOL    HW217352   2.824   3.604  11.470  1.7134 -1.3688 -0.7454
 1965SOL     OW17353   0.007   4.360   1.308  0.0859 -0.0588 -0.4613
 1965SOL    HW117354   4.666   4.318   1.253  0.1770  1.0050 -1.3775
 1965SOL    HW217355   4.688   4.366   1.393 -1.9239 -0.4030 -1.4876
 1966SOL     OW17356   4.435   2.924   4.466 -0.0641 -0.2760 -0.4766
 1966SOL    HW117357   4.499   2.975   4.516  0.2889 -0.9003 -0.2920
 1966SOL    HW217358   4.477   2.926   4.380 -1.5708  1.5788 -1.1620
 1967SOL     OW17359   3.437   3.588   6.955 -0.1677  0.0753  0.6883
 1967SOL    HW117360   3.495   3.523   6.917 -0.5530  0.8892 -1.2997
 1967SOL    HW217361   3.498   3.620   7.021  0.2284 -1.7465  1.1884
 1968SOL     OW17362   1.867   2.116   6.855  0.3377  0.1034  0.1816
 1968SOL    HW117363   1.945   2.162   6.886  1.2099 -0.9828 -0.3889
 1968SOL    HW217364   1.837   2.187   6.799  1.2991 -0.3591 -0.9274
 1969SOL     OW17365   3.268   4.488   0.965  0.1771 -0.5559  0.0660
 1969SOL    HW117366   3.341   4.430   0.943  0.2329 -0.6943  0.6188
 1969SOL    HW217367   3.262   4.479   1.060  0.7054 -1.1320  0.0407
 1970SOL     OW17368   2.749   4.342   7.141  0.2328  0.8195 -0.0758
 1970SOL    HW117369   2.789   4.387   7.066 -0.7606 -1.3661 -1.9330
 1970SOL    HW217370   2.727   4.421   7.191  2.3070  2.1986 -1.2986
 1971SOL     OW17371   3.743   3.659   8.763 -1.1741  0.6300  0.1448
 1971SOL    HW117372   3.783   3.655   8.676  0.6073  2.3709  0.8733
 1971SOL    HW217373   3.775   3.584   8.812 -0.7607 -0.0790 -1.1908
 1972SOL     OW17374   0.022   2.961   6.428 -0.4620 -0.3540 -0.0671
 1972SOL    HW117375   4.656   2.981   6.450  0.0248  1.1189  0.5690
 1972SOL    HW217376   0.063   2.961   6.514  0.6703  2.8858 -0.6261
 1973SOL     OW17377   3.817   3.332   3.070 -0.3639 -0.2619  0.3273
 1973SOL    HW117378   3.886   3.330   3.137 -0.9805  0.4698  0.9910
 1973SOL    HW217379   3.866   3.363   2.994  1.5040 -1.2820  1.1101
 1974SOL     OW17380   1.896   1.027   0.353  0.0643  0.0465 -0.2990
 1974SOL    HW117381   1.873   1.117   0.329  1.1425  0.5954  0.7315
 1974SOL    HW217382   1.970   1.047   0.411 -0.7950  0.0226  0.8249
 1975SOL     OW17383   1.086   1.134   2.609  0.0568  0.5250  0.7197
 1975SOL    HW117384   1.149   1.205   2.621  0.7237  0.4876 -2.6505
 1975SOL    HW217385   1.112   1.115   2.519 -2.3022 -1.8642  0.5590
 1976SOL     OW17386   2.058   2.944   4.191 -0.2145 -0.0675 -0.1447
 1976SOL    HW117387   2.027   3.035   4.201  1.0862  0.4836 -1.1908
 1976SOL    HW217388   2.086   2.924   4.280 -0.9591 -0.5106 -0.0090
 1977SOL     OW17389   1.040   1.929   8.604  0.0122  0.7781 -0.1785
 1977SOL    HW117390   1.026   2.022   8.590 -1.0698  0.7437  0.5971
 1977SOL    HW217391   1.013   1.895   8.519  0.9118 -0.2782 -0.0504
 1978SOL     OW17392   2.422   1.948   5.809 -0.0528  0.5355  0.0979
 1978SOL    HW117393   2.452   1.857   5.806 -0.7706  0.2965  0.2866
 1978SOL    HW217394   2.393   1.957   5.899  2.5484 -1.4232  1.1440
 1979SOL     OW17395   1.342   3.952   8.756  0.1018  0.0561  0.1253
 1979SOL    HW117396   1.401   4.027   8.766 -1.8223  1.8652 -2.1855
 1979SOL    HW217397   1.257   3.995   8.744 -0.6111 -2.0257 -2.3476
 1980SOL     OW17398   2.735   3.927  14.051 -0.2185  0.3630 -0.3605
 1980SOL    HW117399   2.797   3.983  14.005 -1.4270  0.9595 -1.2813
 1980SOL    HW217400   2.694   3.895  13.971  2.2115 -0.9139 -1.0824
 1981SOL     OW17401   4.289   2.864   9.662 -0.5240  0.4416 -0.0618
 1981SOL    HW117402   4.214   2.821   9.702 -0.9928  2.8726  1.6696
 1981SOL    HW217403   4.242   2.928   9.607 -0.8682 -0.4477 -0.8085
 1982SOL     OW17404   3.462   2.609   2.202  0.0038 -0.1293 -0.4529
 1982SOL    HW117405   3.438   2.582   2.291 -0.9928  0.2435 -0.6093
 1982SOL    HW217406   3.542   2.658   2.222  0.0583 -0.4130  0.0220
 1983SOL     OW17407   1.922   2.309  13.381 -0.4697  0.5942 -0.2994
 1983SOL    HW117408   1.830   2.313  13.407 -0.7416 -2.6457 -0.7241
 1983SOL    HW217409   1.936   2.216  13.397 -0.7489  0.4905 -0.6487
 1984SOL     OW17410   3.800   3.745  11.965  0.6876  0.1493 -0.1505
 1984SOL    HW117411   3.707   3.741  11.990  0.7966  1.9522  0.5467
 1984SOL    HW217412   3.811   3.650  11.973 -0.9162 -0.1348 -1.3061
 1985SOL     OW17413   1.170   3.286  16.302  0.0040 -0.4506  0.1936
 1985SOL    HW117414   1.163   3.341  16.380 -0.5517 -1.0681  0.5815
 1985SOL    HW217415   1.115   3.325  16.235 -0.9402  0.9188  1.7665
 1986SOL     OW17416   3.104   0.441   8.655  0.4984 -0.3033  0.3400
 1986SOL    HW117417   3.032   0.453   8.716 -1.2821 -2.0549 -1.3826
 1986SOL    HW217418   3.106   0.345   8.649 -0.2193 -0.4067  1.6159
 1987SOL     OW17419   3.451   2.768   1.399 -0.6032  0.3884 -0.9328
 1987SOL    HW117420   3.509   2.807   1.334  1.4071  0.1235  0.7062
 1987SOL    HW217421   3.505   2.718   1.460 -1.1762 -1.0426 -1.5909
 1988SOL     OW17422   3.118   3.852   7.352  0.1592  0.0645 -0.3206
 1988SOL    HW117423   3.197   3.806   7.380 -0.2142 -0.0607  0.5171
 1988SOL    HW217424   3.127   3.939   7.392 -0.8404 -0.2229  0.5180
 1989SOL     OW17425   4.130   3.964   7.863 -0.1060 -0.1109  0.2851
 1989SOL    HW117426   4.186   3.934   7.792  1.1745  2.1351  0.3434
 1989SOL    HW217427   4.070   3.890   7.862 -0.5837  0.2527  1.4793
 1990SOL     OW17428   2.128   3.523   2.503 -0.1399  0.7064 -0.0904
 1990SOL    HW117429   2.045   3.560   2.472 -1.5992 -2.9451 -0.6593
 1990SOL    HW217430   2.185   3.551   2.432 -0.5590  2.5236  0.2931
 1991SOL     OW17431   4.481   0.841   7.701  0.2017 -0.3776 -0.3772
 1991SOL    HW117432   4.533   0.864   7.623  0.0723  3.7621  0.7185
 1991SOL    HW217433   4.497   0.918   7.756  1.1437 -0.5076 -0.4610
 1992SOL     OW17434   0.777   3.181  14.343  0.2621 -0.1115  0.3078
 1992SOL    HW117435   0.749   3.268  14.374 -1.1661 -0.0937 -1.0466
 1992SOL    HW217436   0.702   3.125  14.360 -0.2903  0.2530 -0.9901
 1993SOL     OW17437   1.393   1.536   7.888  0.0460  0.1533  0.0764
 1993SOL    HW117438   1.331   1.602   7.917  1.2727  1.5080 -0.4184
 1993SOL    HW217439   1.473   1.581   7.914  0.5181  0.3725 -1.7668
 1994SOL     OW17440   1.828   3.370   8.222 -0.0544 -0.5532 -0.4676
 1994SOL    HW117441   1.774   3.310   8.170 -1.2521 -0.3698  0.5343
 1994SOL    HW217442   1.805   3.336   8.309  1.3395 -2.2978 -0.7843
 1995SOL     OW17443   4.579   0.079  10.130  0.5388 -0.1558  0.6888
 1995SOL    HW117444   4.500   0.064  10.181  0.1787 -1.2589 -0.1894
 1995SOL    HW217445   4.539   0.111  10.049 -0.5942 -0.6970  1.0347
 1996SOL     OW17446   3.989   2.064   5.641  0.3333  0.0053 -0.0088
 1996SOL    HW117447   3.921   1.997   5.641  0.6341 -0.2978 -0.0619
 1996SOL    HW217448   3.940   2.147   5.642 -2.3024 -1.5533 -1.0183
 1997SOL     OW17449   3.496   0.689   2.129  0.1457 -0.4283 -0.0525
 1997SOL    HW117450   3.495   0.594   2.123  1.5408 -0.2514 -3.2158
 1997SOL    HW217451   3.402   0.706   2.118  0.2376 -0.7434 -1.2205
 1998SOL     OW17452   1.903   3.200   6.164  0.8399 -0.6509  0.3384
 1998SOL    HW117453   1.941   3.113   6.166  3.6771  0.5582 -0.5136
 1998SOL    HW217454   1.976   3.247   6.122  0.2178 -0.9772 -1.1089
 1999SOL     OW17455   2.730   0.912  11.163  0.1636 -0.7820 -0.1249
 1999SOL    HW117456   2.758   0.941  11.077 -0.4224 -0.2341 -0.1229
 1999SOL    HW217457   2.783   0.974  11.213  1.7695 -2.7385  0.6057
 2000SOL     OW17458   2.268   0.717   6.456  0.3440  0.1023  0.3750
 2000SOL    HW117459   2.176   0.716   6.427  0.7668  1.5932 -1.0215
 2000SOL    HW217460   2.274   0.776   6.531  0.5110  1.5551 -0.7810
 2001SOL     OW17461   3.491   0.781   0.442  0.0980  0.1645 -0.5245
 2001SOL    HW117462   3.521   0.762   0.531  0.8978 -0.3347 -0.9035
 2001SOL    HW217463   3.570   0.821   0.406  1.3277 -2.4588 -0.7464
 2002SOL     OW17464   1.126   1.790   3.061 -0.0506 -0.1353 -0.2165
 2002SOL    HW117465   1.200   1.761   3.007 -1.3271  1.2672 -2.6794
 2002SOL    HW217466   1.105   1.875   3.023  0.5044  0.3892  0.6391
 2003SOL     OW17467   0.517   0.803   4.621  0.4177  0.3135 -0.2464
 2003SOL    HW117468   0.549   0.720   4.585 -2.2594  0.0528 -1.9981
 2003SOL    HW217469   0.475   0.844   4.545  2.9727  2.1108 -0.7238
 2004SOL     OW17470   0.289   2.703   7.668 -0.4521 -0.7372  0.3891
 2004SOL    HW117471   0.337   2.659   7.739  0.3285 -0.2093  0.1906
 2004SOL    HW217472   0.348   2.693   7.593 -0.9737 -1.7830  0.1169
 2005SOL     OW17473   2.514   2.626   5.590 -0.7331  0.2570 -0.0247
 2005SOL    HW117474   2.607   2.644   5.606 -0.3999  0.5506 -2.2200
 2005SOL    HW217475   2.511   2.563   5.518  1.1309 -2.2197  2.0816
 2006SOL     OW17476   0.825   1.135  13.520 -0.4004  0.0614 -0.1141
 2006SOL    HW117477   0.920   1.148  13.520 -0.3962  0.0271 -0.8188
 2006SOL    HW217478   0.785   1.192  13.585 -2.9818 -2.4590  0.4735
 2007SOL     OW17479   1.343   0.525   6.175  0.1586 -0.5061 -0.3646
 2007SOL    HW117480   1.355   0.582   6.099 -1.3838  0.4429  0.1074
 2007SOL    HW217481   1.431   0.492   6.195  0.0711 -0.9659 -0.7277
 2008SOL     OW17482   3.879   3.586   2.048 -0.1985  0.1271  0.0499
 2008SOL    HW117483   3.823   3.552   1.978  0.0204 -1.1983  0.5149
 2008SOL    HW217484   3.821   3.610   2.119 -0.0677 -1.0433  0.5527
 2009SOL     OW17485   1.996   2.529  13.002  0.3766  0.4392  0.4608
 2009SOL    HW117486   1.971   2.582  12.926 -0.2154 -0.2814  0.1586
 2009SOL    HW217487   1.929   2.462  12.991  0.3746  0.7318 -1.2954
 2010SOL     OW17488   3.304   2.391  10.247  0.0689  0.0566  0.0286
 2010SOL    HW117489   3.275   2.480  10.225  0.0376 -0.8111 -3.4918
 2010SOL    HW217490   3.396   2.412  10.259 -0.5805  2.0326  1.5362
 2011SOL     OW17491   0.017   2.424  10.195 -0.2655  0.3181  0.4364
 2011SOL    HW117492   0.005   2.460  10.283  1.1142 -0.9935  1.1498
 2011SOL    HW217493   0.048   2.337  10.221 -0.6191  1.0902  3.4893
 2012SOL     OW17494   3.210   4.602   3.036 -0.2642  0.5610  0.1695
 2012SOL    HW117495   3.244   4.645   2.958  2.9470 -3.0730 -0.4538
 2012SOL    HW217496   3.271   4.529   3.036  1.0149  1.6432 -0.1594
 2013SOL     OW17497   2.479   4.289   1.879 -0.3310  0.7791  0.1056
 2013SOL    HW117498   2.473   4.215   1.818  1.7356  0.3035  0.4994
 2013SOL    HW217499   2.513   4.353   1.817 -1.0589  1.6510  0.5900
 2014SOL     OW17500   3.333   2.704   9.844  0.3287  0.5135 -0.0579
 2014SOL    HW117501   3.310   2.677   9.933 -2.7135  1.3606 -0.5857
 2014SOL    HW217502   3.268   2.775   9.843 -0.9567 -0.7012 -2.7070
 2015SOL     OW17503   3.404   2.340   1.796  0.3431 -0.2361 -0.3886
 2015SOL    HW117504   3.467   2.356   1.726  0.1678  2.1566 -0.0263
 2015SOL    HW217505   3.447   2.363   1.879 -2.0333 -2.7252  1.5280
 2016SOL     OW17506   0.727   0.454   1.206 -0.3528 -0.1454  0.4021
 2016SOL    HW117507   0.664   0.421   1.270 -1.3561 -1.4479 -1.2489
 2016SOL    HW217508   0.673   0.524   1.171 -0.6477 -0.4552  0.2351
 2017SOL     OW17509   3.362   2.136   3.537  0.3247 -0.0145 -0.7495
 2017SOL    HW117510   3.300   2.067   3.563  0.5384 -0.0813 -0.4098
 2017SOL    HW217511   3.442   2.084   3.546  0.0169 -0.4220 -0.3667
 2018SOL     OW17512   1.311   2.872   8.222  0.1696  0.3559 -0.1115
 2018SOL    HW117513   1.285   2.810   8.153 -0.4401 -0.2930  0.6909
 2018SOL    HW217514   1.234   2.929   8.224 -0.7476 -0.8102 -2.5188
 2019SOL     OW17515   2.906   3.237   7.238  0.1128 -0.4546 -0.3194
 2019SOL    HW117516   2.969   3.309   7.242  2.0357 -2.0547 -2.0169
 2019SOL    HW217517   2.962   3.168   7.275  0.4594  0.1556  0.3005
 2020SOL     OW17518   4.419   0.006   3.353 -0.0699  0.3295  0.1762
 2020SOL    HW117519   4.340   4.680   3.332  1.1977 -0.5243 -2.5531
 2020SOL    HW217520   4.393   0.075   3.414 -1.2207  0.3092 -0.2888
 2021SOL     OW17521   3.538   1.447   5.576 -0.0306 -0.5317 -0.3129
 2021SOL    HW117522   3.630   1.438   5.601  0.2239 -0.3552 -1.1825
 2021SOL    HW217523   3.556   1.518   5.514  4.3749 -1.5213 -0.1519
 2022SOL     OW17524   0.760   0.779  15.346  0.1128 -0.4511  0.1926
 2022SOL    HW117525   0.683   0.722  15.337 -0.1512  0.0276 -0.5232
 2022SOL    HW217526   0.720   0.860  15.377 -1.7776 -2.1522  2.2862
 2023SOL     OW17527   0.167   2.046   8.474 -0.1241 -0.8676  0.2426
 2023SOL    HW117528   0.233   2.021   8.540  1.1185  2.1769  0.1697
 2023SOL    HW217529   0.123   2.118   8.520  0.0312 -1.1676  0.8683
 2024SOL     OW17530   4.385   1.434   2.715 -0.1816 -0.6176 -0.5158
 2024SOL    HW117531   4.348   1.432   2.627 -0.6175 -3.6684 -0.2379
 2024SOL    HW217532   4.311   1.458   2.770  2.5537 -2.0604  3.8045
 2025SOL     OW17533   3.020   2.986   7.331 -0.1161  0.3190 -0.0687
 2025SOL    HW117534   3.017   2.971   7.425 -0.2732 -3.1727 -0.6218
 2025SOL    HW217535   2.936   2.961   7.291  0.1900  0.5442 -0.8606
 2026SOL     OW17536   3.667   1.799  10.325  0.1115  0.0458 -0.2406
 2026SOL    HW117537   3.664   1.711  10.362 -0.0156 -0.1131 -0.6311
 2026SOL    HW217538   3.578   1.795  10.291 -0.4638  0.1772  1.2612
 2027SOL     OW17539   3.489   1.719   3.462  0.4583 -0.0569 -0.0047
 2027SOL    HW117540   3.535   1.780   3.520 -0.0790  1.0582 -0.7550
 2027SOL    HW217541   3.408   1.703   3.511 -0.3551  3.6735 -0.1366
 2028SOL     OW17542   4.620   4.302   4.067 -0.2826  0.5245  0.1552
 2028SOL    HW117543   4.638   4.313   4.161  2.7894  0.1389 -0.3722
 2028SOL    HW217544   4.525   4.312   4.063 -0.3465 -0.9277 -2.0521
 2029SOL     OW17545   2.529   4.204   7.699  0.6524 -0.0026 -0.2761
 2029SOL    HW117546   2.493   4.219   7.611 -0.1523  1.8947  0.3761
 2029SOL    HW217547   2.447   4.209   7.748  0.8447  2.0936 -0.1839
 2030SOL     OW17548   3.638   1.017   6.226 -0.2953 -0.5084  0.1451
 2030SOL    HW117549   3.689   0.985   6.300 -1.1571  0.7200  1.2746
 2030SOL    HW217550   3.590   1.088   6.269 -1.1045 -0.6000 -0.6116
 2031SOL     OW17551   3.756   0.920   4.322  0.0467 -0.3602 -0.3819
 2031SOL    HW117552   3.826   0.979   4.297 -0.5025  0.5914  0.3110
 2031SOL    HW217553   3.730   0.888   4.236 -1.1791  0.0548 -0.1632
 2032SOL     OW17554   0.332   0.252   8.046  0.0430 -0.1610 -0.3432
 2032SOL    HW117555   0.415   0.232   8.004  1.7191 -0.7653  3.2347
 2032SOL    HW217556   0.349   0.274   8.137 -0.2605 -0.7762 -0.1353
 2033SOL     OW17557   0.322   4.015  13.223  0.5108 -0.2128  0.2567
 2033SOL    HW117558   0.366   4.026  13.307 -0.5300 -1.5437  0.9709
 2033SOL    HW217559   0.251   4.079  13.226  1.2709  0.6716 -0.5293
 2034SOL     OW17560   3.123   2.293   0.310  0.2159  0.0923 -0.5210
 2034SOL    HW117561   3.091   2.312   0.222  0.2409 -0.4528 -0.6464
 2034SOL    HW217562   3.075   2.212   0.328  0.7388  0.1291  1.0383
 2035SOL     OW17563   1.788   1.923   3.315 -0.4189  0.1406 -0.6033
 2035SOL    HW117564   1.757   1.947   3.228 -2.8025  0.7108  0.4192
 2035SOL    HW217565   1.712   1.949   3.366 -1.3655 -0.7051 -1.5903
 2036SOL     OW17566   4.265   1.384   8.570 -0.0868 -0.5179  0.6279
 2036SOL    HW117567   4.214   1.380   8.651 -1.0051  0.9879  0.1165
 2036SOL    HW217568   4.299   1.294   8.569 -1.3073 -0.9654 -0.4156
 2037SOL     OW17569   2.783   3.589   9.201  0.2653 -0.0043 -0.1632
 2037SOL    HW117570   2.830   3.660   9.245  0.2347 -0.0805 -0.0064
 2037SOL    HW217571   2.691   3.616   9.202  0.1814 -0.2896 -0.2360
 2038SOL     OW17572   2.447   3.644   7.302  0.4554 -0.0534 -0.5111
 2038SOL    HW117573   2.492   3.672   7.382 -1.0383 -3.0958  1.4110
 2038SOL    HW217574   2.478   3.553   7.302  1.5699  0.3187  1.5586
 2039SOL     OW17575   3.692   2.614   9.291  0.1782 -0.0394  0.2439
 2039SOL    HW117576   3.643   2.580   9.216 -0.9203 -2.7236  2.1847
 2039SOL    HW217577   3.623   2.603   9.356  2.2567 -0.4058  2.3645
 2040SOL     OW17578   2.030   1.614   8.414  0.0199  0.2537  0.2729
 2040SOL    HW117579   2.052   1.694   8.461  2.7975 -0.3624  0.0484
 2040SOL    HW217580   1.985   1.644   8.335 -2.8728  1.1484  2.2581
 2041SOL     OW17581   0.745   2.451   7.099  0.5607  0.3230  0.0267
 2041SOL    HW117582   0.714   2.435   7.188  2.5083  1.2784  0.8601
 2041SOL    HW217583   0.741   2.359   7.073 -1.7237  0.5995 -0.6290
 2042SOL     OW17584   2.549   1.182   5.158 -0.1574  0.4478 -0.4540
 2042SOL    HW117585   2.541   1.241   5.083 -0.5949 -2.2994 -2.5603
 2042SOL    HW217586   2.548   1.096   5.115  1.5790 -0.1243  0.6530
 2043SOL     OW17587   4.371   0.751   2.871  0.1410 -0.2387 -0.1089
 2043SOL    HW117588   4.304   0.790   2.814  0.6868  0.5256 -0.2418
 2043SOL    HW217589   4.419   0.832   2.889  1.5584 -0.6574 -1.9195
 2044SOL     OW17590   1.028   4.534   2.653  0.0896  0.2902  0.2268
 2044SOL    HW117591   1.072   4.517   2.736  1.9734  0.3656 -0.7675
 2044SOL    HW217592   0.965   4.597   2.690 -2.2729 -0.8725 -1.7877
 2045SOL     OW17593   1.009   1.401   8.793  0.2498 -0.1002  0.4528
 2045SOL    HW117594   0.965   1.471   8.744  0.2373 -0.2419  0.2632
 2045SOL    HW217595   0.956   1.327   8.764  1.5768 -0.7549 -0.2751
 2046SOL     OW17596   4.396   0.260  13.661 -0.3835  0.0884  0.2032
 2046SOL    HW117597   4.322   0.283  13.717  0.5537 -0.1041  1.5011
 2046SOL    HW217598   4.448   0.212  13.724 -1.2688  0.2821  1.0768
 2047SOL     OW17599   1.059   4.656  14.390 -0.2780 -0.0633 -0.4058
 2047SOL    HW117600   1.148   4.670  14.422 -0.2888 -2.2638  0.6018
 2047SOL    HW217601   1.076   4.622  14.302  3.1921 -1.0696  0.6754
 2048SOL     OW17602   3.512   1.404   9.525 -0.5410  0.0795  0.2249
 2048SOL    HW117603   3.588   1.450   9.490 -1.1779 -0.0747 -1.3887
 2048SOL    HW217604   3.503   1.427   9.617 -0.6099  0.2911  0.1669
 2049SOL     OW17605   3.845   4.539   9.160  0.3008 -0.1978 -0.0935
 2049SOL    HW117606   3.852   4.461   9.105 -1.7016  0.0326 -0.6755
 2049SOL    HW217607   3.866   4.507   9.248  2.7365  0.5067 -0.4127
 2050SOL     OW17608   3.157   3.052   2.122 -0.8877  0.5949  0.6289
 2050SOL    HW117609   3.063   3.072   2.117 -1.6418 -2.4145  2.6688
 2050SOL    HW217610   3.188   3.128   2.171 -2.5359  0.7583  1.4500
 2051SOL     OW17611   1.993   3.889   6.472  0.1527 -0.3300  0.3707
 2051SOL    HW117612   1.937   3.812   6.476  0.9930 -0.9257  0.8751
 2051SOL    HW217613   2.065   3.867   6.532  0.9242 -0.2237 -0.5135
 2052SOL     OW17614   1.256   3.894   3.338  0.1907 -0.0075 -0.1699
 2052SOL    HW117615   1.262   3.945   3.419  1.9480 -0.6471  0.1033
 2052SOL    HW217616   1.283   3.808   3.368  0.8985  0.2899  0.0489
 2053SOL     OW17617   1.975   1.089   8.559 -0.5453  0.2841  0.0289
 2053SOL    HW117618   2.021   1.034   8.622 -0.4751  1.3400  0.9039
 2053SOL    HW217619   2.041   1.103   8.491  0.9981 -0.5374  1.3472
 2054SOL     OW17620   1.423   1.473   3.205 -0.2740  0.3238 -0.5455
 2054SOL    HW117621   1.356   1.452   3.140  0.1715  0.7637 -1.1393
 2054SOL    HW217622   1.376   1.481   3.288  0.0965 -0.3147 -0.2733
 2055SOL     OW17623   2.439   2.444   3.398 -0.9069 -0.1539  0.0188
 2055SOL    HW117624   2.529   2.441   3.429 -0.7505 -2.1556 -0.5934
 2055SOL    HW217625   2.425   2.352   3.424 -1.1208  0.0249  0.5356
 2056SOL     OW17626   1.657   3.463   4.451 -0.1201 -0.1536  0.2381
 2056SOL    HW117627   1.698   3.450   4.365  0.5476  1.6034  0.2965
 2056SOL    HW217628   1.680   3.378   4.489  1.7329  0.9949  1.6378
 2057SOL     OW17629   3.859   4.284   8.549 -0.2881  0.1820  0.2204
 2057SOL    HW117630   3.922   4.284   8.477  0.5154 -1.9017  0.9341
 2057SOL    HW217631   3.920   4.293   8.623 -0.8732  0.3552  0.6760
 2058SOL     OW17632   2.601   4.481   7.770  0.0067 -0.2156 -0.1829
 2058SOL    HW117633   2.641   4.476   7.857 -1.2950  1.1918  0.4847
 2058SOL    HW217634   2.582   4.387   7.761 -1.8664  0.1342  0.1618
 2059SOL     OW17635   3.963   3.333   4.468 -0.0374 -0.3012  0.3810
 2059SOL    HW117636   3.998   3.352   4.555 -2.9520  1.5515  1.1493
 2059SOL    HW217637   3.958   3.238   4.484  4.3038 -0.2030  2.2532
 2060SOL     OW17638   0.238   3.682   0.931  0.0337 -0.0657  0.3946
 2060SOL    HW117639   0.198   3.687   1.018 -0.5160  0.3972  0.1131
 2060SOL    HW217640   0.327   3.668   0.961 -0.1301 -0.8766  0.4969
 2061SOL     OW17641   1.605   0.166   6.348 -0.3544 -0.3339 -0.3928
 2061SOL    HW117642   1.560   0.081   6.345 -0.9262  0.0004 -1.3090
 2061SOL    HW217643   1.665   0.150   6.276 -0.7344  0.4593 -0.8874
 2062SOL     OW17644   4.059   1.701  14.552 -0.4056  0.3461 -0.1696
 2062SOL    HW117645   4.063   1.685  14.458 -1.7791 -0.2912 -0.1274
 2062SOL    HW217646   4.056   1.796  14.561  0.2898  0.4058 -0.5867
 2063SOL     OW17647   1.062   2.973   4.613 -0.4567 -0.1647  0.2643
 2063SOL    HW117648   1.058   3.067   4.595  0.4232  0.1035  1.4294
 2063SOL    HW217649   1.118   2.935   4.545 -0.8919  0.8476 -0.6717
 2064SOL     OW17650   0.526   4.289   3.010 -0.1467 -0.6994  0.0370
 2064SOL    HW117651   0.538   4.200   2.977  2.3420  0.0794 -1.1452
 2064SOL    HW217652   0.461   4.274   3.079  1.6206 -0.0988  1.8495
 2065SOL     OW17653   1.591   3.054   1.447 -0.7779  0.2635  0.2458
 2065SOL    HW117654   1.650   3.063   1.373 -1.3584  0.8939 -0.1438
 2065SOL    HW217655   1.614   2.966   1.477 -0.3935  1.2175  2.7782
 2066SOL     OW17656   3.713   1.275   4.389  0.6655  0.4736 -0.4119
 2066SOL    HW117657   3.781   1.217   4.355 -0.9292 -1.7808  0.2366
 2066SOL    HW217658   3.740   1.353   4.339 -0.4054  0.9364 -0.2652
 2067SOL     OW17659   0.663   3.221   5.160  0.0950 -0.5956  0.4927
 2067SOL    HW117660   0.576   3.254   5.136  0.3335 -1.0722 -1.0160
 2067SOL    HW217661   0.643   3.152   5.223 -0.0936 -0.7617  0.2526
 2068SOL     OW17662   1.414   0.959   5.737  0.7479 -0.2563 -0.4633
 2068SOL    HW117663   1.388   1.051   5.728  0.1597 -0.3215  0.5795
 2068SOL    HW217664   1.328   0.920   5.720  0.1662  0.4737  0.7679
 2069SOL     OW17665   2.669   1.392   6.223 -0.2383 -0.0404  0.0046
 2069SOL    HW117666   2.732   1.322   6.208 -1.6131 -1.2934  0.0265
 2069SOL    HW217667   2.600   1.350   6.276 -1.1021  1.1824 -0.1576
 2070SOL     OW17668   3.685   0.453   8.454 -0.6754  0.5269  0.0597
 2070SOL    HW117669   3.661   0.372   8.499  1.1092  1.4626  2.7516
 2070SOL    HW217670   3.662   0.439   8.362 -0.3799  0.0789  0.0531
 2071SOL     OW17671   0.548   2.276  16.810  0.0705  0.0471  0.2073
 2071SOL    HW117672   0.637   2.283  16.776 -0.0374 -0.8905 -0.2707
 2071SOL    HW217673   0.537   2.363  16.849  1.2081 -0.5915  1.9295
 2072SOL     OW17674   2.840   0.446   7.122 -0.0963  0.3164 -0.0273
 2072SOL    HW117675   2.796   0.363   7.140  0.8513 -0.2632 -0.3840
 2072SOL    HW217676   2.767   0.487   7.076  0.0658 -0.2025 -0.7555
 2073SOL     OW17677   0.133   3.272   4.520  0.5610  0.3842 -0.8304
 2073SOL    HW117678   0.167   3.283   4.432 -0.2983 -0.3323 -1.2609
 2073SOL    HW217679   0.214   3.282   4.570  1.0267 -2.4374 -0.9867
 2074SOL     OW17680   1.757   2.882   9.357 -0.6834  0.2472  0.0880
 2074SOL    HW117681   1.750   2.803   9.411 -0.4347  0.6810  0.7632
 2074SOL    HW217682   1.703   2.950   9.398 -0.0375  0.4017  0.6881
 2075SOL     OW17683   2.541   0.746   3.203 -0.6689  0.0497  0.0627
 2075SOL    HW117684   2.617   0.717   3.152 -0.6349 -0.5055  0.4306
 2075SOL    HW217685   2.498   0.664   3.229 -1.5311  0.4541 -0.0847
 2076SOL     OW17686   3.801   2.703   7.965  0.3504  0.3708  0.0159
 2076SOL    HW117687   3.727   2.643   7.974  1.9653 -1.8563 -1.7730
 2076SOL    HW217688   3.824   2.679   7.875  1.6417  0.7889  0.2352
 2077SOL     OW17689   2.945   2.023   3.995  0.0663  0.2276 -0.5298
 2077SOL    HW117690   2.864   2.025   4.046  0.9753 -0.5815  0.9398
 2077SOL    HW217691   2.909   1.973   3.921 -0.9634  0.9603 -0.5404
 2078SOL     OW17692   2.518   2.833   7.768 -0.4166  0.0117  0.5141
 2078SOL    HW117693   2.515   2.909   7.827  0.5394  0.0588  0.4969
 2078SOL    HW217694   2.542   2.872   7.684 -1.1871 -1.6243 -0.4570
 2079SOL     OW17695   1.187   0.244   2.851 -0.1324  0.3150 -0.0657
 2079SOL    HW117696   1.275   0.258   2.888 -0.0383  1.0365 -0.5697
 2079SOL    HW217697   1.165   0.160   2.890  3.9105  0.3932  2.4128
 2080SOL     OW17698   3.544   2.112   7.169 -0.0012  0.1964  0.2922
 2080SOL    HW117699   3.467   2.126   7.224 -0.6815  2.9546 -1.3664
 2080SOL    HW217700   3.614   2.116   7.235 -0.7319  1.6729  0.9702
 2081SOL     OW17701   3.835   2.308   8.427 -0.4160  0.1682 -0.0357
 2081SOL    HW117702   3.793   2.250   8.491 -1.3090 -0.4525 -1.1742
 2081SOL    HW217703   3.910   2.344   8.474 -0.1678 -4.4247  3.0538
 2082SOL     OW17704   4.348   3.351   3.703 -0.4839 -0.2207 -0.1803
 2082SOL    HW117705   4.316   3.426   3.753  0.9515  0.8858 -0.9274
 2082SOL    HW217706   4.264   3.308   3.689 -1.0627  1.0815 -0.7413
 2083SOL     OW17707   1.861   0.041   2.508 -0.3011  0.4016  0.1770
 2083SOL    HW117708   1.788   4.718   2.548  0.3238 -0.5095  0.2325
 2083SOL    HW217709   1.926   0.061   2.575 -0.6759 -0.8455  0.9087
 2084SOL     OW17710   3.331   1.509   0.344  0.2101 -0.3290  0.2925
 2084SOL    HW117711   3.367   1.426   0.375 -0.7759 -0.7623  0.2683
 2084SOL    HW217712   3.381   1.524   0.265 -0.3817  0.1096  0.0009
 2085SOL     OW17713   2.948   4.103   2.379 -0.6424  0.3054  0.6105
 2085SOL    HW117714   2.901   4.186   2.383  0.1627  0.6244  3.3114
 2085SOL    HW217715   3.006   4.121   2.305  0.0270  0.9867  1.3029
 2086SOL     OW17716   3.113   0.059   3.571  0.2870  0.1354  0.3668
 2086SOL    HW117717   3.073   4.699   3.591  0.3339  0.1325  0.4496
 2086SOL    HW217718   3.185   0.062   3.635 -0.6242 -1.8832  1.4907
 2087SOL     OW17719   3.523   2.544   9.510 -0.0335  0.1136  0.2359
 2087SOL    HW117720   3.538   2.450   9.513  1.5101  0.2481 -3.9314
 2087SOL    HW217721   3.429   2.546   9.527  0.1240 -2.4371  1.4335
 2088SOL     OW17722   3.032   3.717   2.930 -0.5840  0.6057 -0.6940
 2088SOL    HW117723   2.942   3.715   2.961 -0.6943 -0.0354 -1.0509
 2088SOL    HW217724   3.081   3.733   3.010 -0.9828 -0.4041 -0.2444
 2089SOL     OW17725   2.517   1.424   9.166 -0.2931 -1.4118 -0.2202
 2089SOL    HW117726   2.441   1.474   9.195  0.2390 -0.0376 -1.1755
 2089SOL    HW217727   2.557   1.476   9.096 -1.8054  0.2948  0.2064
 2090SOL     OW17728   3.957   2.643  12.219 -0.2772  0.0770  0.6769
 2090SOL    HW117729   3.969   2.549  12.213  1.0697  0.3098 -0.2444
 2090SOL    HW217730   3.865   2.640  12.245 -0.2722 -1.2442  0.5424
 2091SOL     OW17731   0.123   3.154   7.262 -0.5652  0.5102  0.2636
 2091SOL    HW117732   0.208   3.155   7.307  1.1929 -0.2449 -3.1162
 2091SOL    HW217733   0.149   3.119   7.177 -0.6963 -1.3610  1.0070
 2092SOL     OW17734   3.224   3.708   5.206  0.7789 -0.3405 -0.5620
 2092SOL    HW117735   3.173   3.786   5.185  1.3725  0.0002 -0.7074
 2092SOL    HW217736   3.173   3.641   5.160 -0.0713  1.0444 -1.6508
 2093SOL     OW17737   1.512   3.151  12.326 -0.3204 -0.0633  0.6038
 2093SOL    HW117738   1.446   3.086  12.300 -0.5038  0.9607 -1.4476
 2093SOL    HW217739   1.593   3.102  12.342 -0.3890  0.5157  2.7724
 2094SOL     OW17740   0.366   0.903   2.451 -0.1478  0.5661 -0.3480
 2094SOL    HW117741   0.282   0.866   2.423  0.5830 -3.7540  3.1479
 2094SOL    HW217742   0.338   0.992   2.470  0.3422  0.6270  0.0780
 2095SOL     OW17743   4.130   0.306   2.155 -0.5153  0.2447 -0.0693
 2095SOL    HW117744   4.166   0.227   2.196 -1.1843  0.6688  1.3561
 2095SOL    HW217745   4.135   0.363   2.232  0.4344 -0.8196  0.6758
 2096SOL     OW17746   3.492   0.935   1.977  0.0342 -0.8260  0.3653
 2096SOL    HW117747   3.517   0.886   2.056 -0.1219  0.8383  1.4392
 2096SOL    HW217748   3.436   0.874   1.928  0.8691 -1.0516 -0.3206
 2097SOL     OW17749   2.893   0.151   5.226  0.4578  0.1000  0.1744
 2097SOL    HW117750   2.816   0.097   5.207  0.7653 -0.1991 -0.2140
 2097SOL    HW217751   2.856   0.229   5.267  1.1701  1.6431 -2.0962
 2098SOL     OW17752   3.792   2.686   2.884  0.4126  0.5862 -0.5224
 2098SOL    HW117753   3.696   2.688   2.877  0.3855  1.7622  0.2875
 2098SOL    HW217754   3.793   2.690   2.979  0.9285  0.8187 -0.5369
 2099SOL     OW17755   0.346   3.503   4.060 -0.6998  0.0563 -0.1080
 2099SOL    HW117756   0.357   3.570   4.127  1.1430 -1.6761  1.3112
 2099SOL    HW217757   0.297   3.548   3.991  0.0435 -0.9502 -1.2959
 2100SOL     OW17758   0.149   2.593  16.005 -0.2398 -0.8145  0.3558
 2100SOL    HW117759   0.072   2.593  16.062 -0.5707  1.6669 -0.0754
 2100SOL    HW217760   0.199   2.661  16.050 -1.3491 -0.7987  1.5515
 2101SOL     OW17761   1.401   2.890   8.528  0.0186  0.4626 -0.0694
 2101SOL    HW117762   1.347   2.959   8.568  0.1145  1.0481 -0.9590
 2101SOL    HW217763   1.367   2.879   8.439  0.4461 -0.5534 -0.1060
 2102SOL     OW17764   1.597   3.619   5.401 -0.1018  0.4348 -0.0822
 2102SOL    HW117765   1.611   3.677   5.326 -1.1708 -1.1426 -1.4952
 2102SOL    HW217766   1.539   3.667   5.459  0.6938  2.7231 -1.1976
 2103SOL     OW17767   0.120   3.639  10.612 -0.0598  0.3733  0.1800
 2103SOL    HW117768   0.064   3.640  10.689  1.9298  1.3004  1.6322
 2103SOL    HW217769   0.123   3.733  10.593  0.1180  0.1285 -1.0030
 2104SOL     OW17770   4.451   3.887   1.917 -0.1921  0.6451 -0.1003
 2104SOL    HW117771   4.408   3.819   1.968  0.6274 -0.6991 -1.2149
 2104SOL    HW217772   4.492   3.933   1.991 -0.6239 -0.9929  1.1507
 2105SOL     OW17773   1.652   3.080   0.830  0.2006 -0.6473 -0.5439
 2105SOL    HW117774   1.726   3.055   0.885  0.5295  1.7342  0.1198
 2105SOL    HW217775   1.684   3.148   0.771  0.7722  0.5201  1.1306
 2106SOL     OW17776   0.379   3.599   0.517 -0.0502 -0.0926 -0.2295
 2106SOL    HW117777   0.442   3.540   0.474  1.5443  0.4995  1.2844
 2106SOL    HW217778   0.346   3.544   0.588  0.6414  0.6353  0.6572
 2107SOL     OW17779   1.696   3.038   3.110  0.2497 -0.3547 -0.5073
 2107SOL    HW117780   1.717   2.956   3.067  0.1289 -0.4318 -0.4178
 2107SOL    HW217781   1.641   3.005   3.181  0.3811  1.9731  0.7026
 2108SOL     OW17782   3.812   2.259   4.213  0.0035  0.1464  0.4152
 2108SOL    HW117783   3.744   2.324   4.229  0.3126  1.1179 -2.2518
 2108SOL    HW217784   3.832   2.213   4.295  1.4514 -2.1161 -1.1886
 2109SOL     OW17785   4.409   4.547   7.130  0.2081  0.1275 -0.0975
 2109SOL    HW117786   4.323   4.585   7.110 -0.0273  0.6462  1.9510
 2109SOL    HW217787   4.390   4.504   7.213 -1.2721  0.3688 -0.3128
 2110SOL     OW17788   0.398   4.371   8.206  0.2091 -0.0831  1.3116
 2110SOL    HW117789   0.323   4.421   8.172 -1.0664 -1.2110  2.4297
 2110SOL    HW217790   0.472   4.415   8.164  0.2141  0.2743  1.6916
 2111SOL     OW17791   2.697   3.778  14.284 -0.2617 -0.3815 -0.8877
 2111SOL    HW117792   2.605   3.756  14.266 -0.9989  0.5154  1.7188
 2111SOL    HW217793   2.718   3.833  14.208 -1.4763  1.1549 -0.1167
 2112SOL     OW17794   4.140   3.813  17.630 -0.0376 -0.1423  0.4329
 2112SOL    HW117795   4.168   3.862   0.006  0.2615 -1.1065  0.9398
 2112SOL    HW217796   4.098   3.884  17.581  3.0037  1.8833  0.6990
 2113SOL     OW17797   1.420   3.889   2.808 -0.0342 -0.0346 -0.0051
 2113SOL    HW117798   1.508   3.853   2.806  0.0585  0.1924  0.0086
 2113SOL    HW217799   1.371   3.808   2.798 -0.8877  0.2282  1.8970
 2114SOL     OW17800   0.766   4.022   8.831 -0.2660 -0.2533 -0.4830
 2114SOL    HW117801   0.695   4.079   8.862 -0.9815 -0.7711 -1.1600
 2114SOL    HW217802   0.711   3.944   8.821 -0.3248 -0.0382 -1.9318
 2115SOL     OW17803   1.868   1.226   6.797 -0.5007  0.0812  0.4760
 2115SOL    HW117804   1.852   1.285   6.871 -0.2804  0.9145 -0.1407
 2115SOL    HW217805   1.886   1.289   6.728 -0.6101 -0.3103  0.0933
 2116SOL     OW17806   4.511   0.057   2.842  0.1507 -0.0257  0.0897
 2116SOL    HW117807   4.482   0.148   2.839 -0.0625 -0.1347 -0.9780
 2116SOL    HW217808   4.511   0.050   2.938 -0.0250  1.5017  0.2106
 2117SOL     OW17809   0.643   0.543   5.990 -0.4336  0.0241 -0.3207
 2117SOL    HW117810   0.577   0.524   6.057  1.3741 -2.9503  0.6331
 2117SOL    HW217811   0.594   0.550   5.908  0.0018  1.5504 -0.4437
 2118SOL     OW17812   2.382   1.366  10.593 -0.3311 -0.1337 -0.4597
 2118SOL    HW117813   2.447   1.437  10.596 -0.3654 -0.1959  2.3067
 2118SOL    HW217814   2.315   1.410  10.646  0.3613 -0.3938  0.6240
 2119SOL     OW17815   0.199   0.098   1.921 -0.0720 -0.1322  0.0268
 2119SOL    HW117816   0.187   0.075   1.829  2.0833 -1.5028  0.0755
 2119SOL    HW217817   0.107   0.104   1.947 -0.7819  2.3789 -3.0285
 2120SOL     OW17818   0.633   2.998   7.429 -0.4036  0.2325  0.0024
 2120SOL    HW117819   0.688   3.049   7.488 -1.8327  0.4900  1.1196
 2120SOL    HW217820   0.666   2.911   7.448 -0.2248  0.7491  1.9814
 2121SOL     OW17821   4.063   3.144   1.564  0.3299  0.0432  0.7170
 2121SOL    HW117822   4.136   3.168   1.622 -0.0387  1.8324  0.4393
 2121SOL    HW217823   4.109   3.127   1.482 -0.7346  0.7701 -0.0306
 2122SOL     OW17824   0.001   2.787   3.779  1.1176 -0.3706 -0.0733
 2122SOL    HW117825   0.004   2.846   3.703 -0.7433  1.5832  1.3617
 2122SOL    HW217826   4.695   2.853   3.841 -1.9818 -2.3733  0.5564
 2123SOL     OW17827   0.454   3.524   4.543 -0.0358  0.0965 -0.1924
 2123SOL    HW117828   0.415   3.573   4.615 -0.4482  0.5437 -0.7221
 2123SOL    HW217829   0.422   3.435   4.559 -1.8304  1.2936  2.8495
 2124SOL     OW17830   1.732   4.329   8.016 -0.3480 -0.4340 -0.2363
 2124SOL    HW117831   1.721   4.330   8.111  0.2124  2.7209 -0.2031
 2124SOL    HW217832   1.642   4.347   7.988 -0.7676 -1.7434  0.2598
 2125SOL     OW17833   4.461   1.488   8.264  0.4266 -0.0203  0.0819
 2125SOL    HW117834   4.403   1.561   8.242 -1.0219 -1.1660  0.1168
 2125SOL    HW217835   4.483   1.494   8.357  1.3894  0.1844 -0.1559
 2126SOL     OW17836   2.237   2.217   2.104  0.0685  0.2939  0.2417
 2126SOL    HW117837   2.325   2.231   2.139 -0.3716  0.4963  1.2777
 2126SOL    HW217838   2.227   2.127   2.137  2.5697 -0.5225 -1.2271
 2127SOL     OW17839   3.530   2.053   4.021 -0.1092  0.2916 -0.4067
 2127SOL    HW117840   3.565   2.132   3.979  1.3242 -0.7316 -1.1480
 2127SOL    HW217841   3.465   2.035   3.953 -0.6386 -0.8000  0.3925
 2128SOL     OW17842   3.812   2.586  10.513  0.0971  0.6756 -0.3963
 2128SOL    HW117843   3.796   2.675  10.480  0.6441  0.6205 -0.8156
 2128SOL    HW217844   3.895   2.574  10.466 -0.0132 -2.4162  0.2390
 2129SOL     OW17845   1.628   4.568  16.198 -0.3025  0.1045 -0.0073
 2129SOL    HW117846   1.680   4.633  16.246  2.0935 -0.1534 -2.2919
 2129SOL    HW217847   1.617   4.617  16.117 -3.0000  0.2370  0.4109
 2130SOL     OW17848   4.082   1.838   3.242  0.3985  0.0258 -0.1777
 2130SOL    HW117849   4.022   1.773   3.205  0.2948  0.6032 -1.0219
 2130SOL    HW217850   4.113   1.874   3.159  2.1473 -3.0627 -0.8860
 2131SOL     OW17851   2.118   4.474   4.696 -0.4083 -0.0703 -0.5165
 2131SOL    HW117852   2.075   4.391   4.675 -1.9746  0.5905  0.0843
 2131SOL    HW217853   2.111   4.464   4.791 -0.7856 -1.4915 -0.6905
 2132SOL     OW17854   1.796   1.052   9.505  0.7363 -0.8691  0.2970
 2132SOL    HW117855   1.787   1.087   9.416 -1.1355 -4.6660 -1.0192
 2132SOL    HW217856   1.876   1.001   9.508  0.1730 -1.7057  1.0408
 2133SOL     OW17857   0.351   1.735  11.012  0.1968  0.0881 -0.3518
 2133SOL    HW117858   0.414   1.682  11.062 -0.2666 -0.2722 -0.1600
 2133SOL    HW217859   0.369   1.706  10.923 -0.0342 -1.0582 -0.0200
 2134SOL     OW17860   0.303   4.440   9.115 -0.2197  0.0951 -0.2721
 2134SOL    HW117861   0.298   4.355   9.072 -0.8404  0.1914 -0.3875
 2134SOL    HW217862   0.242   4.430   9.188  0.0255 -0.9723 -0.2119
 2135SOL     OW17863   0.601   2.467   3.334  0.3803  0.0291  0.5531
 2135SOL    HW117864   0.577   2.553   3.300  0.0463  0.1129  1.0100
 2135SOL    HW217865   0.523   2.451   3.387  0.8021 -0.1069  1.1272
 2136SOL     OW17866   1.110   0.144  16.656 -0.4772 -0.5035 -0.6580
 2136SOL    HW117867   1.056   0.073  16.691 -0.2373  0.1012  0.9442
 2136SOL    HW217868   1.183   0.095  16.619  0.1251 -0.6666  0.7786
 2137SOL     OW17869   4.098   2.271   3.941  0.3555 -0.1530  0.5578
 2137SOL    HW117870   4.138   2.191   3.976  0.9167  0.6138  1.6643
 2137SOL    HW217871   4.004   2.252   3.931  0.4226 -0.0887 -0.1357
 2138SOL     OW17872   4.668   1.227   8.654 -0.0654  0.2725  0.1320
 2138SOL    HW117873   4.688   1.315   8.622 -0.6262  0.5540  0.5602
 2138SOL    HW217874   4.622   1.258   8.732 -2.2695 -0.2300 -0.9569
 2139SOL     OW17875   1.302   4.389   6.614 -0.2656  0.3773  0.5421
 2139SOL    HW117876   1.346   4.305   6.601 -1.6524 -0.4162  0.9665
 2139SOL    HW217877   1.215   4.362   6.642 -0.3732  1.4406  1.2469
 2140SOL     OW17878   3.000   0.558   6.441 -0.0979  0.2921  0.1353
 2140SOL    HW117879   2.962   0.603   6.516  0.7734  2.4047 -0.6866
 2140SOL    HW217880   2.979   0.467   6.460  0.3755 -0.0898 -1.1461
 2141SOL     OW17881   3.657   0.025   4.027 -0.4449 -0.0729  0.5487
 2141SOL    HW117882   3.625   0.113   4.009 -1.7722 -0.5839  0.4385
 2141SOL    HW217883   3.631   4.724   3.938  0.2028 -0.8690  0.5862
 2142SOL     OW17884   1.208   0.625   1.342  0.0003 -0.1469  0.3470
 2142SOL    HW117885   1.232   0.601   1.432  2.9910 -0.5888 -0.6011
 2142SOL    HW217886   1.146   0.556   1.319 -1.0586  0.7598  0.4429
 2143SOL     OW17887   2.400   4.577   5.483  0.1564  0.3395  0.3979
 2143SOL    HW117888   2.490   4.591   5.453 -1.0140  2.3392 -2.2074
 2143SOL    HW217889   2.419   4.486   5.508  1.0572 -0.0732 -1.7148
 2144SOL     OW17890   3.782   0.846   4.037 -0.1347  0.3111 -0.6970
 2144SOL    HW117891   3.737   0.775   3.990 -0.4196  0.5010 -0.7057
 2144SOL    HW217892   3.753   0.925   3.992  0.5631  0.2806 -1.1931
 2145SOL     OW17893   4.145   3.359   8.774  0.3272  0.3638  0.0775
 2145SOL    HW117894   4.229   3.398   8.797  2.0505 -1.8435 -2.4764
 2145SOL    HW217895   4.162   3.271   8.741 -0.9999 -0.2718  1.1024
 2146SOL     OW17896   3.022   3.907   4.150  0.0278  0.4506 -0.6215
 2146SOL    HW117897   3.103   3.890   4.198 -0.7703 -2.1695 -0.1705
 2146SOL    HW217898   2.951   3.888   4.212 -2.3419  2.5252 -2.7688
 2147SOL     OW17899   1.753   2.313   0.856 -0.2709  0.0877 -0.2963
 2147SOL    HW117900   1.761   2.406   0.876  2.3689 -0.0114 -0.8898
 2147SOL    HW217901   1.749   2.312   0.760 -1.1922  1.7520 -0.2836
 2148SOL     OW17902   4.288   0.817   7.448 -0.7093 -0.2116 -0.1770
 2148SOL    HW117903   4.245   0.731   7.455 -1.5798  0.2559  0.1962
 2148SOL    HW217904   4.373   0.795   7.410 -0.5536  0.1281 -0.0216
 2149SOL     OW17905   2.730   3.425   8.642  0.1143 -0.2117  0.3271
 2149SOL    HW117906   2.791   3.426   8.716  0.5177 -0.1468 -0.0041
 2149SOL    HW217907   2.679   3.346   8.658 -2.1449  0.9248 -1.3576
 2150SOL     OW17908   4.472   3.168  13.412  0.0821 -0.7346  0.4850
 2150SOL    HW117909   4.441   3.081  13.436  2.3613 -2.0770 -1.4245
 2150SOL    HW217910   4.547   3.164  13.470 -0.0356  3.0899  0.9331
 2151SOL     OW17911   0.557   1.871   7.475  0.0929 -0.4681  0.1182
 2151SOL    HW117912   0.652   1.878   7.473  0.1921 -1.8924  0.3285
 2151SOL    HW217913   0.551   1.784   7.513  2.1749 -0.1103  1.2781
 2152SOL     OW17914   0.987   3.746  13.484  0.1652  0.0138 -0.2316
 2152SOL    HW117915   1.055   3.813  13.490  0.3837 -0.3662  1.6949
 2152SOL    HW217916   0.944   3.771  13.402 -0.3520  1.7984  0.5968
 2153SOL     OW17917   0.766   2.348  13.223 -0.0031  0.1882 -0.0008
 2153SOL    HW117918   0.859   2.349  13.200 -0.0750  1.6431 -0.2078
 2153SOL    HW217919   0.733   2.423  13.173  0.4623  1.4119  1.5115
 2154SOL     OW17920   4.026   0.283  12.028  0.9830 -0.1242 -0.5824
 2154SOL    HW117921   4.034   0.377  12.013 -4.7173  0.2553 -1.4829
 2154SOL    HW217922   4.086   0.236  11.970  1.9065  1.9666 -1.2954
 2155SOL     OW17923   4.088   0.051   6.092 -0.2272  1.0992  0.5879
 2155SOL    HW117924   3.997   0.072   6.074 -0.0078  0.6280 -1.0748
 2155SOL    HW217925   4.093   4.686   6.058 -0.7356  1.2856  0.0317
 2156SOL     OW17926   0.205   4.217  15.668  0.1938 -0.0215 -0.4127
 2156SOL    HW117927   0.159   4.294  15.637  3.7267  2.5611  0.7387
 2156SOL    HW217928   0.157   4.202  15.749 -1.0004  3.0972 -0.5774
 2157SOL     OW17929   3.954   2.899   2.756  0.0272 -0.2008  0.3359
 2157SOL    HW117930   3.905   2.824   2.791 -0.3986 -0.9467 -1.8649
 2157SOL    HW217931   3.935   2.977   2.808 -0.0685  0.0750 -0.1095
 2158SOL     OW17932   4.624   3.764   8.433 -0.0584  0.0120  0.4942
 2158SOL    HW117933   4.574   3.830   8.480  1.1956  1.3781 -0.1087
 2158SOL    HW217934   4.595   3.785   8.345 -2.1932  1.0515  1.4575
 2159SOL     OW17935   3.434   4.288   5.636 -0.0874  0.1529 -0.6155
 2159SOL    HW117936   3.451   4.200   5.670  3.7093  0.5834 -1.3516
 2159SOL    HW217937   3.431   4.267   5.543  2.0793  1.2087 -0.9346
 2160SOL     OW17938   2.810   2.870   8.293 -0.2831 -0.1736 -0.5051
 2160SOL    HW117939   2.796   2.825   8.377 -1.1339  1.7531  0.3667
 2160SOL    HW217940   2.748   2.942   8.296  0.4622  0.3631  2.2300
 2161SOL     OW17941   2.769   4.063   9.712 -0.2225  0.7239  0.2629
 2161SOL    HW117942   2.781   4.154   9.739  1.0568  0.3535  0.9375
 2161SOL    HW217943   2.734   4.020   9.790 -1.0072 -0.2982 -0.6469
 2162SOL     OW17944   2.497   0.371  11.730  0.0257 -0.0467 -0.0609
 2162SOL    HW117945   2.486   0.317  11.652 -1.5887  1.5803 -0.9710
 2162SOL    HW217946   2.505   0.455  11.684  0.8600  0.3027  0.7180
 2163SOL     OW17947   1.613   3.496   8.728  0.6847  0.2118  0.1738
 2163SOL    HW117948   1.622   3.571   8.787 -0.3623 -1.4651  2.4569
 2163SOL    HW217949   1.539   3.517   8.670  0.3387 -1.3811  0.0347
 2164SOL     OW17950   3.121   2.430   4.977 -0.1753  0.4662  0.5854
 2164SOL    HW117951   3.041   2.383   4.953 -0.9309  1.0197  2.0321
 2164SOL    HW217952   3.177   2.353   4.967  1.2726  1.3745  1.5494
 2165SOL     OW17953   2.877   1.052   4.970 -0.3616  0.5622  0.0205
 2165SOL    HW117954   2.842   1.019   5.052  1.1722 -0.9529  0.0711
 2165SOL    HW217955   2.929   1.124   5.006  2.9384 -3.1360  2.5825
 2166SOL     OW17956   4.257   2.015  11.670  0.1751  0.4932 -0.2276
 2166SOL    HW117957   4.298   1.980  11.748  1.0490 -0.0991 -0.9590
 2166SOL    HW217958   4.243   2.107  11.694 -0.5966  0.6037 -1.0657
 2167SOL     OW17959   3.777   3.309   0.153 -0.3874 -0.3337 -0.1086
 2167SOL    HW117960   3.815   3.370   0.090  0.5068  0.0666  0.8273
 2167SOL    HW217961   3.725   3.373   0.202 -0.9535 -1.3193  0.5724
 2168SOL     OW17962   3.864   2.307   5.648 -0.1155  0.3331 -0.6693
 2168SOL    HW117963   3.770   2.292   5.650 -0.3319  1.8466  0.8192
 2168SOL    HW217964   3.874   2.385   5.701  0.3735  0.0768 -0.3840
 2169SOL     OW17965   3.090   3.961   9.180 -0.2660  0.3318 -0.3041
 2169SOL    HW117966   3.041   4.043   9.189 -1.1014 -0.4431  2.2414
 2169SOL    HW217967   3.173   3.998   9.209 -1.5268  0.6008  2.9491
 2170SOL     OW17968   3.516   1.713  12.177 -0.0694 -0.2442  1.0838
 2170SOL    HW117969   3.424   1.686  12.178 -0.6041  1.6375  1.5850
 2170SOL    HW217970   3.563   1.642  12.222  1.9831 -0.5217 -1.5266
 2171SOL     OW17971   0.643   4.013   8.384 -0.3256  0.3726 -0.7287
 2171SOL    HW117972   0.577   4.010   8.315 -1.3248  0.1074  0.2364
 2171SOL    HW217973   0.698   3.947   8.343  1.8858  0.7807  1.5732
 2172SOL     OW17974   0.897   1.735   3.311 -0.2351 -0.5180  0.0802
 2172SOL    HW117975   0.894   1.799   3.240 -0.3841 -2.2819 -1.4834
 2172SOL    HW217976   0.977   1.689   3.290  1.7251  3.0559 -0.3385
 2173SOL     OW17977   3.633   4.043  15.062  0.2122 -0.3989 -0.4316
 2173SOL    HW117978   3.542   4.021  15.038  0.6282  0.7326 -2.9999
 2173SOL    HW217979   3.622   4.137  15.053 -1.8537 -0.5162  0.7004
 2174SOL     OW17980   2.777   3.583  11.121 -0.2439 -0.1943 -0.0530
 2174SOL    HW117981   2.809   3.494  11.110 -0.9642 -0.1564 -2.2629
 2174SOL    HW217982   2.732   3.583  11.206 -0.5256 -2.5762 -0.2022
 2175SOL     OW17983   1.605   1.014   9.714  0.0472  0.8179 -0.1384
 2175SOL    HW117984   1.571   0.925   9.724  2.3377  0.0306  0.6777
 2175SOL    HW217985   1.678   1.006   9.653  0.8714 -0.8557  1.0684
 2176SOL     OW17986   2.806   3.347   2.038 -0.3083 -0.4472 -0.4539
 2176SOL    HW117987   2.894   3.356   2.002 -0.1420  0.4624  0.1781
 2176SOL    HW217988   2.773   3.262   2.008 -0.2187 -0.0832 -1.6049
 2177SOL     OW17989   3.544   3.270  11.096 -0.1891  0.3948  0.3989
 2177SOL    HW117990   3.511   3.200  11.152  2.0893  0.3241  1.6842
 2177SOL    HW217991   3.551   3.341  11.160  1.1412  0.0654  0.6342
 2178SOL     OW17992   3.005   2.415   4.163 -0.1226  0.1989 -1.0341
 2178SOL    HW117993   2.972   2.499   4.131  2.3481 -0.0148 -4.1533
 2178SOL    HW217994   3.091   2.445   4.194 -0.3532 -1.3115  1.1066
 2179SOL     OW17995   2.929   3.694   7.823  0.1058  0.1725  0.3607
 2179SOL    HW117996   2.902   3.717   7.735  3.7238  1.2664 -0.4970
 2179SOL    HW217997   2.908   3.777   7.867  1.5034 -0.0719  1.5205
 2180SOL     OW17998   2.323   0.349   2.008  0.1525  0.4016 -1.2357
 2180SOL    HW117999   2.287   0.297   1.936 -2.1720 -0.1136  0.3159
 2180SOL    HW218000   2.275   0.431   1.993 -2.2107 -1.5031 -4.2207
 2181SOL     OW18001   0.535   2.946   5.038  0.0629  0.1053  0.0905
 2181SOL    HW118002   0.599   2.963   5.107  1.1076  0.5354 -0.9753
 2181SOL    HW218003   0.470   3.010   5.066  0.0351 -0.3467  1.0719
 2182SOL     OW18004   4.638   2.845   5.501  0.0442 -0.1136 -0.4026
 2182SOL    HW118005   4.709   2.903   5.530 -0.3883 -0.8553  2.1577
 2182SOL    HW218006   4.630   2.788   5.578 -0.0773 -0.9112 -1.0068
 2183SOL     OW18007   0.742   4.482   7.519 -0.3508 -0.2313  0.1859
 2183SOL    HW118008   0.740   4.548   7.588 -0.3990 -1.4689  1.3571
 2183SOL    HW218009   0.798   4.417   7.562 -1.1137 -1.3089 -0.4410
 2184SOL     OW18010   3.734   0.649   4.804 -0.3988 -0.3700 -0.1378
 2184SOL    HW118011   3.787   0.576   4.834 -0.0832 -1.2238 -2.7412
 2184SOL    HW218012   3.763   0.719   4.863  1.6670 -0.3110 -1.2100
 2185SOL     OW18013   4.072   3.133  14.497  0.3001 -0.2382  0.4342
 2185SOL    HW118014   4.051   3.068  14.564  0.3897 -0.7562 -0.0325
 2185SOL    HW218015   3.982   3.149  14.469  0.0359 -1.6535  0.4413
 2186SOL     OW18016   1.696   1.212   5.910  0.6067  0.4356 -0.6536
 2186SOL    HW118017   1.712   1.201   6.004 -0.4349 -0.0562 -0.5427
 2186SOL    HW218018   1.787   1.201   5.882  1.4374  1.9150  1.3685
 2187SOL     OW18019   0.343   0.816   3.330 -0.1912  0.4692 -0.4907
 2187SOL    HW118020   0.259   0.774   3.318  0.7867 -1.6141 -0.0709
 2187SOL    HW218021   0.394   0.745   3.369  1.5421  2.4785  1.0057
 2188SOL     OW18022   4.516   1.624   5.074  0.0112 -0.0205  0.0112
 2188SOL    HW118023   4.469   1.572   5.009  1.1447  0.1138 -0.9443
 2188SOL    HW218024   4.441   1.672   5.107  0.3618  0.0952  0.6363
 2189SOL     OW18025   1.363   3.436   6.023 -0.3703 -0.5330  0.4032
 2189SOL    HW118026   1.365   3.410   5.930  0.1370 -2.0738  0.8421
 2189SOL    HW218027   1.324   3.356   6.057 -1.0574  0.4441  1.8974
 2190SOL     OW18028   1.094   4.689   2.179 -0.1201  0.2286 -0.7245
 2190SOL    HW118029   1.017   4.700   2.235  0.2155 -0.7071 -0.0773
 2190SOL    HW218030   1.100   4.595   2.161  0.0667  0.6212 -2.6936
 2191SOL     OW18031   3.708   1.811   6.157 -0.3019 -0.5335  0.1382
 2191SOL    HW118032   3.659   1.842   6.233  1.2943  1.0726  0.4945
 2191SOL    HW218033   3.797   1.812   6.191  0.0960 -1.6978 -0.8509
 2192SOL     OW18034   2.755   0.535   9.754  0.4925  0.3996 -0.0539
 2192SOL    HW118035   2.724   0.623   9.778  1.0933  0.9173 -1.1958
 2192SOL    HW218036   2.746   0.490   9.839 -1.9455  1.9935  0.5558
 2193SOL     OW18037   2.362   4.547   3.902  0.2633  0.5258 -0.0580
 2193SOL    HW118038   2.266   4.552   3.898  0.1732 -0.4782  0.7502
 2193SOL    HW218039   2.380   4.520   3.812 -0.6293  0.3289 -0.1868
 2194SOL     OW18040   3.464   2.996   4.470 -0.0063 -0.1485  0.4230
 2194SOL    HW118041   3.439   3.084   4.497 -2.0472 -0.5825 -0.0417
 2194SOL    HW218042   3.397   2.942   4.512 -0.8261  0.3091 -0.2695
 2195SOL     OW18043   1.141   3.466  16.502 -0.2320  0.1898  0.7256
 2195SOL    HW118044   1.209   3.491  16.565  0.5591  0.5863 -0.2742
 2195SOL    HW218045   1.061   3.487  16.550  0.2570  0.2080  1.5400
 2196SOL     OW18046   1.730   0.406   5.358  0.1643 -0.1135  0.4626
 2196SOL    HW118047   1.747   0.461   5.435  0.9963 -0.2842  0.3985
 2196SOL    HW218048   1.663   0.348   5.393 -0.0333  0.8397  1.7077
 2197SOL     OW18049   3.344   0.249   5.706 -0.1974  0.0264  0.2613
 2197SOL    HW118050   3.393   0.238   5.787 -0.1181 -3.3643 -0.2483
 2197SOL    HW218051   3.283   0.318   5.733 -0.5786  0.2474 -1.1606
 2198SOL     OW18052   1.851   1.007   6.412  0.1057 -0.0404 -0.8170
 2198SOL    HW118053   1.857   0.918   6.376  1.3412 -0.3918  0.2737
 2198SOL    HW218054   1.936   1.008   6.455 -0.8912 -0.2110  1.1714
 2199SOL     OW18055   3.549   3.231   1.930  0.3805 -0.0564  0.4158
 2199SOL    HW118056   3.494   3.154   1.939  1.2679 -0.8868 -1.3750
 2199SOL    HW218057   3.515   3.273   1.851  1.9178 -0.0548 -0.2298
 2200SOL     OW18058   1.992   3.824   8.638  0.2325  0.6086 -0.7671
 2200SOL    HW118059   1.917   3.876   8.611 -0.8387 -0.5925 -0.1192
 2200SOL    HW218060   1.947   3.742   8.662 -0.4827  2.2503  3.4622
 2201SOL     OW18061   1.783   3.172   7.349  0.1773 -0.4482  0.3316
 2201SOL    HW118062   1.838   3.203   7.278 -1.2828  2.4332  0.4546
 2201SOL    HW218063   1.726   3.244   7.377  0.7560  0.8430 -1.8378
 2202SOL     OW18064   3.094   1.957   7.407  0.8627 -0.2344  0.1975
 2202SOL    HW118065   3.186   1.965   7.429  0.5102 -0.0924  1.6073
 2202SOL    HW218066   3.057   2.041   7.434  0.1127 -0.4392 -0.1638
 2203SOL     OW18067   0.263   4.134   8.059 -0.1838  0.0235  0.0226
 2203SOL    HW118068   0.285   4.213   8.108 -1.3564  0.8146 -0.7031
 2203SOL    HW218069   0.168   4.148   8.062 -0.3951 -0.8377 -2.1200
 2204SOL     OW18070   2.263   2.693  11.837 -0.4380  0.4493 -0.2642
 2204SOL    HW118071   2.355   2.718  11.844  0.6611 -3.0395 -2.6015
 2204SOL    HW218072   2.269   2.659  11.748  0.6221 -3.1623  1.1840
 2205SOL     OW18073   1.312   2.846   9.100 -0.0029  0.0438  0.1663
 2205SOL    HW118074   1.355   2.916   9.051 -0.3152  0.5659  0.6428
 2205SOL    HW218075   1.232   2.895   9.118 -0.8847 -1.7993  1.2059
 2206SOL     OW18076   1.957   3.447   3.388 -0.4847  0.1437  0.5636
 2206SOL    HW118077   1.999   3.467   3.472 -0.1533  0.0460  0.4198
 2206SOL    HW218078   1.916   3.363   3.406  0.3913 -0.3167  0.4242
 2207SOL     OW18079   3.539   0.153   1.884  0.4059 -0.0224  0.2065
 2207SOL    HW118080   3.518   0.200   1.803  1.1672 -0.4647 -0.2480
 2207SOL    HW218081   3.633   0.170   1.894  0.4797 -1.2489  1.4070
 2208SOL     OW18082   2.537   1.478   4.595 -0.6047  0.6749  0.3185
 2208SOL    HW118083   2.589   1.406   4.558 -3.2220 -1.4078  0.6438
 2208SOL    HW218084   2.453   1.475   4.550 -0.1528  0.2375 -0.5061
 2209SOL     OW18085   2.650   0.093   6.033  0.5977 -0.7810 -0.0877
 2209SOL    HW118086   2.706   0.081   5.957 -2.0684 -2.5695 -1.7785
 2209SOL    HW218087   2.589   0.019   6.030 -0.0245 -0.2392 -0.7683
 2210SOL     OW18088   4.288   1.525   2.108 -0.2462 -0.8087 -0.1177
 2210SOL    HW118089   4.370   1.504   2.152  0.4051 -0.6907 -1.2615
 2210SOL    HW218090   4.317   1.567   2.027 -1.4936 -2.6021 -1.4969
 2211SOL     OW18091   4.286   0.514   7.193 -0.3932 -0.1622 -0.0384
 2211SOL    HW118092   4.355   0.449   7.179  0.3419  1.0127 -1.8954
 2211SOL    HW218093   4.279   0.563   7.111 -1.7480  0.9736  0.7638
 2212SOL     OW18094   1.043   2.500   1.814 -0.0026 -0.3156 -0.2689
 2212SOL    HW118095   1.037   2.414   1.774 -0.5314 -1.8628  3.1539
 2212SOL    HW218096   0.967   2.500   1.872  0.0339  0.9466 -0.2182
 2213SOL     OW18097   1.027   2.211   2.456  0.3520 -0.2556 -0.1217
 2213SOL    HW118098   1.058   2.222   2.366  1.4054  0.3294  0.3096
 2213SOL    HW218099   1.106   2.248   2.495  0.2911  0.4267 -0.6431
 2214SOL     OW18100   2.059   2.008  15.878 -0.5654  0.7881 -0.0582
 2214SOL    HW118101   1.974   1.994  15.918 -0.9540  0.6526 -0.9448
 2214SOL    HW218102   2.042   2.082  15.819  0.5910 -0.9604 -2.6115
 2215SOL     OW18103   2.668   0.797   6.830 -0.0548  0.5244  0.2995
 2215SOL    HW118104   2.708   0.789   6.916 -1.2935 -0.9530  0.7289
 2215SOL    HW218105   2.575   0.777   6.839  0.2187 -1.9282 -2.2535
 2216SOL     OW18106   2.333   3.537  12.044 -0.4174 -0.0783  0.9404
 2216SOL    HW118107   2.321   3.617  11.993  1.3125 -0.8991 -0.7556
 2216SOL    HW218108   2.246   3.499  12.046  0.7077 -2.5421  2.4456
 2217SOL     OW18109   2.137   2.383   8.833  0.5186 -0.3157  0.5346
 2217SOL    HW118110   2.112   2.382   8.740  0.3152  1.2343  0.5684
 2217SOL    HW218111   2.191   2.306   8.854 -0.1426 -0.7608  0.5877
 2218SOL     OW18112   2.104   4.591   3.953 -0.3901 -0.0686  0.5928
 2218SOL    HW118113   2.107   4.679   3.916 -1.0877 -0.6514 -0.8817
 2218SOL    HW218114   2.023   4.554   3.916  0.5672  0.5002 -2.0871
 2219SOL     OW18115   1.013   1.149   4.950  0.2715  0.6699 -0.1414
 2219SOL    HW118116   0.956   1.207   5.000  1.8316 -0.4987  2.9857
 2219SOL    HW218117   0.962   1.073   4.980 -0.8804 -0.3007 -4.5734
 2220SOL     OW18118   4.261   0.466  16.328  0.7892 -0.0544  0.0237
 2220SOL    HW118119   4.299   0.553  16.313  0.3320  0.5760  2.4858
 2220SOL    HW218120   4.322   0.435  16.396  0.9539  0.7281  0.2349
 2221SOL     OW18121   4.508   2.058   3.855 -0.3136 -0.2514  0.0640
 2221SOL    HW118122   4.475   2.028   3.770 -1.0173  0.3418  0.1289
 2221SOL    HW218123   4.551   2.139   3.826  0.7368 -1.0487 -0.6083
 2222SOL     OW18124   4.581   4.664  16.804  0.1476 -0.6309 -0.1912
 2222SOL    HW118125   4.642   4.716  16.751  0.5111  1.1557  2.0082
 2222SOL    HW218126   4.629   4.639  16.883 -0.4552  1.0834  0.7114
 2223SOL     OW18127   2.590   3.249   2.402 -0.6431  0.3408  0.1722
 2223SOL    HW118128   2.559   3.211   2.484 -1.0172  0.8763  0.2787
 2223SOL    HW218129   2.685   3.259   2.410 -0.4678 -1.1678 -0.0819
 2224SOL     OW18130   2.970   2.694   4.079  0.4542  0.5539  0.0095
 2224SOL    HW118131   2.934   2.718   3.994  1.2525 -0.4220 -0.6115
 2224SOL    HW218132   3.049   2.747   4.066  1.5216 -0.3068  2.9803
 2225SOL     OW18133   0.291   3.682   3.154  0.0701 -0.1781  0.3108
 2225SOL    HW118134   0.366   3.659   3.099  0.9136 -0.3356  1.5328
 2225SOL    HW218135   0.218   3.692   3.092  0.9169  1.4990 -0.4081
 2226SOL     OW18136   4.237   4.418   5.848  0.4444 -0.8247  0.1707
 2226SOL    HW118137   4.142   4.424   5.841  0.2514 -2.7141  0.9837
 2226SOL    HW218138   4.257   4.458   5.932 -2.9060  0.0540  0.5216
 2227SOL     OW18139   4.533   3.622   2.737  0.2309  0.1086 -0.2728
 2227SOL    HW118140   4.626   3.611   2.715 -0.2837  0.6576 -2.6719
 2227SOL    HW218141   4.498   3.536   2.761  2.4133 -0.2854  1.5558
 2228SOL     OW18142   3.538   2.838   8.916  0.1579  0.2258 -0.2223
 2228SOL    HW118143   3.549   2.824   8.821  2.5267 -0.9711  0.2382
 2228SOL    HW218144   3.621   2.876   8.941  0.0375 -0.0666  0.6035
 2229SOL     OW18145   2.099   2.014   4.555  0.0142 -0.1434  0.3244
 2229SOL    HW118146   2.077   1.958   4.481  0.0412  0.7034 -0.3361
 2229SOL    HW218147   2.015   2.005   4.600  0.9425  1.5037  2.3571
 2230SOL     OW18148   0.469   2.725   9.686 -0.1956 -0.3558 -0.0695
 2230SOL    HW118149   0.547   2.779   9.691 -0.1591 -0.3234 -1.0252
 2230SOL    HW218150   0.424   2.762   9.762 -1.6988 -0.6136 -0.8316
 2231SOL     OW18151   2.221   3.951   4.138 -0.1261  0.3346 -0.0395
 2231SOL    HW118152   2.285   4.016   4.109  0.3231 -1.0076 -2.0272
 2231SOL    HW218153   2.149   3.968   4.077 -0.4863 -0.0268  0.2817
 2232SOL     OW18154   2.235   1.060   5.942  0.2096 -0.4063  0.0881
 2232SOL    HW118155   2.295   1.133   5.926 -1.0052  0.2586 -1.4544
 2232SOL    HW218156   2.198   1.028   5.860  2.5401 -1.0957 -0.6994
 2233SOL     OW18157   4.279   4.612   2.703  0.0824 -0.4175 -0.1945
 2233SOL    HW118158   4.294   4.703   2.731  1.2394 -0.8504  0.5964
 2233SOL    HW218159   4.225   4.590   2.779 -1.5332  1.3228 -0.8281
 2234SOL     OW18160   3.295   1.054   0.335  0.2948  0.1899  0.1706
 2234SOL    HW118161   3.372   1.105   0.310 -1.4786  1.6431 -2.3625
 2234SOL    HW218162   3.342   0.975   0.363  1.4247  0.7963 -0.0180
 2235SOL     OW18163   4.682   3.654   5.634  0.3171 -0.1231 -0.0608
 2235SOL    HW118164   4.706   3.663   5.542  2.2807 -0.1800  0.4416
 2235SOL    HW218165   4.597   3.697   5.644 -0.5153 -1.8571  0.2641
 2236SOL     OW18166   1.715   3.801   3.558 -0.3216  0.0042 -0.5150
 2236SOL    HW118167   1.798   3.827   3.597 -0.8342 -1.7496  1.7386
 2236SOL    HW218168   1.662   3.828   3.633 -0.3929  0.9220 -0.9024
 2237SOL     OW18169   0.272   2.295  17.547  0.5248  0.4168  0.0253
 2237SOL    HW118170   0.348   2.241  17.525 -1.2894 -2.3940  0.5980
 2237SOL    HW218171   0.215   2.227  17.583  1.9605 -1.9458 -2.1620
 2238SOL     OW18172   3.058   3.076   8.825  0.6517 -0.5134  0.1318
 2238SOL    HW118173   3.131   3.130   8.794 -0.6594  0.5864 -1.0438
 2238SOL    HW218174   3.123   3.009   8.847  0.3351 -0.9420 -0.2204
 2239SOL     OW18175   3.217   0.897   7.149 -0.9749  0.5140 -0.4686
 2239SOL    HW118176   3.302   0.902   7.191 -0.6191 -1.2214 -0.9506
 2239SOL    HW218177   3.243   0.886   7.057 -0.4471 -1.0792 -0.1350
 2240SOL     OW18178   1.503   0.503  17.640  0.5111  0.5040 -0.0085
 2240SOL    HW118179   1.532   0.594  17.641  1.5089  0.1784  0.4533
 2240SOL    HW218180   1.465   0.488   0.026 -0.1643  0.1146 -0.3687
 2241SOL     OW18181   0.714   3.747   4.942 -0.4988 -0.1542  0.1466
 2241SOL    HW118182   0.692   3.782   4.855  0.1559  1.5900  0.6791
 2241SOL    HW218183   0.769   3.673   4.915  0.3840 -0.1595  1.9943
 2242SOL     OW18184   0.350   0.834   8.784  0.2139  0.7111  0.6014
 2242SOL    HW118185   0.267   0.848   8.829 -2.1753  0.4899 -3.8033
 2242SOL    HW218186   0.411   0.823   8.858  0.8324  2.3438  0.3275
 2243SOL     OW18187   2.355   0.588   8.485  0.2121  0.1422  0.1545
 2243SOL    HW118188   2.336   0.610   8.576  0.7240  1.2280 -0.0122
 2243SOL    HW218189   2.262   0.579   8.464  0.6152 -1.7607 -0.8426
 2244SOL     OW18190   3.226   0.704   2.404  0.7738 -0.2986 -0.7697
 2244SOL    HW118191   3.241   0.616   2.438 -0.1275 -0.4325 -0.7294
 2244SOL    HW218192   3.291   0.748   2.459 -1.5057  0.0311  1.6554
 2245SOL     OW18193   3.002   3.558   1.218  0.2488  0.4298 -0.0286
 2245SOL    HW118194   2.915   3.567   1.255  0.0640 -0.9318 -0.1117
 2245SOL    HW218195   3.007   3.462   1.225  0.1374  0.5274  1.2345
 2246SOL     OW18196   3.540   0.072   3.055  0.1610 -0.7056 -0.1921
 2246SOL    HW118197   3.491   0.014   2.996  2.1488 -1.0249 -1.5341
 2246SOL    HW218198   3.495   0.038   3.132  0.3756  0.6180  0.5114
 2247SOL     OW18199   2.573   2.925   0.787  0.6737 -0.4795  1.1456
 2247SOL    HW118200   2.493   2.950   0.834  0.0382  0.2436 -0.3035
 2247SOL    HW218201   2.635   2.905   0.857  1.3575 -2.2300  0.0315
 2248SOL     OW18202   4.323   0.841   4.196 -0.0453 -0.4777  0.2434
 2248SOL    HW118203   4.244   0.874   4.239 -1.1071 -0.9929 -1.3222
 2248SOL    HW218204   4.365   0.788   4.264  0.4998 -0.0121  0.2779
 2249SOL     OW18205   0.669   1.153  10.576  0.1307  0.0992  0.3422
 2249SOL    HW118206   0.686   1.205  10.655  1.0903 -2.0857  1.5805
 2249SOL    HW218207   0.575   1.169  10.583 -0.1244 -1.8488  1.3851
 2250SOL     OW18208   2.107   4.262   9.106 -0.1144 -0.0972  0.0978
 2250SOL    HW118209   2.153   4.185   9.073 -1.0575 -0.5903 -0.0541
 2250SOL    HW218210   2.143   4.338   9.059  0.2082 -0.0572  0.4062
 2251SOL     OW18211   1.596   0.429   6.167  0.3894 -0.1292 -0.4153
 2251SOL    HW118212   1.655   0.397   6.236  0.6486  0.8340 -0.1909
 2251SOL    HW218213   1.594   0.346   6.118  0.1140  0.3345 -1.1908
 2252SOL     OW18214   3.513   1.368   4.073 -0.5280  0.1357  0.4952
 2252SOL    HW118215   3.500   1.287   4.024  0.7939  0.6685 -0.7469
 2252SOL    HW218216   3.427   1.408   4.083 -1.1075 -1.1365  0.6257
 2253SOL     OW18217   2.146   4.696   8.817 -0.1750 -0.1891 -0.2327
 2253SOL    HW118218   2.075   4.647   8.859 -0.2518 -0.6808 -0.9404
 2253SOL    HW218219   2.091   0.007   8.748  0.2543 -1.3322 -1.1581
 2254SOL     OW18220   2.782   4.500   1.887 -0.2545  0.0611 -0.5807
 2254SOL    HW118221   2.711   4.483   1.825 -0.7173 -0.3249  0.0662
 2254SOL    HW218222   2.828   4.568   1.838  0.8666 -0.1288  0.2207
 2255SOL     OW18223   0.418   1.624   8.941 -0.4287  0.0098 -0.1341
 2255SOL    HW118224   0.494   1.678   8.963 -1.1543  2.2676 -3.1582
 2255SOL    HW218225   0.450   1.595   8.856  1.5899  1.4917  0.1212
 2256SOL     OW18226   1.608   3.128   9.175 -0.3702  0.4804 -0.0229
 2256SOL    HW118227   1.648   3.158   9.256 -1.1091  0.0460  0.5096
 2256SOL    HW218228   1.679   3.071   9.144 -0.1264  0.8223 -0.0899
 2257SOL     OW18229   4.140   4.089   4.454 -0.6467 -0.9512 -0.0115
 2257SOL    HW118230   4.046   4.109   4.458 -0.6019 -0.6193 -0.5336
 2257SOL    HW218231   4.161   4.128   4.369  1.1036 -0.0003  0.8619
 2258SOL     OW18232   0.227   2.212  16.880 -0.2917  0.3210  0.6832
 2258SOL    HW118233   0.264   2.220  16.967  0.1794  1.6518  0.3646
 2258SOL    HW218234   0.306   2.168  16.848 -1.3973 -0.0509 -1.5703
 2259SOL     OW18235   0.006   0.686  14.149  0.5663 -0.8277 -0.1793
 2259SOL    HW118236   0.094   0.709  14.178  1.6316 -1.7468 -2.7148
 2259SOL    HW218237   0.016   0.592  14.160  3.2351 -0.4279  0.7072
 2260SOL     OW18238   4.021   2.025   4.132 -0.1177 -0.4283  0.0091
 2260SOL    HW118239   3.976   2.099   4.093  0.0644  0.0392  0.6805
 2260SOL    HW218240   4.113   2.052   4.140 -0.0247 -0.8243  0.3160
 2261SOL     OW18241   3.910   0.289   4.657  0.1760 -0.3529 -0.2003
 2261SOL    HW118242   3.941   0.295   4.747  0.0845 -1.1352 -0.1183
 2261SOL    HW218243   3.880   0.378   4.637 -1.6002 -0.9203 -0.0483
 2262SOL     OW18244   0.899   3.682   5.685  0.2693 -0.3112  0.2388
 2262SOL    HW118245   0.921   3.591   5.665 -0.4502 -0.3037 -0.6154
 2262SOL    HW218246   0.827   3.662   5.745 -2.4238  0.4634 -2.6580
 2263SOL     OW18247   4.058   1.050   3.966  0.0102  0.7924 -0.4256
 2263SOL    HW118248   4.025   1.135   3.939 -0.9345  0.9871  1.3124
 2263SOL    HW218249   4.092   1.075   4.052  1.4120  0.3146 -0.8431
 2264SOL     OW18250   2.843   2.829  16.302 -0.1654 -0.1668 -0.0932
 2264SOL    HW118251   2.835   2.858  16.211  2.2810 -0.5252 -0.4117
 2264SOL    HW218252   2.764   2.775  16.294 -0.0386 -0.6391  1.8219
 2265SOL     OW18253   4.446   4.434   5.519  0.4257  0.2097  0.1348
 2265SOL    HW118254   4.528   4.384   5.522 -0.0603 -0.6037 -0.1871
 2265SOL    HW218255   4.445   4.441   5.424  2.6376  2.1216  0.2677
 2266SOL     OW18256   0.849   2.563   4.844 -0.1268 -0.3390 -0.0298
 2266SOL    HW118257   0.903   2.488   4.820 -0.0019 -1.3921  3.5055
 2266SOL    HW218258   0.890   2.634   4.794 -0.3407  1.2942  2.1027
 2267SOL     OW18259   0.228   0.042   9.225  0.9819 -0.6097  0.0151
 2267SOL    HW118260   0.135   0.020   9.228  0.5720  1.2600  0.8212
 2267SOL    HW218261   0.225   0.086   9.139  0.2665 -1.7677 -0.5484
 2268SOL     OW18262   0.422   2.561   4.407  0.6052 -0.2234  0.1056
 2268SOL    HW118263   0.427   2.625   4.336 -1.7750 -0.1371  0.0249
 2268SOL    HW218264   0.388   2.486   4.358 -0.6088  1.1827 -1.1971
 2269SOL     OW18265   3.052   1.879   8.294 -0.1440 -0.0946  0.2902
 2269SOL    HW118266   3.014   1.825   8.225  2.1136  0.9811 -1.8193
 2269SOL    HW218267   3.070   1.815   8.363 -4.2638 -0.9459  0.5539
 2270SOL     OW18268   3.409   3.721   5.780  0.4105  0.2551 -0.1238
 2270SOL    HW118269   3.352   3.650   5.750  0.2526  0.2835  0.1086
 2270SOL    HW218270   3.440   3.752   5.695 -0.1015  2.4444  0.4833
 2271SOL     OW18271   4.614   0.103   5.493  0.2150 -0.4868  0.0338
 2271SOL    HW118272   4.605   0.049   5.414  0.6800  0.8963 -0.9588
 2271SOL    HW218273   4.552   0.059   5.551 -1.4657  2.5697  0.5732
 2272SOL     OW18274   1.248   4.458   3.032 -0.7445  0.0175  0.3103
 2272SOL    HW118275   1.311   4.415   2.974  1.5391  1.1140  1.9725
 2272SOL    HW218276   1.279   4.423   3.116 -0.2863  1.5410  0.7681
 2273SOL     OW18277   1.120   0.091   6.122 -0.3186 -0.6477  0.5487
 2273SOL    HW118278   1.185   0.160   6.111  1.1294 -2.3011 -1.2630
 2273SOL    HW218279   1.172   0.011   6.122 -1.6123 -1.4931  0.1202
 2274SOL     OW18280   3.745   0.594   6.359  0.2794 -0.6396 -0.3091
 2274SOL    HW118281   3.656   0.592   6.393 -0.4323  1.2125 -2.1113
 2274SOL    HW218282   3.736   0.561   6.270 -0.5894 -1.7155  0.1720
 2275SOL     OW18283   0.592   3.267   5.705  0.5386 -0.3572  0.0450
 2275SOL    HW118284   0.506   3.236   5.676  0.5361 -0.1554 -0.1607
 2275SOL    HW218285   0.632   3.187   5.739 -0.6646  0.6426  3.7394
 2276SOL     OW18286   4.025   0.449   8.848  0.1398 -0.1882 -0.3726
 2276SOL    HW118287   4.036   0.514   8.779 -2.8111  0.7228  0.0166
 2276SOL    HW218288   3.931   0.464   8.863  0.0771 -1.0368  0.0907
 2277SOL     OW18289   3.449   1.986  10.724 -0.4797  0.9018  0.3785
 2277SOL    HW118290   3.407   1.925  10.663 -1.3339  0.0686  1.8004
 2277SOL    HW218291   3.456   2.066  10.671  1.5918  2.1687  2.5536
 2278SOL     OW18292   3.279   0.637   0.350  0.2767  0.1651  0.2287
 2278SOL    HW118293   3.223   0.711   0.327  1.3013  0.4553 -1.3484
 2278SOL    HW218294   3.343   0.691   0.395 -1.8057  1.5669  1.5262
 2279SOL     OW18295   1.212   2.320   8.186 -0.0372 -0.3276  0.0244
 2279SOL    HW118296   1.251   2.343   8.101 -1.1246 -0.0930 -0.4112
 2279SOL    HW218297   1.133   2.277   8.154  0.4346 -0.0210 -1.5439
 2280SOL     OW18298   0.295   0.883   4.803  0.6256  0.2696  0.4050
 2280SOL    HW118299   0.368   0.875   4.741 -0.6861  1.6785 -1.3317
 2280SOL    HW218300   0.221   0.901   4.745  1.5562  3.1767  0.1092
 2281SOL     OW18301   1.567   2.256  10.978  0.0429 -0.2089  0.5361
 2281SOL    HW118302   1.603   2.311  11.047  0.7225 -0.9224  0.7532
 2281SOL    HW218303   1.609   2.179  11.017  2.1517  0.7687  0.1855
 2282SOL     OW18304   0.373   4.358  16.316  0.8368 -0.2161  0.0373
 2282SOL    HW118305   0.404   4.416  16.245 -0.4059  0.9781  0.4648
 2282SOL    HW218306   0.456   4.358  16.364  1.4534  0.1951 -1.0216
 2283SOL     OW18307   3.927   0.397   6.827  0.1649 -0.4949  0.2771
 2283SOL    HW118308   3.874   0.471   6.798 -1.8822 -1.6511  1.0874
 2283SOL    HW218309   4.015   0.434   6.827 -0.0356 -0.0238  0.0578
 2284SOL     OW18310   0.598   3.903   7.195 -0.4726 -1.2287  0.1493
 2284SOL    HW118311   0.549   3.897   7.113  2.7895 -0.2327 -1.9127
 2284SOL    HW218312   0.526   3.887   7.256 -0.6787  0.0684  0.2385
 2285SOL     OW18313   2.381   4.006   6.419 -0.1059 -0.0605 -0.0054
 2285SOL    HW118314   2.401   4.082   6.474  0.8511  0.5877 -1.2469
 2285SOL    HW218315   2.301   4.045   6.384  0.5802  1.4105  0.0778
 2286SOL     OW18316   2.531   1.687   7.191 -0.3445  0.3097  0.4338
 2286SOL    HW118317   2.510   1.641   7.110  0.8898  1.1229 -0.3296
 2286SOL    HW218318   2.500   1.619   7.252  2.8528 -2.1220 -0.6574
 2287SOL     OW18319   0.985   1.201   9.417  0.5308  0.4262 -0.1036
 2287SOL    HW118320   0.908   1.144   9.419 -0.5087  1.8895  1.7212
 2287SOL    HW218321   1.044   1.146   9.366 -0.3814 -1.0250  0.4015
 2288SOL     OW18322   3.252   1.181  16.309 -0.3961 -0.9292  0.5392
 2288SOL    HW118323   3.278   1.089  16.320 -0.4788 -1.3094 -2.3111
 2288SOL    HW218324   3.328   1.217  16.354 -1.1061  2.9056 -1.3546
 2289SOL     OW18325   0.152   4.193  16.404 -0.4360  0.4066 -0.2352
 2289SOL    HW118326   0.202   4.173  16.482  0.2866  3.8484  0.1990
 2289SOL    HW218327   0.212   4.259  16.368 -0.3036  0.7929  0.6827
 2290SOL     OW18328   1.866   1.223   4.016 -0.3270  0.1108  0.0482
 2290SOL    HW118329   1.785   1.198   3.971  1.0506 -0.9596 -1.8285
 2290SOL    HW218330   1.920   1.159   3.971  0.1669  0.9082 -0.5057
 2291SOL     OW18331   3.823   1.144   3.513 -0.2845 -0.0438  0.3300
 2291SOL    HW118332   3.741   1.180   3.479  1.3256  3.5591  0.2860
 2291SOL    HW218333   3.810   1.141   3.608 -0.7558 -1.0991  0.2329
 2292SOL     OW18334   1.512   2.460  12.032  0.2612  0.5360 -0.4886
 2292SOL    HW118335   1.554   2.376  12.052  1.7829  0.7066 -2.9421
 2292SOL    HW218336   1.509   2.450  11.937 -2.3637 -0.5108 -0.3096
 2293SOL     OW18337   0.043   2.397   3.059 -0.5218  0.3501 -0.5846
 2293SOL    HW118338   0.046   2.382   2.964  1.5161  0.1168 -0.4795
 2293SOL    HW218339   0.101   2.469   3.080  0.8019 -1.4312  1.8326
 2294SOL     OW18340   3.906   1.951   8.681 -0.4436 -0.3687  0.6217
 2294SOL    HW118341   3.826   1.972   8.730 -0.6722  1.9294 -0.7537
 2294SOL    HW218342   3.869   1.951   8.593  2.4551 -0.5253 -0.6036
 2295SOL     OW18343   3.288   4.024   8.635  0.5030  0.7143 -0.0538
 2295SOL    HW118344   3.354   4.067   8.690  1.5688 -2.3067  1.0423
 2295SOL    HW218345   3.241   3.980   8.706  0.6080 -0.0745 -0.4687
 2296SOL     OW18346   0.117   2.328   0.704  0.0501 -0.7678 -0.6757
 2296SOL    HW118347   0.166   2.303   0.626  0.5704  2.6143 -1.4646
 2296SOL    HW218348   0.094   2.244   0.743  1.6130  0.0127  1.9217
 2297SOL     OW18349   3.150   2.281   2.237  0.6636  0.1299 -0.0505
 2297SOL    HW118350   3.096   2.260   2.313  2.1715 -0.2078  0.9206
 2297SOL    HW218351   3.139   2.375   2.230  1.0964  0.1972  0.1875
 2298SOL     OW18352   0.384   0.585   7.306 -0.3211 -0.3883  0.1051
 2298SOL    HW118353   0.342   0.621   7.227  0.3113  1.2567  0.5243
 2298SOL    HW218354   0.455   0.531   7.268 -1.4072 -0.7711 -1.3853
 2299SOL     OW18355   0.255   3.187  17.051  0.2297  0.6113  0.1713
 2299SOL    HW118356   0.198   3.263  17.055 -0.0714  0.3883  0.1318
 2299SOL    HW218357   0.300   3.209  16.969  0.2546 -0.6725 -0.1604
 2300SOL     OW18358   1.008   2.098  10.366 -0.5096  0.0982  0.1975
 2300SOL    HW118359   1.102   2.088  10.383 -0.4627 -2.4595 -1.6291
 2300SOL    HW218360   1.001   2.173  10.307 -0.9113 -1.5357 -1.7987
 2301SOL     OW18361   2.937   0.040  10.467  0.1886  0.3000  0.5140
 2301SOL    HW118362   2.884   0.041  10.547 -0.1486 -1.4483  0.3156
 2301SOL    HW218363   2.870   0.009  10.406  0.3570 -1.5036  1.2330
 2302SOL     OW18364   0.311   3.320   8.513  0.2230 -0.1125 -0.0124
 2302SOL    HW118365   0.325   3.317   8.607 -0.5682 -2.1967  0.0261
 2302SOL    HW218366   0.328   3.231   8.481 -3.0680 -0.5264 -0.5605
 2303SOL     OW18367   3.945   4.113   3.651  0.4544  0.0411  0.3723
 2303SOL    HW118368   3.952   4.066   3.567 -1.8820 -0.4548  0.4608
 2303SOL    HW218369   4.009   4.081   3.715 -2.0103 -2.6396  1.4735
 2304SOL     OW18370   1.962   0.456   8.121  0.0701 -0.3406  0.1193
 2304SOL    HW118371   1.867   0.448   8.135  0.1109  0.5819  0.9470
 2304SOL    HW218372   1.986   0.366   8.143 -0.7263 -1.0023 -1.7039
 2305SOL     OW18373   2.409   1.286   6.343 -0.0465  0.5648 -0.3096
 2305SOL    HW118374   2.347   1.310   6.274 -2.4233  2.1198  2.3953
 2305SOL    HW218375   2.424   1.196   6.315 -1.3705 -0.2339  1.5631
 2306SOL     OW18376   1.415   0.276   0.431  0.3403 -0.1990  0.1278
 2306SOL    HW118377   1.442   0.360   0.469 -2.0106  1.7499 -2.5746
 2306SOL    HW218378   1.382   0.230   0.508 -2.7493  0.3196 -0.8837
 2307SOL     OW18379   2.499   1.979   2.060  0.1465  0.4850  0.5005
 2307SOL    HW118380   2.511   2.012   1.971 -1.9193  0.3547  0.1773
 2307SOL    HW218381   2.426   1.918   2.065  0.8343 -0.4223 -0.3287
 2308SOL     OW18382   4.431   1.748  15.672  0.0160  0.4253 -0.2698
 2308SOL    HW118383   4.477   1.832  15.671  0.2184  0.3376  0.9051
 2308SOL    HW218384   4.421   1.722  15.764  0.3601  0.7141 -0.1469
 2309SOL     OW18385   1.936   2.819   1.472 -0.8266  0.7469 -0.2578
 2309SOL    HW118386   1.935   2.829   1.377  1.6404 -0.8294 -0.4343
 2309SOL    HW218387   1.849   2.780   1.484 -1.8678  2.4856 -2.1347
 2310SOL     OW18388   2.919   2.092   9.756 -0.2523  0.3930  0.4397
 2310SOL    HW118389   2.836   2.133   9.732  1.0449  1.2299 -2.6832
 2310SOL    HW218390   2.977   2.151   9.707  0.6529 -1.9833 -1.3484
 2311SOL     OW18391   2.621   3.773  14.809 -0.2074  0.0031 -0.3379
 2311SOL    HW118392   2.552   3.807  14.866 -0.6167  0.4830 -1.1114
 2311SOL    HW218393   2.580   3.709  14.752  2.3933 -0.3921 -1.7745
 2312SOL     OW18394   1.748   4.044   3.924 -0.1318 -0.2236 -0.1098
 2312SOL    HW118395   1.752   4.103   3.849 -0.0067 -0.7005 -0.4808
 2312SOL    HW218396   1.744   4.102   4.000  3.6054 -0.4233  0.2255
 2313SOL     OW18397   2.580   2.602   4.056 -0.5357  0.3000 -0.4117
 2313SOL    HW118398   2.587   2.510   4.079  1.1916  0.2024 -1.3050
 2313SOL    HW218399   2.491   2.618   4.087 -1.4822 -0.7125 -2.5398
 2314SOL     OW18400   3.851   3.020   0.063  0.4735  0.5251  0.1479
 2314SOL    HW118401   3.766   2.998   0.100  0.6016 -0.1603  0.0344
 2314SOL    HW218402   3.850   3.110   0.096 -0.1919  1.0263 -1.2795
 2315SOL     OW18403   2.953   4.671   7.381  0.0343  0.8330  0.4484
 2315SOL    HW118404   2.980   0.033   7.352 -1.2160  1.6086  1.6108
 2315SOL    HW218405   3.033   4.620   7.390 -0.9176 -0.1021  3.7278
 2316SOL     OW18406   2.161   4.409   9.579 -0.1179 -0.4952  0.4125
 2316SOL    HW118407   2.133   4.354   9.506  1.9816  0.2829 -0.9514
 2316SOL    HW218408   2.116   4.379   9.658 -1.3498 -0.1225 -0.1436
 2317SOL     OW18409   0.614   2.087   7.285  0.4349 -0.0589  0.2228
 2317SOL    HW118410   0.612   2.001   7.326 -0.6043 -0.6128 -0.9823
 2317SOL    HW218411   0.682   2.130   7.337  2.5294 -2.0867 -0.8378
 2318SOL     OW18412   2.091   3.779  15.061 -0.0810 -0.0352 -0.4080
 2318SOL    HW118413   2.055   3.793  15.149  0.5260  1.6431 -0.4256
 2318SOL    HW218414   2.060   3.690  15.043 -2.0964  0.9074 -1.5943
 2319SOL     OW18415   2.611   3.783   0.299 -0.4606  0.2605  0.0040
 2319SOL    HW118416   2.659   3.733   0.233 -0.1068 -2.4539  2.3196
 2319SOL    HW218417   2.665   3.773   0.376  0.0087 -1.2184 -0.5164
 2320SOL     OW18418   2.799   0.811   8.678  0.0830  0.0866 -0.3976
 2320SOL    HW118419   2.712   0.784   8.647 -0.5301  0.2797  1.1352
 2320SOL    HW218420   2.856   0.751   8.631 -0.3568 -0.5643 -0.1075
 2321SOL     OW18421   2.377   3.079   4.536  0.5181 -0.1662 -0.2498
 2321SOL    HW118422   2.314   3.047   4.600 -0.3004  1.7306 -0.1073
 2321SOL    HW218423   2.450   3.017   4.542 -0.3425 -1.2014 -0.6398
 2322SOL     OW18424   0.485   1.987   6.561  0.1784 -0.4341  0.2783
 2322SOL    HW118425   0.428   1.911   6.574  0.0928 -0.6240 -1.1394
 2322SOL    HW218426   0.484   2.020   6.650 -0.9892  1.4847 -0.4433
 2323SOL     OW18427   2.859   3.587   7.275 -0.4982 -0.0990  0.2727
 2323SOL    HW118428   2.874   3.661   7.217  0.6182  1.3950  2.4466
 2323SOL    HW218429   2.916   3.523   7.233 -0.4668  0.7071 -0.9145
 2324SOL     OW18430   3.115   2.383   2.867  0.3936  0.5287 -0.4180
 2324SOL    HW118431   3.028   2.381   2.828  0.9158 -2.6428 -1.3932
 2324SOL    HW218432   3.095   2.420   2.953  2.5308 -2.1930  1.2514
 2325SOL     OW18433   0.403   4.397   3.819 -0.1793 -0.7198  0.7623
 2325SOL    HW118434   0.335   4.461   3.841 -1.3736 -1.1342 -1.5979
 2325SOL    HW218435   0.389   4.390   3.724  0.7518  0.3892  0.5547
 2326SOL     OW18436   4.575   2.009   4.837 -0.3043 -0.7827 -0.0927
 2326SOL    HW118437   4.646   1.982   4.895  1.0540 -0.3361 -1.5496
 2326SOL    HW218438   4.493   1.986   4.880 -0.3505 -0.0737  0.1909
 2327SOL     OW18439   1.913   1.784   6.090  0.8697 -0.2763 -0.1676
 2327SOL    HW118440   1.836   1.840   6.084  0.6875 -0.2318  2.6028
 2327SOL    HW218441   1.978   1.844   6.053 -0.6199  0.6172 -1.3156
 2328SOL     OW18442   3.339   3.332  11.890 -0.0953 -0.2622  0.1862
 2328SOL    HW118443   3.332   3.238  11.875  0.4834 -0.7770  3.0385
 2328SOL    HW218444   3.295   3.347  11.974 -2.5112 -0.9019 -0.9527
 2329SOL     OW18445   1.356   1.699   4.731 -0.5248  0.3961  0.3532
 2329SOL    HW118446   1.436   1.660   4.695 -0.4260 -0.8674  1.9548
 2329SOL    HW218447   1.372   1.687   4.824  1.6439  2.4718  0.2389
 2330SOL     OW18448   0.297   1.238   7.240  0.0336  0.2370  0.2506
 2330SOL    HW118449   0.236   1.270   7.174 -1.0192 -3.4323 -0.5504
 2330SOL    HW218450   0.371   1.295   7.218  1.4320 -1.2103  1.1496
 2331SOL     OW18451   1.763   2.689  14.358  0.5591 -0.4714  0.3458
 2331SOL    HW118452   1.682   2.728  14.391  0.5974  1.1658 -1.5153
 2331SOL    HW218453   1.831   2.745  14.395  0.4833 -0.4235  0.4129
 2332SOL     OW18454   4.227   1.202   7.988  0.2299 -0.2227 -0.3306
 2332SOL    HW118455   4.144   1.249   7.989 -0.3196 -1.2132  0.7407
 2332SOL    HW218456   4.220   1.165   7.900 -0.1133 -1.9136  0.4095
 2333SOL     OW18457   1.303   0.914  17.328 -0.1226  0.0746  0.1044
 2333SOL    HW118458   1.346   0.872  17.254  0.6215 -1.9045  1.6813
 2333SOL    HW218459   1.210   0.924  17.307  0.2181  0.6015 -1.1867
 2334SOL     OW18460   3.026   4.086   7.934 -0.0725 -0.0013 -0.3900
 2334SOL    HW118461   2.951   4.048   7.887  0.1028 -1.1637  0.2824
 2334SOL    HW218462   3.007   4.178   7.919  2.1279  0.5892  0.4231
 2335SOL     OW18463   0.818   4.400   0.709 -0.1659  0.5253  0.4120
 2335SOL    HW118464   0.754   4.345   0.754 -0.7649  1.9743  1.3292
 2335SOL    HW218465   0.810   4.488   0.746 -1.2341  0.6314 -0.0844
 2336SOL     OW18466   2.821   0.469   4.692  0.6228 -0.5023  0.3476
 2336SOL    HW118467   2.867   0.548   4.664 -0.6178  1.1429  2.9338
 2336SOL    HW218468   2.749   0.471   4.629  0.4150 -2.0876  0.5335
 2337SOL     OW18469   2.601   1.894   3.648 -0.4459 -0.0491  0.2786
 2337SOL    HW118470   2.602   1.985   3.676 -1.5969 -0.6825  2.3638
 2337SOL    HW218471   2.539   1.855   3.710  0.3225 -0.2150  0.9462
 2338SOL     OW18472   1.893   1.299   0.316 -0.2486  0.9898 -0.1097
 2338SOL    HW118473   1.972   1.276   0.268 -1.6963 -1.1658 -1.4825
 2338SOL    HW218474   1.852   1.364   0.258 -1.0370  0.8894  0.3240
 2339SOL     OW18475   1.480   1.746   3.457  0.2436  0.1632  0.6212
 2339SOL    HW118476   1.460   1.834   3.425  1.2997  0.2884  0.2833
 2339SOL    HW218477   1.389   1.717   3.461  0.4818 -0.9308 -1.9092
 2340SOL     OW18478   0.011   1.593   1.967 -0.0286 -0.2884  0.1662
 2340SOL    HW118479   4.716   1.687   1.966  0.3891 -0.2148 -1.4659
 2340SOL    HW218480   0.074   1.601   2.039 -1.3416 -0.2243  1.3145
 2341SOL     OW18481   2.266   2.061   2.719 -0.4147 -0.2373 -0.1215
 2341SOL    HW118482   2.333   2.047   2.786  0.1666  0.9457 -0.4557
 2341SOL    HW218483   2.283   1.980   2.670  1.1389 -0.2624  0.4710
 2342SOL     OW18484   0.438   3.649   4.303  0.5315  0.3752  0.3588
 2342SOL    HW118485   0.443   3.616   4.393 -0.0166 -0.5683  0.0474
 2342SOL    HW218486   0.525   3.623   4.272 -1.2206 -0.4573 -3.8334
 2343SOL     OW18487   2.151   0.953  14.892  0.1477  0.0364  0.3893
 2343SOL    HW118488   2.169   0.859  14.893  1.9586  0.3928  0.9825
 2343SOL    HW218489   2.170   0.981  14.803  1.2223  1.4797  1.0783
 2344SOL     OW18490   3.476   3.445   7.744 -0.0699 -0.3519 -0.7803
 2344SOL    HW118491   3.490   3.514   7.680  1.4616  0.7000  0.6777
 2344SOL    HW218492   3.411   3.390   7.702  1.0352 -2.7951  0.6895
 2345SOL     OW18493   0.446   2.952   6.829  0.0366 -0.5421  0.6880
 2345SOL    HW118494   0.445   2.935   6.923 -1.9956  2.5196  1.2219
 2345SOL    HW218495   0.539   2.960   6.807 -0.1241  1.4511  0.7402
 2346SOL     OW18496   0.964   3.068   3.063 -0.0007  0.1097  0.0109
 2346SOL    HW118497   0.957   2.977   3.035 -1.5531  0.7691 -1.7544
 2346SOL    HW218498   1.017   3.069   3.143  0.1751  0.0407 -0.1060
 2347SOL     OW18499   3.358   0.849   3.100 -0.5098  0.0350  0.0241
 2347SOL    HW118500   3.311   0.818   3.022  0.1773 -0.3315 -0.2409
 2347SOL    HW218501   3.418   0.898   3.045 -1.6344  2.3637  0.8729
 2348SOL     OW18502   0.997   3.263   3.792  0.0120  0.7153  0.4596
 2348SOL    HW118503   1.074   3.228   3.835  0.8170  1.5424 -0.3064
 2348SOL    HW218504   0.997   3.355   3.819  1.8499  0.6325  0.6890
 2349SOL     OW18505   1.803   4.676   7.600 -0.5291  0.0095  0.1647
 2349SOL    HW118506   1.843   4.678   7.687  5.1239 -0.0444 -2.4047
 2349SOL    HW218507   1.871   4.716   7.547 -0.0194 -2.3036 -0.9286
 2350SOL     OW18508   2.646   2.089   7.759  0.1204 -0.1801 -0.0101
 2350SOL    HW118509   2.724   2.139   7.781 -0.2933  0.1265  0.7559
 2350SOL    HW218510   2.603   2.148   7.696  1.3140  1.0837  0.3517
 2351SOL     OW18511   3.647   1.218  14.065  0.4313 -0.0511  0.4700
 2351SOL    HW118512   3.574   1.269  14.031 -0.1132 -0.8387  0.4704
 2351SOL    HW218513   3.609   1.131  14.057 -1.5612  0.7776  0.8563
 2352SOL     OW18514   3.973   3.534   5.834 -0.5435 -0.0882  0.2034
 2352SOL    HW118515   3.979   3.627   5.854  3.0456  0.1933 -2.0981
 2352SOL    HW218516   3.893   3.532   5.782 -1.5953  0.6436  1.8127
 2353SOL     OW18517   1.801   2.162   7.178  0.0723 -0.0503  0.2197
 2353SOL    HW118518   1.875   2.196   7.230 -0.7796 -0.3789  1.6591
 2353SOL    HW218519   1.794   2.080   7.227 -0.0083  1.2464  2.4250
 2354SOL     OW18520   1.493   1.031   9.189  0.2694 -0.1309  0.8322
 2354SOL    HW118521   1.483   1.070   9.276 -1.7394 -0.3068  0.6882
 2354SOL    HW218522   1.547   1.095   9.143 -1.1003 -0.3092 -1.0368
 2355SOL     OW18523   4.422   0.514   7.576  0.4654 -0.0298 -0.6652
 2355SOL    HW118524   4.406   0.571   7.651  1.9827 -0.0624 -0.3358
 2355SOL    HW218525   4.333   0.513   7.540  1.1478 -2.6031 -2.2944
 2356SOL     OW18526   0.076   0.467   9.082  0.3493  0.6896  0.1241
 2356SOL    HW118527   0.166   0.485   9.056  0.3021  1.3224  0.3868
 2356SOL    HW218528   0.081   0.482   9.177  2.0274  0.9633 -0.0211
 2357SOL     OW18529   2.988   2.438   4.656  0.0817 -0.0340 -0.0667
 2357SOL    HW118530   3.036   2.357   4.640  1.8888  1.1018 -0.3972
 2357SOL    HW218531   3.058   2.496   4.685 -0.3675 -0.1571  1.2768
 2358SOL     OW18532   4.516   0.052   7.993  0.0585 -0.7174 -0.3489
 2358SOL    HW118533   4.482   4.720   8.061 -0.8263  1.1553  0.7588
 2358SOL    HW218534   4.531   0.130   8.047  3.2529 -0.6831 -1.2684
 2359SOL     OW18535   4.379   1.391  13.553 -0.5802 -0.2072 -0.7618
 2359SOL    HW118536   4.411   1.346  13.475  1.7138  0.4168 -0.1904
 2359SOL    HW218537   4.415   1.478  13.540 -1.6680  0.5617  1.3033
 2360SOL     OW18538   2.833   0.694   7.736 -0.2240  0.1001  0.4728
 2360SOL    HW118539   2.764   0.631   7.714  0.4588 -0.2065 -0.7683
 2360SOL    HW218540   2.787   0.777   7.722  1.3291  1.3290  2.6587
 2361SOL     OW18541   2.657   1.543   8.613  0.5979 -0.5559  0.0503
 2361SOL    HW118542   2.690   1.612   8.555 -1.7932  0.1556 -0.4367
 2361SOL    HW218543   2.586   1.585   8.662 -1.3846 -0.1613 -3.2240
 2362SOL     OW18544   1.588   1.463   5.175 -0.0796  0.4123  0.1498
 2362SOL    HW118545   1.570   1.404   5.248  1.4719  1.1418  1.1136
 2362SOL    HW218546   1.578   1.546   5.220  0.9450  0.6886 -0.1257
 2363SOL     OW18547   4.471   2.022   1.874  0.0076 -0.1446 -0.2341
 2363SOL    HW118548   4.545   1.964   1.891 -1.1902 -0.9287  2.3543
 2363SOL    HW218549   4.438   2.025   1.964 -0.0380  2.3195 -0.3335
 2364SOL     OW18550   2.579   2.350   4.084  0.8141  0.5518  0.4697
 2364SOL    HW118551   2.543   2.261   4.076 -1.8291  1.6889 -0.4671
 2364SOL    HW218552   2.651   2.320   4.139 -0.1663 -2.2310  0.2598
 2365SOL     OW18553   0.649   1.591   6.429 -0.1875  0.1217  1.0667
 2365SOL    HW118554   0.626   1.636   6.510  0.2630  1.8251  0.2409
 2365SOL    HW218555   0.691   1.659   6.377  1.2294 -0.7113  1.0935
 2366SOL     OW18556   1.084   1.288   5.690  0.1622 -0.0040 -0.1044
 2366SOL    HW118557   1.124   1.314   5.773 -0.0001  2.0685 -0.6855
 2366SOL    HW218558   1.019   1.225   5.721 -0.3173  0.0566 -0.9924
 2367SOL     OW18559   0.611   0.594   9.156 -0.1351 -0.6125  0.0810
 2367SOL    HW118560   0.663   0.513   9.151 -0.9929 -1.3900  3.8322
 2367SOL    HW218561   0.668   0.652   9.206 -0.5331  0.6983 -0.9757
 2368SOL     OW18562   4.053   0.317  14.850  0.0667  0.3323  0.8084
 2368SOL    HW118563   4.040   0.330  14.756  0.3791  3.3794  1.1878
 2368SOL    HW218564   4.005   0.235  14.860  0.0573  0.4054  1.3969
 2369SOL     OW18565   3.760   4.320  17.341  0.0623  0.1240 -0.1061
 2369SOL    HW118566   3.792   4.410  17.339 -1.2155  0.5513 -1.8639
 2369SOL    HW218567   3.678   4.320  17.292  1.4262  0.1032 -2.3987
 2370SOL     OW18568   1.350   3.522   1.935 -0.4477  0.1126 -0.4106
 2370SOL    HW118569   1.415   3.516   2.005  0.8244 -2.1463 -1.7970
 2370SOL    HW218570   1.309   3.437   1.949 -1.4622  0.3705 -1.8553
 2371SOL     OW18571   2.553   0.664  16.161  0.4333  0.2170 -0.1660
 2371SOL    HW118572   2.644   0.679  16.186  0.3541 -2.7374  1.8800
 2371SOL    HW218573   2.519   0.662  16.250  0.1072 -1.1284 -0.3203
 2372SOL     OW18574   1.263   4.405   7.887 -0.1788 -0.7321  0.3409
 2372SOL    HW118575   1.256   4.401   7.791  0.3170  2.2917  0.2013
 2372SOL    HW218576   1.335   4.467   7.899 -1.5521  0.7002  1.1349
 2373SOL     OW18577   0.254   0.808   7.994  0.0469  0.8498  0.0702
 2373SOL    HW118578   0.182   0.837   7.937  0.8855  3.6851  0.4702
 2373SOL    HW218579   0.262   0.714   7.978  2.2038  0.6412  2.5474
 2374SOL     OW18580   0.461   2.195   2.789  0.2439  0.1267 -0.2694
 2374SOL    HW118581   0.453   2.205   2.884  0.8644 -0.3563 -0.1712
 2374SOL    HW218582   0.432   2.105   2.777  0.0407  0.0692  0.6864
 2375SOL     OW18583   0.728   0.556  12.511  0.1618 -0.0048  0.0320
 2375SOL    HW118584   0.813   0.512  12.511  0.5064  0.6346 -2.5723
 2375SOL    HW218585   0.735   0.625  12.445  2.8086 -0.0036  0.3007
 2376SOL     OW18586   2.048   4.400   3.083 -0.2777  0.1255  0.1048
 2376SOL    HW118587   1.958   4.385   3.114  0.3083 -0.3069  1.6239
 2376SOL    HW218588   2.026   4.419   2.992  1.6438  0.2116 -0.3323
 2377SOL     OW18589   0.886   0.323   0.994 -0.1517  0.7781 -0.5887
 2377SOL    HW118590   0.844   0.359   1.072  0.7007  0.0917  0.1844
 2377SOL    HW218591   0.823   0.305   0.924  0.8488  0.0560 -1.3086
 2378SOL     OW18592   0.295   0.332  15.883  0.4902 -0.0988 -0.5911
 2378SOL    HW118593   0.353   0.401  15.850 -0.4615  0.7486 -0.4703
 2378SOL    HW218594   0.215   0.356  15.836  0.2872 -0.2545 -0.3257
 2379SOL     OW18595   3.155   2.640   6.145  0.0966 -0.5104  0.2808
 2379SOL    HW118596   3.097   2.612   6.074 -1.0821  1.6787  0.3729
 2379SOL    HW218597   3.194   2.555   6.163 -0.3652 -1.2709 -2.2177
 2380SOL     OW18598   4.210   3.710   5.446 -0.0411 -0.3556 -0.5379
 2380SOL    HW118599   4.288   3.715   5.500  0.9264  1.5323 -2.0872
 2380SOL    HW218600   4.248   3.701   5.359 -0.5125  1.5784 -0.9568
 2381SOL     OW18601   3.113   2.747   8.985  0.3224 -0.2988 -0.4775
 2381SOL    HW118602   3.174   2.810   8.949  0.7315 -0.3347  0.1485
 2381SOL    HW218603   3.159   2.663   8.992  2.1412  0.7545  0.1108
 2382SOL     OW18604   1.535   2.608   3.874  0.8475 -0.2301 -0.0615
 2382SOL    HW118605   1.597   2.597   3.946  0.5012  0.5578  0.3627
 2382SOL    HW218606   1.595   2.590   3.801 -0.5525 -2.1689 -0.7279
 2383SOL     OW18607   4.336   2.561   2.743  0.1807  0.4568  0.3897
 2383SOL    HW118608   4.360   2.652   2.759  3.5521 -0.2662 -0.5226
 2383SOL    HW218609   4.333   2.524   2.831  3.0351  2.1450  1.2174
 2384SOL     OW18610   2.248   3.740   4.917  0.4302 -0.1331 -0.2182
 2384SOL    HW118611   2.178   3.800   4.891  2.1376  1.7996 -0.3099
 2384SOL    HW218612   2.298   3.743   4.835  0.9884 -1.7311  0.0629
 2385SOL     OW18613   0.248   1.239   8.037 -0.3820 -0.2540  0.5733
 2385SOL    HW118614   0.186   1.294   8.085 -1.7976 -0.0302 -1.4913
 2385SOL    HW218615   0.193   1.212   7.963 -0.8775  1.7400  0.2021
 2386SOL     OW18616   1.736   2.000   5.757  0.1765  0.0822 -0.2138
 2386SOL    HW118617   1.813   1.983   5.703 -0.6499 -0.6807 -1.1606
 2386SOL    HW218618   1.702   1.911   5.762  0.7992 -0.3776 -3.6685
 2387SOL     OW18619   2.606   4.435   6.579 -0.0445 -0.0109 -0.5370
 2387SOL    HW118620   2.535   4.482   6.535  0.8127  3.0582  1.3617
 2387SOL    HW218621   2.563   4.410   6.661  2.3356 -1.7236  0.1915
 2388SOL     OW18622   3.521   3.045   5.316 -0.6899  0.1896  0.1049
 2388SOL    HW118623   3.604   3.090   5.334  1.2790 -2.3343 -2.7277
 2388SOL    HW218624   3.513   3.078   5.226 -0.9378  1.5219  0.6093
 2389SOL     OW18625   3.429   2.176   8.628 -0.1537 -0.1636  0.1941
 2389SOL    HW118626   3.411   2.268   8.645 -1.8822 -0.5941  0.6687
 2389SOL    HW218627   3.522   2.185   8.608  0.1834 -3.5774  0.1176
 2390SOL     OW18628   1.487   4.487   8.127  0.3141  0.0253 -0.2478
 2390SOL    HW118629   1.409   4.520   8.171  0.7056 -2.7170  2.4907
 2390SOL    HW218630   1.482   4.528   8.040  0.1942 -1.1570 -0.7972
 2391SOL     OW18631   0.055   1.312  13.594 -0.5563 -0.4293  0.2779
 2391SOL    HW118632   0.011   1.334  13.676  0.8434  0.7013  0.7289
 2391SOL    HW218633   0.086   1.224  13.613  0.7096 -0.4051 -1.6611
 2392SOL     OW18634   0.136   3.635   7.143  0.6859 -0.4989 -0.1382
 2392SOL    HW118635   0.053   3.671   7.113  1.3560  1.4132  0.3251
 2392SOL    HW218636   0.180   3.713   7.178  2.6856 -1.8786  0.4326
 2393SOL     OW18637   2.361   2.018   7.508 -0.2087 -0.3566 -0.3929
 2393SOL    HW118638   2.436   2.077   7.508 -0.0109 -0.6058 -0.4243
 2393SOL    HW218639   2.402   1.936   7.479 -0.8571 -0.9543  0.3914
 2394SOL     OW18640   3.845   1.880   3.901 -0.7095  0.2789  0.2606
 2394SOL    HW118641   3.762   1.853   3.861 -0.7943 -1.4599  1.6131
 2394SOL    HW218642   3.832   1.974   3.912 -0.8009  0.3077 -0.0867
 2395SOL     OW18643   0.097   0.431   2.108 -0.1009 -0.7450 -0.0550
 2395SOL    HW118644   0.039   0.403   2.037 -2.0239 -2.0714  2.0292
 2395SOL    HW218645   0.160   0.359   2.104  1.2868  0.4058  1.0000
 2396SOL     OW18646   1.010   1.324   6.703 -0.3123  0.0034 -0.1811
 2396SOL    HW118647   1.029   1.310   6.610 -0.7331 -1.0072 -0.1144
 2396SOL    HW218648   0.917   1.338   6.720  0.0764  1.3562  0.7904
 2397SOL     OW18649   0.914   2.439   9.554 -0.2385  0.2289  0.3829
 2397SOL    HW118650   0.917   2.446   9.649  1.3752 -0.0359  0.3507
 2397SOL    HW218651   0.819   2.452   9.549 -0.0305  0.5023 -2.8881
 2398SOL     OW18652   4.020   3.220   3.402  0.2900 -0.0248  0.0759
 2398SOL    HW118653   4.033   3.286   3.334 -1.5563  0.9303  0.6545
 2398SOL    HW218654   4.042   3.136   3.361  1.3795  0.6340 -0.7135
 2399SOL     OW18655   3.466   3.537  11.736  0.0809  0.5623  0.3535
 2399SOL    HW118656   3.515   3.591  11.798 -2.4088 -0.4400  3.1867
 2399SOL    HW218657   3.433   3.468  11.793  0.2570 -0.1822 -0.4490
 2400SOL     OW18658   0.038   3.091  11.672 -0.2651  0.0009 -0.5800
 2400SOL    HW118659   0.089   3.075  11.592  1.4364  3.5317 -0.2021
 2400SOL    HW218660   0.070   3.020  11.727 -1.2730  1.7850  2.2762
 2401SOL     OW18661   3.585   2.778   8.628 -0.5433  0.2315 -0.1109
 2401SOL    HW118662   3.615   2.867   8.611  1.4978 -0.7147 -1.3858
 2401SOL    HW218663   3.652   2.730   8.580  1.3693  0.5156  2.2740
 2402SOL     OW18664   3.892   2.896   0.390 -0.3889  0.2507 -0.4328
 2402SOL    HW118665   3.958   2.851   0.337  0.2601 -0.9624  1.4333
 2402SOL    HW218666   3.940   2.975   0.414  1.8892 -1.9976  2.2832
 2403SOL     OW18667   0.665   0.285   0.077 -0.0421  0.1339 -0.0891
 2403SOL    HW118668   0.607   0.267   0.151  1.6410 -0.6073  1.0569
 2403SOL    HW218669   0.693   0.370   0.111  1.8259 -0.6895  0.4015
 2404SOL     OW18670   2.347   3.384   9.859  0.0362  0.1019 -0.0551
 2404SOL    HW118671   2.395   3.376   9.941 -3.9686  1.5172  2.3912
 2404SOL    HW218672   2.406   3.342   9.795  1.8813  0.9304  1.0998
 2405SOL     OW18673   2.036   2.037   3.252  0.3226  0.2300 -0.0075
 2405SOL    HW118674   2.030   2.035   3.157  1.2289  1.2388 -0.0777
 2405SOL    HW218675   1.957   1.989   3.277  0.7800 -1.1528 -1.2667
 2406SOL     OW18676   1.913   2.152  11.191 -0.0126 -0.3158 -0.5829
 2406SOL    HW118677   1.966   2.080  11.225 -0.0915  0.4692  1.2432
 2406SOL    HW218678   1.964   2.184  11.117 -1.7098  2.2411 -0.6434
 2407SOL     OW18679   1.218   4.019   7.916  0.0871 -0.0521  0.0721
 2407SOL    HW118680   1.197   3.989   8.004 -2.7578 -1.0396 -0.9176
 2407SOL    HW218681   1.311   4.010   7.896  0.1168 -0.1724  0.2692
 2408SOL     OW18682   1.473   0.072   8.890  0.3201  0.1565  0.7399
 2408SOL    HW118683   1.534   0.079   8.963  0.8026  2.6318  0.1235
 2408SOL    HW218684   1.529   0.025   8.829  0.3585  2.0359 -0.6820
 2409SOL     OW18685   4.354   0.039   7.776  0.4122 -0.4611 -0.7248
 2409SOL    HW118686   4.374   0.111   7.716 -4.6766  1.6506  0.0895
 2409SOL    HW218687   4.414   0.042   7.850 -0.0809 -2.9632 -0.1976
 2410SOL     OW18688   3.200   3.865   8.946 -0.4654  0.9502  0.0506
 2410SOL    HW118689   3.157   3.889   9.029 -1.8868  3.0324 -1.2921
 2410SOL    HW218690   3.272   3.927   8.944 -0.7867  1.3881  1.6112
 2411SOL     OW18691   2.151   2.303   3.924 -0.0844  0.6909 -0.0173
 2411SOL    HW118692   2.122   2.235   3.863 -0.7409  1.2205 -0.2987
 2411SOL    HW218693   2.064   2.336   3.946  0.2761  1.6122  0.0139
 2412SOL     OW18694   2.757   1.953   7.379  0.3115 -0.2519 -0.4512
 2412SOL    HW118695   2.769   2.047   7.367 -1.1554 -0.0460 -0.3427
 2412SOL    HW218696   2.846   1.935   7.409  0.7459  1.4795 -0.7218
 2413SOL     OW18697   4.422   1.961   9.168  0.0895  0.7425 -0.3566
 2413SOL    HW118698   4.404   1.940   9.259  1.0066  0.1744 -0.3093
 2413SOL    HW218699   4.478   2.039   9.175 -0.2608  0.9904 -0.2893
 2414SOL     OW18700   1.896   4.366   7.803  0.4657 -0.1223  0.3276
 2414SOL    HW118701   1.853   4.347   7.720  3.1983 -0.6841 -0.9641
 2414SOL    HW218702   1.831   4.353   7.872 -1.1881 -2.7543 -1.7334
 2415SOL     OW18703   3.732   2.500   6.796  0.4491  0.1332  0.1807
 2415SOL    HW118704   3.818   2.530   6.826  0.2883  1.0380 -0.2567
 2415SOL    HW218705   3.741   2.405   6.800  0.9638  0.1642 -0.2873
 2416SOL     OW18706   0.148   1.054   5.440  0.1136 -0.7289 -0.0286
 2416SOL    HW118707   0.104   1.127   5.395 -0.8295 -0.6564  1.0177
 2416SOL    HW218708   0.165   0.991   5.370 -0.3888 -0.4335 -0.4183
 2417SOL     OW18709   1.958   3.292   7.935  0.0381 -0.2057  0.4631
 2417SOL    HW118710   1.883   3.264   7.989 -0.8486 -0.7997 -1.0688
 2417SOL    HW218711   1.993   3.371   7.977  0.8099 -1.3656  2.0102
 2418SOL     OW18712   2.009   4.238  15.177 -0.3039  0.2725  0.1818
 2418SOL    HW118713   2.097   4.249  15.215 -0.6343  0.7907  0.8047
 2418SOL    HW218714   2.025   4.176  15.107 -2.1578 -1.1132  1.0101
 2419SOL     OW18715   1.848   1.741   4.070  0.0522  0.1533 -0.0171
 2419SOL    HW118716   1.929   1.785   4.042  0.1103 -1.2117 -2.0536
 2419SOL    HW218717   1.869   1.652   4.041  0.4806  0.6238 -1.1635
 2420SOL     OW18718   0.535   1.903  14.139  0.1081  0.5593  0.0143
 2420SOL    HW118719   0.627   1.927  14.125  0.0221  2.0868  2.0517
 2420SOL    HW218720   0.502   1.992  14.153  1.8938  1.2107  0.0985
 2421SOL     OW18721   2.143   1.080   1.759  0.0832  0.0997 -0.4700
 2421SOL    HW118722   2.207   1.136   1.714  0.5910  0.3745  0.6147
 2421SOL    HW218723   2.068   1.140   1.766  1.2531  1.5813 -0.7115
 2422SOL     OW18724   3.854   2.937   6.187 -0.2531 -0.0550  0.0811
 2422SOL    HW118725   3.921   2.869   6.175 -0.9583 -0.7075 -0.1498
 2422SOL    HW218726   3.835   2.916   6.278 -0.1185  0.4364  0.2202
 2423SOL     OW18727   0.041   0.240   3.809  0.3963 -0.0776  0.3189
 2423SOL    HW118728   0.055   0.267   3.719  1.0997  0.7604  0.6886
 2423SOL    HW218729   0.130   0.213   3.831  0.5946  0.4244  0.1137
 2424SOL     OW18730   1.147   4.173   5.879 -0.1499 -0.0799  0.5526
 2424SOL    HW118731   1.097   4.254   5.864 -1.1055 -0.7802 -0.0852
 2424SOL    HW218732   1.094   4.107   5.834  0.0601 -0.3427  0.6912
 2425SOL     OW18733   2.054   2.031  13.425 -0.2111 -1.0225 -0.4547
 2425SOL    HW118734   2.094   2.020  13.339  1.9556 -1.8316  0.6585
 2425SOL    HW218735   2.038   1.941  13.452 -1.0745 -0.3021  1.4707
 2426SOL     OW18736   3.952   0.565   8.431  0.2995 -0.3761  0.5436
 2426SOL    HW118737   3.873   0.511   8.435  0.3753 -0.6018 -1.1313
 2426SOL    HW218738   3.973   0.582   8.523  1.9555 -2.1825  0.4963
 2427SOL     OW18739   1.558   2.952   5.052  0.1042 -0.0854 -0.0622
 2427SOL    HW118740   1.556   2.859   5.029 -2.8640 -0.4857  1.9214
 2427SOL    HW218741   1.487   2.992   5.002 -0.3559  1.8717  2.1698
 2428SOL     OW18742   0.996   0.891   8.888  0.1006  0.7013  0.6113
 2428SOL    HW118743   0.934   0.964   8.879  0.3267  0.9180  0.8006
 2428SOL    HW218744   1.064   0.934   8.835  0.1896  0.9231  0.9046
 2429SOL     OW18745   1.555   3.772  14.813 -0.4294  0.0125  0.1077
 2429SOL    HW118746   1.637   3.754  14.858  0.0294  1.4424 -0.1635
 2429SOL    HW218747   1.505   3.784  14.894 -2.5024  1.6565 -1.3907
 2430SOL     OW18748   2.466   4.373   8.800 -0.1242  0.2430 -0.5207
 2430SOL    HW118749   2.501   4.433   8.866 -2.0674  1.2049 -0.3539
 2430SOL    HW218750   2.533   4.305   8.796 -0.0847  0.3250 -1.3063
 2431SOL     OW18751   2.177   0.724  11.303 -0.0852  0.0647 -0.2151
 2431SOL    HW118752   2.122   0.789  11.258  1.1526  0.9777 -0.4244
 2431SOL    HW218753   2.110   0.665  11.338  1.1336 -0.4456  1.2409
 2432SOL     OW18754   2.799   4.057   5.617 -0.3089 -0.7490  0.5799
 2432SOL    HW118755   2.780   4.026   5.706 -0.6798  0.2604  0.8523
 2432SOL    HW218756   2.767   3.991   5.556 -0.6247 -0.6557  0.6415
 2433SOL     OW18757   3.141   4.572   7.048 -0.0206 -0.0456  0.1375
 2433SOL    HW118758   3.069   4.519   7.014  0.9827 -2.3646  1.6606
 2433SOL    HW218759   3.179   4.607   6.967 -0.2867  1.2238  0.5648
 2434SOL     OW18760   1.253   3.385   8.903 -0.4574 -0.0093 -0.2325
 2434SOL    HW118761   1.303   3.341   8.972 -1.5475  1.5545  1.5383
 2434SOL    HW218762   1.276   3.476   8.920 -1.4336 -0.1165  1.7135
 2435SOL     OW18763   2.458   0.113   6.995  0.2691  0.2321  0.3246
 2435SOL    HW118764   2.379   0.148   7.036 -0.9634 -1.5776 -0.4761
 2435SOL    HW218765   2.429   0.121   6.904 -0.9799 -2.2038  0.4897
 2436SOL     OW18766   0.649   0.224   7.628 -0.0299 -0.4239 -0.1715
 2436SOL    HW118767   0.628   0.170   7.552 -0.7050 -0.3320 -0.0487
 2436SOL    HW218768   0.720   0.175   7.668 -1.9853 -2.8377  0.3158
 2437SOL     OW18769   4.382   1.639   7.919  0.0684 -0.1100 -0.1943
 2437SOL    HW118770   4.319   1.678   7.981  0.0293 -0.4952  0.0093
 2437SOL    HW218771   4.393   1.548   7.946  0.4909 -0.0140 -0.0344
 2438SOL     OW18772   0.639   1.774   8.960  0.1305  0.2076  0.3077
 2438SOL    HW118773   0.642   1.787   9.055 -4.2757 -0.4470  0.5207
 2438SOL    HW218774   0.666   1.862   8.933  0.7718  0.3051  1.2435
 2439SOL     OW18775   4.126   0.435   5.149  0.3281  0.0292 -0.0669
 2439SOL    HW118776   4.126   0.433   5.245 -0.0533 -3.0371 -0.1429
 2439SOL    HW218777   4.218   0.408   5.140 -0.2722 -2.5308  1.2608
 2440SOL     OW18778   1.141   3.781  16.654  0.4096 -0.4018  0.3016
 2440SOL    HW118779   1.059   3.734  16.640  0.1381  0.5900 -1.2875
 2440SOL    HW218780   1.137   3.804  16.747 -1.6092  0.3874  0.0111
 2441SOL     OW18781   0.265   1.325   7.507 -1.2198  0.0825 -0.1927
 2441SOL    HW118782   0.271   1.232   7.531  0.7731  0.2098 -0.1837
 2441SOL    HW218783   0.244   1.322   7.413 -0.9146  0.6210 -0.2771
 2442SOL     OW18784   2.864   0.211   8.989  0.2432 -0.3625  0.3920
 2442SOL    HW118785   2.904   0.160   9.059 -1.6356  0.2560  1.9253
 2442SOL    HW218786   2.796   0.151   8.958  0.1276  0.5583 -1.1226
 2443SOL     OW18787   0.908   3.700  10.188 -0.3678 -0.1574  0.2405
 2443SOL    HW118788   0.847   3.640  10.145  0.5584 -1.6131  0.9559
 2443SOL    HW218789   0.885   3.692  10.280 -0.4116  1.7428  0.3802
 2444SOL     OW18790   2.451   0.422  12.249 -0.3515 -0.6285  0.1931
 2444SOL    HW118791   2.529   0.449  12.200 -0.3951 -2.3509 -0.8294
 2444SOL    HW218792   2.420   0.511  12.268  0.7848 -0.4585  1.2238
 2445SOL     OW18793   2.673   3.147   4.985  0.6613 -0.3337 -0.3749
 2445SOL    HW118794   2.690   3.204   5.059 -0.4183 -0.6448  0.1092
 2445SOL    HW218795   2.578   3.153   4.981  0.5419 -1.6829  0.8213
 2446SOL     OW18796   3.785   4.533  10.540  0.3435  0.5705 -0.7896
 2446SOL    HW118797   3.730   4.501  10.612  3.4928  1.4568  2.0116
 2446SOL    HW218798   3.749   4.487  10.464 -0.9283 -1.6682  1.1585
 2447SOL     OW18799   3.870   0.227   8.157  0.2844 -0.1179  0.4079
 2447SOL    HW118800   3.786   0.234   8.202 -0.2993 -2.8608 -0.2876
 2447SOL    HW218801   3.857   0.150   8.103 -0.0707 -0.2630  0.6973
 2448SOL     OW18802   1.600   3.882  13.901 -0.7991  0.5079 -0.0383
 2448SOL    HW118803   1.667   3.899  13.967  0.6423  1.2021 -1.6829
 2448SOL    HW218804   1.580   3.790  13.917 -0.1031  0.2445 -0.6844
 2449SOL     OW18805   0.158   4.068   6.280 -0.0224 -0.1976 -0.7644
 2449SOL    HW118806   0.066   4.045   6.291  0.3569 -0.9456  0.9642
 2449SOL    HW218807   0.212   3.991   6.295 -0.5613 -0.1593  1.4694
 2450SOL     OW18808   1.310   3.652   8.922  0.2252 -0.9206 -0.1667
 2450SOL    HW118809   1.341   3.650   9.012  0.8651 -1.1190 -0.3928
 2450SOL    HW218810   1.237   3.714   8.924 -0.7540 -2.0942  0.7851
 2451SOL     OW18811   4.267   3.361   5.285  0.5578 -0.0216 -0.1474
 2451SOL    HW118812   4.220   3.300   5.229  2.0557 -2.2667  1.0860
 2451SOL    HW218813   4.201   3.375   5.353 -1.8233 -0.3594 -2.3899
 2452SOL     OW18814   1.821   0.574   0.515  0.5988 -0.7390  0.3284
 2452SOL    HW118815   1.853   0.504   0.459  2.1804 -0.2866  0.6791
 2452SOL    HW218816   1.727   0.557   0.512  0.1775  2.0434 -1.8401
 2453SOL     OW18817   4.505   2.234   5.475 -0.2905  0.5404 -0.7724
 2453SOL    HW118818   4.496   2.316   5.523 -1.0161  0.3217 -0.5379
 2453SOL    HW218819   4.600   2.235   5.459 -0.1960 -1.4875 -0.3665
 2454SOL     OW18820   1.423   3.811   6.218 -0.2128  0.9344 -0.2714
 2454SOL    HW118821   1.390   3.742   6.275  1.8383  0.4951  0.3822
 2454SOL    HW218822   1.472   3.755   6.158  0.5799 -1.7827  2.9167
 2455SOL     OW18823   0.044   3.473   4.880  0.6642 -0.0864  0.3705
 2455SOL    HW118824   0.040   3.380   4.858 -1.1899 -0.0519  0.5571
 2455SOL    HW218825   4.707   3.511   4.817  1.1593 -1.0388 -0.6873
 2456SOL     OW18826   0.218   2.801   7.342 -0.0816  0.9981  0.2086
 2456SOL    HW118827   0.123   2.800   7.334  0.1380 -0.2783 -2.3641
 2456SOL    HW218828   0.239   2.832   7.430 -0.1333 -2.1992  1.3320
 2457SOL     OW18829   4.417   4.671  14.213  0.0099  0.1310 -0.0464
 2457SOL    HW118830   4.330   4.709  14.220  1.1218  2.5282  0.9493
 2457SOL    HW218831   4.400   4.595  14.158 -1.6960  0.6238 -0.1983
 2458SOL     OW18832   2.103   0.855   6.066 -0.0737  0.1221  0.1765
 2458SOL    HW118833   2.030   0.838   6.006 -0.1809 -1.4842  0.7590
 2458SOL    HW218834   2.161   0.917   6.022  1.3077 -1.1740  0.1669
 2459SOL     OW18835   3.903   2.656   1.041  0.1571 -0.4886  0.1288
 2459SOL    HW118836   3.888   2.620   0.953  1.9137 -0.5743 -0.1378
 2459SOL    HW218837   3.830   2.604   1.074 -0.9139  2.4637  2.4078
 2460SOL     OW18838   2.698   1.123   2.768 -0.4128 -1.0483 -0.3085
 2460SOL    HW118839   2.759   1.194   2.751 -0.3974 -0.8763  0.4780
 2460SOL    HW218840   2.674   1.133   2.860 -3.0896  1.6113 -1.2927
 2461SOL     OW18841   4.504   1.757   6.050  0.1599  0.2181  0.5686
 2461SOL    HW118842   4.592   1.761   6.087 -0.2724 -0.6684  1.6649
 2461SOL    HW218843   4.493   1.846   6.016 -0.4992 -0.2050 -0.3439
 2462SOL     OW18844   4.174   3.985   3.762  0.2837 -0.2362  0.2918
 2462SOL    HW118845   4.122   3.907   3.784 -1.9913  1.0892 -0.4217
 2462SOL    HW218846   4.246   3.943   3.713  0.5589  0.0510  0.4467
 2463SOL     OW18847   2.379   0.906   1.712  0.0640 -0.4720  0.4718
 2463SOL    HW118848   2.419   0.920   1.626 -0.0048  0.1904  0.5521
 2463SOL    HW218849   2.441   0.933   1.779 -0.5787 -1.1538  1.3342
 2464SOL     OW18850   1.830   3.681   2.995  0.3470  0.7415  0.2822
 2464SOL    HW118851   1.903   3.736   2.968  0.1118  1.9322  2.0655
 2464SOL    HW218852   1.850   3.678   3.089 -1.1624  0.0296  0.5928
 2465SOL     OW18853   3.194   1.470   0.574  0.3111  0.1593  0.4180
 2465SOL    HW118854   3.217   1.517   0.494  1.2372  1.2795  1.3462
 2465SOL    HW218855   3.272   1.479   0.628  1.7221 -1.6559 -1.3088
 2466SOL     OW18856   0.332   1.762   5.658  0.0674  0.0715  0.2928
 2466SOL    HW118857   0.345   1.668   5.674  1.8127  0.4994  1.3832
 2466SOL    HW218858   0.350   1.763   5.564 -0.7026  1.0185  0.1632
 2467SOL     OW18859   2.272   1.681   6.880  0.2862 -0.4611  0.2732
 2467SOL    HW118860   2.342   1.620   6.902 -0.2921 -0.8833  0.9396
 2467SOL    HW218861   2.221   1.692   6.960 -0.3199 -1.8221  0.0669
 2468SOL     OW18862   3.866   3.656   0.330 -0.3761 -0.0264 -0.4963
 2468SOL    HW118863   3.952   3.637   0.369 -1.5604  0.1366  2.1727
 2468SOL    HW218864   3.812   3.606   0.391  0.2313  0.9283  0.8164
 2469SOL     OW18865   2.126   3.482   7.060  0.4493 -0.3135 -0.0634
 2469SOL    HW118866   2.133   3.573   7.088  2.1673 -0.1922 -0.9281
 2469SOL    HW218867   2.049   3.495   7.004  0.6083  0.1289 -0.1807
 2470SOL     OW18868   1.109   0.846  16.722 -0.7162  0.2675 -0.2074
 2470SOL    HW118869   1.083   0.797  16.644 -0.6740  1.2176 -0.8198
 2470SOL    HW218870   1.135   0.773  16.778 -0.0836 -0.8808 -2.0123
 2471SOL     OW18871   2.527   1.467   5.085  0.4812  0.0443  0.2279
 2471SOL    HW118872   2.548   1.525   5.158 -2.0208  0.1776  0.8339
 2471SOL    HW218873   2.580   1.498   5.012  0.8293 -1.8512 -0.3448
 2472SOL     OW18874   2.994   1.322   9.694  0.5839 -0.1828 -0.2185
 2472SOL    HW118875   3.055   1.332   9.767 -0.2962  3.7750 -0.0371
 2472SOL    HW218876   2.987   1.413   9.666 -0.7411  0.1221  1.1322
 2473SOL     OW18877   4.494   1.073   7.832  0.3078  0.5525  0.1834
 2473SOL    HW118878   4.511   1.161   7.797 -4.7821  2.0928  1.5601
 2473SOL    HW218879   4.514   1.063   7.925 -1.9511  0.1691  0.6211
 2474SOL     OW18880   1.984   3.817   6.214  0.3822 -0.6131  0.1165
 2474SOL    HW118881   1.990   3.861   6.299 -2.7772  0.7594 -0.3859
 2474SOL    HW218882   2.034   3.740   6.242 -0.9111 -2.0014 -1.4273
 2475SOL     OW18883   2.804   2.599  10.708  0.4278 -0.4787  0.2690
 2475SOL    HW118884   2.871   2.667  10.707 -0.4587  0.4056  0.6212
 2475SOL    HW218885   2.727   2.648  10.737  1.9373  1.2782  1.2725
 2476SOL     OW18886   3.768   3.135   2.490 -0.1555  1.0947  0.3164
 2476SOL    HW118887   3.843   3.075   2.486  0.7741  2.2872 -0.5002
 2476SOL    HW218888   3.777   3.170   2.579  2.6337  0.2837  0.3648
 2477SOL     OW18889   3.337   0.935   6.524 -0.2972  0.5825 -0.5406
 2477SOL    HW118890   3.330   0.844   6.554  2.3526  1.1138  1.7208
 2477SOL    HW218891   3.425   0.949   6.560 -0.1054 -0.5785 -0.5740
 2478SOL     OW18892   4.423   0.232   7.616  0.0817 -0.3332 -0.1218
 2478SOL    HW118893   4.444   0.325   7.603 -0.6269 -0.4974 -2.5131
 2478SOL    HW218894   4.406   0.210   7.524 -0.8214  0.3753 -0.1225
 2479SOL     OW18895   1.611   0.028   5.929 -0.2803 -0.8074  0.5237
 2479SOL    HW118896   1.517   0.027   5.908 -0.2814 -0.9266  0.5354
 2479SOL    HW218897   1.633   0.112   5.889  3.4369 -1.5910  0.9774
 2480SOL     OW18898   2.585   3.292   4.256  0.0350  0.1350  0.1179
 2480SOL    HW118899   2.614   3.285   4.347 -1.1949 -1.2902  0.4079
 2480SOL    HW218900   2.519   3.223   4.247 -1.9642  2.0559 -0.0655
 2481SOL     OW18901   2.263   4.018  13.530  0.5551 -0.4380 -0.1007
 2481SOL    HW118902   2.234   3.929  13.550 -0.4273 -0.3281 -1.0817
 2481SOL    HW218903   2.304   4.040  13.614 -0.6355  1.1087  0.0918
 2482SOL     OW18904   4.026   3.293   7.225  0.3380 -0.4615 -0.6824
 2482SOL    HW118905   4.066   3.208   7.205  0.2605 -0.7327  0.3103
 2482SOL    HW218906   3.933   3.272   7.218 -0.3108  2.1015  0.4412
 2483SOL     OW18907   1.166   2.171   2.199  0.1998  0.3764 -0.2621
 2483SOL    HW118908   1.167   2.248   2.142  1.9306  0.6657  0.1568
 2483SOL    HW218909   1.210   2.106   2.144  0.2967 -1.2623  1.7461
 2484SOL     OW18910   2.894   0.498   5.574  0.5043  0.5907  0.0244
 2484SOL    HW118911   2.960   0.567   5.583  0.8513  0.4310 -1.3680
 2484SOL    HW218912   2.907   0.463   5.486 -1.5091  1.5889 -0.6430
 2485SOL     OW18913   3.630   3.752   0.883 -0.1544 -0.0817  0.2391
 2485SOL    HW118914   3.698   3.687   0.865 -0.2450  0.0906 -0.7391
 2485SOL    HW218915   3.617   3.802   0.802 -0.8249 -0.6380  0.0119
 2486SOL     OW18916   4.015   4.704   3.728  0.0119 -0.1437  0.0690
 2486SOL    HW118917   3.974   4.662   3.804  2.2276  0.3375  1.5298
 2486SOL    HW218918   4.091   0.022   3.766 -0.4450  0.2021  0.5870
 2487SOL     OW18919   3.095   3.231  12.651 -0.3103 -0.2447 -0.0606
 2487SOL    HW118920   3.160   3.163  12.670 -0.9418 -0.0958  2.6294
 2487SOL    HW218921   3.125   3.296  12.714 -0.0709  0.5913 -1.0409
 2488SOL     OW18922   4.512   0.521   6.320 -0.2910 -0.3283  0.4326
 2488SOL    HW118923   4.559   0.476   6.250  0.6416  1.3708 -0.0260
 2488SOL    HW218924   4.579   0.548   6.383 -0.4684  0.0675  0.4507
 2489SOL     OW18925   2.870   0.710   4.574  0.1459  0.4560 -0.4472
 2489SOL    HW118926   2.908   0.772   4.636  1.6283 -1.0070  0.1053
 2489SOL    HW218927   2.937   0.706   4.507  0.4489 -0.2267 -0.0974
 2490SOL     OW18928   2.124   0.674   5.796  0.0564  0.2519 -0.0751
 2490SOL    HW118929   2.045   0.723   5.775  0.1334 -0.5304 -2.1570
 2490SOL    HW218930   2.172   0.705   5.719 -0.3401  0.8173 -0.0997
 2491SOL     OW18931   0.661   2.419   7.371  0.2631  0.2512  0.3034
 2491SOL    HW118932   0.726   2.350   7.382  1.4852  1.2560 -0.6735
 2491SOL    HW218933   0.632   2.439   7.460 -0.3960  0.2889  0.0795
 2492SOL     OW18934   4.186   0.157   4.795  0.4800  0.0408 -0.0713
 2492SOL    HW118935   4.260   0.210   4.825 -0.5184  1.0057  0.7082
 2492SOL    HW218936   4.192   0.165   4.700 -0.3822  0.9253 -0.0457
 2493SOL     OW18937   2.058   4.161   4.686  0.4764 -0.3903  0.2974
 2493SOL    HW118938   1.993   4.147   4.617  0.2927 -1.3966  0.6806
 2493SOL    HW218939   2.007   4.176   4.766  0.9027  0.6838  0.3690
 2494SOL     OW18940   3.657   1.724  13.150  0.2686 -0.1918 -0.1761
 2494SOL    HW118941   3.604   1.774  13.088 -2.0054 -2.3933 -0.0332
 2494SOL    HW218942   3.685   1.798  13.203  1.3129 -1.2161  0.7247
 2495SOL     OW18943   4.406   0.432   6.020  0.5768  0.7081  0.2386
 2495SOL    HW118944   4.348   0.444   5.944 -0.4135  1.3887  1.1068
 2495SOL    HW218945   4.381   0.343   6.044  0.5895  0.5769 -0.2369
 2496SOL     OW18946   1.559   1.021   4.459  0.3468  0.1508  0.5330
 2496SOL    HW118947   1.487   1.074   4.494 -0.5069 -0.8791  0.3554
 2496SOL    HW218948   1.515   0.995   4.378  0.5098 -0.5459  0.6755
 2497SOL     OW18949   1.819   3.286   8.906  0.3543  0.0997 -0.3156
 2497SOL    HW118950   1.727   3.268   8.887  0.1474 -0.9070  1.7086
 2497SOL    HW218951   1.855   3.198   8.915 -1.9188 -0.8054  0.0521
 2498SOL     OW18952   3.308   0.615   6.635  0.7810  0.2553 -0.0877
 2498SOL    HW118953   3.336   0.528   6.663 -0.8283 -0.2496 -0.0638
 2498SOL    HW218954   3.233   0.633   6.692  0.9572  0.2518  0.1499
 2499SOL     OW18955   3.816   2.854   0.646  0.1242  0.1004  0.5292
 2499SOL    HW118956   3.845   2.870   0.557  1.3707 -3.2097  0.3086
 2499SOL    HW218957   3.843   2.764   0.668 -1.9906 -0.5241  0.5060
 2500SOL     OW18958   3.772   3.421  12.274 -0.0967 -0.1056  0.3382
 2500SOL    HW118959   3.677   3.431  12.274  0.1969  2.4564  0.5909
 2500SOL    HW218960   3.781   3.365  12.352  1.0721 -0.2185  0.1309
 2501SOL     OW18961   2.084   0.996   8.808 -0.4301 -0.3086  0.3459
 2501SOL    HW118962   2.057   0.904   8.806 -2.6379  0.2408  3.2982
 2501SOL    HW218963   1.999   1.031   8.835  1.0896  1.8172  2.3622
 2502SOL     OW18964   3.137   2.876   0.231  0.3370  0.4238  0.0478
 2502SOL    HW118965   3.209   2.895   0.291 -0.3377 -0.0195  1.0000
 2502SOL    HW218966   3.062   2.916   0.276  0.4002  0.6842 -0.0784
 2503SOL     OW18967   2.889   3.016  16.469 -0.5248 -0.4637  0.0796
 2503SOL    HW118968   2.862   2.947  16.408 -1.6297  0.2461 -0.2147
 2503SOL    HW218969   2.831   2.989  16.540 -1.7846 -1.1746 -1.2414
 2504SOL     OW18970   1.812   0.663   0.891 -0.1754  0.1369  0.0362
 2504SOL    HW118971   1.879   0.662   0.959  0.7101  0.1976 -0.8546
 2504SOL    HW218972   1.852   0.613   0.820  0.1643  0.4221  0.0307
 2505SOL     OW18973   2.446   2.074  13.228 -0.5408  0.2113 -0.2393
 2505SOL    HW118974   2.504   2.085  13.152  1.8933  1.1267  1.7392
 2505SOL    HW218975   2.405   1.992  13.203 -2.2585  1.1867 -0.6083
 2506SOL     OW18976   4.564   0.840   6.700  0.3866 -0.1964 -0.4266
 2506SOL    HW118977   4.479   0.875   6.727 -0.1049  0.8326 -3.2353
 2506SOL    HW218978   4.575   0.774   6.768 -0.8021 -1.3534 -1.3578
 2507SOL     OW18979   0.555   4.152  15.176  0.3827 -0.2547 -0.3430
 2507SOL    HW118980   0.558   4.177  15.083 -1.1963  1.5336  0.0946
 2507SOL    HW218981   0.641   4.185  15.203  2.0547 -2.7524 -2.5787
 2508SOL     OW18982   3.641   0.578   2.905 -0.5299 -0.1097 -0.1148
 2508SOL    HW118983   3.615   0.497   2.949 -2.7284  0.9564  0.5675
 2508SOL    HW218984   3.706   0.607   2.969  0.9154 -0.1347 -1.5754
 2509SOL     OW18985   3.716   2.558  12.329  0.4014  0.5619 -0.0876
 2509SOL    HW118986   3.694   2.504  12.253  1.2366  2.0990 -1.4205
 2509SOL    HW218987   3.630   2.598  12.341 -0.2826 -1.4426  1.7433
 2510SOL     OW18988   3.552   4.011   0.059 -1.1107 -0.1224 -0.1927
 2510SOL    HW118989   3.594   3.954   0.123  0.2686 -1.5311 -2.3325
 2510SOL    HW218990   3.587   4.099   0.075 -0.0558 -0.4387 -0.7779
 2511SOL     OW18991   3.816   2.162  15.043  0.2100  0.0007  0.0097
 2511SOL    HW118992   3.850   2.217  14.972  0.4336 -0.2540 -0.0808
 2511SOL    HW218993   3.759   2.100  14.998 -1.0685  2.0403 -1.1735
 2512SOL     OW18994   2.428   2.206  11.060  0.3200  0.3358 -0.2401
 2512SOL    HW118995   2.515   2.246  11.058  1.9533 -3.0827  0.8888
 2512SOL    HW218996   2.455   2.116  11.042 -0.7539 -0.5393  2.4250
 2513SOL     OW18997   2.884   4.327   7.887  0.1124 -0.5224  0.1847
 2513SOL    HW118998   2.866   4.415   7.919 -0.8286 -0.6091 -0.1029
 2513SOL    HW218999   2.911   4.349   7.798  1.9046  0.9787  1.1193
 2514SOL     OW19000   0.174   2.892  12.392 -0.0864 -0.3307 -0.0930
 2514SOL    HW119001   0.129   2.973  12.368 -0.5950  0.4452  3.5559
 2514SOL    HW219002   0.256   2.927  12.425  0.1896 -0.2204 -0.8933
 2515SOL     OW19003   0.267   1.658  14.442 -0.0015  0.0650 -0.6371
 2515SOL    HW119004   0.265   1.632  14.350 -1.3897  1.2302 -0.9341
 2515SOL    HW219005   0.351   1.703  14.437  0.0904 -0.1004 -0.5932
 2516SOL     OW19006   1.264   2.228  10.984 -0.0954  0.0926  0.1235
 2516SOL    HW119007   1.223   2.243  10.899  0.7963  2.3963  0.0804
 2516SOL    HW219008   1.356   2.230  10.957 -0.3326 -1.6710 -0.7582
 2517SOL     OW19009   0.578   1.156   4.514 -0.0462  0.6897 -0.6117
 2517SOL    HW119010   0.593   1.178   4.422 -0.0494  1.9031 -0.3311
 2517SOL    HW219011   0.619   1.234   4.551 -0.9300 -0.0671  1.9216
 2518SOL     OW19012   3.743   1.226   2.936 -0.2092  0.2192 -0.7669
 2518SOL    HW119013   3.777   1.141   2.908 -0.1317 -0.8239  2.4814
 2518SOL    HW219014   3.677   1.246   2.870 -0.6088 -0.5420 -0.5914
 2519SOL     OW19015   1.888   1.708   6.917 -0.0011 -0.3343  0.6778
 2519SOL    HW119016   1.918   1.685   7.004 -1.7686 -0.0699  1.3443
 2519SOL    HW219017   1.794   1.693   6.918  0.0144 -0.4810  0.1983
 2520SOL     OW19018   1.988   4.088   7.499  0.0514 -0.1943 -0.5666
 2520SOL    HW119019   1.893   4.092   7.507  0.2104 -0.6065  1.4425
 2520SOL    HW219020   2.009   4.019   7.562  0.6174 -2.0736 -2.7902
 2521SOL     OW19021   2.171   0.930  12.427 -0.2998 -0.2883  0.2123
 2521SOL    HW119022   2.246   0.885  12.467 -0.6288  0.0660  1.2470
 2521SOL    HW219023   2.109   0.868  12.465 -1.0028  0.2346 -0.0949
 2522SOL     OW19024   2.123   2.483  13.238  0.0276  0.0848  0.5641
 2522SOL    HW119025   2.049   2.451  13.289 -0.2889  1.2522  0.8472
 2522SOL    HW219026   2.082   2.500  13.153 -1.5871  0.9045  1.5085
 2523SOL     OW19027   0.591   0.451   5.208 -0.1166 -0.4194  0.1015
 2523SOL    HW119028   0.612   0.508   5.282 -2.5563 -0.2490  0.6445
 2523SOL    HW219029   0.587   0.526   5.149 -2.4142  0.0977  0.9182
 2524SOL     OW19030   2.986   1.909   7.769  0.4420 -0.3286  1.0691
 2524SOL    HW119031   2.964   1.978   7.707 -1.0995 -3.1432 -1.5008
 2524SOL    HW219032   2.907   1.856   7.768  1.5541 -1.9604 -0.4304
 2525SOL     OW19033   3.882   3.474  15.223 -0.1727  0.1754 -0.0309
 2525SOL    HW119034   3.963   3.484  15.273  1.7000  0.4406 -3.1091
 2525SOL    HW219035   3.837   3.412  15.280 -1.5599  1.3704  0.1554
 2526SOL     OW19036   2.836   4.341   5.336 -0.3753 -0.7311 -0.1907
 2526SOL    HW119037   2.843   4.342   5.431 -0.7744 -3.8557 -0.1337
 2526SOL    HW219038   2.752   4.387   5.325  0.3813  0.3009 -1.6904
 2527SOL     OW19039   3.922   2.160   1.115  0.4057  0.0953 -0.2346
 2527SOL    HW119040   3.828   2.173   1.103  0.4489  0.8414  0.2344
 2527SOL    HW219041   3.949   2.247   1.087  0.7927 -0.3879 -1.3456
 2528SOL     OW19042   1.748   4.008   5.443  0.5381 -0.2945  0.3338
 2528SOL    HW119043   1.665   3.972   5.412  0.0795  0.1219  1.0873
 2528SOL    HW219044   1.717   4.032   5.530  0.1054  1.4022 -0.2852
 2529SOL     OW19045   2.430   4.120   3.252  0.1499 -0.7138  0.4824
 2529SOL    HW119046   2.414   4.204   3.210  1.1273 -0.6128  0.3184
 2529SOL    HW219047   2.449   4.072   3.172  0.7641 -2.5719  1.7306
 2530SOL     OW19048   2.700   0.356   6.076 -0.2587  0.1811  0.1692
 2530SOL    HW119049   2.714   0.262   6.065  1.3425  0.5728 -1.1772
 2530SOL    HW219050   2.784   0.395   6.051 -0.0833 -0.2746  0.0629
 2531SOL     OW19051   1.985   3.580   6.016  0.5994  0.1771  0.6115
 2531SOL    HW119052   2.045   3.606   5.946 -1.6477 -1.8519 -2.0455
 2531SOL    HW219053   2.030   3.594   6.100  1.2946 -0.7365  0.3939
 2532SOL     OW19054   1.685   3.580  11.061 -0.0839  0.1307  0.3534
 2532SOL    HW119055   1.767   3.574  11.012 -0.6725  1.2846 -0.7985
 2532SOL    HW219056   1.679   3.499  11.111  1.6095  0.7468  1.5507
 2533SOL     OW19057   4.192   3.918  14.425  0.0989 -0.6113  0.3228
 2533SOL    HW119058   4.118   3.980  14.429 -0.3168 -1.1259  0.6359
 2533SOL    HW219059   4.258   3.967  14.377 -1.6987  0.4188 -1.1423
 2534SOL     OW19060   1.546   4.106   8.147 -0.0985  0.7824 -0.1044
 2534SOL    HW119061   1.532   4.195   8.178  0.4153  0.2107  1.7220
 2534SOL    HW219062   1.558   4.053   8.225 -0.5020  0.0455 -0.5392
 2535SOL     OW19063   0.351   0.723   1.352 -0.6345  0.4916 -0.6235
 2535SOL    HW119064   0.261   0.708   1.324 -0.7493 -1.1854  0.6334
 2535SOL    HW219065   0.409   0.683   1.288  0.3888  3.2722 -1.4298
 2536SOL     OW19066   0.400   4.700   2.768  0.2656 -0.3474  0.0499
 2536SOL    HW119067   0.448   4.690   2.851  2.3465 -1.1638 -1.2602
 2536SOL    HW219068   0.382   0.069   2.775  0.3023 -0.3097 -0.3532
 2537SOL     OW19069   1.291   0.100  11.428 -0.6701  0.2012 -0.1073
 2537SOL    HW119070   1.230   0.026  11.440 -2.3102  1.6504  0.4358
 2537SOL    HW219071   1.289   0.136  11.517 -0.2649 -3.2351  1.2960
 2538SOL     OW19072   4.118   1.757  11.724 -0.3987 -0.0158  0.2378
 2538SOL    HW119073   4.200   1.802  11.703 -0.6332  0.2467 -0.1132
 2538SOL    HW219074   4.065   1.831  11.753  0.7222  0.1813  1.7807
 2539SOL     OW19075   0.716   1.291  10.825 -0.7577  0.1041 -0.3123
 2539SOL    HW119076   0.709   1.385  10.813 -2.0909 -0.2240 -2.0912
 2539SOL    HW219077   0.778   1.292  10.898 -1.8198  0.7263  0.5883
 2540SOL     OW19078   3.458   3.263  13.010  0.0105 -0.9470 -0.3586
 2540SOL    HW119079   3.436   3.186  13.062 -0.5399  1.1338  2.4968
 2540SOL    HW219080   3.474   3.234  12.920 -3.0253  1.4482 -1.6646
 2541SOL     OW19081   1.487   1.593   4.960 -0.0241  0.5827 -0.4057
 2541SOL    HW119082   1.564   1.592   4.904 -1.9831 -1.4648 -3.0983
 2541SOL    HW219083   1.528   1.549   5.035  1.0280  2.2361 -0.0193
 2542SOL     OW19084   1.070   0.834   7.809  0.1422 -0.0218 -0.2642
 2542SOL    HW119085   1.030   0.772   7.869 -0.4329  3.2563  2.7101
 2542SOL    HW219086   1.147   0.856   7.860  0.3863 -0.3498 -0.4931
 2543SOL     OW19087   3.480   0.353   6.158  0.4743  0.0124  0.2043
 2543SOL    HW119088   3.461   0.410   6.233 -0.4157  0.0424 -0.0417
 2543SOL    HW219089   3.467   0.419   6.090  1.6548  1.9075  1.7935
 2544SOL     OW19090   0.825   1.304  13.165  0.4195 -0.0017  0.3863
 2544SOL    HW119091   0.882   1.315  13.242  0.0536 -1.3896  0.8697
 2544SOL    HW219092   0.760   1.248  13.208 -1.5463  0.7600 -1.6531
 2545SOL     OW19093   0.718   2.998   6.771  0.1829 -0.3839 -0.1415
 2545SOL    HW119094   0.782   2.948   6.822 -1.2127  0.9612  2.8966
 2545SOL    HW219095   0.756   2.994   6.683 -0.6873 -0.1827 -0.5167
 2546SOL     OW19096   0.503   3.062  13.789  0.3103  0.5987  0.4762
 2546SOL    HW119097   0.463   2.981  13.760 -0.3014  0.8827  0.5174
 2546SOL    HW219098   0.540   3.035  13.873 -1.2793  1.8430  1.5926
 2547SOL     OW19099   4.239   1.941   5.608 -0.1121 -0.1561  0.8293
 2547SOL    HW119100   4.254   1.974   5.520 -0.6519  3.3064  2.0411
 2547SOL    HW219101   4.159   1.989   5.629 -0.0973 -0.6852  2.1376
 2548SOL     OW19102   4.165   2.308   5.629 -0.0576  0.3243 -0.4579
 2548SOL    HW119103   4.101   2.369   5.591 -1.2790 -1.5273 -1.3547
 2548SOL    HW219104   4.107   2.236   5.653  0.8109  0.4091  1.9098
 2549SOL     OW19105   1.816   3.600  12.861  0.1272  0.2921  0.0732
 2549SOL    HW119106   1.857   3.679  12.895 -0.2045  1.3353 -1.9736
 2549SOL    HW219107   1.876   3.532  12.893  2.1758  1.8987 -0.3045
 2550SOL     OW19108   3.637   4.253   1.175 -0.4781  0.7725  0.2041
 2550SOL    HW119109   3.541   4.253   1.169 -0.6137  1.7951  2.3089
 2550SOL    HW219110   3.658   4.346   1.188  0.4978  0.6834 -0.7267
 2551SOL     OW19111   4.373   4.515   0.327 -0.1244  0.2985  0.3949
 2551SOL    HW119112   4.453   4.532   0.276 -0.0333 -0.4359  0.2869
 2551SOL    HW219113   4.352   4.604   0.356  1.8537  1.1897 -0.8412
 2552SOL     OW19114   1.306   3.313   5.029  0.2652 -0.1293 -0.3845
 2552SOL    HW119115   1.398   3.338   5.039 -0.2395  1.8379 -0.7306
 2552SOL    HW219116   1.286   3.328   5.121 -2.1426  0.0514 -0.9383
 2553SOL     OW19117   0.909   1.976   2.524  0.3164 -0.1510 -0.3990
 2553SOL    HW119118   0.941   2.065   2.514  1.9436 -0.8104 -1.1297
 2553SOL    HW219119   0.817   1.998   2.529  0.1722 -1.0318  0.7596
 2554SOL     OW19120   2.497   4.250   5.096  1.0518  0.0754 -0.5298
 2554SOL    HW119121   2.425   4.258   5.034  2.0056  2.4033 -1.3192
 2554SOL    HW219122   2.446   4.265   5.175  2.8120  0.1171  0.5911
 2555SOL     OW19123   1.493   1.922  10.400  0.0009 -0.1036 -0.1081
 2555SOL    HW119124   1.418   1.982  10.390  0.3027  0.0017 -1.7332
 2555SOL    HW219125   1.535   1.947  10.318  1.8968  0.0787  0.9346
 2556SOL     OW19126   0.790   2.412   3.515  0.0423  0.3113  0.4866
 2556SOL    HW119127   0.729   2.446   3.450 -0.0144  0.5975  0.6881
 2556SOL    HW219128   0.732   2.359   3.570 -0.4457  0.2774 -0.0590
 2557SOL     OW19129   1.324   1.768   7.236  0.6848 -0.3676  0.0507
 2557SOL    HW119130   1.287   1.701   7.178  0.3585 -1.4275  1.4810
 2557SOL    HW219131   1.374   1.821   7.174 -1.0414 -1.0064 -1.8705
 2558SOL     OW19132   4.039   2.093   5.326  0.0204 -0.0472  0.3203
 2558SOL    HW119133   3.996   2.128   5.404 -3.2018  0.8590 -1.8494
 2558SOL    HW219134   4.127   2.069   5.356  1.2009  2.3453 -1.1745
 2559SOL     OW19135   1.202   4.087  15.358 -0.2063  0.0331 -0.2873
 2559SOL    HW119136   1.218   4.166  15.306  1.4110 -0.0849  0.0483
 2559SOL    HW219137   1.121   4.111  15.403  1.7753 -1.1409  3.8230
 2560SOL     OW19138   2.307   1.092   0.900  0.4133 -0.2510 -0.5048
 2560SOL    HW119139   2.377   1.138   0.855  0.1763 -0.1586 -0.7790
 2560SOL    HW219140   2.335   1.097   0.991 -1.7980 -1.0513  0.2120
 2561SOL     OW19141   0.085   2.509   4.640 -0.1190 -0.1438  0.4939
 2561SOL    HW119142   0.007   2.519   4.585  0.8223 -1.3632 -1.0711
 2561SOL    HW219143   0.154   2.566   4.604 -1.6245  2.2532  1.4363
 2562SOL     OW19144   2.780   2.978   9.061 -0.5724 -0.1953  0.0263
 2562SOL    HW119145   2.746   2.963   9.149 -0.8155  1.8933  0.2915
 2562SOL    HW219146   2.875   2.965   9.070 -0.7062 -0.0358  1.5480
 2563SOL     OW19147   3.511   1.247  11.545 -0.0809  0.2574  0.1155
 2563SOL    HW119148   3.584   1.188  11.529 -2.3694 -2.3385 -0.8629
 2563SOL    HW219149   3.507   1.241  11.641  3.5794 -4.1871  0.0032
 2564SOL     OW19150   4.264   0.161   5.509 -0.3411  0.0223 -0.0839
 2564SOL    HW119151   4.239   0.069   5.515  0.6621 -0.4703 -3.2330
 2564SOL    HW219152   4.330   0.182   5.575 -0.9834 -0.0899  0.5880
 2565SOL     OW19153   1.660   0.830   6.277 -0.1362  0.2919 -0.1253
 2565SOL    HW119154   1.590   0.776   6.315 -2.0581  2.8463 -0.0642
 2565SOL    HW219155   1.609   0.899   6.236 -2.1835 -0.7373  0.6842
 2566SOL     OW19156   0.615   0.163   7.133  0.0120  0.1701  0.1534
 2566SOL    HW119157   0.671   0.240   7.144  1.9200 -1.1908 -0.0008
 2566SOL    HW219158   0.677   0.093   7.152  0.3143  0.5298  0.4807
 2567SOL     OW19159   2.417   4.449   3.651  0.1064 -0.4567 -0.4585
 2567SOL    HW119160   2.342   4.465   3.594  0.2561  0.7409 -0.3361
 2567SOL    HW219161   2.434   4.358   3.627  4.0198  0.4691 -1.2808
 2568SOL     OW19162   0.490   2.086   6.030 -0.1878  0.5305 -0.2187
 2568SOL    HW119163   0.465   2.015   6.089 -0.7535 -0.1197 -1.2499
 2568SOL    HW219164   0.562   2.130   6.076 -0.1215 -0.4771  0.6630
 2569SOL     OW19165   1.174   1.842   7.839 -0.0175 -0.4332  0.4337
 2569SOL    HW119166   1.267   1.824   7.849  0.2294  0.4015 -0.3495
 2569SOL    HW219167   1.135   1.790   7.909  0.6988  0.1352  1.2577
 2570SOL     OW19168   3.513   1.887   4.758 -0.5819 -0.0901 -0.3236
 2570SOL    HW119169   3.472   1.871   4.673 -0.4998 -2.7019  0.1435
 2570SOL    HW219170   3.528   1.800   4.794  1.5708  0.1828 -0.5432
 2571SOL     OW19171   0.017   0.383   7.365  0.1902  0.4459  0.6119
 2571SOL    HW119172   4.701   0.347   7.443  1.8925 -2.8432 -0.0210
 2571SOL    HW219173   0.112   0.375   7.376  0.3928  2.3231  0.2729
 2572SOL     OW19174   2.295   1.477   4.397  0.6708 -0.5596  0.3785
 2572SOL    HW119175   2.311   1.551   4.337  1.8106 -1.2400 -0.1531
 2572SOL    HW219176   2.200   1.467   4.384  0.7607 -1.9561  0.8234
 2573SOL     OW19177   1.541   0.869   3.295 -0.0715 -0.5329 -0.0383
 2573SOL    HW119178   1.626   0.904   3.323 -0.6479 -1.5204  2.9651
 2573SOL    HW219179   1.545   0.870   3.199  1.9865 -0.2636  0.0301
 2574SOL     OW19180   0.713   3.574   4.202  0.5273  0.2275 -0.5255
 2574SOL    HW119181   0.721   3.507   4.269  0.5753  1.6056  0.8338
 2574SOL    HW219182   0.751   3.528   4.127  0.6501  0.1673 -0.4259
 2575SOL     OW19183   0.264   0.586  10.253 -0.0227  0.0601  0.4051
 2575SOL    HW119184   0.319   0.554  10.182 -0.3458 -0.3812  0.3558
 2575SOL    HW219185   0.214   0.643  10.195  2.4612  1.6551 -0.1786
 2576SOL     OW19186   4.537   3.673   7.448 -0.0309 -0.7662 -0.0285
 2576SOL    HW119187   4.617   3.684   7.499  1.6413 -1.7058 -2.4191
 2576SOL    HW219188   4.559   3.594   7.398  0.0152 -1.1104  0.5267
 2577SOL     OW19189   2.030   0.660  13.297 -0.3772 -0.3714 -0.3394
 2577SOL    HW119190   1.954   0.617  13.336 -1.0622 -1.2583 -2.6501
 2577SOL    HW219191   2.038   0.738  13.353  2.0180 -0.1766 -0.9441
 2578SOL     OW19192   2.258   3.862  13.168  0.8989 -0.0680 -0.1034
 2578SOL    HW119193   2.256   3.878  13.262  3.4787  2.8519 -0.5912
 2578SOL    HW219194   2.203   3.783  13.166  1.0098 -0.1471 -0.0287
 2579SOL     OW19195   1.269   0.031  15.953  0.6344  0.0272 -0.2206
 2579SOL    HW119196   1.297   4.711  15.873 -0.0572 -0.3765 -0.2455
 2579SOL    HW219197   1.267   4.690  16.023 -0.2792 -1.1769 -1.3688
 2580SOL     OW19198   4.200   0.023   1.686 -0.0065 -0.6579  0.0292
 2580SOL    HW119199   4.223   0.038   1.594 -0.2047  0.2604  0.1326
 2580SOL    HW219200   4.243   0.087   1.742  1.2574 -3.0956  1.8670
 2581SOL     OW19201   1.535   1.884   2.210 -0.2672  0.0602 -0.5122
 2581SOL    HW119202   1.605   1.909   2.270 -1.5514  0.2243  0.9182
 2581SOL    HW219203   1.551   1.790   2.208 -0.7310 -0.0738  1.9777
 2582SOL     OW19204   3.958   0.778   8.280  0.4358 -0.7686 -0.1076
 2582SOL    HW119205   3.863   0.783   8.273  0.3605 -2.2712 -0.1673
 2582SOL    HW219206   3.974   0.701   8.335 -0.5079  0.2673  1.6310
 2583SOL     OW19207   1.407   1.574  16.092  0.0954 -0.1344  0.3320
 2583SOL    HW119208   1.373   1.662  16.075  1.1886  0.0603 -0.9137
 2583SOL    HW219209   1.325   1.526  16.099  1.3534 -2.1945  1.0991
 2584SOL     OW19210   4.112   1.064   7.775 -0.3953  0.9874 -0.4000
 2584SOL    HW119211   4.164   1.067   7.694 -0.6420  0.5754 -0.5784
 2584SOL    HW219212   4.039   1.124   7.760 -0.1083  1.5577  0.4992
 2585SOL     OW19213   3.513   2.493   6.560  0.4416 -0.0351 -0.2642
 2585SOL    HW119214   3.543   2.458   6.644  0.2539  0.8253  0.1605
 2585SOL    HW219215   3.570   2.444   6.501  0.8306 -1.2759  1.1362
 2586SOL     OW19216   0.629   3.166   4.523 -0.3847 -0.3427 -0.4072
 2586SOL    HW119217   0.721   3.174   4.500 -0.7406  1.2587 -1.2536
 2586SOL    HW219218   0.634   3.123   4.609 -1.6135  0.0976 -0.1116
 2587SOL     OW19219   0.186   2.844  16.191 -0.2507  0.0538  0.4574
 2587SOL    HW119220   0.160   2.841  16.283 -0.2542 -2.0169  0.3785
 2587SOL    HW219221   0.129   2.914  16.158 -0.5899 -0.8803 -0.9242
 2588SOL     OW19222   1.566   0.191   2.541  0.6404  0.7337  0.1109
 2588SOL    HW119223   1.610   0.264   2.586  2.5129  0.5780 -1.4416
 2588SOL    HW219224   1.588   0.122   2.603 -2.2276 -0.3350 -0.0546
 2589SOL     OW19225   0.987   2.596   7.467  0.0000  0.3074  0.4476
 2589SOL    HW119226   0.892   2.590   7.458  0.1850 -1.1607 -0.5216
 2589SOL    HW219227   1.001   2.606   7.561 -1.6768  2.1672  0.4978
 2590SOL     OW19228   3.383   3.177   1.686  0.2208 -0.9729  0.7935
 2590SOL    HW119229   3.290   3.200   1.697  0.3757  0.1171 -0.1416
 2590SOL    HW219230   3.365   3.106   1.624 -1.4530  0.5679 -0.5133
 2591SOL     OW19231   2.171   0.216   5.564  0.5720  0.3759  0.2624
 2591SOL    HW119232   2.162   0.130   5.605 -0.6780  1.3665  2.0781
 2591SOL    HW219233   2.080   0.226   5.536  0.1835  1.6344  1.9683
 2592SOL     OW19234   0.041   4.569   5.710  0.0886  0.2988  0.7098
 2592SOL    HW119235   0.137   4.572   5.709  0.1118 -0.5319 -0.0155
 2592SOL    HW219236   0.027   4.510   5.784 -1.2463  0.0517  0.2656
 2593SOL     OW19237   0.306   4.439   2.875  0.1198 -0.0509  0.4345
 2593SOL    HW119238   0.268   4.499   2.940 -0.0498  1.0929 -0.7070
 2593SOL    HW219239   0.379   4.395   2.916  0.2783  0.1079  0.3241
 2594SOL     OW19240   1.961   2.560   9.219  0.0236 -0.2187 -0.5339
 2594SOL    HW119241   1.958   2.602   9.133  1.4529 -0.7336 -0.8422
 2594SOL    HW219242   1.886   2.502   9.224  2.6380 -3.5195  0.3392
 2595SOL     OW19243   3.017   3.102   0.379  0.3007 -0.0515 -0.4892
 2595SOL    HW119244   2.922   3.093   0.387  0.0827  1.7295 -1.2928
 2595SOL    HW219245   3.032   3.191   0.409 -1.5997  0.3907 -0.8487
 2596SOL     OW19246   0.714   0.259   8.935 -0.7216  0.2271 -0.3824
 2596SOL    HW119247   0.721   0.251   9.030 -0.9914  0.6882 -0.3230
 2596SOL    HW219248   0.774   0.331   8.916  1.2389 -0.3810  3.7135
 2597SOL     OW19249   2.419   2.851   2.543  0.1151 -0.2285  0.2785
 2597SOL    HW119250   2.373   2.813   2.619  0.1372 -1.3088 -0.2514
 2597SOL    HW219251   2.349   2.845   2.478  1.6480 -0.8403 -1.3152
 2598SOL     OW19252   0.111   1.162   5.688  0.0264  0.2552  0.2078
 2598SOL    HW119253   0.142   1.120   5.608  2.3597  2.3430  0.0342
 2598SOL    HW219254   0.182   1.220   5.714 -0.7811  2.0569 -1.5537
 2599SOL     OW19255   3.968   2.909   3.967 -0.2476 -0.3103 -0.3150
 2599SOL    HW119256   4.018   2.913   4.048 -0.5137 -2.1660 -0.0602
 2599SOL    HW219257   4.001   2.829   3.928  1.3040  0.3021 -0.2617
 2600SOL     OW19258   1.051   0.239   8.896  0.2031  0.1174 -0.9651
 2600SOL    HW119259   1.046   0.212   8.804  4.4843 -1.1871 -0.8359
 2600SOL    HW219260   1.014   0.327   8.895 -2.6377 -1.0926 -0.9352
 2601SOL     OW19261   2.303   0.016   1.250  0.1514 -0.3068  0.1047
 2601SOL    HW119262   2.394   0.024   1.280  0.6005  1.1567 -1.6036
 2601SOL    HW219263   2.312   4.647   1.234  1.0022 -0.4013  1.1134
 2602SOL     OW19264   1.832   4.406   9.794  0.1812 -0.1838 -0.1531
 2602SOL    HW119265   1.835   4.319   9.754 -0.9630  0.1733 -1.0296
 2602SOL    HW219266   1.906   4.410   9.855  0.1237 -0.3967 -0.0686
 2603SOL     OW19267   4.286   1.257  14.628 -0.3158  0.2142 -0.4952
 2603SOL    HW119268   4.382   1.256  14.632 -0.3436 -0.8355 -0.0783
 2603SOL    HW219269   4.277   1.345  14.591  1.1851  0.6118  0.0874
 2604SOL     OW19270   1.559   3.719   7.867 -0.3128  0.0140 -0.3613
 2604SOL    HW119271   1.601   3.697   7.784 -0.7905  0.0194 -0.6058
 2604SOL    HW219272   1.606   3.652   7.917  0.6567  1.1234  0.2106
 2605SOL     OW19273   1.973   0.792  13.699 -0.2626 -0.3723 -0.3307
 2605SOL    HW119274   1.906   0.813  13.764  0.1208  0.8959 -0.3442
 2605SOL    HW219275   1.944   0.711  13.658 -1.8800 -0.7180  1.5086
 2606SOL     OW19276   2.402   2.502   9.625  0.3333  0.6423  0.5912
 2606SOL    HW119277   2.390   2.425   9.570  2.2368  1.0884 -0.4389
 2606SOL    HW219278   2.378   2.474   9.713 -1.8725 -0.6227 -0.4094
 2607SOL     OW19279   1.327   2.168   7.081 -0.1966  0.0345 -0.0280
 2607SOL    HW119280   1.268   2.235   7.047  0.4136 -0.5878 -2.2743
 2607SOL    HW219281   1.383   2.145   7.007 -0.7137 -0.2045 -0.3420
 2608SOL     OW19282   4.491   4.205   1.279 -0.2647  0.5175 -0.2055
 2608SOL    HW119283   4.415   4.259   1.255 -1.0179 -0.6691 -0.5104
 2608SOL    HW219284   4.461   4.116   1.261  0.3983  0.4022 -0.7160
 2609SOL     OW19285   4.556   2.453   6.605 -0.0512  0.2780 -0.7055
 2609SOL    HW119286   4.514   2.521   6.658 -1.0629 -0.2403 -0.8436
 2609SOL    HW219287   4.595   2.506   6.536 -0.0804  1.0066 -0.1724
 2610SOL     OW19288   0.368   1.746   5.103  0.1063 -0.1326 -0.0206
 2610SOL    HW119289   0.432   1.814   5.122 -1.3351  1.4334 -0.8051
 2610SOL    HW219290   0.415   1.669   5.135  0.4528 -0.4069 -1.1941
 2611SOL     OW19291   4.006   0.418   4.903  0.0573  0.0384 -0.4171
 2611SOL    HW119292   4.037   0.416   4.993 -2.4329 -0.3017  0.4216
 2611SOL    HW219293   4.085   0.454   4.863 -0.1836 -0.4183 -1.3205
 2612SOL     OW19294   2.191   0.683  10.257 -0.0707  0.3954  0.2739
 2612SOL    HW119295   2.253   0.667  10.328 -1.7706 -0.2014  1.6142
 2612SOL    HW219296   2.165   0.596  10.228  1.7588 -0.2164  0.4777
 2613SOL     OW19297   2.533   1.840  11.847 -0.5502 -0.1205  0.3008
 2613SOL    HW119298   2.523   1.746  11.856  2.3977 -0.4831 -0.2979
 2613SOL    HW219299   2.450   1.859  11.802 -0.0968  0.0773 -0.4517
 2614SOL     OW19300   4.410   4.346   2.706  0.8318 -0.5119 -0.5394
 2614SOL    HW119301   4.354   4.421   2.723 -1.1518 -2.1543  0.0634
 2614SOL    HW219302   4.491   4.398   2.706  1.2948 -1.2305 -0.8275
 2615SOL     OW19303   4.693   4.531   6.365  0.4612 -0.0653 -0.2153
 2615SOL    HW119304   4.618   4.585   6.390  0.3629 -0.6737  0.8037
 2615SOL    HW219305   4.645   4.451   6.342 -0.1763 -0.0157  0.9323
 2616SOL     OW19306   2.907   4.068  15.322 -0.2982  0.3919  0.0389
 2616SOL    HW119307   2.963   4.116  15.384  0.0632  1.3451 -1.0168
 2616SOL    HW219308   2.964   4.059  15.246 -2.5322 -0.6917 -1.4883
 2617SOL     OW19309   0.835   1.484   2.059  0.8011 -0.0599  0.6181
 2617SOL    HW119310   0.791   1.414   2.010 -0.8103  2.0668 -0.9609
 2617SOL    HW219311   0.907   1.429   2.090  0.5567 -1.3211 -1.0614
 2618SOL     OW19312   1.595   2.123  13.181  0.3363 -0.2823  0.1098
 2618SOL    HW119313   1.586   2.037  13.224 -1.0289  0.5318  1.4382
 2618SOL    HW219314   1.688   2.111  13.158  0.4389  0.3277  0.2097
 2619SOL     OW19315   3.330   2.758   0.088 -0.1200 -0.4378 -0.1369
 2619SOL    HW119316   3.287   2.677   0.115 -0.2284 -0.1683  0.4917
 2619SOL    HW219317   3.272   2.824   0.126  0.2023 -0.2415  0.0126
 2620SOL     OW19318   1.322   4.287  12.503  0.2409  0.0866 -0.1578
 2620SOL    HW119319   1.418   4.284  12.505  0.1842 -1.3064  0.4486
 2620SOL    HW219320   1.304   4.193  12.498 -1.4293  0.2473  2.7779
 2621SOL     OW19321   3.693   4.062  14.750  0.6998  0.4287 -0.1283
 2621SOL    HW119322   3.664   4.020  14.670 -3.2689  2.6092  0.1576
 2621SOL    HW219323   3.629   4.133  14.744 -1.5079 -1.2471  3.6331
 2622SOL     OW19324   2.800   3.000   9.495 -0.4012  0.1892  0.8933
 2622SOL    HW119325   2.878   3.001   9.551 -0.5356  1.1646  1.0644
 2622SOL    HW219326   2.821   3.080   9.446 -0.6574 -0.5138 -0.3587
 2623SOL     OW19327   3.646   3.105   0.616  0.1930  0.5522  0.2937
 2623SOL    HW119328   3.601   3.118   0.533 -2.4325 -0.0060  1.6400
 2623SOL    HW219329   3.676   3.015   0.607  2.4722  1.3996 -0.5032
 2624SOL     OW19330   0.950   2.785  13.999  0.0924 -0.5650  0.3573
 2624SOL    HW119331   0.932   2.821  14.087  0.8898  0.6572  0.0263
 2624SOL    HW219332   0.863   2.754  13.975 -0.5438  1.1744  0.4218
 2625SOL     OW19333   1.893   1.545   2.300  0.1333  0.1606 -0.4509
 2625SOL    HW119334   1.935   1.579   2.379 -3.5581 -0.7115  1.9104
 2625SOL    HW219335   1.912   1.452   2.312 -2.1255 -0.4173 -1.4321
 2626SOL     OW19336   1.867   1.480  10.055  0.5783  0.0923  0.3414
 2626SOL    HW119337   1.952   1.464  10.013  1.3513 -0.7434  2.2409
 2626SOL    HW219338   1.888   1.525  10.136 -0.1353  2.9512 -1.0435
 2627SOL     OW19339   3.961   3.371   2.838 -0.2129  0.0144  0.3139
 2627SOL    HW119340   4.040   3.318   2.827 -1.2742 -0.7230 -3.8161
 2627SOL    HW219341   3.981   3.436   2.771  0.8681 -0.9506 -0.3018
 2628SOL     OW19342   2.989   3.446   8.097  0.1163 -0.4610 -0.0450
 2628SOL    HW119343   3.045   3.405   8.163  0.2094  0.4253  0.4220
 2628SOL    HW219344   2.910   3.393   8.104 -0.5574  0.4183 -1.0933
 2629SOL     OW19345   1.382   0.443   0.186  0.1563 -0.1641 -0.0164
 2629SOL    HW119346   1.425   0.384   0.248  1.1422 -0.2650 -0.7991
 2629SOL    HW219347   1.298   0.406   0.159 -0.1744  1.7437 -1.5461
 2630SOL     OW19348   1.668   0.537   9.864 -0.1166  0.5375 -0.0383
 2630SOL    HW119349   1.681   0.545   9.770  1.2358 -0.2805  0.0719
 2630SOL    HW219350   1.699   0.449   9.886  0.3424  0.6778 -0.1088
 2631SOL     OW19351   3.311   4.166   3.406 -0.0265 -0.4355  0.4166
 2631SOL    HW119352   3.357   4.138   3.327  0.0070  0.6254  0.0693
 2631SOL    HW219353   3.382   4.188   3.466 -0.2796  0.5538  0.3403
 2632SOL     OW19354   2.153   1.197  15.559  0.0974  0.5365  0.9294
 2632SOL    HW119355   2.068   1.230  15.530 -0.5026 -1.7039  0.1692
 2632SOL    HW219356   2.211   1.264  15.523 -0.0802  0.4539  0.4886
 2633SOL     OW19357   4.515   3.269   3.908  0.5974 -0.1780 -0.1991
 2633SOL    HW119358   4.533   3.259   3.815 -0.9195 -1.1742 -0.3860
 2633SOL    HW219359   4.426   3.235   3.916  1.0086 -1.4581 -1.1194
 2634SOL     OW19360   4.324   0.253   5.241 -0.2253  0.0499 -0.3046
 2634SOL    HW119361   4.280   0.209   5.314  1.0892  1.1044  1.1000
 2634SOL    HW219362   4.413   0.219   5.251  0.2156  0.7320 -1.8581
 2635SOL     OW19363   2.899   3.735   3.979  0.2234  0.0322 -0.1165
 2635SOL    HW119364   2.951   3.778   4.046 -0.7676  0.8168  0.1459
 2635SOL    HW219365   2.829   3.797   3.958 -0.5957 -0.7024  0.4208
 2636SOL     OW19366   3.420   4.464   1.507  0.4292 -0.2539 -0.2485
 2636SOL    HW119367   3.460   4.498   1.587  1.6936  0.8313 -1.3492
 2636SOL    HW219368   3.392   4.378   1.537 -1.7097 -0.7652 -3.6931
 2637SOL     OW19369   0.935   2.205   8.559  0.3111  0.4044 -0.1532
 2637SOL    HW119370   0.931   2.299   8.544  0.7285  0.1774 -1.6312
 2637SOL    HW219371   0.936   2.196   8.655 -3.9798  0.4700 -0.1203
 2638SOL     OW19372   4.695   2.994  16.851  0.6116  0.3720 -0.2996
 2638SOL    HW119373   4.685   2.962  16.761 -1.1540 -2.1404  0.7910
 2638SOL    HW219374   4.647   2.924  16.895  1.5074  1.3693  2.2642
 2639SOL     OW19375   2.207   0.297   4.807 -0.6622 -0.0782  0.5135
 2639SOL    HW119376   2.139   0.269   4.746 -0.2140 -1.5358  0.6924
 2639SOL    HW219377   2.162   0.377   4.834  0.1310  0.8491 -0.9006
 2640SOL     OW19378   2.352   3.435   0.829 -0.0755  0.0190 -0.4465
 2640SOL    HW119379   2.316   3.412   0.744 -0.9978 -2.7988  0.6865
 2640SOL    HW219380   2.348   3.530   0.826  2.1895  0.1422  0.5946
 2641SOL     OW19381   2.185   1.407   6.195 -0.0882  0.2426 -0.0832
 2641SOL    HW119382   2.177   1.491   6.240  2.9054 -0.6733  2.1422
 2641SOL    HW219383   2.187   1.429   6.102 -0.0651 -0.5452 -0.2707
 2642SOL     OW19384   2.600   4.611   9.787  0.9066  0.1657 -0.4011
 2642SOL    HW119385   2.602   4.623   9.882 -0.3306  0.2307 -0.3782
 2642SOL    HW219386   2.535   4.541   9.780  0.3429  0.6268  0.2490
 2643SOL     OW19387   3.373   0.464  12.321 -0.5431  0.3949 -0.6244
 2643SOL    HW119388   3.422   0.396  12.273 -1.3184 -1.2753  0.9674
 2643SOL    HW219389   3.320   0.421  12.388  0.9283  1.8290  1.4293
 2644SOL     OW19390   0.319   1.793   9.929  0.2401 -0.6707 -1.0429
 2644SOL    HW119391   0.316   1.706   9.890 -0.7466 -0.1790 -2.0463
 2644SOL    HW219392   0.403   1.785   9.975 -0.7288 -1.9165  0.5336
 2645SOL     OW19393   3.494   0.473   4.200 -0.2813  0.3098  0.1119
 2645SOL    HW119394   3.512   0.447   4.290 -0.7105  0.1803  0.1617
 2645SOL    HW219395   3.463   0.392   4.160  0.7624 -0.7357  1.4152
 2646SOL     OW19396   4.650   2.824  12.152  0.1145 -0.2086 -0.5159
 2646SOL    HW119397   4.573   2.811  12.096 -1.1231 -0.6289  1.2777
 2646SOL    HW219398   4.635   2.905  12.199  0.3844  0.1219 -1.0000
 2647SOL     OW19399   0.418   2.440   8.693 -0.7144 -0.4456  0.2179
 2647SOL    HW119400   0.419   2.530   8.724 -2.6389 -0.5257  0.4933
 2647SOL    HW219401   0.397   2.449   8.600 -1.0196  2.2600  0.5622
 2648SOL     OW19402   0.305   0.581   2.612 -0.7316 -0.0890  0.6167
 2648SOL    HW119403   0.376   0.523   2.638  0.3394  1.1901  0.5406
 2648SOL    HW219404   0.304   0.662   2.662 -1.7093  1.9522 -2.6713
 2649SOL     OW19405   4.098   1.897   7.175  0.4576 -0.7646 -0.2617
 2649SOL    HW119406   4.159   1.927   7.108  0.2343 -0.1851 -0.2062
 2649SOL    HW219407   4.060   1.979   7.205  1.2763 -0.5469  0.1713
 2650SOL     OW19408   2.013   3.179   9.430 -0.0295  0.4762  0.2466
 2650SOL    HW119409   2.000   3.130   9.511  0.0148  0.2187  0.0947
 2650SOL    HW219410   2.069   3.252   9.457  0.6621  0.2583 -0.6407
 2651SOL     OW19411   3.283   0.086   3.809  0.6143 -0.3136 -0.0561
 2651SOL    HW119412   3.339   0.156   3.776 -0.9893  0.0411 -2.0691
 2651SOL    HW219413   3.352   0.021   3.818 -1.4013 -2.3095  1.1077
 2652SOL     OW19414   0.774   1.032  16.203 -0.0022 -0.6837 -0.3339
 2652SOL    HW119415   0.710   1.062  16.139  1.3234  0.8943 -0.9500
 2652SOL    HW219416   0.841   1.101  16.199 -1.4235  0.6141 -1.6259
 2653SOL     OW19417   3.171   2.390   5.698  0.1484  0.2597 -0.3166
 2653SOL    HW119418   3.237   2.422   5.760  1.2338  0.4025 -1.5500
 2653SOL    HW219419   3.159   2.468   5.644 -1.7405 -0.8570 -1.4984
 2654SOL     OW19420   2.311   1.839   3.458  0.0369  0.2556  0.3297
 2654SOL    HW119421   2.250   1.797   3.396  0.6819  2.2001 -1.6184
 2654SOL    HW219422   2.273   1.796   3.534  0.2908  0.8196  0.7730
 2655SOL     OW19423   3.967   1.783   6.251  0.0187 -0.5052 -0.5041
 2655SOL    HW119424   3.966   1.722   6.326 -0.1449  0.7758  0.5403
 2655SOL    HW219425   4.041   1.745   6.205  1.9372  1.9954  0.5563
 2656SOL     OW19426   2.053   1.984   5.941 -0.0091  0.3799  0.0217
 2656SOL    HW119427   2.048   2.067   5.988  0.1839  0.7441 -0.5980
 2656SOL    HW219428   2.031   2.019   5.854 -0.7417  0.1375  0.1094
 2657SOL     OW19429   3.406   3.916  10.735 -0.0101 -0.3721 -0.1967
 2657SOL    HW119430   3.375   3.952  10.652  0.8113  2.2642  0.6123
 2657SOL    HW219431   3.367   3.831  10.720  0.1810 -0.4139 -0.4649
 2658SOL     OW19432   2.049   4.409   9.986  0.0008 -0.0364  0.1919
 2658SOL    HW119433   2.126   4.435  10.037 -0.6540  0.6251  0.8437
 2658SOL    HW219434   2.050   4.316  10.010  0.4431  0.4681  2.1294
 2659SOL     OW19435   4.497   4.713   5.936  0.1282  0.4947 -0.0788
 2659SOL    HW119436   4.521   4.648   6.002  0.9392 -0.2706 -1.1362
 2659SOL    HW219437   4.480   4.665   5.856  0.8325  1.1505 -0.6257
 2660SOL     OW19438   3.861   4.501  17.660  0.0689  0.4633  0.9859
 2660SOL    HW119439   3.809   4.578  17.683  0.1647  0.0752  2.4824
 2660SOL    HW219440   3.863   4.507  17.564  0.8102  0.6410  1.0083
 2661SOL     OW19441   1.499   3.562   4.101 -0.4105  0.4233  0.2097
 2661SOL    HW119442   1.545   3.492   4.147 -0.5328  0.9520  1.1463
 2661SOL    HW219443   1.426   3.507   4.075  1.2121 -2.0601  0.9705
 2662SOL     OW19444   3.178   1.430   5.502 -0.0459 -0.0051  0.5948
 2662SOL    HW119445   3.232   1.355   5.476 -0.4953 -0.4696  0.9875
 2662SOL    HW219446   3.203   1.494   5.435  2.1176 -2.6121 -1.0816
 2663SOL     OW19447   3.900   4.219   4.494 -0.4654  0.0900  0.0468
 2663SOL    HW119448   3.924   4.312   4.495  0.0982 -0.0577  0.0263
 2663SOL    HW219449   3.845   4.223   4.573 -0.8360 -0.4369 -0.1865
 2664SOL     OW19450   1.875   2.637   4.897  0.2750 -0.1813 -0.1489
 2664SOL    HW119451   1.969   2.629   4.881  0.5895 -2.2114  2.6054
 2664SOL    HW219452   1.873   2.728   4.869  0.0535  0.4445  1.8533
 2665SOL     OW19453   0.149   4.260   2.018 -0.0288  0.3417 -0.1184
 2665SOL    HW119454   0.101   4.282   2.098 -0.0728 -0.0682 -0.0313
 2665SOL    HW219455   0.183   4.347   2.001  0.8027 -0.1364 -0.9195
 2666SOL     OW19456   3.308   3.896   2.878 -0.2120 -0.2187 -0.7577
 2666SOL    HW119457   3.285   3.876   2.787  0.9344 -2.3015 -0.6079
 2666SOL    HW219458   3.262   3.979   2.890 -1.8797 -1.0925 -1.0501
 2667SOL     OW19459   0.118   4.478   1.074  0.0010  0.2886 -0.1844
 2667SOL    HW119460   0.128   4.524   1.157  1.2357  0.6758 -0.5560
 2667SOL    HW219461   0.099   4.391   1.110 -1.2714  0.0157 -1.5163
 2668SOL     OW19462   1.849   1.665   1.486  0.4584 -0.2542  0.0432
 2668SOL    HW119463   1.806   1.736   1.439 -0.2810 -1.5472 -1.2505
 2668SOL    HW219464   1.864   1.607   1.410 -1.8506 -1.8684  0.8041
 2669SOL     OW19465   2.016   0.452   5.404  0.3417 -0.2562  0.5868
 2669SOL    HW119466   2.012   0.546   5.419 -3.1285 -0.7090  2.6616
 2669SOL    HW219467   1.934   0.444   5.354  0.7742 -2.0755  0.1596
 2670SOL     OW19468   4.479   4.211   6.942 -0.0336  0.4635 -0.5394
 2670SOL    HW119469   4.488   4.283   6.879  1.5177  0.6353 -0.1378
 2670SOL    HW219470   4.568   4.199   6.974 -0.1062  2.1759  0.2994
 2671SOL     OW19471   4.562   1.371   6.351 -0.5477 -0.3758  0.6173
 2671SOL    HW119472   4.479   1.398   6.391 -0.8411  0.6312 -0.6686
 2671SOL    HW219473   4.538   1.356   6.260  2.1468 -2.2353  0.2247
 2672SOL     OW19474   4.490   0.121   3.128  0.4244 -0.0089 -0.3470
 2672SOL    HW119475   4.458   0.209   3.148 -0.9426 -0.2716 -1.3236
 2672SOL    HW219476   4.472   0.076   3.210 -0.8731 -0.3593 -0.8221
 2673SOL     OW19477   3.222   3.148   5.023  1.1940 -0.2586 -0.6102
 2673SOL    HW119478   3.148   3.156   5.082  1.7075  2.3011 -0.3166
 2673SOL    HW219479   3.224   3.237   4.986 -0.8397 -0.3028 -0.8157
 2674SOL     OW19480   2.223   1.494   7.936 -0.7045  0.7226 -0.2272
 2674SOL    HW119481   2.199   1.584   7.954 -1.2229  0.2170  1.6757
 2674SOL    HW219482   2.299   1.511   7.881 -1.2198  2.5190 -0.3732
 2675SOL     OW19483   3.740   0.297  11.030 -0.1396  0.0568  0.2551
 2675SOL    HW119484   3.650   0.288  10.998  0.3541  0.3160 -1.2043
 2675SOL    HW219485   3.760   0.205  11.046  3.2055  0.4454 -1.8209
 2676SOL     OW19486   3.569   1.852   9.608 -0.0068 -0.4190  0.3250
 2676SOL    HW119487   3.602   1.937   9.580 -0.5863 -0.7937 -1.5257
 2676SOL    HW219488   3.646   1.805   9.640  0.8436  0.5645 -0.3127
 2677SOL     OW19489   1.959   1.099  13.447  0.3311 -0.0876  0.3918
 2677SOL    HW119490   1.909   1.082  13.527 -1.2974  2.2338 -0.1165
 2677SOL    HW219491   1.925   1.188  13.435  0.1812 -0.2750 -0.5260
 2678SOL     OW19492   0.684   1.808   5.604  0.5130  0.6336 -0.5581
 2678SOL    HW119493   0.605   1.771   5.566 -0.1369 -1.0397  2.4344
 2678SOL    HW219494   0.643   1.889   5.636  0.7689  0.0582  1.2151
 2679SOL     OW19495   0.972   2.066   7.806 -0.4927 -0.1149 -0.2827
 2679SOL    HW119496   1.040   2.006   7.837  0.1591  2.4512  3.2351
 2679SOL    HW219497   0.893   2.011   7.799 -0.9188  0.1221  2.5636
 2680SOL     OW19498   3.933   0.252   2.583 -0.5980 -0.6190 -0.0815
 2680SOL    HW119499   4.024   0.226   2.581  0.1471  1.9761 -0.4915
 2680SOL    HW219500   3.933   0.330   2.639 -0.0630 -0.3572 -0.4552
 2681SOL     OW19501   1.852   4.240  17.101 -0.0207  0.2938 -0.0454
 2681SOL    HW119502   1.862   4.147  17.081  0.2683 -0.0001  1.4607
 2681SOL    HW219503   1.887   4.252  17.189  0.7490  1.2093 -0.4745
 2682SOL     OW19504   1.117   3.884   5.044 -0.3422 -0.0002 -0.5979
 2682SOL    HW119505   1.145   3.794   5.026  2.6386  0.6593  0.8481
 2682SOL    HW219506   1.136   3.885   5.138  0.9721 -0.4111 -0.8539
 2683SOL     OW19507   3.454   2.870  11.840 -0.1501 -0.4678  0.0528
 2683SOL    HW119508   3.451   2.811  11.764 -1.8945  1.7391 -1.5888
 2683SOL    HW219509   3.511   2.935  11.798 -3.8064  1.5641 -1.7316
 2684SOL     OW19510   1.382   2.606   9.141 -1.1201  0.4602  0.0422
 2684SOL    HW119511   1.368   2.696   9.111 -2.4256  0.1149 -0.3673
 2684SOL    HW219512   1.470   2.587   9.107  0.1603  2.3095  2.3338
 2685SOL     OW19513   1.843   2.435   6.457 -0.5957 -0.2827 -0.3845
 2685SOL    HW119514   1.835   2.464   6.367 -1.4301  2.0004  0.4422
 2685SOL    HW219515   1.912   2.369   6.444 -0.3010 -0.0925  0.1967
 2686SOL     OW19516   1.214   4.651   6.612 -0.5350  0.3870 -0.0634
 2686SOL    HW119517   1.261   4.575   6.577  0.0943  0.6900  0.1133
 2686SOL    HW219518   1.122   4.625   6.611 -0.3385 -0.2114 -1.6632
 2687SOL     OW19519   4.279   3.905   3.473 -0.5940  0.1448  0.2554
 2687SOL    HW119520   4.359   3.858   3.498 -0.4463  0.6308  0.6952
 2687SOL    HW219521   4.251   3.862   3.392  0.2457  0.6516 -0.2995
 2688SOL     OW19522   3.396   0.855   2.549 -0.5496  0.3093  0.0515
 2688SOL    HW119523   3.416   0.947   2.528  2.1616 -0.3781 -0.4200
 2688SOL    HW219524   3.457   0.842   2.622 -1.6784  1.6771  1.2401
 2689SOL     OW19525   1.179   0.206   3.541 -0.3000 -0.1570  0.5594
 2689SOL    HW119526   1.227   0.287   3.526  0.8069 -0.1655  4.1734
 2689SOL    HW219527   1.189   0.200   3.636  0.6049  0.4721  0.5097
 2690SOL     OW19528   1.584   4.194  11.719  0.4031  0.0744 -0.0670
 2690SOL    HW119529   1.572   4.281  11.757 -1.4431 -0.8481  1.5045
 2690SOL    HW219530   1.497   4.157  11.736  0.4425 -0.6120 -1.3630
 2691SOL     OW19531   3.638   2.743  10.755 -0.2898  0.4925 -0.3437
 2691SOL    HW119532   3.546   2.768  10.767 -1.4440 -3.5228 -0.9114
 2691SOL    HW219533   3.688   2.806  10.807  0.5534 -1.9516  1.8088
 2692SOL     OW19534   3.973   0.011   4.566 -0.0549 -0.5466 -0.5627
 2692SOL    HW119535   3.956   0.055   4.483 -1.3407  0.5984  0.3004
 2692SOL    HW219536   3.925   0.069   4.625 -0.5749 -1.0454 -0.4910
 2693SOL     OW19537   0.999   4.088  12.490  0.8562  0.1765 -0.1144
 2693SOL    HW119538   0.979   3.999  12.519  0.5223  0.5122  0.6857
 2693SOL    HW219539   1.092   4.073  12.508  0.9531  0.8364 -0.0965
 2694SOL     OW19540   3.984   3.863   6.653  0.1944  0.1805 -0.0169
 2694SOL    HW119541   3.941   3.946   6.672  0.5841 -0.1659  2.3567
 2694SOL    HW219542   3.942   3.842   6.569 -0.3076  2.1087 -0.2303
 2695SOL     OW19543   3.661   4.127   3.648  0.3265 -0.2219 -0.3320
 2695SOL    HW119544   3.634   4.204   3.698  1.2281 -0.6684  0.8461
 2695SOL    HW219545   3.757   4.126   3.651  0.3497  0.7681 -0.7882
 2696SOL     OW19546   0.857   3.008   5.826 -0.1910  0.4627 -0.2713
 2696SOL    HW119547   0.871   3.101   5.807  0.7392  0.4442  0.3338
 2696SOL    HW219548   0.947   2.980   5.809  0.4833  1.2256  2.1193
 2697SOL     OW19549   0.743   2.734   2.533 -0.0864 -0.2137  0.2958
 2697SOL    HW119550   0.806   2.786   2.483  0.3331 -0.4063  0.6249
 2697SOL    HW219551   0.687   2.804   2.565  0.6804  0.2792  0.5512
 2698SOL     OW19552   2.853   0.505  11.105 -0.7739 -0.3208 -0.1502
 2698SOL    HW119553   2.833   0.436  11.041 -1.6729  0.4413 -0.6787
 2698SOL    HW219554   2.769   0.537  11.136 -1.1971 -0.1467 -1.4509
 2699SOL     OW19555   1.684   3.904   7.249  0.0005  0.5351  0.3626
 2699SOL    HW119556   1.734   3.913   7.168 -1.0957 -1.7690 -0.5789
 2699SOL    HW219557   1.649   3.989   7.273  0.3963  0.7665  0.1204
 2700SOL     OW19558   1.161   2.162   9.322  0.3272 -0.1277  0.4283
 2700SOL    HW119559   1.206   2.239   9.287 -0.5064  0.2619  0.2200
 2700SOL    HW219560   1.206   2.145   9.405 -0.4285  1.2947  1.1083
 2701SOL     OW19561   1.665   1.765   2.683 -0.2963  0.1713  0.2151
 2701SOL    HW119562   1.594   1.701   2.684 -2.0577  2.0828 -2.6975
 2701SOL    HW219563   1.703   1.750   2.770 -2.3650  1.6700  1.3878
 2702SOL     OW19564   3.657   0.216   6.467 -0.2355 -0.6198  0.2265
 2702SOL    HW119565   3.623   0.305   6.478 -0.7394 -0.9398  1.2887
 2702SOL    HW219566   3.740   0.205   6.515 -0.0775  1.5649  0.4495
 2703SOL     OW19567   2.580   2.974   9.684 -0.5445 -0.5142  0.0799
 2703SOL    HW119568   2.654   2.959   9.625 -1.0042  0.9152 -0.8523
 2703SOL    HW219569   2.581   2.890   9.731  1.7031  0.0909  1.1277
 2704SOL     OW19570   2.659   2.101   3.289  0.1156 -0.1616 -0.5228
 2704SOL    HW119571   2.582   2.047   3.270  0.5230 -1.4239  1.4376
 2704SOL    HW219572   2.733   2.042   3.292  0.9564  0.8788 -0.8233
 2705SOL     OW19573   0.474   2.028  16.913 -0.1118 -1.1539 -0.1209
 2705SOL    HW119574   0.504   2.110  16.874  0.4027 -1.2082  0.1671
 2705SOL    HW219575   0.453   2.053  17.003  0.1352  0.4282 -0.4998
 2706SOL     OW19576   2.640   1.947   9.408  0.1314 -0.0243 -0.0535
 2706SOL    HW119577   2.692   1.978   9.333  0.8450  2.7052  1.5424
 2706SOL    HW219578   2.647   2.023   9.467 -0.4436 -1.1105  1.4064
 2707SOL     OW19579   1.757   1.626   8.614 -0.0304 -0.1669  0.0324
 2707SOL    HW119580   1.688   1.561   8.627  2.3085 -2.4103  1.1133
 2707SOL    HW219581   1.802   1.573   8.548 -1.0788  0.2565 -1.0207
 2708SOL     OW19582   3.329   2.074   2.062 -0.5762  0.5772 -0.4221
 2708SOL    HW119583   3.342   2.168   2.074 -0.4096  0.5511 -0.3994
 2708SOL    HW219584   3.269   2.043   2.130  0.8405  0.4894  0.8048
 2709SOL     OW19585   3.508   3.407  14.407 -0.0857 -0.1861 -0.1441
 2709SOL    HW119586   3.426   3.455  14.394  0.7640  1.0756 -0.9538
 2709SOL    HW219587   3.569   3.470  14.446  0.5531 -0.6427 -0.4158
 2710SOL     OW19588   0.279   4.400   1.451 -0.6990 -0.0218  0.7491
 2710SOL    HW119589   0.209   4.428   1.510 -2.5527 -1.6275 -0.6737
 2710SOL    HW219590   0.212   4.379   1.386  0.2829 -2.0550  0.3931
 2711SOL     OW19591   0.057   3.217  14.379  0.2571  0.4076  0.1274
 2711SOL    HW119592   0.028   3.126  14.386  1.4417 -0.1048 -1.3934
 2711SOL    HW219593   0.051   3.237  14.285 -0.6650 -0.3767  0.0139
 2712SOL     OW19594   2.335   3.722   6.976  0.0472  0.3028 -0.2138
 2712SOL    HW119595   2.248   3.753   6.950  0.1835 -0.3217 -1.4024
 2712SOL    HW219596   2.336   3.754   7.066 -1.5521 -0.6878  0.1556
 2713SOL     OW19597   1.554   4.100   5.121 -0.4392  0.0556 -0.5684
 2713SOL    HW119598   1.473   4.127   5.077 -0.3271  1.6664  0.1872
 2713SOL    HW219599   1.611   4.154   5.065 -1.1755 -2.0895 -3.3919
 2714SOL     OW19600   1.005   0.459  12.297 -0.1106  0.1523 -0.1612
 2714SOL    HW119601   1.095   0.427  12.296  0.1482  0.9148 -0.7534
 2714SOL    HW219602   0.986   0.443  12.390  0.3572 -2.2026 -0.4719
 2715SOL     OW19603   3.713   2.346   1.139 -0.5735  0.0056 -0.1430
 2715SOL    HW119604   3.736   2.336   1.231 -1.6366 -0.4585  0.0620
 2715SOL    HW219605   3.676   2.434   1.130 -2.2797 -0.5313  1.7151
 2716SOL     OW19606   1.117   4.024   2.446  0.4319  0.0779 -0.2171
 2716SOL    HW119607   1.200   4.002   2.403  1.3453  0.3623  1.3954
 2716SOL    HW219608   1.052   4.010   2.376 -0.7730 -1.6975  1.2677
 2717SOL     OW19609   2.328   1.374   4.059 -0.0502 -0.3619  0.2686
 2717SOL    HW119610   2.330   1.468   4.077  1.2569 -0.4006  0.2900
 2717SOL    HW219611   2.415   1.353   4.026 -0.7735 -0.3106 -1.6653
 2718SOL     OW19612   1.042   1.733   0.124 -0.0168 -0.5673 -0.2663
 2718SOL    HW119613   0.989   1.721   0.203  0.0928  0.1419 -0.0845
 2718SOL    HW219614   1.130   1.746   0.158  0.4696 -0.2393 -1.6288
 2719SOL     OW19615   3.988   4.724   3.462 -0.4422 -0.3277 -0.2605
 2719SOL    HW119616   4.017   4.703   3.550  1.2281 -2.4645 -1.3169
 2719SOL    HW219617   3.903   4.682   3.464 -0.9770  0.6763 -2.0031
 2720SOL     OW19618   2.233   1.866  15.148  0.0392 -0.4184  0.4569
 2720SOL    HW119619   2.320   1.833  15.128  0.7403  1.6865  0.0301
 2720SOL    HW219620   2.219   1.843  15.240  0.4748  0.3709  0.7190
 2721SOL     OW19621   0.439   1.368  13.749 -0.3720 -0.6102 -0.7896
 2721SOL    HW119622   0.490   1.330  13.677 -0.4218 -0.2967 -0.9907
 2721SOL    HW219623   0.387   1.440  13.713 -2.4625 -0.7197  2.0346
 2722SOL     OW19624   0.594   0.085   7.403 -0.5907  0.1842  0.2595
 2722SOL    HW119625   0.574   0.008   7.350  0.7007 -0.8441  1.2709
 2722SOL    HW219626   0.618   0.141   7.329  1.7424  0.1084  0.9606
 2723SOL     OW19627   2.924   1.015  11.592  0.7461  0.1510 -0.3647
 2723SOL    HW119628   2.869   1.088  11.619  0.4016 -0.4382  0.5286
 2723SOL    HW219629   2.928   0.968  11.675  2.3016  1.7033  0.4318
 2724SOL     OW19630   4.162   0.419   5.864  0.3228  0.2253 -0.5239
 2724SOL    HW119631   4.122   0.460   5.940  1.3209  1.1297 -0.4911
 2724SOL    HW219632   4.122   0.334   5.845 -2.1745  1.3621 -0.3752
 2725SOL     OW19633   1.334   0.871   0.839 -0.2431  0.3136  0.3786
 2725SOL    HW119634   1.388   0.834   0.769  0.3835  1.0290  0.4843
 2725SOL    HW219635   1.310   0.791   0.885 -1.1846 -0.4432 -1.4165
 2726SOL     OW19636   3.863   4.152   4.230  0.3759  0.0694  0.2777
 2726SOL    HW119637   3.858   4.186   4.320 -1.3976 -0.7267  0.4870
 2726SOL    HW219638   3.811   4.072   4.237  0.1864  0.1839  0.1763
 2727SOL     OW19639   3.490   3.949   7.568 -0.5803 -0.2570  0.4607
 2727SOL    HW119640   3.462   3.921   7.655 -0.4244 -0.5188  0.4269
 2727SOL    HW219641   3.480   4.044   7.562 -0.9907 -0.3868 -0.9443
 2728SOL     OW19642   0.570   0.773  16.141 -0.1238  0.5168  0.3929
 2728SOL    HW119643   0.648   0.763  16.194 -0.8001 -1.0778  1.0853
 2728SOL    HW219644   0.554   0.867  16.135  1.4023  0.7301 -0.2511
 2729SOL     OW19645   2.381   4.247   6.649  0.3735  0.2131  0.0316
 2729SOL    HW119646   2.423   4.281   6.729 -0.0097  0.9992 -0.1087
 2729SOL    HW219647   2.334   4.323   6.615 -0.3607 -0.8083 -1.2040
 2730SOL     OW19648   2.510   3.716  13.650  0.3348  0.5293 -0.0179
 2730SOL    HW119649   2.571   3.643  13.642 -1.3953 -0.8817 -0.2977
 2730SOL    HW219650   2.507   3.724  13.746 -0.1766 -0.8729  0.0836
 2731SOL     OW19651   3.301   3.491   0.056 -0.0141 -0.4987 -0.0992
 2731SOL    HW119652   3.219   3.444   0.073  0.1282 -1.3865 -1.8957
 2731SOL    HW219653   3.343   3.428  17.699 -0.4345 -0.4426 -0.4611
 2732SOL     OW19654   2.628   3.201  12.832 -0.1547  0.4921  0.0840
 2732SOL    HW119655   2.657   3.156  12.911 -2.1422 -1.9535 -0.5874
 2732SOL    HW219656   2.704   3.200  12.774  0.1273  1.4393  0.4409
 2733SOL     OW19657   1.707   0.458   5.057  0.2564  0.5568  0.0806
 2733SOL    HW119658   1.665   0.538   5.087 -0.8085  0.1010 -0.1989
 2733SOL    HW219659   1.732   0.428   5.145  0.7656 -0.4325 -0.4050
 2734SOL     OW19660   1.221   3.917   1.471  0.0527  0.2947 -0.9975
 2734SOL    HW119661   1.259   3.849   1.416  0.8428 -0.5333  0.5636
 2734SOL    HW219662   1.233   4.003   1.431 -0.7381  0.2456 -1.3440
 2735SOL     OW19663   3.018   2.836   5.531  0.2545  0.3865 -0.1610
 2735SOL    HW119664   3.016   2.869   5.441  0.1215  0.8136 -0.0001
 2735SOL    HW219665   2.945   2.887   5.567 -1.6025 -3.2259  1.1430
 2736SOL     OW19666   1.089   3.174   4.912 -0.2616  0.0699  0.2835
 2736SOL    HW119667   1.158   3.219   4.962 -0.8157 -0.5142  1.5823
 2736SOL    HW219668   1.030   3.142   4.980  1.5578 -0.3555  1.6810
 2737SOL     OW19669   1.626   1.167   6.599 -0.0973 -0.1234 -0.5628
 2737SOL    HW119670   1.672   1.107   6.541 -0.9158 -0.4661 -0.8679
 2737SOL    HW219671   1.690   1.237   6.592 -0.1057 -0.2971 -2.5641
 2738SOL     OW19672   0.400   3.537   7.097 -0.3322  0.2378  0.4687
 2738SOL    HW119673   0.399   3.547   7.192  0.3519  0.2037  0.4769
 2738SOL    HW219674   0.318   3.583   7.074 -1.5588 -1.8113  0.8004
 2739SOL     OW19675   3.918   1.127   7.446 -0.0144  0.9806  0.0590
 2739SOL    HW119676   3.882   1.124   7.535 -2.3981  0.3402 -0.9415
 2739SOL    HW219677   4.010   1.112   7.471  0.6116  2.7139 -1.2198
 2740SOL     OW19678   0.138   0.616   4.668 -0.0908 -0.2574  0.0666
 2740SOL    HW119679   0.131   0.648   4.759  0.5844 -1.6311  0.5956
 2740SOL    HW219680   0.048   0.591   4.646 -0.1568 -0.5535  0.6576
 2741SOL     OW19681   2.064   1.975  13.106  0.3459 -0.8306 -0.1001
 2741SOL    HW119682   1.996   2.041  13.123 -0.0664 -1.0274 -0.9979
 2741SOL    HW219683   2.095   2.013  13.023  0.1154 -1.5228 -0.5063
 2742SOL     OW19684   3.733   0.447   1.977  0.1433 -0.2511  0.3752
 2742SOL    HW119685   3.733   0.468   1.884 -1.2608 -1.4769  0.0944
 2742SOL    HW219686   3.775   0.361   1.968 -0.8240 -0.9177  2.2639
 2743SOL     OW19687   1.573   2.845   6.620 -0.1311  0.0782 -0.3913
 2743SOL    HW119688   1.559   2.893   6.539 -2.1246 -0.2822 -0.2698
 2743SOL    HW219689   1.482   2.848   6.651  0.1249 -0.1219  0.3861
 2744SOL     OW19690   3.224   2.723   8.050  0.1941  0.0326  0.0116
 2744SOL    HW119691   3.276   2.803   8.052 -0.7711  0.6850 -0.9799
 2744SOL    HW219692   3.206   2.712   8.143 -0.2476 -2.2132 -0.3540
 2745SOL     OW19693   1.480   1.120  10.036  0.6279  0.7843 -0.2378
 2745SOL    HW119694   1.480   1.074  10.120 -0.5524 -4.2959 -3.0511
 2745SOL    HW219695   1.395   1.161  10.025 -0.9535 -2.2952  0.5139
 2746SOL     OW19696   1.530   3.178   1.090  0.2763 -0.1101  0.1114
 2746SOL    HW119697   1.446   3.157   1.130  1.4958 -0.5043  2.4480
 2746SOL    HW219698   1.532   3.119   1.015  2.7271  0.2848 -0.1289
 2747SOL     OW19699   1.249   0.713   1.068  0.6134 -0.1271  0.2971
 2747SOL    HW119700   1.254   0.698   1.162 -1.6266  4.5014  1.1419
 2747SOL    HW219701   1.176   0.667   1.026  0.3536 -0.1213  0.7382
 2748SOL     OW19702   3.856   4.057   2.997 -0.2215 -0.3233 -0.7867
 2748SOL    HW119703   3.810   4.131   2.959 -2.4624 -1.5057 -0.3434
 2748SOL    HW219704   3.807   3.981   2.965  1.2013 -1.9420  0.9034
 2749SOL     OW19705   1.854   0.823  12.608 -0.7021 -0.1717 -0.3272
 2749SOL    HW119706   1.941   0.815  12.648 -1.3598 -0.6403  1.0070
 2749SOL    HW219707   1.797   0.764  12.657 -0.3259 -0.9821 -0.8656
 2750SOL     OW19708   3.978   4.154   5.664 -0.2405  0.5633  0.0162
 2750SOL    HW119709   4.066   4.115   5.672 -1.3198 -1.2293  3.2873
 2750SOL    HW219710   3.949   4.138   5.575 -1.8770  0.9276  0.4879
 2751SOL     OW19711   2.088   0.021   5.081 -0.0386  0.3555  0.0757
 2751SOL    HW119712   2.084   0.103   5.131 -0.4018 -0.0082  0.6403
 2751SOL    HW219713   2.014   0.043   5.025 -0.4306 -1.5705 -0.1630
 2752SOL     OW19714   3.577   2.789   6.008 -0.3416 -0.1116  0.4003
 2752SOL    HW119715   3.489   2.824   5.992  0.4141  1.4353 -0.2647
 2752SOL    HW219716   3.634   2.861   5.982 -0.5443 -1.2327 -3.1361
 2753SOL     OW19717   2.499   3.976  14.464  0.1381  0.8728 -0.1651
 2753SOL    HW119718   2.500   4.056  14.515  0.8109  0.4969  0.4004
 2753SOL    HW219719   2.405   3.970  14.443  0.4390 -0.0765 -1.2476
 2754SOL     OW19720   0.235   4.294   7.198 -0.8762 -0.0129 -0.6550
 2754SOL    HW119721   0.220   4.361   7.264 -0.0698 -2.0153  1.5252
 2754SOL    HW219722   0.225   4.219   7.257  0.2315  1.0895  0.9011
 2755SOL     OW19723   2.391   3.942   5.394  0.2789 -0.8311  0.8720
 2755SOL    HW119724   2.397   3.898   5.309 -2.1091  0.6930 -0.0930
 2755SOL    HW219725   2.472   3.917   5.438  1.1030 -2.1395 -1.3931
 2756SOL     OW19726   4.447   2.379   2.239  0.0566  0.1334  0.5267
 2756SOL    HW119727   4.438   2.311   2.305 -1.4147 -2.2652 -2.1731
 2756SOL    HW219728   4.361   2.409   2.211 -0.5342 -2.1413 -0.0886
 2757SOL     OW19729   2.325   1.723   1.036  0.3295  0.3755  0.1634
 2757SOL    HW119730   2.336   1.628   1.028 -0.3696  0.3153 -0.1178
 2757SOL    HW219731   2.231   1.744   1.032  0.2958  0.2250  0.1655
 2758SOL     OW19732   2.115   4.473   8.413 -0.2155  0.3649 -0.1641
 2758SOL    HW119733   2.063   4.515   8.344  2.4138  0.3956 -2.1208
 2758SOL    HW219734   2.052   4.418   8.458  2.1316 -0.1252  2.5138
 2759SOL     OW19735   0.105   2.927   8.650  0.1333  0.3563 -0.1258
 2759SOL    HW119736   0.086   2.969   8.566 -0.9828 -0.0930 -0.0929
 2759SOL    HW219737   0.130   2.838   8.625  0.8514  0.0927  1.4842
 2760SOL     OW19738   0.688   0.144   8.479 -0.6518  0.2840 -0.2525
 2760SOL    HW119739   0.637   0.075   8.438  2.7659 -2.2855 -0.1507
 2760SOL    HW219740   0.672   0.131   8.573  0.0966  0.4687 -0.0981
 2761SOL     OW19741   4.393   4.017  17.402  0.0393 -0.0442 -0.4736
 2761SOL    HW119742   4.304   3.985  17.421 -0.5117  1.7527 -0.0032
 2761SOL    HW219743   4.378   4.099  17.355 -0.8485  0.4902  0.7204
 2762SOL     OW19744   0.360   0.701   5.594 -0.2571  0.0243  0.7122
 2762SOL    HW119745   0.363   0.764   5.666 -1.9436  0.7631  0.1289
 2762SOL    HW219746   0.268   0.678   5.599 -0.3613  0.1297 -0.8806
 2763SOL     OW19747   1.113   2.759   8.676  0.4528  0.4630  0.2219
 2763SOL    HW119748   1.069   2.723   8.753  0.9482 -2.5775 -0.8932
 2763SOL    HW219749   1.158   2.675   8.668  0.2080  0.2476  1.0813
 2764SOL     OW19750   2.510   2.546   1.010  1.0060  0.1910 -0.0533
 2764SOL    HW119751   2.513   2.636   1.043  0.1723  1.1818 -2.6621
 2764SOL    HW219752   2.468   2.509   1.087 -0.9937  0.2044 -1.1294
 2765SOL     OW19753   2.886   0.103   9.243  0.0279 -0.2681 -0.0391
 2765SOL    HW119754   2.812   0.053   9.278 -0.8378  0.7873 -0.3695
 2765SOL    HW219755   2.942   0.030   9.219 -2.0264 -1.9483  0.3031
 2766SOL     OW19756   3.525   1.531  10.164 -0.5179  0.2365 -0.1268
 2766SOL    HW119757   3.611   1.527  10.123 -0.4067  0.3127  0.0972
 2766SOL    HW219758   3.465   1.512  10.092 -0.0867 -0.2730 -0.3471
 2767SOL     OW19759   1.382   2.035   9.925  0.2586 -0.5051  0.0691
 2767SOL    HW119760   1.444   2.031   9.998 -0.8433  0.4447  1.0653
 2767SOL    HW219761   1.377   1.943   9.900  0.4979 -0.2102 -1.0564
 2768SOL     OW19762   0.354   2.894   6.580 -0.4767  0.0587  0.0729
 2768SOL    HW119763   0.411   2.921   6.652 -0.3016 -0.2257  0.0431
 2768SOL    HW219764   0.271   2.922   6.617  0.3854 -0.3229  2.3058
 2769SOL     OW19765   1.657   0.128   9.080 -0.1980 -0.0266 -0.5468
 2769SOL    HW119766   1.649   0.100   9.171  0.3182  0.5620 -0.3243
 2769SOL    HW219767   1.752   0.126   9.070 -0.4368 -0.6386 -2.7876
 2770SOL     OW19768   2.523   1.525  13.561 -0.2625 -0.0523 -0.3086
 2770SOL    HW119769   2.461   1.596  13.578 -0.7141 -0.8366  1.3427
 2770SOL    HW219770   2.505   1.471  13.638  0.5109 -0.3276 -0.3222
 2771SOL     OW19771   0.271   0.906   8.422  0.1437 -0.3775  0.2362
 2771SOL    HW119772   0.246   0.938   8.335  1.1618  0.3161  0.1978
 2771SOL    HW219773   0.210   0.951   8.480 -0.3422 -0.7305 -0.0059
 2772SOL     OW19774   1.466   3.245   7.766  0.0953  0.0526 -0.1014
 2772SOL    HW119775   1.459   3.149   7.764 -0.4989  0.0647  1.2721
 2772SOL    HW219776   1.421   3.285   7.841  0.4804 -1.3357  0.8807
 2773SOL     OW19777   3.870   0.132   7.435 -0.1141 -0.3578 -0.2471
 2773SOL    HW119778   3.872   0.091   7.522  0.6062  1.2263  0.4891
 2773SOL    HW219779   3.849   0.052   7.386 -0.2800  0.0603 -0.8614
 2774SOL     OW19780   0.250   3.105   7.004  0.1799 -0.3238 -0.4154
 2774SOL    HW119781   0.257   3.081   6.912  0.7071 -0.3483 -0.3668
 2774SOL    HW219782   0.309   3.181   7.009 -1.4689  0.9823 -0.7724
 2775SOL     OW19783   3.983   4.467  11.699  0.0189 -0.4196 -0.1516
 2775SOL    HW119784   3.922   4.396  11.715  0.6921 -1.0494 -0.3552
 2775SOL    HW219785   3.941   4.540  11.745 -0.3175  0.4229 -1.7878
 2776SOL     OW19786   2.385   0.150  15.736  0.2682  0.4429 -0.1498
 2776SOL    HW119787   2.424   0.076  15.690  1.2765  0.0448  1.3375
 2776SOL    HW219788   2.439   0.218  15.697  0.4124  1.1177  1.2073
 2777SOL     OW19789   3.811   1.863   7.940  0.2883  0.1167  0.6242
 2777SOL    HW119790   3.897   1.905   7.937  0.0475  0.5415 -0.2059
 2777SOL    HW219791   3.834   1.770   7.943 -1.5644 -0.4267 -2.6914
 2778SOL     OW19792   2.308   4.228   8.186  0.4590  0.0801  0.0241
 2778SOL    HW119793   2.364   4.305   8.179  0.3961  0.3009  1.9449
 2778SOL    HW219794   2.224   4.268   8.163 -0.2264  0.0019  2.4123
 2779SOL     OW19795   3.079   0.001   4.525 -0.1538  0.0640 -0.0655
 2779SOL    HW119796   3.025   0.071   4.562  0.3683  0.6918 -0.4851
 2779SOL    HW219797   3.136   4.699   4.597 -0.9619 -0.8156  0.2349
 2780SOL     OW19798   1.856   1.009   7.084 -0.1063 -0.1335 -0.4998
 2780SOL    HW119799   1.933   0.965   7.121 -2.5204 -1.3234  3.1198
 2780SOL    HW219800   1.782   0.957   7.116  0.2746 -0.7633 -0.6318
 2781SOL     OW19801   2.931   1.774   1.393  0.2986  0.3825 -0.1991
 2781SOL    HW119802   2.856   1.828   1.366  1.1441  0.4105 -2.5511
 2781SOL    HW219803   3.001   1.839   1.397 -2.5631  3.5318 -0.9390
 2782SOL     OW19804   1.103   4.037  16.631  0.2428  0.0101  0.2852
 2782SOL    HW119805   1.172   4.070  16.688  0.4250  0.6563 -0.3102
 2782SOL    HW219806   1.139   3.949  16.620 -3.0809 -1.2126 -0.9096
 2783SOL     OW19807   0.519   4.540   0.856 -0.2014  0.2887 -0.1557
 2783SOL    HW119808   0.504   4.451   0.824  0.0154  1.0075 -2.2305
 2783SOL    HW219809   0.431   4.575   0.868 -0.6596 -0.5510 -1.0320
 2784SOL     OW19810   0.982   0.206   4.976  0.2506  0.1394 -0.3006
 2784SOL    HW119811   0.925   0.268   5.021  1.3638  0.5074  0.5665
 2784SOL    HW219812   0.930   0.127   4.989 -0.2062  0.5986  0.6321
 2785SOL     OW19813   2.412   0.076   3.564  0.2886 -0.1105  0.6987
 2785SOL    HW119814   2.402   0.069   3.469  0.9323  1.5922  0.5215
 2785SOL    HW219815   2.326   0.036   3.581  0.1841 -0.4204 -0.6117
 2786SOL     OW19816   2.991   2.213   2.439  0.0975 -0.3183 -0.3436
 2786SOL    HW119817   2.968   2.126   2.407  0.3941 -0.1525 -0.9978
 2786SOL    HW219818   3.005   2.190   2.531 -0.1153 -2.5076 -0.8545
 2787SOL     OW19819   1.185   1.474   2.545 -0.0661  1.2637  0.7322
 2787SOL    HW119820   1.209   1.545   2.486  2.3058 -1.0785 -1.1090
 2787SOL    HW219821   1.245   1.412   2.504  0.6095  3.7892 -2.0763
 2788SOL     OW19822   2.193   3.889   2.359  0.0294 -0.0151 -0.7692
 2788SOL    HW119823   2.221   3.815   2.307  0.3350  0.5048 -1.3485
 2788SOL    HW219824   2.099   3.880   2.344  0.3575 -0.4890 -2.4672
 2789SOL     OW19825   2.578   2.923   3.707 -0.1487 -0.0282  0.5244
 2789SOL    HW119826   2.606   2.852   3.765 -1.9011 -1.2858 -0.1544
 2789SOL    HW219827   2.610   2.891   3.623  1.7550  1.0419  0.8399
 2790SOL     OW19828   3.741   1.761   5.557 -0.0293 -0.4581 -0.2901
 2790SOL    HW119829   3.735   1.852   5.528 -2.5162 -0.7486 -0.6966
 2790SOL    HW219830   3.659   1.728   5.521  0.6577 -1.2381 -1.1324
 2791SOL     OW19831   1.363   0.255   3.078  0.2101  0.3903  0.0116
 2791SOL    HW119832   1.307   0.321   3.119  1.2593 -0.4506  2.8056
 2791SOL    HW219833   1.302   0.181   3.078  3.7059 -2.5177 -0.4958
 2792SOL     OW19834   2.335   0.048   6.402 -0.2038  0.3759  0.1789
 2792SOL    HW119835   2.354   0.050   6.496 -1.3223 -2.9913  0.4820
 2792SOL    HW219836   2.401   4.712   6.370 -0.9539 -0.0406 -0.5505
 2793SOL     OW19837   4.196   3.427   4.111  0.1304 -0.6623 -0.0698
 2793SOL    HW119838   4.192   3.465   4.199  3.7580  0.4108 -0.3727
 2793SOL    HW219839   4.104   3.403   4.099 -0.8898  3.0510  0.1317
 2794SOL     OW19840   2.322   3.718   4.468 -1.0504 -0.1063 -0.3467
 2794SOL    HW119841   2.391   3.678   4.415  0.1606 -1.5579  2.2691
 2794SOL    HW219842   2.316   3.668   4.550  1.9315  0.2290  0.0906
 2795SOL     OW19843   2.605   2.265   7.148  0.2371 -0.2509 -0.1309
 2795SOL    HW119844   2.622   2.329   7.079  3.1337  0.4266  1.1999
 2795SOL    HW219845   2.691   2.227   7.164  0.9392  1.8774  1.0172
 2796SOL     OW19846   3.564   4.125  13.328 -0.2921 -0.1389 -0.3770
 2796SOL    HW119847   3.619   4.158  13.257  1.1216 -0.6917  0.4774
 2796SOL    HW219848   3.477   4.160  13.306  0.4297  1.9887  0.1971
 2797SOL     OW19849   0.836   3.866   4.222  0.1172 -0.4854  0.7415
 2797SOL    HW119850   0.892   3.930   4.177  1.9865 -0.7782  2.6116
 2797SOL    HW219851   0.887   3.785   4.212 -0.8290 -1.0368  0.4591
 2798SOL     OW19852   1.660   0.222   4.917 -0.2797  0.0180  0.1453
 2798SOL    HW119853   1.671   0.271   4.836  0.8743  1.1908  1.0078
 2798SOL    HW219854   1.670   0.300   4.972 -1.7023 -0.2585  0.8072
 2799SOL     OW19855   3.896   0.452  10.861 -0.5338 -0.4121 -0.3046
 2799SOL    HW119856   3.886   0.404  10.779 -1.4123  1.0686 -1.0685
 2799SOL    HW219857   3.877   0.390  10.931 -2.3069  0.1134 -0.3369
 2800SOL     OW19858   1.667   1.561   5.513  0.5586  0.2239 -0.0963
 2800SOL    HW119859   1.607   1.495   5.547  1.2017  0.2006  1.0125
 2800SOL    HW219860   1.618   1.606   5.444  0.1656  0.7166  0.5017
 2801SOL     OW19861   3.776   0.080   9.098 -0.4442 -0.4845 -0.2999
 2801SOL    HW119862   3.854   0.119   9.139 -1.4588  0.9367  0.2985
 2801SOL    HW219863   3.785   4.711   9.110 -1.4951 -0.6188 -0.6189
 2802SOL     OW19864   0.621   1.466  17.110 -0.2003  0.1521 -0.7703
 2802SOL    HW119865   0.544   1.422  17.074 -0.6641  1.8128 -1.7708
 2802SOL    HW219866   0.666   1.389  17.146  3.9292  2.8523 -0.2136
 2803SOL     OW19867   1.326   3.368  12.605 -0.4902  0.2715 -0.3983
 2803SOL    HW119868   1.300   3.384  12.696  0.7208  0.2643 -0.0426
 2803SOL    HW219869   1.265   3.430  12.565  0.7582  2.2645  0.7492
 2804SOL     OW19870   1.509   1.411   9.302  0.0313  0.2330  0.6546
 2804SOL    HW119871   1.570   1.421   9.375  1.2112  0.0483 -0.2977
 2804SOL    HW219872   1.476   1.329   9.337 -0.7370 -0.0100 -0.6452
 2805SOL     OW19873   2.160   3.165   9.080 -0.1798 -0.4404 -0.5140
 2805SOL    HW119874   2.154   3.075   9.111  1.1442 -0.9242 -1.6922
 2805SOL    HW219875   2.246   3.197   9.110 -1.3938  0.5710  1.9165
 2806SOL     OW19876   0.365   0.442   6.800 -0.0346  0.3855 -0.2896
 2806SOL    HW119877   0.401   0.362   6.839 -3.1656 -0.8939  0.0131
 2806SOL    HW219878   0.447   0.492   6.799 -0.1222  0.5039 -2.6592
 2807SOL     OW19879   3.992   0.804   7.035  0.0639 -0.0407  0.3279
 2807SOL    HW119880   4.028   0.880   7.081 -0.5099  0.9126 -0.8166
 2807SOL    HW219881   4.063   0.754   6.995 -0.9811 -1.9957  0.9102
 2808SOL     OW19882   4.226   0.054   1.152 -0.0126 -0.3596  0.5568
 2808SOL    HW119883   4.150   0.002   1.179 -0.5367 -0.2351 -0.6954
 2808SOL    HW219884   4.186   0.140   1.139  2.2338  0.0163 -3.7010
 2809SOL     OW19885   0.765   0.575   6.610  0.0069 -0.1399 -0.0517
 2809SOL    HW119886   0.802   0.556   6.524 -0.3707  0.5384 -0.3599
 2809SOL    HW219887   0.830   0.548   6.675 -1.3588 -0.5160  1.1484
 2810SOL     OW19888   1.029   2.120  11.706  0.4481 -0.0159  0.3516
 2810SOL    HW119889   1.061   2.186  11.644  2.7449 -2.8802 -1.5309
 2810SOL    HW219890   0.936   2.114  11.682 -0.0037  0.6121  1.9596
 2811SOL     OW19891   0.796   4.336   8.117 -0.4783  0.7065 -0.2020
 2811SOL    HW119892   0.778   4.395   8.189 -1.2714 -0.1964  0.3388
 2811SOL    HW219893   0.891   4.347   8.108 -0.1406 -0.6413  1.8256
 2812SOL     OW19894   2.398   2.407   1.253  0.6936 -0.4790 -0.0505
 2812SOL    HW119895   2.420   2.402   1.346  2.2191 -0.5128 -0.4204
 2812SOL    HW219896   2.356   2.321   1.245  0.4971 -0.5237  1.5233
 2813SOL     OW19897   3.037   4.587   5.162  0.0376  0.6329  1.0384
 2813SOL    HW119898   2.964   4.646   5.179 -0.6675 -0.0077  0.2421
 2813SOL    HW219899   3.071   4.562   5.248 -0.9741  0.9700  1.5313
 2814SOL     OW19900   0.784   1.356   3.232 -0.4516  0.4926 -0.0292
 2814SOL    HW119901   0.713   1.301   3.200 -0.8391 -0.3914  2.3064
 2814SOL    HW219902   0.815   1.393   3.149  2.0581  0.4458  0.8786
 2815SOL     OW19903   1.559   0.918  14.463 -0.2423 -0.4159 -0.0174
 2815SOL    HW119904   1.629   0.901  14.527 -0.1619  1.9774  0.5406
 2815SOL    HW219905   1.532   0.830  14.438  1.9801 -1.4078  1.0244
 2816SOL     OW19906   3.660   3.334   8.577  0.0498 -0.5055 -0.4811
 2816SOL    HW119907   3.667   3.372   8.490 -2.2315  1.5804  0.2428
 2816SOL    HW219908   3.752   3.342   8.603 -0.3790  0.2112  0.8441
 2817SOL     OW19909   3.659   2.422   1.632  0.1376 -0.0864  0.4291
 2817SOL    HW119910   3.711   2.378   1.564 -2.9212  0.5121 -2.3063
 2817SOL    HW219911   3.717   2.471   1.690 -0.0841  1.9212 -1.0227
 2818SOL     OW19912   3.093   0.489   3.623  0.2607 -0.1881  0.2169
 2818SOL    HW119913   3.096   0.446   3.708  2.9143 -3.0374 -1.2837
 2818SOL    HW219914   3.165   0.545   3.652  1.1974 -1.2536 -0.0078
 2819SOL     OW19915   1.947   2.638   3.929 -0.3860  0.4231  0.1869
 2819SOL    HW119916   1.947   2.719   3.879 -2.3124  1.4407  1.8278
 2819SOL    HW219917   2.026   2.662   3.979  1.0749 -2.1929 -0.8194
 2820SOL     OW19918   0.752   3.324   5.445  0.0679 -0.1312 -0.1198
 2820SOL    HW119919   0.764   3.413   5.478 -0.0437 -0.0975 -0.1696
 2820SOL    HW219920   0.657   3.318   5.441  0.1973 -1.4657 -1.3977
 2821SOL     OW19921   0.119   3.711  17.378 -0.3667 -0.5389  0.8778
 2821SOL    HW119922   0.081   3.705  17.291  0.6084  0.5196  0.3736
 2821SOL    HW219923   0.092   3.801  17.397  1.7710 -0.1124  1.9940
 2822SOL     OW19924   0.174   0.871   5.246  0.2802  0.3788 -0.1946
 2822SOL    HW119925   0.224   0.895   5.168 -0.7344 -0.8283 -1.2134
 2822SOL    HW219926   0.097   0.840   5.199  0.1577  0.5688 -0.1208
 2823SOL     OW19927   1.798   2.286   9.187  0.3477 -0.1963 -0.8041
 2823SOL    HW119928   1.731   2.253   9.248  1.3628 -1.7968 -0.5559
 2823SOL    HW219929   1.781   2.232   9.111  0.3616  0.9309 -1.6141
 2824SOL     OW19930   0.062   4.445   5.953 -0.3524 -0.2098  0.3963
 2824SOL    HW119931   0.132   4.417   6.011  0.8890  1.9777 -0.0613
 2824SOL    HW219932   4.718   4.453   6.020 -0.3601 -0.4090  0.4123
 2825SOL     OW19933   3.892   3.264   6.676  0.0117 -0.1406  0.4168
 2825SOL    HW119934   3.849   3.289   6.594 -0.3044 -2.3383 -0.1067
 2825SOL    HW219935   3.972   3.225   6.640  0.4035 -1.2482  2.5378
 2826SOL     OW19936   0.714   0.755  12.338 -0.1019  0.3911 -0.5470
 2826SOL    HW119937   0.730   0.849  12.332  1.0874  0.1859 -0.5626
 2826SOL    HW219938   0.650   0.739  12.269  1.5438 -0.1968 -1.9288
 2827SOL     OW19939   0.553   1.227   2.698  0.3990 -0.1939 -0.1875
 2827SOL    HW119940   0.524   1.146   2.657 -0.1189  0.8358 -1.8561
 2827SOL    HW219941   0.644   1.208   2.676  0.3844 -2.9731  2.1078
 2828SOL     OW19942   3.197   1.944   1.857 -0.4841  0.0632 -0.6118
 2828SOL    HW119943   3.158   1.871   1.905 -1.2182  0.3926 -0.7071
 2828SOL    HW219944   3.219   2.001   1.931 -0.6275 -0.2764 -0.3062
 2829SOL     OW19945   2.597   4.120   2.457  0.1721  0.5765  0.0022
 2829SOL    HW119946   2.648   4.199   2.438  0.7121  0.2010 -0.1177
 2829SOL    HW219947   2.508   4.154   2.463 -1.0183 -2.4258 -0.9186
 2830SOL     OW19948   3.149   1.640  16.335  0.7326 -0.3142 -0.1350
 2830SOL    HW119949   3.116   1.569  16.389  1.9509 -1.2833 -0.6703
 2830SOL    HW219950   3.070   1.693  16.345 -1.4569 -3.7707  0.6838
 2831SOL     OW19951   1.596   4.005  10.320 -0.2096 -0.2137  0.3997
 2831SOL    HW119952   1.658   3.934  10.304 -1.1116 -0.7985 -0.4709
 2831SOL    HW219953   1.533   3.960  10.376  0.1524 -1.0909  0.1068
 2832SOL     OW19954   0.688   3.212   7.765  0.0485  0.7194 -0.4358
 2832SOL    HW119955   0.599   3.186   7.741 -0.6314  0.5697  2.2117
 2832SOL    HW219956   0.706   3.208   7.859  1.1210  1.9979 -0.5838
 2833SOL     OW19957   2.828   0.670   3.331 -0.1715  0.4958 -0.7288
 2833SOL    HW119958   2.846   0.577   3.342 -0.2573  0.3320 -1.9729
 2833SOL    HW219959   2.887   0.689   3.258 -2.5768  1.0806 -2.5400
 2834SOL     OW19960   2.036   0.738   4.617 -0.4023  0.3734  0.3396
 2834SOL    HW119961   2.111   0.680   4.626 -1.4640 -1.0954 -0.3317
 2834SOL    HW219962   2.081   0.810   4.573 -2.0276  0.1811 -1.6413
 2835SOL     OW19963   1.644   2.710   5.701  0.1432 -0.8167 -0.6284
 2835SOL    HW119964   1.625   2.784   5.643  0.2561 -0.1516  0.1709
 2835SOL    HW219965   1.714   2.669   5.649 -0.5571  0.6712 -2.7780
 2836SOL     OW19966   2.578   4.075   9.281  0.2711 -0.2763 -0.2081
 2836SOL    HW119967   2.548   4.081   9.371  0.8247 -0.5812 -0.0012
 2836SOL    HW219968   2.640   4.003   9.286 -0.9012 -1.2395  0.3294
 2837SOL     OW19969   3.951   1.997  10.506 -0.0377  0.2272 -0.0579
 2837SOL    HW119970   3.978   1.993  10.598 -0.6140  0.4178  0.1190
 2837SOL    HW219971   3.856   1.987  10.499 -0.1482  1.3219 -0.1283
 2838SOL     OW19972   1.313   2.744   6.772 -0.1598 -0.0736 -0.0145
 2838SOL    HW119973   1.348   2.727   6.859  3.1328  2.4460 -0.8549
 2838SOL    HW219974   1.224   2.776   6.791  0.8000  1.1010  2.4550
 2839SOL     OW19975   2.287   0.833   8.958  0.0540 -0.1530  0.2036
 2839SOL    HW119976   2.248   0.897   8.898  1.7524 -0.2296 -1.0043
 2839SOL    HW219977   2.380   0.851   8.946  0.1428 -1.2070 -0.6503
 2840SOL     OW19978   3.452   4.498  17.413  0.5873  0.3027  0.1012
 2840SOL    HW119979   3.481   4.428  17.355 -0.5981 -0.2624  0.2033
 2840SOL    HW219980   3.464   4.578  17.362  0.6225  0.4098  0.2779
 2841SOL     OW19981   1.274   1.096   8.982 -0.2260 -0.1396 -0.2507
 2841SOL    HW119982   1.365   1.075   9.002  0.1605  0.8998 -0.9515
 2841SOL    HW219983   1.281   1.161   8.912  0.1306  0.7744  0.6375
 2842SOL     OW19984   2.848   1.544   3.634 -0.0824  0.1148 -0.0875
 2842SOL    HW119985   2.928   1.526   3.684  0.4545 -0.2347 -1.0809
 2842SOL    HW219986   2.844   1.470   3.574  1.6995  1.1232 -1.4384
 2843SOL     OW19987   3.335   4.272   4.257 -0.5521 -0.1741  0.4136
 2843SOL    HW119988   3.330   4.266   4.161 -0.8468  1.5876  0.3180
 2843SOL    HW219989   3.242   4.289   4.269 -0.2758 -0.3620  2.6916
 2844SOL     OW19990   2.765   1.262   3.304  0.3877 -0.1911  0.1777
 2844SOL    HW119991   2.765   1.287   3.211 -0.4891 -0.0407  0.2129
 2844SOL    HW219992   2.767   1.167   3.294  1.4845 -0.3161  1.5999
 2845SOL     OW19993   3.507   3.994   6.919 -0.4369  0.4003  0.6117
 2845SOL    HW119994   3.536   3.924   6.977 -0.5404 -0.8099 -0.7750
 2845SOL    HW219995   3.411   3.989   6.924 -0.4068 -0.2440  0.5537
 2846SOL     OW19996   2.284   0.903   3.260  0.8548  0.2881 -0.1360
 2846SOL    HW119997   2.199   0.886   3.220  1.1291 -0.4558 -0.3940
 2846SOL    HW219998   2.345   0.844   3.214  1.7218 -0.5819  2.1307
 2847SOL     OW19999   2.907   4.539   4.426  0.3959  0.0931 -0.1153
 2847SOL    HW120000   2.900   4.544   4.330  2.6824 -1.6873 -0.3568
 2847SOL    HW220001   2.978   4.600   4.445  1.7485 -2.3017  2.3793
 2848SOL     OW20002   3.218   0.265   7.346  0.0086 -0.0767 -0.4384
 2848SOL    HW120003   3.187   0.285   7.435  2.6031  1.7945  0.0703
 2848SOL    HW220004   3.139   0.257   7.292 -0.1920 -0.0780 -0.1479
 2849SOL     OW20005   3.620   0.434   7.925 -0.0881 -0.4345 -0.1488
 2849SOL    HW120006   3.714   0.445   7.919 -0.3377  0.6858 -1.9429
 2849SOL    HW220007   3.591   0.525   7.918  1.2937  0.0072 -0.0648
 2850SOL     OW20008   0.864   2.712   8.417  0.0112 -0.8560 -0.0563
 2850SOL    HW120009   0.866   2.795   8.466  0.1751 -2.1057  2.0471
 2850SOL    HW220010   0.940   2.669   8.457  0.1775 -0.8402 -0.3563
 2851SOL     OW20011   2.142   4.627   2.677  0.5939 -0.0054 -0.2737
 2851SOL    HW120012   2.073   4.585   2.728 -2.0698  4.4014 -0.2737
 2851SOL    HW220013   2.192   4.669   2.747 -0.1622 -0.6201  0.6297
 2852SOL     OW20014   0.730   2.283   2.313 -0.7881  0.4178  0.0368
 2852SOL    HW120015   0.658   2.317   2.260 -1.1436 -0.7195 -0.2073
 2852SOL    HW220016   0.755   2.212   2.254 -0.4707 -0.0604  0.7464
 2853SOL     OW20017   0.756   3.205   2.922  0.8022 -0.4114  0.0654
 2853SOL    HW120018   0.811   3.155   2.982  1.2356  0.6137  0.5202
 2853SOL    HW220019   0.828   3.230   2.865  1.3868 -2.8103 -0.2570
 2854SOL     OW20020   1.837   1.328   6.519 -0.1956  1.2712 -0.4591
 2854SOL    HW120021   1.930   1.306   6.509 -0.3805  1.1070 -1.8678
 2854SOL    HW220022   1.830   1.404   6.462 -0.3022  0.9693 -0.8502
 2855SOL     OW20023   3.869   4.096  17.225  0.3887 -0.3830  1.0816
 2855SOL    HW120024   3.843   4.174  17.274 -3.4299  1.1085 -3.2939
 2855SOL    HW220025   3.781   4.070  17.198  1.3045 -1.3470 -1.0012
 2856SOL     OW20026   4.056   1.784   8.827 -0.1248 -0.0600 -0.2212
 2856SOL    HW120027   4.008   1.842   8.769  1.1753  2.1674  0.9183
 2856SOL    HW220028   3.999   1.780   8.904 -1.1796 -2.0791 -1.0961
 2857SOL     OW20029   1.447   3.024   4.598  0.4287 -0.6995  0.3536
 2857SOL    HW120030   1.435   2.943   4.549 -2.3589 -1.5064  2.3654
 2857SOL    HW220031   1.381   3.015   4.666 -0.7635  1.8897 -0.4380
 2858SOL     OW20032   0.044   3.987   0.172 -0.0259 -0.1134 -0.3446
 2858SOL    HW120033   0.042   4.053   0.103  1.7229  1.6819  1.3547
 2858SOL    HW220034   0.009   4.037   0.246 -1.4442  1.5390 -2.1258
 2859SOL     OW20035   2.514   0.923   1.944 -0.0785 -0.5263  0.0898
 2859SOL    HW120036   2.504   1.001   1.999 -0.7621 -1.4603  1.2935
 2859SOL    HW220037   2.607   0.908   1.961  0.1934 -1.1261 -1.9754
 2860SOL     OW20038   0.139   2.042   3.571 -0.2238 -0.3539 -0.0817
 2860SOL    HW120039   0.076   1.973   3.593 -1.4389 -0.1163 -2.7834
 2860SOL    HW220040   0.083   2.115   3.543  1.7317  2.1712  2.5754
 2861SOL     OW20041   3.506   0.365   4.449 -0.1132 -0.5179 -0.1771
 2861SOL    HW120042   3.567   0.332   4.515 -0.9086 -0.3707  0.6271
 2861SOL    HW220043   3.421   0.367   4.491 -0.3380  2.6377 -0.7916
 2862SOL     OW20044   4.224   1.679   2.421 -0.1070  0.4243 -0.1994
 2862SOL    HW120045   4.128   1.676   2.423 -0.1111  0.9003  0.4135
 2862SOL    HW220046   4.241   1.691   2.328 -0.1476 -0.1690 -0.2852
 2863SOL     OW20047   0.058   3.411   1.166  0.3001  0.8857  0.3462
 2863SOL    HW120048   0.048   3.391   1.072  3.7368 -0.9925  0.3592
 2863SOL    HW220049   0.149   3.385   1.185  0.8134  2.3608 -0.1268
 2864SOL     OW20050   1.754   3.811  14.382  0.2247 -0.0928  0.0251
 2864SOL    HW120051   1.682   3.857  14.425 -0.8281 -0.7664 -1.0282
 2864SOL    HW220052   1.813   3.807  14.457  1.8019  0.5253 -1.1735
 2865SOL     OW20053   0.161   2.854  11.072 -0.3181  0.3578  0.7583
 2865SOL    HW120054   0.130   2.914  11.004  1.8015  0.8607  0.2284
 2865SOL    HW220055   0.091   2.854  11.137 -0.7287 -1.0976  0.3159
 2866SOL     OW20056   4.449   3.360   2.543 -0.1544  0.9220 -0.8370
 2866SOL    HW120057   4.538   3.370   2.576 -0.3304 -1.2404  0.2753
 2866SOL    HW220058   4.463   3.290   2.480 -0.7361 -0.9765  1.1404
 2867SOL     OW20059   2.047   3.109   7.169 -0.7198  0.4032 -0.1051
 2867SOL    HW120060   2.086   3.056   7.100 -1.8524 -0.9250  0.2806
 2867SOL    HW220061   1.982   3.155   7.117 -1.4558  0.9048  1.2696
 2868SOL     OW20062   0.601   1.182   1.515  0.0190 -1.1980  0.6191
 2868SOL    HW120063   0.670   1.119   1.495  1.7641  0.4850  1.2973
 2868SOL    HW220064   0.555   1.175   1.431  0.7567 -0.1207  0.1227
 2869SOL     OW20065   0.400   0.128  15.718 -0.0252 -0.4142 -0.2681
 2869SOL    HW120066   0.448   0.196  15.670 -1.0197 -1.2489 -2.4009
 2869SOL    HW220067   0.345   0.174  15.782  0.6299 -1.8687  1.3506
 2870SOL     OW20068   2.112   4.307  10.708 -1.0081  0.2546  0.6548
 2870SOL    HW120069   2.097   4.212  10.708 -1.2437  0.3041 -0.9351
 2870SOL    HW220070   2.146   4.307  10.798 -0.0982 -1.8864  0.3182
 2871SOL     OW20071   4.679   1.840   5.033  0.4782 -0.3110 -0.0646
 2871SOL    HW120072   4.657   1.853   5.125 -1.5548  1.8031 -0.8229
 2871SOL    HW220073   4.618   1.768   5.019  0.9386 -1.0391  1.7363
 2872SOL     OW20074   3.948   1.883  14.836 -0.9061 -0.0810 -0.0585
 2872SOL    HW120075   3.976   1.895  14.745  0.3103  0.2388  0.3521
 2872SOL    HW220076   4.008   1.941  14.884 -1.3919  1.3112 -1.1274
 2873SOL     OW20077   0.817   1.172   2.631  0.3754 -0.7643 -0.4607
 2873SOL    HW120078   0.813   1.264   2.604  4.1583 -0.0156  1.4977
 2873SOL    HW220079   0.911   1.160   2.640  0.4868  0.3834 -0.0917
 2874SOL     OW20080   3.854   3.397   3.559 -0.3477  0.1959  0.2209
 2874SOL    HW120081   3.832   3.374   3.650  1.5973 -0.5339  0.5166
 2874SOL    HW220082   3.883   3.316   3.519 -0.4999  0.0038  0.4953
 2875SOL     OW20083   3.714   4.443  16.167  0.0696 -0.8335 -0.2247
 2875SOL    HW120084   3.803   4.476  16.154 -0.4022 -0.2465 -2.0415
 2875SOL    HW220085   3.687   4.408  16.082  0.4016 -0.3876 -0.5089
 2876SOL     OW20086   2.877   2.089   4.623 -0.5268 -0.0336 -0.2811
 2876SOL    HW120087   2.926   2.132   4.553  2.4328  0.8620  2.3388
 2876SOL    HW220088   2.813   2.154   4.648  0.5850  1.7588 -2.1454
 2877SOL     OW20089   0.772   0.911   2.650 -0.1008  0.5335 -0.0420
 2877SOL    HW120090   0.677   0.920   2.661 -0.0250  0.5996  0.5659
 2877SOL    HW220091   0.783   1.003   2.624 -0.6956  0.4697 -0.5248
 2878SOL     OW20092   0.098   3.132  12.621  0.5889 -0.1749 -0.1890
 2878SOL    HW120093   0.081   3.157  12.530  0.6721  3.1421  0.7248
 2878SOL    HW220094   0.043   3.055  12.637 -1.6044  1.5267  0.4160
 2879SOL     OW20095   0.911   2.066   2.221  0.0271  0.7830 -0.0798
 2879SOL    HW120096   0.999   2.100   2.235 -0.1087  0.2205  2.3055
 2879SOL    HW220097   0.921   1.981   2.265  0.0525  1.1796  0.6852
 2880SOL     OW20098   2.527   1.030  15.501  0.4526 -0.5565  0.0662
 2880SOL    HW120099   2.537   0.941  15.536 -0.0377 -0.4565  0.4517
 2880SOL    HW220100   2.529   1.076  15.585 -0.5292  0.3191 -0.3852
 2881SOL     OW20101   0.779   1.641   4.486  0.3320 -0.7964 -0.6508
 2881SOL    HW120102   0.700   1.687   4.459 -0.4399 -1.6433  0.1704
 2881SOL    HW220103   0.844   1.699   4.446 -0.5629 -1.1498 -2.5917
 2882SOL     OW20104   2.969   1.125   0.075  0.1370  0.4370 -0.1208
 2882SOL    HW120105   3.011   1.042   0.051 -0.7212  0.3691 -1.3852
 2882SOL    HW220106   2.990   1.170  17.694 -2.1842 -0.1114 -1.0123
 2883SOL     OW20107   4.168   1.601   8.122 -0.1116 -0.3803  0.0191
 2883SOL    HW120108   4.156   1.663   8.194 -0.3331  0.6380 -0.8955
 2883SOL    HW220109   4.098   1.548   8.158 -0.0497 -0.8422 -0.5483
 2884SOL     OW20110   2.855   1.254   0.272 -0.8421 -0.3939  0.1272
 2884SOL    HW120111   2.877   1.220   0.185  0.2831 -1.2613  0.7458
 2884SOL    HW220112   2.945   1.253   0.304 -0.7052 -0.5093 -0.2500
 2885SOL     OW20113   3.284   1.369  12.502  0.2019 -0.0969 -0.4666
 2885SOL    HW120114   3.367   1.364  12.549  0.4737  0.3663 -0.8909
 2885SOL    HW220115   3.290   1.290  12.448 -0.3393 -0.0560 -0.5856
 2886SOL     OW20116   1.755   2.171   8.702  0.0230 -0.0602  0.1928
 2886SOL    HW120117   1.704   2.191   8.623 -2.2254 -2.3641  1.0801
 2886SOL    HW220118   1.741   2.077   8.701  1.0523 -0.2108  1.1195
 2887SOL     OW20119   0.085   0.099  13.730 -0.0407  0.0888 -0.1710
 2887SOL    HW120120   0.159   0.092  13.791 -0.3063  0.8028  0.2374
 2887SOL    HW220121   0.054   0.180  13.771 -1.6183  0.0637 -1.3164
 2888SOL     OW20122   1.373   4.265   4.100  0.1101 -0.5093 -0.3835
 2888SOL    HW120123   1.424   4.288   4.022  0.3008 -0.9473 -0.3880
 2888SOL    HW220124   1.426   4.190   4.125  1.4750  0.8069  0.7172
 2889SOL     OW20125   1.937   4.108   8.114 -0.2300  0.0347  0.1761
 2889SOL    HW120126   1.909   4.152   8.194  2.4715 -0.7442  1.5546
 2889SOL    HW220127   1.957   4.020   8.147 -1.5977 -1.0470 -1.8816
 2890SOL     OW20128   4.186   4.040   6.034 -0.1101  0.0523  0.0898
 2890SOL    HW120129   4.191   3.946   6.049  1.0764  0.2019  0.5877
 2890SOL    HW220130   4.092   4.055   6.023 -0.3192  1.2875  3.4348
 2891SOL     OW20131   3.320   4.469  14.981  0.7154 -0.5920 -0.5607
 2891SOL    HW120132   3.256   4.427  15.038 -1.0138  2.0520 -0.5275
 2891SOL    HW220133   3.326   4.553  15.027 -2.5304 -0.4413 -0.3942
 2892SOL     OW20134   2.184   3.779  11.448 -0.7030 -0.0391 -0.4259
 2892SOL    HW120135   2.139   3.703  11.484  0.5739 -0.8637 -0.5495
 2892SOL    HW220136   2.230   3.741  11.373  1.1693  0.1330  0.6302
 2893SOL     OW20137   3.160   4.071   0.688  0.0337 -0.5093 -0.0308
 2893SOL    HW120138   3.066   4.061   0.676 -0.4509  0.6116  2.8355
 2893SOL    HW220139   3.188   4.082   0.597  2.1290 -1.0884  0.5438
 2894SOL     OW20140   2.363   2.438  11.191  0.0410  0.0600  0.2938
 2894SOL    HW120141   2.342   2.494  11.116  0.7288  1.6159  1.2571
 2894SOL    HW220142   2.374   2.350  11.154 -0.2052 -0.3119  1.0925
 2895SOL     OW20143   1.441   1.014   2.454 -0.3795 -0.4902 -0.0643
 2895SOL    HW120144   1.529   1.046   2.474 -0.2793 -0.4546 -0.5624
 2895SOL    HW220145   1.412   0.969   2.533 -1.0185  3.2607  1.8312
 2896SOL     OW20146   2.315   1.899  11.402  0.4336 -0.4583 -0.0904
 2896SOL    HW120147   2.410   1.913  11.394 -0.0632  2.4103 -0.9150
 2896SOL    HW220148   2.285   1.978  11.357  1.1092  0.1968  0.5972
 2897SOL     OW20149   2.690   2.552   6.413  0.4106  0.3541  0.2284
 2897SOL    HW120150   2.664   2.584   6.499 -0.1650  0.2529  0.0925
 2897SOL    HW220151   2.721   2.463   6.430  0.4103 -0.1392 -2.3008
 2898SOL     OW20152   0.495   0.281   5.566  0.2189  0.1997  0.4087
 2898SOL    HW120153   0.516   0.225   5.641  0.5413 -1.3015 -0.7992
 2898SOL    HW220154   0.400   0.277   5.574  0.3784 -0.4567  2.0652
 2899SOL     OW20155   0.765   1.827  10.704  0.7661 -0.3621  0.0635
 2899SOL    HW120156   0.745   1.736  10.684  2.1517 -0.3462 -1.3890
 2899SOL    HW220157   0.838   1.816  10.764  1.0889  1.5955  0.0320
 2900SOL     OW20158   3.933   3.732   4.604 -0.4214 -0.2525 -0.0879
 2900SOL    HW120159   3.859   3.704   4.551 -0.9789 -0.6235  0.8861
 2900SOL    HW220160   3.902   3.753   4.692  1.4197 -2.9967  1.2068
 2901SOL     OW20161   4.114   1.544   5.849 -0.1579 -0.5753  0.1505
 2901SOL    HW120162   4.030   1.551   5.803  0.7933 -0.1097 -1.4983
 2901SOL    HW220163   4.145   1.634   5.845  0.7028 -0.8170  1.2904
 2902SOL     OW20164   3.105   1.874  15.711 -0.4257  0.3727 -0.3494
 2902SOL    HW120165   3.131   1.845  15.798 -2.9416  0.5901  0.4943
 2902SOL    HW220166   3.040   1.937  15.745  0.2121  0.3480  0.9361
 2903SOL     OW20167   0.621   1.523   6.861  0.5001 -0.4296  0.3012
 2903SOL    HW120168   0.589   1.586   6.797  1.0148 -0.5448 -0.0744
 2903SOL    HW220169   0.620   1.570   6.945  4.8896 -2.6121  1.6104
 2904SOL     OW20170   3.123   4.156  17.652 -0.4944 -0.2558 -0.1370
 2904SOL    HW120171   3.177   4.079  17.670 -0.7118 -0.3239  0.2435
 2904SOL    HW220172   3.168   4.222   0.005  0.4801 -0.0375 -1.2131
 2905SOL     OW20173   2.996   3.599   2.686 -0.5061  0.7488 -0.0992
 2905SOL    HW120174   3.001   3.674   2.627 -0.9165 -0.5872 -1.8317
 2905SOL    HW220175   3.012   3.638   2.772 -3.4758  0.6642  0.4994
 2906SOL     OW20176   0.573   0.607   6.830 -0.0877  0.0668  0.3519
 2906SOL    HW120177   0.627   0.637   6.903  0.1838 -0.1538  0.2444
 2906SOL    HW220178   0.640   0.610   6.761  1.1119 -0.9415  1.4582
 2907SOL     OW20179   2.472   1.982   2.876 -0.0892 -0.3760  0.6751
 2907SOL    HW120180   2.549   2.038   2.867  0.1642 -0.8402 -0.0048
 2907SOL    HW220181   2.504   1.925   2.946  0.4892  0.5346  1.1562
 2908SOL     OW20182   3.010   4.477   2.438 -0.1179  0.5607  0.1311
 2908SOL    HW120183   2.983   4.569   2.434  0.8586  0.8101 -0.5634
 2908SOL    HW220184   3.080   4.470   2.373 -0.2533  1.0382 -0.0655
 2909SOL     OW20185   3.792   1.592   8.223 -0.5417  0.2294  0.4927
 2909SOL    HW120186   3.841   1.653   8.278  0.4464  0.9743 -1.1896
 2909SOL    HW220187   3.728   1.657   8.196  0.6612  1.0644 -0.3787
 2910SOL     OW20188   2.607   1.593   2.497  0.3363  0.2743  0.0189
 2910SOL    HW120189   2.664   1.656   2.542 -2.3811  2.1790  0.7929
 2910SOL    HW220190   2.667   1.525   2.467 -1.0823 -0.1125 -1.9872
 2911SOL     OW20191   1.748   2.376  15.236  0.7704 -0.1926 -0.0858
 2911SOL    HW120192   1.689   2.424  15.294  1.7759  1.7723 -0.6898
 2911SOL    HW220193   1.824   2.430  15.255  0.7865 -0.4526  0.5916
 2912SOL     OW20194   3.608   3.813   7.148 -0.1156  0.2027  0.0575
 2912SOL    HW120195   3.637   3.809   7.240 -1.4416 -0.4391  0.4438
 2912SOL    HW220196   3.648   3.732   7.115 -0.6240 -0.2425  0.5331
 2913SOL     OW20197   2.151   0.923   4.449  0.2422  0.1735 -0.5546
 2913SOL    HW120198   2.174   1.015   4.433  1.0798  0.4301  2.0385
 2913SOL    HW220199   2.225   0.899   4.505 -2.0100 -0.6424  2.0755
 2914SOL     OW20200   3.545   0.889   1.657  0.1898  0.7564 -0.1188
 2914SOL    HW120201   3.484   0.865   1.727 -2.2596  1.7577 -1.9101
 2914SOL    HW220202   3.501   0.953   1.601 -2.4949 -1.1697 -0.1967
 2915SOL     OW20203   0.576   0.679   5.066 -0.0975 -0.1214 -0.4687
 2915SOL    HW120204   0.488   0.662   5.032 -0.4685  1.0471 -0.0701
 2915SOL    HW220205   0.573   0.774   5.067  1.0154 -0.0856 -0.4575
 2916SOL     OW20206   0.708   1.257   2.289  0.0526  0.7338 -0.0556
 2916SOL    HW120207   0.801   1.235   2.288  0.1124  0.9545  1.1030
 2916SOL    HW220208   0.711   1.319   2.362 -0.0239 -0.0682  0.6221
 2917SOL     OW20209   3.824   1.952  13.225  0.1115  0.0729  1.0213
 2917SOL    HW120210   3.882   2.025  13.247  1.2999 -0.7333  0.5492
 2917SOL    HW220211   3.817   1.923  13.316  2.1218  1.5998  1.6672
 2918SOL     OW20212   2.782   2.267   4.250  0.3570  0.2106  0.0191
 2918SOL    HW120213   2.795   2.277   4.345  0.9809  0.1483 -0.0590
 2918SOL    HW220214   2.864   2.306   4.222  0.9744 -0.9138  0.2818
 2919SOL     OW20215   2.907   0.276   4.070 -0.0159 -0.4934 -0.1304
 2919SOL    HW120216   2.840   0.207   4.079 -1.6611  1.0311 -0.7030
 2919SOL    HW220217   2.973   0.245   4.132  1.2143 -0.3846 -1.3922
 2920SOL     OW20218   0.574   2.232  16.320 -0.2548 -0.1119 -0.1703
 2920SOL    HW120219   0.579   2.191  16.407  1.6407  1.9410  0.6938
 2920SOL    HW220220   0.495   2.284  16.336 -1.1995 -1.0690 -1.6839
 2921SOL     OW20221   1.984   0.015   1.605  0.1998  0.2803 -0.6775
 2921SOL    HW120222   2.035   4.674   1.558 -0.7040  0.6459 -2.1410
 2921SOL    HW220223   1.991   0.089   1.546  3.1460  0.3578 -0.2136
 2922SOL     OW20224   1.420   2.153   2.359 -0.2745 -0.0678  0.5476
 2922SOL    HW120225   1.335   2.134   2.320  0.6298  0.6324 -1.7233
 2922SOL    HW220226   1.420   2.098   2.438 -0.6498  1.0955  1.3621
 2923SOL     OW20227   0.134   1.326   4.680  0.0516 -0.0687 -0.2895
 2923SOL    HW120228   0.098   1.388   4.744 -0.1794 -1.5638  1.0425
 2923SOL    HW220229   0.209   1.297   4.733 -0.4348 -0.9993 -0.1076
 2924SOL     OW20230   0.269   0.685   8.574  0.3966 -0.0505  0.2458
 2924SOL    HW120231   0.252   0.761   8.518  2.8263  0.2007 -0.1470
 2924SOL    HW220232   0.298   0.728   8.655  1.2940  1.2020 -0.7404
 2925SOL     OW20233   3.526   4.454  11.720  0.2133 -0.3718 -0.0740
 2925SOL    HW120234   3.542   4.488  11.808 -0.1384 -0.8855  0.1882
 2925SOL    HW220235   3.461   4.390  11.747 -1.1135  0.3412 -1.5813
 2926SOL     OW20236   1.338   4.168  17.498  0.1660 -0.0181 -0.2296
 2926SOL    HW120237   1.314   4.230  17.567  0.9275  1.6817 -1.4940
 2926SOL    HW220238   1.247   4.143  17.481  0.8601 -3.6913  1.4175
 2927SOL     OW20239   2.497   1.012   4.334  0.0552 -0.0264  0.0983
 2927SOL    HW120240   2.446   1.092   4.349  1.1444  0.3300  1.8578
 2927SOL    HW220241   2.582   1.055   4.335 -0.8182  1.6835  1.2097
 2928SOL     OW20242   0.313   4.582   4.887 -0.5964 -0.3291 -0.0270
 2928SOL    HW120243   0.305   4.664   4.838 -0.7957 -1.4541 -1.8803
 2928SOL    HW220244   0.364   4.597   4.966 -0.7067 -1.1019  0.1856
 2929SOL     OW20245   2.268   2.781   6.547  0.5419  0.1640  0.1879
 2929SOL    HW120246   2.197   2.746   6.601  1.0359  1.5395  1.7095
 2929SOL    HW220247   2.229   2.762   6.462 -1.1413  0.5752  0.8658
 2930SOL     OW20248   2.825   1.308   7.673 -0.5746 -0.2126  0.0917
 2930SOL    HW120249   2.839   1.394   7.711  0.1733  0.2498 -1.2206
 2930SOL    HW220250   2.768   1.258   7.732 -1.4469  0.4945 -0.1547
 2931SOL     OW20251   0.573   1.196   8.642  0.6830  0.3789  0.1754
 2931SOL    HW120252   0.567   1.101   8.633 -0.2121  0.7387 -2.8279
 2931SOL    HW220253   0.666   1.219   8.636 -0.0126  2.2290 -3.1811
 2932SOL     OW20254   3.766   2.881  12.021  0.3869  0.1933  0.2849
 2932SOL    HW120255   3.712   2.949  11.980 -0.0255 -0.3599 -0.0877
 2932SOL    HW220256   3.856   2.909  12.003  0.4396 -0.0425  0.1782
 2933SOL     OW20257   2.753   3.931   7.337 -0.0591 -0.5531  0.4119
 2933SOL    HW120258   2.749   4.012   7.389 -1.5616 -0.4683  0.1585
 2933SOL    HW220259   2.684   3.878   7.376 -1.1072  0.9075  0.5363
 2934SOL     OW20260   0.802   3.493   5.947  0.0724 -0.2583 -0.3158
 2934SOL    HW120261   0.743   3.515   5.875 -0.7815  0.5411  0.6346
 2934SOL    HW220262   0.850   3.569   5.979  1.6989 -1.3025 -0.2678
 2935SOL     OW20263   0.313   1.450   4.084  0.3031  0.6456 -0.1745
 2935SOL    HW120264   0.279   1.534   4.115  0.3705 -0.1086  1.9259
 2935SOL    HW220265   0.245   1.390   4.116 -1.6174  2.3075 -1.0867
 2936SOL     OW20266   0.113   1.333  13.895 -0.1309 -0.1959 -0.5129
 2936SOL    HW120267   0.133   1.282  13.974  0.3264 -0.3398 -0.7201
 2936SOL    HW220268   0.065   1.402  13.941  1.0789  1.2452 -1.3789
 2937SOL     OW20269   0.407   0.970   8.161 -0.7141 -0.4303  0.0013
 2937SOL    HW120270   0.355   0.910   8.108  0.0116 -1.9516  1.0234
 2937SOL    HW220271   0.444   1.031   8.097 -0.4590  0.0229  0.5831
 2938SOL     OW20272   3.627   4.540  13.989  0.1634  0.4148  0.4697
 2938SOL    HW120273   3.581   4.597  14.051  0.2869  0.1268  0.8276
 2938SOL    HW220274   3.679   4.609  13.949  0.0189 -0.7654 -1.7212
 2939SOL     OW20275   0.515   3.715   2.957 -0.4495  0.0863  0.3277
 2939SOL    HW120276   0.532   3.782   3.024 -3.0346  0.7926  0.2823
 2939SOL    HW220277   0.605   3.685   2.942 -0.7310 -0.1819 -0.8207
 2940SOL     OW20278   0.527   1.373   7.181 -0.3794  0.3293 -0.5414
 2940SOL    HW120279   0.537   1.419   7.264 -1.5591  1.6548 -1.1317
 2940SOL    HW220280   0.617   1.372   7.148 -0.1146  2.7586  0.1078
 2941SOL     OW20281   2.839   3.306   2.318  0.3037  0.0755 -0.4771
 2941SOL    HW120282   2.889   3.387   2.335  4.2014 -1.8456 -2.8895
 2941SOL    HW220283   2.819   3.325   2.226  1.9179 -1.6838 -1.1988
 2942SOL     OW20284   0.172   2.531   4.912 -0.4351  0.2642  0.0838
 2942SOL    HW120285   0.222   2.612   4.904 -1.2487  0.9555  1.8272
 2942SOL    HW220286   0.150   2.518   4.820  2.3571 -0.3795 -0.4683
 2943SOL     OW20287   4.629   0.646   3.279  0.2127  0.8439 -0.5787
 2943SOL    HW120288   4.568   0.617   3.210  0.9395  1.1570 -1.3511
 2943SOL    HW220289   4.604   0.607   3.362  1.2149  0.9867 -0.2191
 2944SOL     OW20290   2.635   3.612   6.540  0.2089 -0.1176 -0.2103
 2944SOL    HW120291   2.574   3.622   6.614 -0.9629  1.7636 -1.4386
 2944SOL    HW220292   2.707   3.672   6.559 -0.6649  1.0195 -0.4344
 2945SOL     OW20293   1.045   1.191   4.676 -0.1843 -0.2962  0.2827
 2945SOL    HW120294   1.067   1.098   4.671 -0.2672 -0.2097 -1.8603
 2945SOL    HW220295   1.031   1.213   4.768 -0.0313  0.5881  0.0992
 2946SOL     OW20296   1.709   4.635  10.087 -0.4081 -0.7482  0.1459
 2946SOL    HW120297   1.666   4.577  10.025 -0.8335  1.4731 -1.6253
 2946SOL    HW220298   1.651   4.711  10.090 -0.2070 -0.6016  0.3553
 2947SOL     OW20299   0.922   0.292   4.712  0.2056  0.1780 -0.2142
 2947SOL    HW120300   0.827   0.286   4.721  0.4647 -0.0775  2.2984
 2947SOL    HW220301   0.953   0.277   4.801  0.6393 -0.2224 -0.4365
 2948SOL     OW20302   4.306   1.960   4.950 -0.1928  0.1214  0.8150
 2948SOL    HW120303   4.226   1.981   4.903 -0.5266 -1.7000  0.5801
 2948SOL    HW220304   4.301   2.023   5.022 -1.0296  0.4990  0.4208
 2949SOL     OW20305   1.051   0.389  16.439  0.3168 -0.4944 -0.4066
 2949SOL    HW120306   1.038   0.315  16.498 -2.4746  2.0145  2.1191
 2949SOL    HW220307   0.995   0.363  16.365 -0.1775  0.2563 -0.2994
 2950SOL     OW20308   2.564   0.858  15.980  0.0933  0.1350 -0.4875
 2950SOL    HW120309   2.543   0.783  16.036 -0.6896  2.4405  2.3318
 2950SOL    HW220310   2.636   0.822  15.928 -0.3212 -1.4810  0.0578
 2951SOL     OW20311   3.463   2.633   4.748  0.2201  0.3650 -0.1042
 2951SOL    HW120312   3.392   2.635   4.812 -2.1872 -1.0726 -2.7384
 2951SOL    HW220313   3.515   2.712   4.765 -0.2168  0.7290 -0.4684
 2952SOL     OW20314   3.051   3.711   8.779  0.4929 -0.3891 -0.7830
 2952SOL    HW120315   2.995   3.658   8.835  2.8653 -0.9127  1.0824
 2952SOL    HW220316   3.098   3.766   8.842  1.1291 -2.0215  0.1811
 2953SOL     OW20317   0.192   4.674   2.993  0.1814  0.3320 -0.0651
 2953SOL    HW120318   0.131   4.710   2.929  1.2082  1.5058 -0.4068
 2953SOL    HW220319   0.274   4.708   2.955  0.7309  2.0186  2.5741
 2954SOL     OW20320   0.516   3.291   4.000 -0.5254 -0.0183  0.1016
 2954SOL    HW120321   0.460   3.369   4.008 -1.8093 -0.6717 -2.7591
 2954SOL    HW220322   0.580   3.311   4.069  0.3703 -0.5515 -0.5715
 2955SOL     OW20323   3.336   0.576   7.465 -0.2031  0.0443  0.2583
 2955SOL    HW120324   3.381   0.532   7.392 -0.9383  0.5155 -0.4654
 2955SOL    HW220325   3.388   0.534   7.534 -1.0488 -0.7408  0.4242
 2956SOL     OW20326   0.466   1.426   6.307  0.0724  0.0398  0.4266
 2956SOL    HW120327   0.549   1.464   6.338  0.4280  0.3207 -0.8492
 2956SOL    HW220328   0.477   1.333   6.290 -0.0591  0.4867 -2.1455
 2957SOL     OW20329   0.137   1.858  16.778  0.1658 -0.2130 -0.0901
 2957SOL    HW120330   0.058   1.820  16.741  0.4321 -0.8517 -0.0046
 2957SOL    HW220331   0.094   1.940  16.801  1.0101  0.7464 -1.9023
 2958SOL     OW20332   1.981   2.370  16.111  0.2145 -0.0532 -0.2616
 2958SOL    HW120333   1.951   2.400  16.197 -2.1784 -1.6466 -0.5348
 2958SOL    HW220334   2.072   2.401  16.113  0.4995 -0.9361  0.4807
 2959SOL     OW20335   1.493   3.462   2.523 -0.3439 -0.3070  0.1644
 2959SOL    HW120336   1.497   3.533   2.587  1.6327  0.7610 -1.1317
 2959SOL    HW220337   1.543   3.386   2.556 -1.1311 -2.0382 -2.6435
 2960SOL     OW20338   3.797   1.336   7.192  0.8926 -0.0469  0.6079
 2960SOL    HW120339   3.866   1.343   7.126  0.5726  0.6433  0.3376
 2960SOL    HW220340   3.829   1.267   7.250  1.4362  1.7615  2.4383
 2961SOL     OW20341   3.605   0.158  16.766  0.1718  0.3572 -0.3394
 2961SOL    HW120342   3.581   0.163  16.673 -0.4734  2.2438 -0.0899
 2961SOL    HW220343   3.518   0.159  16.807 -0.2957  1.5390 -1.3282
 2962SOL     OW20344   4.101   0.976  14.232  0.5289  0.0794 -0.5356
 2962SOL    HW120345   4.096   1.050  14.292  0.2983  0.0020 -0.4595
 2962SOL    HW220346   4.049   0.999  14.155  0.8677 -1.0071 -1.0942
 2963SOL     OW20347   4.683   1.193   2.393  0.0505  0.0145 -0.0752
 2963SOL    HW120348   4.596   1.157   2.375  1.2125 -1.9228 -1.7761
 2963SOL    HW220349   4.688   1.275   2.343 -2.4103  0.3088  0.1768
 2964SOL     OW20350   2.036   0.283  10.444  0.4220  0.2403  0.5639
 2964SOL    HW120351   2.050   0.289  10.538  1.5819 -0.0344  0.4179
 2964SOL    HW220352   2.127   0.270  10.415 -0.1578  0.2049 -1.2698
 2965SOL     OW20353   2.782   2.625  16.950  0.1052  0.0152 -0.1714
 2965SOL    HW120354   2.842   2.567  16.996 -0.2919 -1.3237 -1.3635
 2965SOL    HW220355   2.708   2.642  17.010  0.0307  1.2614 -0.6046
 2966SOL     OW20356   2.471   3.884   4.655 -0.4105 -0.0557  0.3060
 2966SOL    HW120357   2.413   3.839   4.593 -0.4546 -0.3203  0.5417
 2966SOL    HW220358   2.413   3.955   4.685  1.8738  2.6849 -1.7133
 2967SOL     OW20359   3.314   0.467   8.821  0.4634 -0.5323  0.3214
 2967SOL    HW120360   3.230   0.468   8.776 -0.2833  0.0499  1.7497
 2967SOL    HW220361   3.312   0.378   8.855 -1.8996 -0.5671  0.0555
 2968SOL     OW20362   0.265   1.483  12.629  0.6568 -0.1925  0.0403
 2968SOL    HW120363   0.180   1.494  12.672  1.0584  1.5303  0.3992
 2968SOL    HW220364   0.295   1.573  12.643 -0.0679  0.0569  0.0178
 2969SOL     OW20365   1.357   0.905  12.723 -0.4997 -0.0252 -0.1175
 2969SOL    HW120366   1.301   0.978  12.749  0.3052  0.3468  0.5653
 2969SOL    HW220367   1.415   0.900  12.799 -1.2990 -2.7459  0.3010
 2970SOL     OW20368   1.176   1.862   8.239 -0.0793  0.1362  0.0243
 2970SOL    HW120369   1.149   1.953   8.229  0.4485  0.5054  2.1210
 2970SOL    HW220370   1.261   1.872   8.281  0.1465 -2.1417  0.1319
 2971SOL     OW20371   4.157   3.455   4.860 -0.2027 -0.3809 -0.2730
 2971SOL    HW120372   4.186   3.391   4.925 -3.3362 -0.0827  1.3868
 2971SOL    HW220373   4.190   3.416   4.778  0.8346 -0.3451  0.1264
 2972SOL     OW20374   3.503   1.057   5.520 -0.1519 -0.4904 -0.0600
 2972SOL    HW120375   3.582   1.103   5.547 -1.2144  0.5442  1.3118
 2972SOL    HW220376   3.509   0.991   5.589 -0.0453  1.7092  2.0368
 2973SOL     OW20377   3.449   0.909   5.316  0.4035 -0.1932  0.3409
 2973SOL    HW120378   3.538   0.903   5.280 -0.9862  1.7441 -3.3968
 2973SOL    HW220379   3.462   0.965   5.392  0.4532  0.7322 -0.3429
 2974SOL     OW20380   2.174   3.723   3.433 -0.5385  0.2696  0.1475
 2974SOL    HW120381   2.170   3.765   3.347 -0.6353 -2.2064 -1.0381
 2974SOL    HW220382   2.257   3.760   3.465 -0.2879  0.1069 -0.3308
 2975SOL     OW20383   4.160   4.144  14.835  0.2844  0.5241 -0.1459
 2975SOL    HW120384   4.246   4.103  14.822  0.6718  1.0916  0.6638
 2975SOL    HW220385   4.193   4.230  14.860  0.0363  0.7817 -0.7021
 2976SOL     OW20386   4.169   1.667  17.180  0.4657 -0.3280 -0.5732
 2976SOL    HW120387   4.238   1.642  17.119  1.1196 -1.0525  0.4846
 2976SOL    HW220388   4.153   1.758  17.153  1.8846  0.2255  0.4652
 2977SOL     OW20389   0.017   2.888   4.934  0.9333  0.0801 -0.1321
 2977SOL    HW120390   4.653   2.898   4.966  0.6136 -1.6725 -0.5070
 2977SOL    HW220391   0.065   2.829   4.992  1.0140 -0.0230 -0.3029
 2978SOL     OW20392   1.960   0.861   3.305  0.4307  0.0729 -0.5112
 2978SOL    HW120393   1.957   0.907   3.221  2.7131  0.5357 -0.3285
 2978SOL    HW220394   1.884   0.904   3.345 -0.7461 -1.5805 -0.9616
 2979SOL     OW20395   2.405   0.730   7.475  0.3491  0.3852 -0.2926
 2979SOL    HW120396   2.404   0.637   7.453 -0.4949  0.3319 -0.0474
 2979SOL    HW220397   2.437   0.734   7.566  2.4705 -3.3557 -0.8962
 2980SOL     OW20398   0.774   2.766   1.645  0.2232 -0.2724  0.4030
 2980SOL    HW120399   0.806   2.851   1.615 -1.9788  1.5670  3.1545
 2980SOL    HW220400   0.690   2.754   1.601  0.1054  1.2127  0.2209
 2981SOL     OW20401   1.114   2.173   4.089  0.4423 -0.1158  0.2395
 2981SOL    HW120402   1.161   2.134   4.015 -1.9189  0.3393 -1.4955
 2981SOL    HW220403   1.048   2.219   4.038  1.3946  2.2271  1.1179
 2982SOL     OW20404   0.049   1.466   8.478  0.6332 -0.3469  0.3021
 2982SOL    HW120405   0.037   1.561   8.477 -3.3752 -0.8459 -0.1576
 2982SOL    HW220406   0.130   1.465   8.530  0.1814  0.7510  1.0101
 2983SOL     OW20407   1.255   3.174   5.693 -0.3614 -0.1139  0.1531
 2983SOL    HW120408   1.331   3.203   5.744 -0.3372 -0.6227  0.4026
 2983SOL    HW220409   1.260   3.229   5.615  0.8082  2.3495  1.9507
 2984SOL     OW20410   3.412   1.384  12.085 -0.9104 -0.2220  0.6979
 2984SOL    HW120411   3.352   1.456  12.103 -0.4505  0.3945 -0.2281
 2984SOL    HW220412   3.430   1.352  12.174 -0.9842  0.5648  0.9944
 2985SOL     OW20413   4.172   3.527   2.205 -1.1286 -0.1541  0.2718
 2985SOL    HW120414   4.234   3.532   2.278 -1.3670  2.1512  0.2935
 2985SOL    HW220415   4.151   3.434   2.217 -0.5792 -0.4689 -1.1895
 2986SOL     OW20416   0.911   0.530   8.390 -0.2204  0.6727 -0.5209
 2986SOL    HW120417   0.876   0.471   8.457 -2.1738  0.5458 -1.6280
 2986SOL    HW220418   0.838   0.533   8.327 -0.6859  0.9510  0.0221
 2987SOL     OW20419   4.476   0.488   3.458 -0.1897 -0.2194  0.8928
 2987SOL    HW120420   4.485   0.395   3.435  1.1484  0.2631 -0.5295
 2987SOL    HW220421   4.393   0.511   3.417  0.7468  0.4818 -0.6335
 2988SOL     OW20422   4.633   1.669   7.301 -0.2576  0.1914 -0.0361
 2988SOL    HW120423   4.577   1.745   7.320 -1.8276 -1.1077  0.4839
 2988SOL    HW220424   4.714   1.702   7.339 -0.9305 -0.1294  1.6960
 2989SOL     OW20425   2.286   3.003   4.806 -0.5964 -0.6981  0.4664
 2989SOL    HW120426   2.292   3.060   4.882 -0.4035 -1.0634  0.7228
 2989SOL    HW220427   2.256   2.925   4.854  0.6073 -1.1971  0.4047
 2990SOL     OW20428   2.814   2.493  13.159 -0.7444 -0.4653 -0.2823
 2990SOL    HW120429   2.800   2.398  13.153 -0.4970 -0.5945  1.1561
 2990SOL    HW220430   2.841   2.501  13.250  3.8983  1.1956 -1.7960
 2991SOL     OW20431   1.697   3.728   7.445  0.0949  0.3564  0.2453
 2991SOL    HW120432   1.631   3.670   7.407 -2.6402  3.1905  0.6034
 2991SOL    HW220433   1.700   3.797   7.378  1.4053  0.1499  0.1022
 2992SOL     OW20434   2.046   0.562   8.455  0.2385 -0.3925 -0.1543
 2992SOL    HW120435   2.016   0.518   8.534  2.5268  1.6401  1.8113
 2992SOL    HW220436   1.966   0.605   8.425  1.6627  2.4939  0.2323
 2993SOL     OW20437   3.101   3.904   4.515  0.3033  0.9081 -0.4057
 2993SOL    HW120438   3.062   3.829   4.560 -1.8295  0.8486 -2.3420
 2993SOL    HW220439   3.020   3.944   4.484  0.5632  2.7118  1.2494
 2994SOL     OW20440   1.187   1.859   2.484  0.0521  0.5030 -0.5277
 2994SOL    HW120441   1.233   1.799   2.426  0.7368  1.0279 -0.5277
 2994SOL    HW220442   1.115   1.891   2.429  0.7844  0.4633 -1.5155
 2995SOL     OW20443   4.194   2.302   1.803 -0.1087  0.0768  0.5525
 2995SOL    HW120444   4.282   2.338   1.819  0.0775  0.3364 -1.0890
 2995SOL    HW220445   4.210   2.227   1.747 -1.7125  0.3173 -0.2225
 2996SOL     OW20446   2.390   3.140   1.795 -0.0852  0.2925 -0.0561
 2996SOL    HW120447   2.366   3.054   1.829  1.4751 -0.6676 -1.3983
 2996SOL    HW220448   2.314   3.192   1.822 -0.8135  1.5914 -4.6051
 2997SOL     OW20449   3.936   4.326   1.029  0.1347 -0.3600  0.5279
 2997SOL    HW120450   4.021   4.346   0.990  0.1616 -0.9347  0.2790
 2997SOL    HW220451   3.957   4.246   1.078  2.0573 -0.3939 -0.3811
 2998SOL     OW20452   3.124   1.186   0.780 -0.5676  0.1969 -0.5853
 2998SOL    HW120453   3.109   1.112   0.722  1.1712 -0.8833  0.3173
 2998SOL    HW220454   3.218   1.204   0.768 -0.3422 -1.2999 -1.0674
 2999SOL     OW20455   1.466   1.550   2.724  0.2403  0.2078 -0.3774
 2999SOL    HW120456   1.495   1.462   2.699 -1.9956 -0.3525 -0.9636
 2999SOL    HW220457   1.373   1.553   2.706  0.2683 -1.3814 -0.7598
 3000SOL     OW20458   2.450   1.839   4.395  0.7431 -0.4305 -0.0263
 3000SOL    HW120459   2.447   1.905   4.463 -0.7324  3.6357 -4.0428
 3000SOL    HW220460   2.361   1.838   4.359  1.1895 -0.8661 -1.1286
 3001SOL     OW20461   0.667   1.480  13.913  0.1817  0.7827  0.3314
 3001SOL    HW120462   0.614   1.419  13.965  0.2384  1.7520  1.5312
 3001SOL    HW220463   0.608   1.525  13.853 -1.4219  0.3013  1.5277
 3002SOL     OW20464   0.242   2.093   0.947  0.6997 -0.1203  0.2501
 3002SOL    HW120465   0.291   2.113   1.027  1.0423 -0.2692  0.0746
 3002SOL    HW220466   0.289   2.147   0.884  0.3562  0.4422  0.4754
 3003SOL     OW20467   0.079   1.268  14.290 -0.0758  0.2796  0.6573
 3003SOL    HW120468   0.120   1.343  14.249 -1.8989  1.0477  0.2231
 3003SOL    HW220469   0.106   1.196  14.233 -0.0598  0.3327  0.5976
 3004SOL     OW20470   4.052   3.378  12.822  0.1024 -0.5518  0.3249
 3004SOL    HW120471   4.148   3.368  12.823  0.2669  1.0870  1.5789
 3004SOL    HW220472   4.044   3.434  12.900  2.3583  1.8631 -1.1773
 3005SOL     OW20473   3.563   2.360  15.950  0.5103 -0.1184 -0.1237
 3005SOL    HW120474   3.475   2.329  15.971 -0.1209  0.7830 -1.4196
 3005SOL    HW220475   3.563   2.428  16.018 -0.0961 -0.7898  0.5419
 3006SOL     OW20476   0.809   4.466   0.438 -0.7253  0.2703  0.4057
 3006SOL    HW120477   0.902   4.474   0.416 -1.0087  0.6783 -0.6506
 3006SOL    HW220478   0.816   4.430   0.527 -2.1644  0.1466  0.4575
 3007SOL     OW20479   0.147   0.654   3.416  0.3522 -0.4086  0.1612
 3007SOL    HW120480   0.117   0.635   3.505 -0.7529 -0.0367 -0.1372
 3007SOL    HW220481   0.066   0.652   3.366  0.7647  2.2817 -0.6122
 3008SOL     OW20482   4.590   2.352   6.088  1.0281  0.3357  0.5939
 3008SOL    HW120483   4.625   2.323   6.004  0.0525 -0.6244  0.5080
 3008SOL    HW220484   4.650   2.304   6.146 -0.7411 -0.1523  2.0353
 3009SOL     OW20485   2.410   2.862  12.949 -0.5526  0.3546  0.3316
 3009SOL    HW120486   2.396   2.859  12.855  0.1851 -0.1585  0.2384
 3009SOL    HW220487   2.487   2.805  12.949  1.3561  2.9201 -3.2976
 3010SOL     OW20488   2.000   2.532  10.386  0.1317  0.1273 -0.8199
 3010SOL    HW120489   2.073   2.551  10.327  1.8068 -0.8262  0.9470
 3010SOL    HW220490   1.965   2.621  10.387  0.9319  0.4552 -1.6083
 3011SOL     OW20491   0.452   1.815   5.407  0.0724  0.6055  0.2736
 3011SOL    HW120492   0.500   1.878   5.353  0.2722 -0.2314 -0.5285
 3011SOL    HW220493   0.366   1.821   5.366 -0.0717 -0.6265  0.4015
 3012SOL     OW20494   1.466   2.754   1.768 -0.2942 -0.1427 -0.0801
 3012SOL    HW120495   1.544   2.701   1.787 -0.1445 -0.2474 -0.9742
 3012SOL    HW220496   1.413   2.678   1.745 -1.4881  1.1098 -1.5028
 3013SOL     OW20497   4.417   0.596   3.079 -0.8889 -0.2788  0.0635
 3013SOL    HW120498   4.379   0.665   3.134  0.7754  0.6548  0.0589
 3013SOL    HW220499   4.402   0.637   2.994 -0.4394 -1.2136 -0.4643
 3014SOL     OW20500   1.250   0.667   6.899  0.3697 -0.4990  0.1163
 3014SOL    HW120501   1.334   0.622   6.894  0.8236  0.2714  0.8166
 3014SOL    HW220502   1.284   0.753   6.925 -1.3183  0.7008 -1.6150
 3015SOL     OW20503   0.612   1.777   9.996 -0.2385  0.0997  0.2645
 3015SOL    HW120504   0.618   1.701  10.054  3.4627  1.2260  1.3831
 3015SOL    HW220505   0.630   1.728   9.916  0.8756  0.2053  0.4469
 3016SOL     OW20506   0.958   4.545   9.739 -0.1335  0.5404 -0.5898
 3016SOL    HW120507   0.922   4.516   9.823 -0.0243  0.3551 -0.6080
 3016SOL    HW220508   1.048   4.571   9.761  0.0898 -1.3178  0.6940
 3017SOL     OW20509   2.437   4.708   1.518  0.6462  0.3258 -0.1844
 3017SOL    HW120510   2.460   4.626   1.475  1.2942 -0.6267  1.9831
 3017SOL    HW220511   2.358   4.681   1.565  0.8236  1.9059  0.9998
 3018SOL     OW20512   1.872   3.620  10.888 -0.5296 -0.0930  0.8867
 3018SOL    HW120513   1.936   3.642  10.957  0.9685  0.6467 -0.7511
 3018SOL    HW220514   1.868   3.706  10.847 -1.9088 -0.8918 -0.6418
 3019SOL     OW20515   1.948   2.880   7.582 -0.1662  0.8707  0.6095
 3019SOL    HW120516   1.952   2.975   7.595  1.7598  0.5123  2.5697
 3019SOL    HW220517   1.931   2.871   7.488  2.6896  0.8173  0.1154
 3020SOL     OW20518   2.176   2.787   3.981  0.0206 -0.1877  0.3340
 3020SOL    HW120519   2.200   2.827   3.897  1.0458  3.3070  2.3286
 3020SOL    HW220520   2.150   2.856   4.041  0.1577 -1.0614  1.3937
 3021SOL     OW20521   0.975   3.438   5.585 -0.1110 -0.2580 -0.0369
 3021SOL    HW120522   0.949   3.359   5.632 -1.1135  0.2615  0.2832
 3021SOL    HW220523   1.063   3.415   5.554 -0.4827 -2.0853  0.3093
 3022SOL     OW20524   0.501   3.120  14.429  0.3389 -0.2714  0.3748
 3022SOL    HW120525   0.414   3.123  14.468  0.0698  0.2806 -0.2690
 3022SOL    HW220526   0.525   3.212  14.444 -3.7909  0.3436  3.2755
 3023SOL     OW20527   4.407   0.573   8.165 -1.0178  0.4560  0.8444
 3023SOL    HW120528   4.453   0.590   8.247 -0.2093 -0.9087  0.6774
 3023SOL    HW220529   4.453   0.493   8.140 -1.1640  0.7449 -0.3335
 3024SOL     OW20530   2.822   2.975   6.063  0.4696 -0.2915 -0.0766
 3024SOL    HW120531   2.741   2.964   6.112  0.8644 -0.6934  0.4697
 3024SOL    HW220532   2.867   3.036   6.121 -1.4318  0.2184  0.8655
 3025SOL     OW20533   3.010   0.267   9.431 -0.1550  0.0747 -0.1350
 3025SOL    HW120534   2.960   0.211   9.371  0.4058 -0.3590 -0.2070
 3025SOL    HW220535   2.945   0.316   9.481 -0.7728 -0.5998 -0.2829
 3026SOL     OW20536   0.294   2.052   3.321 -0.1693  0.0066 -0.0011
 3026SOL    HW120537   0.292   1.978   3.260  0.3619 -2.6753  3.2442
 3026SOL    HW220538   0.215   2.055   3.375 -0.4476  1.0172 -0.4732
 3027SOL     OW20539   2.342   3.577  13.361 -0.5598  0.2124 -0.1326
 3027SOL    HW120540   2.387   3.593  13.278 -1.5392  0.9513 -0.5143
 3027SOL    HW220541   2.407   3.549  13.425 -1.2641  1.1148  0.9578
 3028SOL     OW20542   1.378   4.147   5.529 -0.4977  0.3640  0.1060
 3028SOL    HW120543   1.330   4.092   5.591  0.9791 -1.5810 -0.5002
 3028SOL    HW220544   1.325   4.161   5.451  0.4341  0.1464 -0.5668
 3029SOL     OW20545   4.067   4.151   2.374  0.2556 -0.2536 -0.8695
 3029SOL    HW120546   4.047   4.238   2.339 -0.6625 -0.6781 -1.4054
 3029SOL    HW220547   4.148   4.173   2.419 -1.0018  2.0512  0.2414
 3030SOL     OW20548   2.209   1.838   4.254  0.7892 -0.2398 -0.7897
 3030SOL    HW120549   2.227   1.915   4.199 -1.6331  2.5789  2.3791
 3030SOL    HW220550   2.113   1.839   4.257  0.7845 -0.7801 -0.7377
 3031SOL     OW20551   4.137   1.713   3.505 -0.1083 -0.0307  0.5075
 3031SOL    HW120552   4.157   1.622   3.524 -2.8694 -0.9069 -0.7744
 3031SOL    HW220553   4.120   1.703   3.411 -0.5037 -4.6525  1.1096
 3032SOL     OW20554   3.537   1.533   2.466  0.1197 -0.4954 -0.1971
 3032SOL    HW120555   3.456   1.520   2.516  2.3224  1.0452  3.7317
 3032SOL    HW220556   3.524   1.625   2.445  4.2593  0.1982  0.4129
 3033SOL     OW20557   0.126   1.464   3.431  0.0811 -0.5991 -0.5715
 3033SOL    HW120558   0.046   1.411   3.425 -0.3873  0.0008  0.2647
 3033SOL    HW220559   0.157   1.431   3.515 -0.0683 -1.1618 -0.7347
 3034SOL     OW20560   3.865   1.328   8.531  0.5688  0.0854 -0.1856
 3034SOL    HW120561   3.856   1.378   8.613 -0.4365 -2.0703  1.0184
 3034SOL    HW220562   3.773   1.316   8.510  0.9076 -1.1189 -0.9760
 3035SOL     OW20563   4.513   4.500   3.457  0.2094  0.3707 -0.2018
 3035SOL    HW120564   4.487   4.579   3.410  1.8571  0.5078 -0.9095
 3035SOL    HW220565   4.488   4.533   3.543 -1.8563 -1.0842 -0.2585
 3036SOL     OW20566   4.133   3.477   7.945 -0.2239 -0.2950 -0.2860
 3036SOL    HW120567   4.159   3.457   8.034  1.9791 -1.3614 -1.1679
 3036SOL    HW220568   4.058   3.536   7.951 -1.1236 -1.3018 -1.6004
 3037SOL     OW20569   3.191   2.483   8.997 -0.6439 -0.7123  0.5508
 3037SOL    HW120570   3.134   2.410   9.020 -1.5432 -1.2619 -3.4497
 3037SOL    HW220571   3.275   2.457   9.036 -0.5786 -1.0419  0.1895
 3038SOL     OW20572   1.319   0.528   7.567  0.0642  0.2109 -0.0312
 3038SOL    HW120573   1.342   0.506   7.477  0.5918  1.1634 -0.1243
 3038SOL    HW220574   1.348   0.619   7.564 -1.5821  0.7624  0.8608
 3039SOL     OW20575   1.714   0.995   7.911  0.2194  0.5884  0.2843
 3039SOL    HW120576   1.764   1.077   7.921  1.4593 -0.1336 -0.0246
 3039SOL    HW220577   1.778   0.941   7.865  1.2277  0.6971  1.5331
 3040SOL     OW20578   0.357   3.339   2.621  0.2113  0.1249  0.6685
 3040SOL    HW120579   0.306   3.297   2.552  0.4207  1.0113 -0.0336
 3040SOL    HW220580   0.387   3.423   2.584  0.7165 -0.3186  0.0826
 3041SOL     OW20581   4.043   1.561  11.900 -0.0709 -0.0215  0.3005
 3041SOL    HW120582   4.109   1.497  11.873  0.9033  0.8954  0.5462
 3041SOL    HW220583   4.070   1.642  11.858  1.8761 -0.3881  0.8251
 3042SOL     OW20584   0.324   1.201   8.327 -0.2474  0.3346  0.0608
 3042SOL    HW120585   0.380   1.131   8.293 -2.0861 -1.3188  0.4368
 3042SOL    HW220586   0.242   1.185   8.280  0.3248 -0.7876 -0.5416
 3043SOL     OW20587   2.379   1.496   0.864 -0.2646  0.5555 -0.0112
 3043SOL    HW120588   2.381   1.482   0.770 -1.0475 -0.1561  0.0766
 3043SOL    HW220589   2.461   1.451   0.883  0.4760  1.1052 -1.9543
 3044SOL     OW20590   3.798   2.320   3.639  0.1743  0.3759  0.2794
 3044SOL    HW120591   3.884   2.307   3.679  0.4053 -2.6793 -1.1853
 3044SOL    HW220592   3.772   2.403   3.679  1.0488  1.3863 -1.2599
 3045SOL     OW20593   2.925   4.080  13.950 -0.5772  0.6804  0.1417
 3045SOL    HW120594   2.988   4.130  14.002  1.8990 -2.9160  0.6323
 3045SOL    HW220595   2.908   4.139  13.877 -0.7468  1.7200  1.0247
 3046SOL     OW20596   4.328   4.189   2.487  0.1148 -0.3708  0.3228
 3046SOL    HW120597   4.334   4.240   2.569  2.4621 -0.1021  0.0018
 3046SOL    HW220598   4.389   4.242   2.436  0.0764  0.0331  0.6890
 3047SOL     OW20599   4.065   4.463   2.390 -0.1964 -0.4895  0.3898
 3047SOL    HW120600   4.143   4.517   2.390  0.0054 -0.7649  2.2663
 3047SOL    HW220601   4.027   4.498   2.310 -2.0166 -3.2003  0.0473
 3048SOL     OW20602   1.883   0.839  14.295 -0.6166 -0.0992  0.6281
 3048SOL    HW120603   1.819   0.781  14.252 -1.4106  0.8421  0.5301
 3048SOL    HW220604   1.894   0.919  14.244  1.3951 -1.3691 -0.9334
 3049SOL     OW20605   1.667   1.903   8.617  0.0475 -0.3837 -0.2797
 3049SOL    HW120606   1.698   1.813   8.620  2.4203  0.4493 -0.2650
 3049SOL    HW220607   1.575   1.893   8.591  0.4894 -0.1826 -1.8960
 3050SOL     OW20608   1.821   1.251   8.995  0.4877 -0.2844  0.0607
 3050SOL    HW120609   1.743   1.296   8.963  1.9040  2.0749 -0.0341
 3050SOL    HW220610   1.885   1.315   8.966  0.8183 -0.9196 -0.6023
 3051SOL     OW20611   0.271   0.045   2.387  0.3778  0.4812 -0.8270
 3051SOL    HW120612   0.297   0.017   2.300 -2.3624 -1.3411 -1.0642
 3051SOL    HW220613   0.356   0.055   2.431 -0.7401  0.5115  1.3597
 3052SOL     OW20614   1.522   3.451  14.731  0.0683  0.7782  0.2979
 3052SOL    HW120615   1.543   3.486  14.818  1.7619 -2.0198  1.0138
 3052SOL    HW220616   1.600   3.484  14.687  0.0898  0.9548  0.4654
 3053SOL     OW20617   1.636   0.660   7.866  0.2442  0.5102 -0.2523
 3053SOL    HW120618   1.573   0.729   7.884  1.8434  2.7523 -3.3130
 3053SOL    HW220619   1.634   0.642   7.772 -1.0446 -2.1877  0.2750
 3054SOL     OW20620   1.883   2.876  12.798 -0.5822 -0.4417 -0.4734
 3054SOL    HW120621   1.818   2.833  12.853 -0.0199 -0.2353  0.3609
 3054SOL    HW220622   1.868   2.834  12.713 -1.1653  0.5621 -0.8626
 3055SOL     OW20623   4.038   2.833  11.460 -0.0102 -0.7339 -0.1800
 3055SOL    HW120624   3.961   2.800  11.413 -0.0387  1.2372 -1.5212
 3055SOL    HW220625   4.077   2.751  11.490 -0.2153  0.2808  2.8353
 3056SOL     OW20626   2.384   1.816   8.242 -0.2917  0.0687  0.4504
 3056SOL    HW120627   2.337   1.898   8.226  1.5068  1.3603  1.7618
 3056SOL    HW220628   2.427   1.849   8.321  0.9157 -3.7544  1.3920
 3057SOL     OW20629   3.581   1.738   0.749  0.5425 -0.3402  0.0667
 3057SOL    HW120630   3.580   1.798   0.823 -0.4666  1.5527 -1.4800
 3057SOL    HW220631   3.665   1.765   0.712 -1.0233  1.7283 -2.0006
 3058SOL     OW20632   3.086   4.323   1.547 -1.0419 -0.2001 -0.1150
 3058SOL    HW120633   3.102   4.399   1.491  1.4394 -1.5070 -1.1645
 3058SOL    HW220634   3.174   4.287   1.549 -1.5993 -1.6755 -1.6089
 3059SOL     OW20635   3.173   0.775  10.712  0.1048  0.2908 -0.4314
 3059SOL    HW120636   3.205   0.828  10.785 -0.8441 -0.8342  0.8210
 3059SOL    HW220637   3.084   0.760  10.744 -0.7241  0.6343 -2.5584
 3060SOL     OW20638   0.832   1.531   4.915 -0.2784 -0.3994  0.1248
 3060SOL    HW120639   0.901   1.538   4.848 -0.1890 -1.1678  0.1297
 3060SOL    HW220640   0.837   1.620   4.948 -0.4951  0.3897 -1.9851
 3061SOL     OW20641   3.393   3.214  13.614 -0.6039 -0.4999  0.9975
 3061SOL    HW120642   3.310   3.168  13.626  0.2644 -2.5011 -0.8033
 3061SOL    HW220643   3.459   3.156  13.651 -0.8959 -1.1139  0.5556
 3062SOL     OW20644   0.943   3.979  12.218 -0.0147  0.4201 -0.0468
 3062SOL    HW120645   1.024   3.963  12.168 -0.2439  0.1345 -0.3257
 3062SOL    HW220646   0.983   4.037  12.283 -2.7635  1.2723  0.8706
 3063SOL     OW20647   4.669   1.562   7.812  0.0086 -0.3099  0.1681
 3063SOL    HW120648   4.666   1.647   7.856 -0.9285 -0.0136 -0.4530
 3063SOL    HW220649   4.675   1.502   7.886  0.4316 -0.5426 -0.0592
 3064SOL     OW20650   4.043   4.385   3.187 -0.2858 -0.0683 -0.0423
 3064SOL    HW120651   4.090   4.322   3.133  0.9857 -2.8106  4.3292
 3064SOL    HW220652   3.988   4.320   3.230 -0.3834  1.0966  1.5817
 3065SOL     OW20653   4.005   4.536   0.526  0.5581  0.3668  0.0770
 3065SOL    HW120654   4.044   4.581   0.451  0.2984  0.4948  0.0158
 3065SOL    HW220655   3.933   4.596   0.546 -1.0972 -1.2974 -0.8442
 3066SOL     OW20656   0.778   2.245   2.575 -0.2172 -0.7199  0.2605
 3066SOL    HW120657   0.735   2.257   2.490 -0.0603 -1.3614  0.0859
 3066SOL    HW220658   0.869   2.266   2.556 -0.0279 -2.0016 -0.2831
 3067SOL     OW20659   1.473   2.359   6.430 -0.3884  0.1666 -0.2664
 3067SOL    HW120660   1.526   2.282   6.449 -1.7150 -0.6669  0.0433
 3067SOL    HW220661   1.490   2.418   6.504  0.1135  0.1481 -0.3664
 3068SOL     OW20662   1.498   1.321   4.249  0.1933 -0.9379 -0.5458
 3068SOL    HW120663   1.415   1.307   4.294  0.4279 -0.1960  0.1114
 3068SOL    HW220664   1.488   1.417   4.243  1.3691 -0.8225 -0.6938
 3069SOL     OW20665   3.533   3.233   8.802  0.1077  0.2749 -0.1673
 3069SOL    HW120666   3.502   3.289   8.874 -0.9590 -1.0797  0.4273
 3069SOL    HW220667   3.571   3.285   8.732  1.0209 -0.3508 -0.1337
 3070SOL     OW20668   2.918   0.210   7.282  0.7479  0.7384 -0.4265
 3070SOL    HW120669   2.883   0.267   7.350 -1.6274  0.1639 -1.1439
 3070SOL    HW220670   2.853   0.208   7.211 -1.5479 -0.0617  1.6786
 3071SOL     OW20671   1.736   0.561   5.594  0.0092  0.4677  0.2005
 3071SOL    HW120672   1.699   0.613   5.665  0.0966  0.7932  0.0050
 3071SOL    HW220673   1.804   0.508   5.636  0.8473  2.3314  1.1742
 3072SOL     OW20674   1.822   3.647   7.037 -0.1334 -0.1763  0.4399
 3072SOL    HW120675   1.855   3.623   7.123 -0.2293 -0.8806  0.2824
 3072SOL    HW220676   1.763   3.573   7.026 -2.6899  1.9272  0.1510
 3073SOL     OW20677   0.564   2.407  15.501  0.0983  0.1694 -1.1065
 3073SOL    HW120678   0.581   2.487  15.453 -3.5265  0.4667 -1.9371
 3073SOL    HW220679   0.546   2.343  15.432  0.3664  0.5426 -1.5168
 3074SOL     OW20680   3.777   2.768   8.212  0.1227  0.2789 -0.3705
 3074SOL    HW120681   3.704   2.830   8.208  1.0441  1.5068  1.8391
 3074SOL    HW220682   3.788   2.747   8.119 -1.4257  0.6556 -0.6436
 3075SOL     OW20683   1.823   2.570   0.510 -0.1075 -0.4810 -0.2691
 3075SOL    HW120684   1.868   2.569   0.426  0.2021 -0.5839 -0.0998
 3075SOL    HW220685   1.822   2.476   0.526  0.7545 -0.6378 -1.1856
 3076SOL     OW20686   2.317   0.915   8.538  0.0571 -0.5037 -0.0147
 3076SOL    HW120687   2.237   0.946   8.581  0.5800  1.0815 -0.1610
 3076SOL    HW220688   2.380   0.950   8.602 -0.1266 -1.6858  0.8105
 3077SOL     OW20689   3.776   4.475   1.276 -0.3734  0.0666 -0.1856
 3077SOL    HW120690   3.827   4.470   1.357  0.4407 -2.3680 -0.8495
 3077SOL    HW220691   3.844   4.447   1.215  1.3661 -0.3505  1.9475
 3078SOL     OW20692   0.388   0.503  16.573 -0.2063  0.4168 -0.1833
 3078SOL    HW120693   0.475   0.529  16.542 -0.0849 -2.5840 -2.4350
 3078SOL    HW220694   0.414   0.476  16.661  0.0144  2.1118  0.2693
 3079SOL     OW20695   4.222   2.474   7.305  0.5167  0.1394  0.2476
 3079SOL    HW120696   4.284   2.417   7.261 -1.5385 -1.0098 -1.1086
 3079SOL    HW220697   4.202   2.424   7.384  2.3943  0.0121  0.6419
 3080SOL     OW20698   4.041   1.809   7.478  0.2083 -0.0233 -0.4280
 3080SOL    HW120699   4.048   1.784   7.386  0.8864 -0.4164 -0.2680
 3080SOL    HW220700   4.124   1.847   7.507  0.4375 -0.9097  0.0503
 3081SOL     OW20701   0.493   0.594   1.106 -0.3001  0.2913 -0.4102
 3081SOL    HW120702   0.483   0.600   1.011  3.0290 -1.4718 -0.8533
 3081SOL    HW220703   0.440   0.519   1.135  1.6165 -0.0783  2.1971
 3082SOL     OW20704   3.814   1.408   5.493  0.1886 -0.2912 -0.4341
 3082SOL    HW120705   3.894   1.460   5.502 -0.2687  0.3034  0.1971
 3082SOL    HW220706   3.835   1.323   5.454 -0.3792 -1.3385  1.5321
 3083SOL     OW20707   2.968   4.419   7.637 -0.1590 -0.7382 -0.0473
 3083SOL    HW120708   2.927   4.471   7.567  0.0627 -0.0105  0.3575
 3083SOL    HW220709   3.060   4.445   7.633 -0.5395  0.4646 -0.9740
 3084SOL     OW20710   2.688   0.317   8.542  0.0310 -0.0843  0.1541
 3084SOL    HW120711   2.706   0.389   8.482  1.5512 -0.6801 -0.1127
 3084SOL    HW220712   2.771   0.271   8.531  0.2839  0.3852  0.0987
 3085SOL     OW20713   2.668   2.349  13.402  0.2146 -0.0640 -0.3325
 3085SOL    HW120714   2.573   2.337  13.392  0.3381 -1.0611 -0.3859
 3085SOL    HW220715   2.701   2.274  13.351 -1.3243 -1.1622  0.2726
 3086SOL     OW20716   2.413   4.381   2.141  0.2044 -0.3732 -0.0807
 3086SOL    HW120717   2.466   4.362   2.064  0.1683  2.0815 -0.7177
 3086SOL    HW220718   2.351   4.309   2.137 -0.7841  0.4611  0.3579
 3087SOL     OW20719   4.407   2.447  14.617  0.5954  0.8112  0.1497
 3087SOL    HW120720   4.367   2.534  14.609  2.1776  1.5087 -0.0895
 3087SOL    HW220721   4.421   2.421  14.526 -1.7527  1.4976 -0.4180
 3088SOL     OW20722   3.100   3.150   1.759  0.4635  0.7728 -0.6698
 3088SOL    HW120723   3.025   3.181   1.708 -0.0600  0.0732 -0.3295
 3088SOL    HW220724   3.065   3.074   1.805 -2.4257  2.0292 -0.8213
 3089SOL     OW20725   0.338   4.631   5.718  0.2244  0.3287 -0.3606
 3089SOL    HW120726   0.394   4.571   5.767  0.5414 -1.0926 -2.4367
 3089SOL    HW220727   0.387   4.713   5.731  0.7786 -0.7805  4.4923
 3090SOL     OW20728   3.650   4.527  11.953  0.8111  0.1532  0.0160
 3090SOL    HW120729   3.595   4.592  11.997 -0.7269  0.0696 -1.7601
 3090SOL    HW220730   3.708   4.578  11.896  1.2443  0.0371  0.3576
 3091SOL     OW20731   0.572   1.203   8.965 -0.4154 -0.5127  0.1548
 3091SOL    HW120732   0.520   1.269   9.010 -1.9397  0.2413 -2.6816
 3091SOL    HW220733   0.529   1.201   8.879 -1.1271 -1.9117  0.5498
 3092SOL     OW20734   3.757   1.729   3.283  0.1049 -0.4737  0.2627
 3092SOL    HW120735   3.807   1.651   3.305 -2.3492 -1.9672  0.5582
 3092SOL    HW220736   3.702   1.733   3.362  0.2344  1.9830  0.2555
 3093SOL     OW20737   4.116   0.081  13.762  0.0110  0.2568  0.0855
 3093SOL    HW120738   4.038   0.031  13.739  0.6051 -0.1272 -1.0912
 3093SOL    HW220739   4.181   0.010  13.760  0.6229  0.8413 -0.5718
 3094SOL     OW20740   3.587   2.615  16.599  0.2122 -0.4705  0.2236
 3094SOL    HW120741   3.542   2.699  16.587 -0.9935 -1.4126 -1.8921
 3094SOL    HW220742   3.628   2.625  16.685 -0.0003 -2.5228  0.5542
 3095SOL     OW20743   2.741   2.042  16.507 -0.0379 -0.3256  0.0427
 3095SOL    HW120744   2.695   1.983  16.448  0.0173 -2.2004  1.8595
 3095SOL    HW220745   2.685   2.119  16.497  0.1802 -0.3314 -1.1513
 3096SOL     OW20746   4.652   0.029   5.199 -0.3794  0.3194 -0.2634
 3096SOL    HW120747   4.588   4.686   5.222 -0.7887 -0.2900 -3.2730
 3096SOL    HW220748   4.700   4.705   5.133  1.3664  1.2263  0.3186
 3097SOL     OW20749   4.554   2.967   8.505 -0.2129 -0.3083  0.1405
 3097SOL    HW120750   4.517   2.895   8.556  1.5570 -0.5602  1.0648
 3097SOL    HW220751   4.589   2.920   8.429 -0.1876  0.7864 -0.5190
 3098SOL     OW20752   2.737   4.028   3.475  0.1822 -0.1244  0.2186
 3098SOL    HW120753   2.712   4.002   3.564 -0.3810 -1.3437 -0.2883
 3098SOL    HW220754   2.832   4.024   3.474  0.2459  1.3748  2.1211
 3099SOL     OW20755   0.175   2.107   6.736 -0.1611  0.2804  0.3425
 3099SOL    HW120756   0.127   2.029   6.763  1.9359 -0.8670  0.7445
 3099SOL    HW220757   0.116   2.178   6.761 -0.2589  0.0970  0.6442
 3100SOL     OW20758   4.643   0.477   4.579  0.6698  0.5505  0.1220
 3100SOL    HW120759   4.666   0.452   4.490  0.2264  0.5611  0.0071
 3100SOL    HW220760   4.549   0.463   4.566  1.0951 -1.4631 -0.7855
 3101SOL     OW20761   2.486   4.437   6.842 -0.3871  0.2878  0.0520
 3101SOL    HW120762   2.393   4.423   6.860 -0.2166 -1.6399 -0.5434
 3101SOL    HW220763   2.520   4.503   6.902  0.5914  0.3775 -0.6118
 3102SOL     OW20764   0.261   3.719   4.995  0.3957  0.5295 -0.0102
 3102SOL    HW120765   0.176   3.756   4.968  0.1860 -0.1123 -0.2217
 3102SOL    HW220766   0.244   3.674   5.078 -0.5324  1.2748  0.2107
 3103SOL     OW20767   2.890   1.014  10.908 -0.0675  0.6500 -0.3226
 3103SOL    HW120768   2.818   1.048  10.855  0.1428  0.6565 -0.6032
 3103SOL    HW220769   2.906   1.091  10.961 -4.0139  0.2995  1.4198
 3104SOL     OW20770   0.011   1.735   3.952 -0.2611  0.2495  0.2759
 3104SOL    HW120771   0.063   1.694   4.021  0.7815  0.9756 -0.0698
 3104SOL    HW220772   4.698   1.811   3.996  0.8605  0.5435  0.7301
 3105SOL     OW20773   1.921   3.241  11.301  0.1561  0.7603  0.0172
 3105SOL    HW120774   1.940   3.270  11.390 -0.5469  0.2667  0.3252
 3105SOL    HW220775   1.968   3.303  11.245  0.3293  0.3522 -0.2877
 3106SOL     OW20776   0.693   2.308  10.757  0.2469 -0.2745  0.2635
 3106SOL    HW120777   0.692   2.214  10.777 -1.3368 -0.6870 -1.7397
 3106SOL    HW220778   0.758   2.298  10.688  1.0814 -2.4830  1.3552
 3107SOL     OW20779   4.713   3.264   2.566  0.5614  0.1411 -0.2460
 3107SOL    HW120780   4.694   3.171   2.562  1.0350  0.0860 -1.2319
 3107SOL    HW220781   0.057   3.271   2.500  1.5973 -1.1653  0.7100
 3108SOL     OW20782   1.292   3.843   8.503  0.2934  0.7514 -0.1512
 3108SOL    HW120783   1.317   3.754   8.529  1.3759  0.9888 -0.3724
 3108SOL    HW220784   1.294   3.882   8.590 -1.8577  2.2690 -0.7831
 3109SOL     OW20785   1.132   4.377   6.331  0.9635  0.2189  0.9106
 3109SOL    HW120786   1.148   4.313   6.262  0.3806  2.3537 -1.2278
 3109SOL    HW220787   1.197   4.354   6.398 -0.1409 -0.9361  1.5609
 3110SOL     OW20788   3.786   1.511  10.041  0.2622 -0.2708  0.3683
 3110SOL    HW120789   3.873   1.485  10.013 -1.1199 -2.0186 -2.2573
 3110SOL    HW220790   3.787   1.475  10.129  1.4857  0.4087  0.6254
 3111SOL     OW20791   2.139   4.106  11.897  0.3191  0.2975  0.2980
 3111SOL    HW120792   2.154   4.014  11.920 -0.0044  0.0642 -0.4146
 3111SOL    HW220793   2.216   4.134  11.848 -1.4010  2.3817 -1.2081
 3112SOL     OW20794   4.126   4.202   0.730  0.1912  0.2167  0.2282
 3112SOL    HW120795   4.111   4.114   0.764  0.8743  0.0228  0.0296
 3112SOL    HW220796   4.051   4.211   0.672 -0.3828  0.6114  1.0366
 3113SOL     OW20797   3.685   3.562  14.508  0.2228  0.2251 -0.3457
 3113SOL    HW120798   3.665   3.539  14.598 -0.0209  0.7193 -0.2761
 3113SOL    HW220799   3.773   3.525  14.500  0.8254  1.2018  1.7853
 3114SOL     OW20800   0.743   4.684   0.728 -0.1069  0.1049 -0.0814
 3114SOL    HW120801   0.688   4.678   0.650  0.6652 -0.3405 -0.5927
 3114SOL    HW220802   0.680   4.662   0.796 -0.5065  1.2273 -0.0818
 3115SOL     OW20803   2.434   0.856  16.525 -0.1517  0.3775  0.8627
 3115SOL    HW120804   2.340   0.872  16.518  0.1496  0.7560 -2.0631
 3115SOL    HW220805   2.434   0.764  16.498  1.2545  0.1932  1.4653
 3116SOL     OW20806   0.706   2.847   9.669  0.2157  0.0909  0.0031
 3116SOL    HW120807   0.723   2.937   9.643 -2.0878  0.8396  1.0387
 3116SOL    HW220808   0.717   2.800   9.586 -0.0227 -2.7091  1.5739
 3117SOL     OW20809   3.016   2.271  12.723  0.1049 -0.1467 -0.2520
 3117SOL    HW120810   2.967   2.248  12.802 -1.0339  2.2987 -0.2417
 3117SOL    HW220811   3.000   2.205  12.656  0.2059  0.0144 -0.4338
 3118SOL     OW20812   2.862   0.874   2.736 -0.5612 -0.2838  0.0418
 3118SOL    HW120813   2.786   0.932   2.750 -0.8678 -0.9535  1.1158
 3118SOL    HW220814   2.892   0.906   2.651 -0.8194 -1.5296 -0.5116
 3119SOL     OW20815   0.569   0.755   2.331 -0.0313  0.2848 -0.3185
 3119SOL    HW120816   0.516   0.795   2.400  0.1625 -0.7154  0.4081
 3119SOL    HW220817   0.611   0.824   2.280 -0.6560  0.4445 -0.6248
 3120SOL     OW20818   2.215   0.199   7.732  0.5635 -0.3007  0.0077
 3120SOL    HW120819   2.306   0.207   7.761  0.4897  0.2736  0.0826
 3120SOL    HW220820   2.212   0.108   7.704  4.7307 -0.3149 -0.3802
 3121SOL     OW20821   1.754   2.174  11.855 -0.5772 -0.2154  0.4871
 3121SOL    HW120822   1.815   2.103  11.872  0.4626  0.6503  0.3943
 3121SOL    HW220823   1.697   2.159  11.930 -1.3094 -0.5701 -0.1300
 3122SOL     OW20824   1.911   3.932   5.242  0.1232  0.2730  0.3736
 3122SOL    HW120825   1.845   3.969   5.301  0.7363 -0.6303  1.6227
 3122SOL    HW220826   1.863   3.922   5.160  0.1758  2.6684  0.0327
 3123SOL     OW20827   2.389   1.382   8.134  0.4256  0.6410 -0.4176
 3123SOL    HW120828   2.377   1.312   8.197 -0.7410 -0.6077 -2.0428
 3123SOL    HW220829   2.358   1.456   8.187  1.3791  0.8529 -0.1569
 3124SOL     OW20830   3.766   3.083  17.204  0.5679 -0.0337  0.2473
 3124SOL    HW120831   3.854   3.116  17.223  0.3366 -1.1334  3.2268
 3124SOL    HW220832   3.765   3.099  17.110 -1.1273  0.7362  0.3927
 3125SOL     OW20833   3.937   3.408  11.454 -0.0570 -0.8457 -0.2888
 3125SOL    HW120834   3.847   3.379  11.445 -0.1853 -0.2627 -0.9510
 3125SOL    HW220835   3.954   3.472  11.384  0.5429  0.0962  0.7175
 3126SOL     OW20836   4.067   2.655   3.910  0.6989  0.2264 -0.5314
 3126SOL    HW120837   4.055   2.643   3.815  1.1964 -0.2087 -0.5419
 3126SOL    HW220838   4.124   2.582   3.933 -0.4136  0.1544  1.9671
 3127SOL     OW20839   4.156   3.967   2.630 -0.1457  0.0228 -0.8521
 3127SOL    HW120840   4.186   4.045   2.677  0.7449 -0.4644 -0.6290
 3127SOL    HW220841   4.231   3.908   2.620 -0.6090 -0.7749  0.4091
 3128SOL     OW20842   4.413   4.270   7.322  0.2030  0.5620  0.6219
 3128SOL    HW120843   4.370   4.283   7.406 -0.9002  4.3750 -0.5209
 3128SOL    HW220844   4.359   4.220   7.261 -0.1580 -2.6472  3.5979
 3129SOL     OW20845   4.633   3.356   2.817 -0.3225  0.0035  0.2713
 3129SOL    HW120846   4.680   3.354   2.734 -0.2732  1.7121  0.2570
 3129SOL    HW220847   4.702   3.341   2.882 -0.9491 -1.4575  0.6190
 3130SOL     OW20848   2.174   3.389  12.484  0.4957  0.2294  0.1893
 3130SOL    HW120849   2.169   3.435  12.567 -0.7261 -0.3744  0.4489
 3130SOL    HW220850   2.149   3.469  12.437 -0.6314  0.4498  1.1787
 3131SOL     OW20851   1.702   4.336  17.637 -0.0102 -0.0184  0.1932
 3131SOL    HW120852   1.730   4.419  17.598 -0.7290 -0.3408 -1.0154
 3131SOL    HW220853   1.648   4.310  17.562 -0.7569  0.2135  0.6501
 3132SOL     OW20854   1.435   2.774   8.779 -0.0579 -0.1527  0.5558
 3132SOL    HW120855   1.449   2.684   8.749  0.7231  0.0828  0.1951
 3132SOL    HW220856   1.353   2.807   8.744  0.1643 -0.0146  0.1695
 3133SOL     OW20857   0.042   3.698   7.907  0.2681  0.1432 -0.0340
 3133SOL    HW120858   0.133   3.722   7.929  0.0860  1.8141 -1.1089
 3133SOL    HW220859   0.026   3.625   7.967  2.9481 -0.9781 -0.6814
 3134SOL     OW20860   3.153   3.203   9.196 -0.2201  0.5326 -0.2086
 3134SOL    HW120861   3.096   3.128   9.182 -1.0030  1.0135  0.3484
 3134SOL    HW220862   3.230   3.150   9.176 -0.6111  0.4045 -1.3447
 3135SOL     OW20863   0.008   3.266   6.737  0.1093  0.5837  0.0185
 3135SOL    HW120864   0.059   3.296   6.812 -1.1424 -1.0231  1.4935
 3135SOL    HW220865   4.652   3.242   6.782  0.4297 -0.3796  0.0750
 3136SOL     OW20866   2.205   1.635   4.994 -0.1746 -0.1674  0.5393
 3136SOL    HW120867   2.142   1.698   4.958  0.6505 -0.0113 -0.6454
 3136SOL    HW220868   2.277   1.662   4.936  1.5654 -1.0415  2.2836
 3137SOL     OW20869   0.768   2.473   8.612  0.8686 -0.8219  0.3070
 3137SOL    HW120870   0.708   2.472   8.538 -0.2780  3.1389  1.2039
 3137SOL    HW220871   0.750   2.565   8.632 -0.3995 -0.9320 -0.3349
 3138SOL     OW20872   0.000   2.336   6.803 -0.7466 -0.1116 -0.0675
 3138SOL    HW120873   4.669   2.392   6.749  0.2427 -0.7249 -1.7270
 3138SOL    HW220874   4.664   2.289   6.859 -0.0106  0.2490  1.0291
 3139SOL     OW20875   1.682   1.752   0.562  0.0037 -0.6465 -0.2760
 3139SOL    HW120876   1.596   1.758   0.601  0.8750 -0.2270  1.5608
 3139SOL    HW220877   1.739   1.730   0.636  2.6460  1.6542 -1.5986
 3140SOL     OW20878   3.390   0.935  16.293 -0.5351 -0.6834 -0.4042
 3140SOL    HW120879   3.441   0.892  16.361  0.8915 -1.3012 -1.8475
 3140SOL    HW220880   3.417   0.890  16.213  2.6668  0.5596 -0.0136
 3141SOL     OW20881   0.805   0.361   9.195 -0.1730  0.4249 -0.4162
 3141SOL    HW120882   0.816   0.411   9.276  1.7908 -2.6871  1.2126
 3141SOL    HW220883   0.888   0.372   9.149 -1.0005  1.3367 -1.6893
 3142SOL     OW20884   1.950   0.426   5.704 -0.7709  0.1313 -0.2962
 3142SOL    HW120885   1.964   0.390   5.791 -0.2189  0.6680 -0.1613
 3142SOL    HW220886   2.036   0.433   5.662  1.2285 -1.2104  3.5307
 3143SOL     OW20887   3.230   0.659   5.955  0.5807  0.2495  0.1881
 3143SOL    HW120888   3.156   0.658   6.016  0.4398  0.1655  0.0146
 3143SOL    HW220889   3.251   0.752   5.965 -0.3465  0.4171  0.5744
 3144SOL     OW20890   1.435   4.351   6.119  0.0257 -0.2593 -0.3817
 3144SOL    HW120891   1.525   4.382   6.132  0.5318 -2.1117  0.5503
 3144SOL    HW220892   1.415   4.311   6.204 -0.3681 -0.1803 -0.4367
 3145SOL     OW20893   3.247   3.503   8.704  0.3494  0.5824  0.1525
 3145SOL    HW120894   3.179   3.562   8.734 -1.0342 -1.0638  0.2636
 3145SOL    HW220895   3.329   3.541   8.736  0.9502  0.0354 -0.7010
 3146SOL     OW20896   4.340   3.432   7.437  0.3221  0.4468  0.4849
 3146SOL    HW120897   4.291   3.400   7.512 -2.3289  2.8332 -0.2133
 3146SOL    HW220898   4.293   3.514   7.422  0.6025  0.6277  0.5782
 3147SOL     OW20899   4.081   0.522  14.034  0.1673 -0.2263 -0.5144
 3147SOL    HW120900   3.986   0.515  14.025  0.2184  1.2587 -2.1423
 3147SOL    HW220901   4.094   0.510  14.128  1.9944  2.7224 -0.3712
 3148SOL     OW20902   3.368   1.996   7.396  0.6996  0.5524  0.4517
 3148SOL    HW120903   3.377   2.074   7.450 -3.3638  1.2328  0.1942
 3148SOL    HW220904   3.433   1.936   7.433 -1.0874 -1.9698 -0.4396
 3149SOL     OW20905   4.583   0.968   8.226  0.1469  0.0890  0.2256
 3149SOL    HW120906   4.593   1.005   8.138  1.5642 -0.5084  0.1291
 3149SOL    HW220907   4.646   0.897   8.217  0.0562  0.0799 -0.3675
 3150SOL     OW20908   0.807   3.753   8.483  0.4250 -0.3689 -0.7541
 3150SOL    HW120909   0.815   3.785   8.393  0.9820 -2.0136 -1.2853
 3150SOL    HW220910   0.715   3.726   8.489 -0.2083  1.7208 -1.1673
 3151SOL     OW20911   1.807   4.203   2.238 -0.4761  0.8017  0.4215
 3151SOL    HW120912   1.758   4.275   2.198 -0.3812  0.9153  0.5103
 3151SOL    HW220913   1.892   4.201   2.195 -1.1107 -0.7808 -0.7493
 3152SOL     OW20914   2.009   2.577  17.162 -0.1942  0.1203 -0.0664
 3152SOL    HW120915   2.067   2.559  17.236  0.6571  0.3237 -0.6751
 3152SOL    HW220916   1.933   2.618  17.203  1.8216  3.7245  0.0921
 3153SOL     OW20917   4.374   2.192  16.496 -0.3666  0.1151 -0.5391
 3153SOL    HW120918   4.293   2.243  16.491 -0.6104 -0.2527 -0.3691
 3153SOL    HW220919   4.351   2.128  16.429 -2.3461  0.0957  0.1672
 3154SOL     OW20920   1.517   2.412   2.191  0.0464 -0.2515  0.3573
 3154SOL    HW120921   1.463   2.476   2.145 -1.1576 -1.3784  0.2101
 3154SOL    HW220922   1.459   2.338   2.210 -1.4095  0.7729 -0.1298
 3155SOL     OW20923   0.118   3.060   5.542 -0.4195  0.5685  0.2452
 3155SOL    HW120924   0.169   3.072   5.462  1.1430 -0.6578  1.0478
 3155SOL    HW220925   0.171   3.105   5.608 -0.1196  0.7774 -0.1393
 3156SOL     OW20926   3.758   4.103   6.967 -0.6867  0.5182 -0.4809
 3156SOL    HW120927   3.784   4.052   7.044  1.2856 -0.5025 -1.7976
 3156SOL    HW220928   3.664   4.087   6.963 -0.8993  2.4541 -3.4766
 3157SOL     OW20929   3.496   2.470  12.550  0.1474  0.3694 -0.4381
 3157SOL    HW120930   3.492   2.529  12.475 -2.7265 -2.3673 -2.4609
 3157SOL    HW220931   3.474   2.387  12.507  3.0453  0.4168 -2.0311
 3158SOL     OW20932   3.615   4.140   6.413 -0.2807 -0.2939  0.0245
 3158SOL    HW120933   3.705   4.167   6.430 -0.5077 -0.2730  1.1867
 3158SOL    HW220934   3.598   4.062   6.466 -0.1957  0.3940  1.0633
 3159SOL     OW20935   1.927   0.455   6.078  0.2356 -0.9430  0.0431
 3159SOL    HW120936   2.001   0.443   6.019  0.8602  2.8114  0.0835
 3159SOL    HW220937   1.861   0.433   6.012  0.3358  3.5874 -1.5870
 3160SOL     OW20938   3.521   4.028   6.034  0.1165 -0.0296  0.0362
 3160SOL    HW120939   3.558   3.941   6.022  1.0487  0.2626  0.7651
 3160SOL    HW220940   3.471   4.020   6.115  0.8246 -1.6831  0.3114
 3161SOL     OW20941   2.962   2.310  10.051 -0.1538  0.0788  0.0211
 3161SOL    HW120942   2.886   2.253  10.039  1.2809 -1.8985  0.3712
 3161SOL    HW220943   2.927   2.352  10.130 -2.2356 -0.8831 -0.3783
 3162SOL     OW20944   1.949   0.090   8.297 -0.8779 -0.0678  0.0376
 3162SOL    HW120945   1.882   0.148   8.261 -1.3818 -2.0884 -2.2352
 3162SOL    HW220946   2.007   0.146   8.350 -1.2363 -0.9778  1.3827
 3163SOL     OW20947   2.932   4.193   7.279 -0.1583  0.2868 -0.1156
 3163SOL    HW120948   2.887   4.223   7.200  0.3233  0.3680 -0.3546
 3163SOL    HW220949   2.886   4.248   7.343  1.5553 -1.5763  2.7221
 3164SOL     OW20950   3.076   1.546   3.842  0.4242  0.1137 -0.1676
 3164SOL    HW120951   3.147   1.521   3.902 -0.9743  0.1185  1.4790
 3164SOL    HW220952   3.014   1.473   3.845  0.6839 -0.1505 -1.2247
 3165SOL     OW20953   2.017   3.394  12.993 -0.2447 -0.3516 -0.1677
 3165SOL    HW120954   2.043   3.313  12.949  0.4245  0.1477 -0.6854
 3165SOL    HW220955   2.052   3.385  13.081  2.9375  1.6163 -1.2342
 3166SOL     OW20956   4.114   1.292  12.923  0.3515 -0.0733  0.1336
 3166SOL    HW120957   4.175   1.358  12.954  0.8784  0.1155 -1.3319
 3166SOL    HW220958   4.038   1.307  12.979 -0.0159 -0.1763 -0.3349
 3167SOL     OW20959   2.248   0.258   0.327  0.0896  0.0400 -0.1851
 3167SOL    HW120960   2.223   0.198   0.257  1.0449 -1.6176  0.8839
 3167SOL    HW220961   2.320   0.202   0.357 -1.2557 -1.0236  1.0813
 3168SOL     OW20962   0.946   4.056   6.649 -0.1415  0.3434 -0.1763
 3168SOL    HW120963   0.976   4.147   6.645 -1.9061  0.9879  1.4314
 3168SOL    HW220964   0.851   4.064   6.648 -0.2121 -0.6341 -1.3325
 3169SOL     OW20965   3.058   2.838  12.305 -0.2978 -0.0875  0.4403
 3169SOL    HW120966   3.141   2.790  12.299 -0.1095  0.4761 -1.2559
 3169SOL    HW220967   3.012   2.777  12.363  0.3285 -0.8289  0.1564
 3170SOL     OW20968   1.246   2.365   2.527 -0.2185 -0.3473 -0.3015
 3170SOL    HW120969   1.291   2.369   2.612  0.9835 -2.4856 -0.8335
 3170SOL    HW220970   1.324   2.378   2.473 -0.0713 -0.0762 -0.0302
 3171SOL     OW20971   2.374   2.622   5.815 -0.0537  0.3223  0.1145
 3171SOL    HW120972   2.430   2.638   5.739  0.4857 -0.6807  0.3024
 3171SOL    HW220973   2.416   2.540   5.839  1.5883  1.1941  0.1727
 3172SOL     OW20974   4.355   0.143   1.878 -0.0918 -0.1486 -0.0950
 3172SOL    HW120975   4.450   0.151   1.888  0.3283 -0.9222 -3.3935
 3172SOL    HW220976   4.326   0.119   1.966 -1.5410 -0.2115 -0.5833
 3173SOL     OW20977   0.561   0.822   3.680  0.0383  1.0538  0.5363
 3173SOL    HW120978   0.564   0.727   3.693  0.1267  0.5714 -2.8666
 3173SOL    HW220979   0.623   0.832   3.608  0.3550 -0.5294  0.5873
 3174SOL     OW20980   2.101   2.557   5.719  0.4303  0.0376  0.4341
 3174SOL    HW120981   2.071   2.597   5.638 -1.3122  2.5893  2.2988
 3174SOL    HW220982   2.157   2.625   5.757 -0.7818 -0.1081  2.4952
 3175SOL     OW20983   2.207   1.784   7.118  0.2136 -0.6229 -0.4787
 3175SOL    HW120984   2.173   1.873   7.123  0.5435 -0.5998  1.4869
 3175SOL    HW220985   2.183   1.741   7.200  0.8430  0.5776  0.3366
 3176SOL     OW20986   1.520   1.284   2.773 -0.1815  0.0876  0.1976
 3176SOL    HW120987   1.516   1.223   2.846 -1.4221  1.0852  0.9723
 3176SOL    HW220988   1.542   1.227   2.699  0.8652  1.6272 -0.6831
 3177SOL     OW20989   1.661   4.708   3.356  0.0168 -0.7983  0.2551
 3177SOL    HW120990   1.654   0.055   3.294  0.3522 -0.4107  0.6738
 3177SOL    HW220991   1.589   0.007   3.415  1.3151  0.5618  1.2757
 3178SOL     OW20992   2.475   2.454   0.767 -0.5214  0.1409 -0.7538
 3178SOL    HW120993   2.417   2.382   0.792  0.5260 -1.2345 -2.3429
 3178SOL    HW220994   2.489   2.490   0.855  1.0754 -1.2080 -0.4706
 3179SOL     OW20995   1.283   1.320   4.419 -0.0091  0.2294  0.8179
 3179SOL    HW120996   1.291   1.259   4.492 -0.5891 -0.4977  0.2793
 3179SOL    HW220997   1.196   1.298   4.387  0.8601 -0.3907 -1.1392
 3180SOL     OW20998   1.066   3.419   7.851  0.0530  0.0067  0.1281
 3180SOL    HW120999   0.973   3.437   7.867 -0.4934 -0.7022 -2.2791
 3180SOL    HW221000   1.064   3.442   7.758  0.4113  0.0217  0.1265
 3181SOL     OW21001   0.736   1.019   7.895  0.2627  0.2563 -0.3673
 3181SOL    HW121002   0.730   0.932   7.855 -0.7260 -0.2524  0.8916
 3181SOL    HW221003   0.647   1.045   7.920  0.6365 -0.4820  1.7515
 3182SOL     OW21004   3.354   3.930   8.321 -0.1683 -0.2847  0.2889
 3182SOL    HW121005   3.293   3.962   8.255  0.4883 -0.8360 -0.5754
 3182SOL    HW221006   3.297   3.931   8.398 -0.1295  0.3978  0.3115
 3183SOL     OW21007   2.003   3.296  11.561 -0.3938  0.0479 -0.0957
 3183SOL    HW121008   1.969   3.209  11.580 -0.6080  0.1533  0.0062
 3183SOL    HW221009   2.038   3.320  11.646 -1.0164  1.6623 -0.2724
 3184SOL     OW21010   1.497   2.516   8.717 -0.0289 -0.4920 -0.6003
 3184SOL    HW121011   1.458   2.451   8.658  0.6391 -1.3714 -0.0909
 3184SOL    HW221012   1.589   2.510   8.692 -0.1248 -1.2191 -0.7891
 3185SOL     OW21013   0.662   4.421  12.018  0.1808 -0.3790 -0.0603
 3185SOL    HW121014   0.720   4.497  12.032 -2.0750  1.0503  1.6928
 3185SOL    HW221015   0.694   4.363  12.087 -3.3368 -0.1242  1.7953
 3186SOL     OW21016   1.363   3.780   1.660 -0.4335  0.2677  0.0294
 3186SOL    HW121017   1.444   3.803   1.615  0.1564 -1.4717  0.1840
 3186SOL    HW221018   1.309   3.841   1.611  0.3857  2.4336  1.8365
 3187SOL     OW21019   1.943   0.257   1.480 -0.2221 -0.0094 -0.0762
 3187SOL    HW121020   1.926   0.258   1.386  1.6616  1.0006 -0.4085
 3187SOL    HW221021   1.854   0.253   1.515 -0.8579  1.3377 -1.5042
 3188SOL     OW21022   3.959   3.861   9.900 -0.0841 -0.2997 -0.3808
 3188SOL    HW121023   4.051   3.861   9.876  0.3969 -0.5557  1.4887
 3188SOL    HW221024   3.923   3.861   9.811  0.1310  2.1594 -0.4768
 3189SOL     OW21025   3.698   4.508   2.858 -0.0732 -0.0933 -0.3367
 3189SOL    HW121026   3.753   4.539   2.929 -0.2092  1.9909 -1.1288
 3189SOL    HW221027   3.701   4.586   2.802  0.6024 -0.5472 -0.9431
 3190SOL     OW21028   0.097   3.711   2.969 -0.2077  0.1022  0.0346
 3190SOL    HW121029   0.015   3.759   2.957 -0.6893  0.1459  3.4706
 3190SOL    HW221030   0.115   3.672   2.883 -0.6003 -1.0115  0.4588
 3191SOL     OW21031   1.928   0.453   9.597 -0.3073  0.0529  0.5527
 3191SOL    HW121032   1.985   0.389   9.640  0.2659  1.1342  1.4102
 3191SOL    HW221033   1.947   0.447   9.504 -1.1020  2.8127  0.2079
 3192SOL     OW21034   1.587   0.111   7.491 -0.5101 -0.2319 -0.3843
 3192SOL    HW121035   1.596   0.133   7.583  0.0903 -0.0196 -0.4951
 3192SOL    HW221036   1.655   0.044   7.485 -0.6058 -0.2793 -0.9871
 3193SOL     OW21037   3.611   0.401   6.902  0.3677 -0.5568 -0.0724
 3193SOL    HW121038   3.680   0.440   6.848  0.0204 -0.3744 -0.3770
 3193SOL    HW221039   3.608   0.456   6.981 -1.7271 -1.3246  0.3754
 3194SOL     OW21040   0.868   2.955  11.607 -0.2567 -0.2567  0.0863
 3194SOL    HW121041   0.889   2.973  11.516 -3.3313  3.6046  0.1447
 3194SOL    HW221042   0.849   2.861  11.601 -1.4323 -0.1026  1.2722
 3195SOL     OW21043   2.249   2.114   4.146 -0.1115 -0.6112  0.1653
 3195SOL    HW121044   2.342   2.094   4.134 -0.7547 -2.7665 -1.1977
 3195SOL    HW221045   2.232   2.137   4.055 -0.3733  2.0384  0.8874
 3196SOL     OW21046   1.052   3.055  16.469 -0.3290 -0.0324  0.4174
 3196SOL    HW121047   1.098   3.117  16.413  0.1168  1.6176  2.6215
 3196SOL    HW221048   1.080   2.967  16.442 -2.7004 -0.3203 -1.1622
 3197SOL     OW21049   3.956   2.068  17.034  0.5237  0.1877 -0.7813
 3197SOL    HW121050   4.027   2.012  17.066  1.2333  2.3048  1.3589
 3197SOL    HW221051   4.003   2.151  17.024  1.2624 -0.4771 -2.6730
 3198SOL     OW21052   1.784   2.600   8.633 -0.1644  0.4490  0.1798
 3198SOL    HW121053   1.745   2.538   8.572 -1.5091  1.2426  0.2237
 3198SOL    HW221054   1.865   2.633   8.596  0.6131  1.5774  2.8861
 3199SOL     OW21055   1.933   4.632  12.322 -0.0253 -0.6438  0.6268
 3199SOL    HW121056   1.949   4.542  12.295  0.9955  0.0383 -1.0609
 3199SOL    HW221057   2.021   4.669  12.318  0.0718 -0.8909  0.5076
 3200SOL     OW21058   4.609   4.219  16.321 -0.2687  0.7559  0.1242
 3200SOL    HW121059   4.701   4.229  16.343  0.0413  1.2626 -1.3918
 3200SOL    HW221060   4.605   4.243  16.228 -1.4519  2.7082  0.6875
 3201SOL     OW21061   1.148   2.102   9.793  0.3278 -0.3549 -0.6925
 3201SOL    HW121062   1.116   2.156   9.865  0.4874  0.0398 -0.9164
 3201SOL    HW221063   1.235   2.083   9.829  0.4388  0.5138 -0.4959
 3202SOL     OW21064   0.416   4.228   6.888 -0.0193 -0.1471 -0.0966
 3202SOL    HW121065   0.447   4.275   6.966 -0.8844 -0.5495  0.4829
 3202SOL    HW221066   0.467   4.270   6.818 -2.2798  1.8175 -0.5586
 3203SOL     OW21067   1.270   2.917  11.211  0.0911 -0.2681  0.1771
 3203SOL    HW121068   1.339   2.932  11.276 -0.0015  0.9735 -0.0001
 3203SOL    HW221069   1.250   3.002  11.172 -0.6746 -0.4466  0.1795
 3204SOL     OW21070   2.343   1.636   5.298  0.0451 -0.0352  0.0949
 3204SOL    HW121071   2.311   1.677   5.218 -0.1228 -0.1345  0.1126
 3204SOL    HW221072   2.438   1.642   5.286 -0.0575 -1.1472 -1.1798
 3205SOL     OW21073   4.559   0.045   1.322  0.1091 -0.5689  0.0080
 3205SOL    HW121074   4.625   0.107   1.353  1.3181 -0.4959 -2.7322
 3205SOL    HW221075   4.594   0.018   1.237 -0.1406  0.1578 -0.3238
 3206SOL     OW21076   3.319   3.360  10.928 -0.3221 -0.2051 -0.5712
 3206SOL    HW121077   3.278   3.442  10.956  2.3399  0.4767  1.3843
 3206SOL    HW221078   3.394   3.358  10.987 -2.4495  0.3712  2.1643
 3207SOL     OW21079   3.490   1.652   9.061  0.5089  0.2567 -0.3823
 3207SOL    HW121080   3.500   1.560   9.086  0.4713  1.1092  2.8302
 3207SOL    HW221081   3.402   1.663   9.096  0.5899 -2.8075  0.8327
 3208SOL     OW21082   0.018   2.207   4.760  0.1298 -0.4061 -0.2435
 3208SOL    HW121083   4.684   2.138   4.791  0.2941  0.1817  1.3629
 3208SOL    HW221084   4.709   2.232   4.674  0.1304 -1.0531 -0.4323
 3209SOL     OW21085   0.544   0.510   6.467 -0.3348  0.4676 -0.4922
 3209SOL    HW121086   0.464   0.482   6.512 -0.0476 -0.1349 -0.3569
 3209SOL    HW221087   0.599   0.523   6.544 -2.9749 -1.6073  1.7894
 3210SOL     OW21088   0.761   1.264  11.756 -0.5351 -0.0776 -0.0232
 3210SOL    HW121089   0.771   1.348  11.799  0.7408 -1.1253  1.7124
 3210SOL    HW221090   0.726   1.206  11.823 -0.4763 -0.5632 -0.4132
 3211SOL     OW21091   1.029   3.035  10.712  0.4480 -0.0214 -0.2375
 3211SOL    HW121092   0.996   3.123  10.725 -1.8906 -0.9394  0.0605
 3211SOL    HW221093   1.056   3.035  10.620  0.2641  0.6942 -0.2911
 3212SOL     OW21094   0.202   2.877   9.945  0.0934  0.1786  0.1111
 3212SOL    HW121095   0.147   2.821  10.000 -2.0274  0.5769 -1.5791
 3212SOL    HW221096   0.143   2.889   9.870 -2.2571  1.3643  2.1266
 3213SOL     OW21097   0.519   3.812  15.254  0.0290  0.2279  0.5898
 3213SOL    HW121098   0.601   3.768  15.276  1.1627  1.8946 -0.3590
 3213SOL    HW221099   0.477   3.754  15.190  0.7516 -0.3573  0.6466
 3214SOL     OW21100   3.700   4.172   7.873 -0.3480  0.2751 -0.4796
 3214SOL    HW121101   3.718   4.086   7.835  0.1359  0.3080 -0.3177
 3214SOL    HW221102   3.609   4.147   7.891  0.5748 -0.7721  2.7998
 3215SOL     OW21103   0.235   3.903  15.144  0.5429 -0.1329 -0.6953
 3215SOL    HW121104   0.144   3.904  15.116  0.1620  0.7355  0.6311
 3215SOL    HW221105   0.273   3.826  15.100 -0.2131 -0.1149 -1.3827
 3216SOL     OW21106   3.396   2.995   1.956  0.0568  0.2231  0.2946
 3216SOL    HW121107   3.316   2.972   2.003 -1.3532  0.8687 -1.7520
 3216SOL    HW221108   3.371   2.975   1.865 -1.0831  0.8220  0.4776
 3217SOL     OW21109   1.110   1.039   2.336  0.4486 -0.0395 -0.2333
 3217SOL    HW121110   1.134   1.019   2.245 -0.7819  0.4879 -0.6824
 3217SOL    HW221111   1.030   0.988   2.349  0.8778 -0.7635 -0.4560
 3218SOL     OW21112   1.893   3.018   8.941  0.5904 -0.5455 -0.3330
 3218SOL    HW121113   1.906   3.000   9.034 -1.1881 -0.7832 -0.1398
 3218SOL    HW221114   1.823   2.959   8.913  0.2401 -1.5789  2.7654
 3219SOL     OW21115   0.292   3.879  13.597 -0.0173 -0.4048  0.6909
 3219SOL    HW121116   0.344   3.930  13.536  0.2423 -0.5706  0.7765
 3219SOL    HW221117   0.211   3.889  13.546  1.2468  0.1468 -1.2118
 3220SOL     OW21118   1.254   2.278   7.431 -0.0717  0.7523  0.4468
 3220SOL    HW121119   1.161   2.300   7.435 -0.1226  0.0951  2.7236
 3220SOL    HW221120   1.258   2.238   7.344 -0.3461 -0.0801  0.8264
 3221SOL     OW21121   0.942   4.250  16.749  0.2351  0.3764  0.3291
 3221SOL    HW121122   0.944   4.170  16.696  0.6569  1.3837 -1.1716
 3221SOL    HW221123   1.010   4.233  16.814 -0.7375  0.8926  1.4657
 3222SOL     OW21124   2.181   1.226   6.950 -0.7118  0.1967  0.1395
 3222SOL    HW121125   2.171   1.302   7.008 -3.1881 -0.1933  0.2049
 3222SOL    HW221126   2.097   1.234   6.905 -0.3019  0.7539 -0.5447
 3223SOL     OW21127   2.953   3.670   4.340  0.0020 -0.0755  0.2279
 3223SOL    HW121128   2.903   3.620   4.405 -0.1490 -0.9674 -0.5707
 3223SOL    HW221129   2.886   3.730   4.307 -0.1819  0.1208  0.9433
 3224SOL     OW21130   3.078   3.462   7.190  0.0187  0.2300 -0.3774
 3224SOL    HW121131   3.151   3.447   7.250 -1.9750 -1.1534  1.6478
 3224SOL    HW221132   3.103   3.541   7.141 -0.9155 -1.2121 -3.1986
 3225SOL     OW21133   4.158   0.713   5.119  0.2015  0.1952 -0.1244
 3225SOL    HW121134   4.233   0.717   5.060  1.0226 -1.1111  0.8220
 3225SOL    HW221135   4.128   0.624   5.102 -2.0494  1.5103 -2.9000
 3226SOL     OW21136   0.402   3.266   4.610 -0.1478 -0.4028 -0.6988
 3226SOL    HW121137   0.392   3.200   4.679 -1.4296  2.1289  1.5311
 3226SOL    HW221138   0.459   3.219   4.549  1.7762  0.9659  0.0439
 3227SOL     OW21139   1.858   0.488   6.333  0.1277 -0.0354 -0.8009
 3227SOL    HW121140   1.876   0.468   6.241 -0.4991 -1.9655 -0.5024
 3227SOL    HW221141   1.928   0.443   6.381 -0.2268  2.7700  2.3510
 3228SOL     OW21142   1.092   3.118   7.652  0.1811  0.1903 -0.2586
 3228SOL    HW121143   1.069   3.070   7.572  0.3178 -0.7537  0.2648
 3228SOL    HW221144   1.110   3.209   7.631  1.2928  0.2640  1.0258
 3229SOL     OW21145   3.986   1.639   2.671  0.6596  0.0604  0.4320
 3229SOL    HW121146   3.898   1.625   2.703  0.0844  2.9416  0.1551
 3229SOL    HW221147   3.968   1.640   2.577 -1.5996  1.3687  0.8927
 3230SOL     OW21148   0.496   4.686   3.035 -0.4834 -0.2388  0.7586
 3230SOL    HW121149   0.466   4.661   3.122 -0.3243 -1.0199  0.5854
 3230SOL    HW221150   0.551   0.039   3.051 -0.7357 -0.1274  1.0901
 3231SOL     OW21151   3.055   3.709  12.288  0.5706 -0.1661 -0.0791
 3231SOL    HW121152   2.975   3.686  12.241 -1.4538  4.1582  1.3005
 3231SOL    HW221153   3.082   3.628  12.331  0.0287 -0.5845 -0.5313
 3232SOL     OW21154   4.615   3.319   1.885  0.6360 -0.7446  0.4591
 3232SOL    HW121155   4.607   3.305   1.790 -0.9180 -0.3302  0.5255
 3232SOL    HW221156   4.646   3.410   1.885 -1.8190  0.1004  1.5845
 3233SOL     OW21157   3.521   4.627  14.632  0.1435 -0.4882 -0.2969
 3233SOL    HW121158   3.461   4.555  14.651 -2.2169  1.4533 -0.3175
 3233SOL    HW221159   3.449   4.686  14.607  0.2025  1.1898  3.5047
 3234SOL     OW21160   4.629   4.002   6.251  0.2557 -0.2910  0.2938
 3234SOL    HW121161   4.601   3.918   6.215  0.4427  0.1044 -0.7668
 3234SOL    HW221162   4.550   4.054   6.234  0.2597 -0.6416 -0.7604
 3235SOL     OW21163   0.059   2.521   3.925 -0.1241 -0.2489  0.1572
 3235SOL    HW121164   0.148   2.521   3.890  0.2216  0.0697  1.0258
 3235SOL    HW221165   0.022   2.602   3.891  2.0806  0.4173 -0.6631
 3236SOL     OW21166   4.318   1.593   8.838  0.1193 -0.0991  0.5283
 3236SOL    HW121167   4.258   1.639   8.780  0.1288  0.7242  1.1743
 3236SOL    HW221168   4.360   1.662   8.888 -0.4146  0.7405 -0.1933
 3237SOL     OW21169   4.315   0.400  14.634 -0.8233  0.0783  0.5829
 3237SOL    HW121170   4.221   0.386  14.628 -1.1557  2.3550  0.5893
 3237SOL    HW221171   4.327   0.472  14.572  2.3300 -0.7313  0.2669
 3238SOL     OW21172   2.023   4.519  16.055  0.3249  0.4522 -0.3314
 3238SOL    HW121173   2.090   4.579  16.088 -0.1028 -0.4610  2.1956
 3238SOL    HW221174   1.960   4.583  16.021  2.3009  1.5463 -1.8974
 3239SOL     OW21175   2.424   4.676   9.144 -0.4762 -0.0301 -0.2912
 3239SOL    HW121176   2.383   4.591   9.158  1.3430 -0.9345 -0.3951
 3239SOL    HW221177   2.418   4.675   9.048  0.8372 -1.8068 -0.3626
 3240SOL     OW21178   1.027   1.874  15.741 -0.5952  0.6187  0.1321
 3240SOL    HW121179   0.954   1.907  15.793  1.2111  1.1748  2.3122
 3240SOL    HW221180   1.045   1.803  15.803 -3.2383  0.1638  0.4102
 3241SOL     OW21181   2.853   1.371   2.674  0.2656 -0.3874 -0.6662
 3241SOL    HW121182   2.842   1.399   2.583 -0.1212 -0.9559 -0.7917
 3241SOL    HW221183   2.932   1.415   2.703 -0.1087 -0.3892  0.3624
 3242SOL     OW21184   1.452   2.672   7.051  0.4201  0.3456  0.2370
 3242SOL    HW121185   1.444   2.632   7.137 -1.5391 -3.1427 -1.5542
 3242SOL    HW221186   1.402   2.752   7.069 -1.8600 -1.0213  0.0098
 3243SOL     OW21187   2.388   0.346   4.452  0.1761  0.8595 -0.4371
 3243SOL    HW121188   2.395   0.251   4.447  1.9749  0.9866 -0.5030
 3243SOL    HW221189   2.356   0.371   4.365  1.6952 -1.7947 -1.7754
 3244SOL     OW21190   3.666   4.322  13.458  0.0972 -0.7264  0.6947
 3244SOL    HW121191   3.652   4.325  13.552  1.2600 -1.7759  0.9044
 3244SOL    HW221192   3.615   4.251  13.420 -1.4296  0.2005  1.0128
 3245SOL     OW21193   2.463   4.630  15.288 -0.0717 -0.0789  0.1809
 3245SOL    HW121194   2.437   4.568  15.219  1.4668  1.7934 -2.1005
 3245SOL    HW221195   2.534   4.588  15.336  0.3084  0.9701  0.5423
 3246SOL     OW21196   3.361   4.271   1.198 -0.5398 -0.5152 -0.4899
 3246SOL    HW121197   3.380   4.268   1.292  1.2981 -0.3731 -0.8536
 3246SOL    HW221198   3.310   4.351   1.200 -1.0177 -0.8564  0.7654
 3247SOL     OW21199   2.011   4.721   8.587  0.2735 -0.6655  1.3277
 3247SOL    HW121200   1.992   4.639   8.541  0.2110  1.0510 -1.6985
 3247SOL    HW221201   2.056   0.043   8.516 -2.3986 -0.5296 -0.2760
 3248SOL     OW21202   0.916   2.205   6.287 -0.4241  0.0324 -0.0299
 3248SOL    HW121203   0.936   2.282   6.339 -0.7673  0.8894 -1.1665
 3248SOL    HW221204   0.874   2.147   6.351 -0.0636  1.4294  1.4583
 3249SOL     OW21205   4.674   4.292   5.100 -0.0522 -0.0179  0.0570
 3249SOL    HW121206   4.584   4.283   5.133  0.2245  0.1489  0.8522
 3249SOL    HW221207   4.667   4.385   5.079 -1.3911 -0.0566  0.3342
 3250SOL     OW21208   3.364   1.731   4.155 -0.1030  0.1417  0.2875
 3250SOL    HW121209   3.318   1.764   4.078  0.2693  0.0141  0.0147
 3250SOL    HW221210   3.428   1.799   4.178  1.7300 -1.3373 -0.4455
 3251SOL     OW21211   2.575   3.492   1.989 -0.3258 -0.4503  0.2880
 3251SOL    HW121212   2.502   3.433   2.003 -0.4632  0.3794  3.0177
 3251SOL    HW221213   2.648   3.431   2.001  0.2663  0.2246  0.1140
 3252SOL     OW21214   1.808   4.693   3.829  0.1136  0.4872 -0.8046
 3252SOL    HW121215   1.852   0.031   3.887  2.4380 -0.5901 -1.3769
 3252SOL    HW221216   1.717   4.695   3.856 -0.2130  1.1169 -1.9674
 3253SOL     OW21217   0.417   1.997  10.981  0.1158  0.3286 -0.2621
 3253SOL    HW121218   0.395   1.904  10.984 -1.9833  0.7997 -1.2832
 3253SOL    HW221219   0.333   2.040  10.966 -0.6958 -0.7595  1.2142
 3254SOL     OW21220   2.742   0.875   6.197 -0.0072 -0.2164 -0.6830
 3254SOL    HW121221   2.816   0.877   6.137 -0.1168 -1.2508 -0.8426
 3254SOL    HW221222   2.719   0.783   6.193 -0.5699 -0.0930 -0.2278
 3255SOL     OW21223   3.022   3.958  10.351  0.4092  0.3018 -0.4853
 3255SOL    HW121224   3.004   4.010  10.272 -1.3305  0.9862  0.3592
 3255SOL    HW221225   3.109   3.984  10.382  0.1296 -1.9450  2.1922
 3256SOL     OW21226   4.518   2.466   5.606 -0.0865  0.0551 -0.2445
 3256SOL    HW121227   4.529   2.489   5.514 -2.3160 -0.3990 -0.6125
 3256SOL    HW221228   4.562   2.537   5.654 -2.0524  0.9736  0.1876
 3257SOL     OW21229   1.741   3.326   6.558 -0.0643 -0.0195 -0.1901
 3257SOL    HW121230   1.651   3.314   6.528 -0.3227  0.2545  0.4659
 3257SOL    HW221231   1.779   3.241   6.538  1.9000  0.3198  1.9845
 3258SOL     OW21232   1.538   0.311   4.211 -0.2838 -0.3648  0.2694
 3258SOL    HW121233   1.580   0.330   4.295  1.0346 -1.7334 -0.0801
 3258SOL    HW221234   1.478   0.241   4.239  0.9173 -1.1032  0.9852
 3259SOL     OW21235   0.069   3.563   2.682 -0.3854  0.1715  0.1810
 3259SOL    HW121236   0.148   3.527   2.720 -0.6638 -0.1078  0.4971
 3259SOL    HW221237   0.108   3.615   2.611 -1.0869  0.6020  0.1019
 3260SOL     OW21238   4.425   1.675   4.151  0.2682  0.1016 -0.1802
 3260SOL    HW121239   4.473   1.757   4.151  2.7164 -1.3264 -0.0186
 3260SOL    HW221240   4.461   1.642   4.233 -0.9872 -0.1120  0.2920
 3261SOL     OW21241   0.957   1.463  16.053 -0.2674 -0.2900  0.6051
 3261SOL    HW121242   0.974   1.371  16.072  1.5816 -0.1030 -0.2143
 3261SOL    HW221243   0.887   1.478  16.116  1.0378  0.6362  1.8154
 3262SOL     OW21244   2.913   2.091  10.326  0.1480  0.8519 -0.0622
 3262SOL    HW121245   2.824   2.057  10.328  0.3936  0.2505  0.5085
 3262SOL    HW221246   2.895   2.175  10.283  0.8712  1.4152  0.7530
 3263SOL     OW21247   0.796   4.659  11.997 -0.2512 -0.1543  0.3602
 3263SOL    HW121248   0.802   0.019  11.954 -1.5399  0.5526  1.5850
 3263SOL    HW221249   0.857   4.606  11.946  0.0870  2.4107 -1.8894
 3264SOL     OW21250   3.977   0.651   3.313 -0.5170 -0.2067  0.0731
 3264SOL    HW121251   4.034   0.603   3.373 -2.2267 -1.1648  0.9428
 3264SOL    HW221252   3.955   0.722   3.374 -0.3264  0.3719 -0.5389
 3265SOL     OW21253   1.188   2.512   4.653  0.0496  0.3013  0.1680
 3265SOL    HW121254   1.212   2.420   4.643  2.9007  1.2274 -1.6531
 3265SOL    HW221255   1.182   2.515   4.748 -0.1757  0.4909  0.1481
 3266SOL     OW21256   4.294   2.958  13.447  0.2137  0.3408  0.5232
 3266SOL    HW121257   4.203   2.980  13.426  0.2969  1.1496  1.0105
 3266SOL    HW221258   4.293   2.940  13.541  4.0073 -2.7143  0.0032
 3267SOL     OW21259   2.592   2.014   4.682  0.6100  0.2169 -0.2614
 3267SOL    HW121260   2.598   1.919   4.696  0.2725  0.5083  1.8535
 3267SOL    HW221261   2.502   2.033   4.707  0.2187 -0.9889 -0.7377
 3268SOL     OW21262   4.243   4.129   4.010 -0.1644 -0.3483  0.5209
 3268SOL    HW121263   4.291   4.114   3.929  2.6086  3.0817  1.5196
 3268SOL    HW221264   4.161   4.080   4.011  0.9675 -2.2465  0.6531
 3269SOL     OW21265   3.598   0.616   2.543  0.6004  0.2111  0.3154
 3269SOL    HW121266   3.600   0.629   2.638 -1.3511  1.4674  0.1760
 3269SOL    HW221267   3.670   0.668   2.507  0.8338  0.3259  0.9513
 3270SOL     OW21268   0.845   1.348  12.182  0.5328  0.3606 -0.1962
 3270SOL    HW121269   0.896   1.286  12.130  1.3612  1.2107 -0.3774
 3270SOL    HW221270   0.905   1.378  12.251  1.8174 -0.3018 -1.0351
 3271SOL     OW21271   0.413   2.780   8.456 -0.1611  0.0931  0.2597
 3271SOL    HW121272   0.492   2.727   8.449 -1.9985 -2.6341 -0.2519
 3271SOL    HW221273   0.359   2.731   8.520 -2.8815  0.7882 -1.4915
 3272SOL     OW21274   4.446   4.173   6.154 -0.2694 -0.2675 -0.3524
 3272SOL    HW121275   4.486   4.205   6.073 -2.1482  0.3253 -1.0467
 3272SOL    HW221276   4.363   4.133   6.129  0.0314 -1.0048 -0.1787
 3273SOL     OW21277   0.263   3.837  12.251 -0.3348 -0.2551 -0.5125
 3273SOL    HW121278   0.311   3.917  12.272 -0.9214  0.0457 -0.3140
 3273SOL    HW221279   0.176   3.870  12.273  0.2054  1.8876 -1.5216
 3274SOL     OW21280   1.928   0.787   4.290  0.4853 -0.3174  0.6005
 3274SOL    HW121281   1.987   0.837   4.234  0.4321  0.2212  1.0397
 3274SOL    HW221282   1.942   0.844   4.365  0.4741  0.0223  0.3465
 3275SOL     OW21283   3.900   4.309  15.803  0.1955  0.2787  0.3704
 3275SOL    HW121284   3.978   4.301  15.857  0.2564 -0.4294  0.1838
 3275SOL    HW221285   3.830   4.285  15.864 -0.3836  1.2449  0.0948
 3276SOL     OW21286   3.902   3.597   1.481  0.3660 -0.5491  0.1701
 3276SOL    HW121287   3.906   3.509   1.518 -0.4583 -0.9461 -0.6780
 3276SOL    HW221288   3.910   3.648   1.562  1.4774 -1.5960  0.7096
 3277SOL     OW21289   0.478   1.110   7.945 -0.1519  0.4610  0.2286
 3277SOL    HW121290   0.459   1.136   7.855 -0.0882  1.1920  0.4210
 3277SOL    HW221291   0.421   1.178   7.983 -2.1436 -1.7792  1.2252
 3278SOL     OW21292   3.329   1.662   3.192  0.0569  0.1849  0.1085
 3278SOL    HW121293   3.401   1.612   3.230  1.2848  1.6393 -0.2836
 3278SOL    HW221294   3.254   1.623   3.237  0.6471  0.3732  1.2654
 3279SOL     OW21295   1.963   0.114   7.434 -0.3344  0.8357  0.1353
 3279SOL    HW121296   1.921   0.157   7.360 -1.4045 -2.2902 -1.0506
 3279SOL    HW221297   2.036   0.176   7.438 -0.8987  1.5077 -0.0557
 3280SOL     OW21298   2.881   2.222   7.238  0.3993 -0.5348 -0.2317
 3280SOL    HW121299   2.951   2.168   7.202  0.5073  1.3044 -2.8406
 3280SOL    HW221300   2.925   2.269   7.309  0.3062 -0.0890 -0.4682
 3281SOL     OW21301   1.662   2.170   6.512 -0.3154 -0.4927 -0.3310
 3281SOL    HW121302   1.666   2.160   6.417  1.9177  0.7836 -0.3641
 3281SOL    HW221303   1.731   2.235   6.524 -0.4310 -0.7862  1.9031
 3282SOL     OW21304   2.767   1.090   4.460  0.0145  0.0912 -0.0303
 3282SOL    HW121305   2.795   1.109   4.549 -1.6276 -1.6794  0.8640
 3282SOL    HW221306   2.855   1.072   4.426 -0.2352  1.7483 -1.5196
 3283SOL     OW21307   3.913   0.373   7.099  0.7410  0.2155  0.0476
 3283SOL    HW121308   3.925   0.365   7.004  0.6035  0.9790 -0.0349
 3283SOL    HW221309   3.831   0.330   7.122  0.8332  0.6009  1.0751
 3284SOL     OW21310   4.377   3.864   4.136  0.2783 -0.1596  0.2037
 3284SOL    HW121311   4.307   3.913   4.093  0.3831  0.4194  0.6853
 3284SOL    HW221312   4.452   3.915   4.106 -1.5504  1.8443 -0.9040
 3285SOL     OW21313   3.816   0.130   6.058 -0.0525 -0.3240  0.4388
 3285SOL    HW121314   3.748   0.111   6.123 -1.6459  1.8411 -0.5819
 3285SOL    HW221315   3.768   0.163   5.982 -0.6116 -0.2929  0.8063
 3286SOL     OW21316   0.427   3.197   7.645  0.2292  0.4868  0.8327
 3286SOL    HW121317   0.375   3.263   7.691 -0.4638 -0.3034  1.1664
 3286SOL    HW221318   0.378   3.116   7.655 -1.3374  1.1447 -1.4631
 3287SOL     OW21319   2.087   3.756  16.857  0.0582  0.6879 -0.3008
 3287SOL    HW121320   2.111   3.774  16.766 -1.2281  0.3877 -0.7011
 3287SOL    HW221321   2.053   3.840  16.889  1.2886  0.7725  0.7571
 3288SOL     OW21322   2.054   3.339  13.634  0.2423 -0.2628 -0.2026
 3288SOL    HW121323   1.966   3.372  13.647  0.7045  1.1736 -0.7170
 3288SOL    HW221324   2.090   3.375  13.715 -1.2262  1.2321 -0.2293
 3289SOL     OW21325   1.954   4.139   2.469 -0.2170  0.2103 -0.3584
 3289SOL    HW121326   1.924   4.159   2.381  0.0538 -0.4421 -0.5994
 3289SOL    HW221327   1.902   4.205   2.515 -1.7052  0.0747 -1.8617
 3290SOL     OW21328   3.338   0.559  14.818  0.3275 -0.0302 -0.0324
 3290SOL    HW121329   3.297   0.608  14.747  0.9696 -0.7847 -0.9252
 3290SOL    HW221330   3.314   0.614  14.893  1.3289 -0.2940  0.4780
 3291SOL     OW21331   3.818   1.081   2.521  0.1287 -0.3361  0.7491
 3291SOL    HW121332   3.850   1.169   2.499 -2.0109 -0.7053 -3.8690
 3291SOL    HW221333   3.791   1.053   2.434 -0.0088  2.2552 -0.0414
 3292SOL     OW21334   4.096   0.763   1.837 -0.5335 -0.1531  0.2694
 3292SOL    HW121335   4.046   0.741   1.758 -1.5403  0.1480  0.8273
 3292SOL    HW221336   4.046   0.833   1.880 -0.0709  1.0803 -1.2110
 3293SOL     OW21337   2.791   0.270  10.940  0.1166  0.4575  0.5599
 3293SOL    HW121338   2.768   0.280  10.847  0.6768 -1.6790  0.1893
 3293SOL    HW221339   2.711   0.228  10.970 -0.1997 -0.2527 -1.2573
 3294SOL     OW21340   2.388   0.771   6.852 -0.4216  0.7629 -0.0319
 3294SOL    HW121341   2.378   0.695   6.911 -0.5040  0.2241 -0.7366
 3294SOL    HW221342   2.369   0.840   6.915 -0.3308 -0.0083  0.8541
 3295SOL     OW21343   1.568   2.838  14.530  1.3856 -0.1753 -0.3163
 3295SOL    HW121344   1.603   2.904  14.589  0.7547  0.5156 -0.7183
 3295SOL    HW221345   1.524   2.888  14.461 -1.0044  0.2249  1.4994
 3296SOL     OW21346   4.324   4.226   8.606  0.3781 -0.2214  0.0363
 3296SOL    HW121347   4.350   4.284   8.535 -0.7974 -0.6329 -0.7242
 3296SOL    HW221348   4.247   4.272   8.641 -0.4561 -1.4050 -0.2550
 3297SOL     OW21349   0.422   1.372   9.122  0.0171 -0.3776  0.0349
 3297SOL    HW121350   0.375   1.396   9.202 -0.4508  0.0181 -0.3676
 3297SOL    HW221351   0.380   1.429   9.058  2.7118  1.5921  0.0330
 3298SOL     OW21352   3.841   3.451   8.910  0.6274 -0.2724  0.1533
 3298SOL    HW121353   3.840   3.370   8.961 -0.6986 -0.0705  0.4341
 3298SOL    HW221354   3.882   3.411   8.834 -1.9356 -2.0635 -0.2754
 3299SOL     OW21355   0.029   4.243  12.804 -0.4930 -0.2103 -0.1704
 3299SOL    HW121356   0.086   4.181  12.849 -0.4562 -0.6438 -0.8020
 3299SOL    HW221357   4.680   4.247  12.865  0.5024  1.6991  0.9138
 3300SOL     OW21358   1.778   2.446  11.852  0.5596  0.3167 -0.0942
 3300SOL    HW121359   1.838   2.471  11.782  0.2056 -2.3734 -1.3630
 3300SOL    HW221360   1.781   2.350  11.851  0.1416  0.2999  0.1734
 3301SOL     OW21361   4.173   3.064  11.589 -0.2763  0.0201  0.7691
 3301SOL    HW121362   4.118   2.995  11.552 -0.0737 -0.6582  1.7547
 3301SOL    HW221363   4.255   3.021  11.610  0.9012  1.4876 -0.7618
 3302SOL     OW21364   4.317   0.485   8.467  0.0796 -0.5244  0.1762
 3302SOL    HW121365   4.249   0.550   8.485  0.1091 -0.6718  0.8386
 3302SOL    HW221366   4.311   0.425   8.541 -0.5006  0.5209  0.9901
 3303SOL     OW21367   1.759   2.695  11.285  0.4954 -0.9672 -0.3017
 3303SOL    HW121368   1.702   2.714  11.360 -1.5823  2.5488 -2.7774
 3303SOL    HW221369   1.756   2.780  11.240 -1.3635 -0.7707  0.2071
 3304SOL     OW21370   0.881   0.725   4.638  0.2043 -0.2786 -0.2839
 3304SOL    HW121371   0.846   0.698   4.723 -0.0847  0.0857 -0.2849
 3304SOL    HW221372   0.808   0.740   4.578  1.6481  2.2780 -1.4257
 3305SOL     OW21373   3.750   3.860   3.957 -0.1278 -0.5388 -0.1716
 3305SOL    HW121374   3.666   3.906   3.962 -1.7343 -3.5620  0.9050
 3305SOL    HW221375   3.795   3.896   4.034 -2.0760  3.3124 -0.8411
 3306SOL     OW21376   2.715   3.034   1.723 -0.2738  0.0765 -0.0786
 3306SOL    HW121377   2.750   3.069   1.641  0.7627  0.6498  0.6134
 3306SOL    HW221378   2.635   2.999   1.684  0.2284  0.4601 -1.4446
 3307SOL     OW21379   0.583   2.609   6.298 -0.1520 -0.3224  0.4168
 3307SOL    HW121380   0.574   2.550   6.373 -0.9391 -0.9197 -0.1478
 3307SOL    HW221381   0.562   2.693   6.340  3.0260 -0.0660  1.4803
 3308SOL     OW21382   0.295   2.486   8.464  0.1343 -0.1818 -0.7072
 3308SOL    HW121383   0.237   2.545   8.512  1.9611  0.3506  0.8511
 3308SOL    HW221384   0.297   2.537   8.383 -1.8942  0.6597 -0.2229
 3309SOL     OW21385   2.073   4.380   4.421 -0.4506 -0.6410  0.0508
 3309SOL    HW121386   2.136   4.450   4.401 -2.7628  1.0886 -1.0887
 3309SOL    HW221387   2.124   4.299   4.417  1.3237  0.3773  2.0359
 3310SOL     OW21388   3.980   3.188   6.089 -0.0108 -0.1471  0.4148
 3310SOL    HW121389   3.939   3.102   6.086  2.6170 -1.3347 -1.3827
 3310SOL    HW221390   3.901   3.242   6.095 -0.2075 -0.2924 -0.7290
 3311SOL     OW21391   4.362   3.646   8.727  0.1647 -0.4908  0.2294
 3311SOL    HW121392   4.382   3.556   8.700  2.1150  0.6313 -2.0040
 3311SOL    HW221393   4.321   3.623   8.810 -1.4496 -0.8804 -0.6646
 3312SOL     OW21394   1.712   4.196  10.060 -0.6163 -0.2341 -0.2548
 3312SOL    HW121395   1.686   4.278  10.017  1.9223  0.2812 -0.8104
 3312SOL    HW221396   1.694   4.129   9.995  0.5872 -0.0196 -0.7988
 3313SOL     OW21397   3.456   0.485   9.459 -0.0967  0.3358  0.1255
 3313SOL    HW121398   3.369   0.489   9.418 -0.3165 -1.0673  0.4734
 3313SOL    HW221399   3.420   0.438   9.535 -1.0763  0.1150 -0.4705
 3314SOL     OW21400   0.853   2.246  16.993  0.0412  0.6726 -0.3665
 3314SOL    HW121401   0.791   2.184  17.030 -0.9483  1.4619 -0.6917
 3314SOL    HW221402   0.885   2.278  17.077  2.0881 -0.9127 -0.5604
 3315SOL     OW21403   3.714   4.436   1.879  0.1636 -0.0503 -0.5581
 3315SOL    HW121404   3.778   4.412   1.811 -0.2661 -0.5749 -0.7766
 3315SOL    HW221405   3.732   4.367   1.942 -2.0262  0.1901  0.3287
 3316SOL     OW21406   2.654   1.467   4.851  0.1632  0.4029  0.0202
 3316SOL    HW121407   2.622   1.376   4.852  0.3572  0.3375  0.4801
 3316SOL    HW221408   2.616   1.512   4.776 -0.2460  0.1820  0.0970
 3317SOL     OW21409   3.847   3.758  16.156  0.8271 -0.3328 -0.6829
 3317SOL    HW121410   3.869   3.852  16.156 -1.3505  0.1709 -2.1572
 3317SOL    HW221411   3.756   3.758  16.126  0.5398  1.2384  0.1536
 3318SOL     OW21412   3.188   1.456  13.192  0.3380 -0.2422  0.2412
 3318SOL    HW121413   3.097   1.483  13.210  0.7688  3.6001 -3.3907
 3318SOL    HW221414   3.237   1.537  13.179 -1.1857  1.1045  2.8168
 3319SOL     OW21415   1.400   2.254   6.817  0.0259  0.0110  0.8033
 3319SOL    HW121416   1.442   2.336   6.841  2.2443 -1.6781  2.6775
 3319SOL    HW221417   1.473   2.192   6.825  0.4373  0.2252 -1.1878
 3320SOL     OW21418   3.613   3.721   4.735  0.0393 -0.4201  0.0044
 3320SOL    HW121419   3.532   3.761   4.702 -0.0141  0.4368  1.1728
 3320SOL    HW221420   3.656   3.684   4.658  0.6383 -0.7793  0.5249
 3321SOL     OW21421   2.413   1.883   1.747 -0.3229 -0.2556 -0.6451
 3321SOL    HW121422   2.469   1.957   1.773 -0.2539 -0.0768 -1.3006
 3321SOL    HW221423   2.481   1.819   1.726  1.0505  1.7799 -2.4733
 3322SOL     OW21424   2.831   4.322   2.120 -0.1919  0.1978 -0.0155
 3322SOL    HW121425   2.798   4.237   2.089 -0.1494  1.1183 -2.5641
 3322SOL    HW221426   2.862   4.365   2.040  2.2939 -1.4346  0.0814
 3323SOL     OW21427   1.181   1.094  10.504 -0.1970 -0.9184  0.5681
 3323SOL    HW121428   1.092   1.115  10.534  0.5893  0.0434  2.2218
 3323SOL    HW221429   1.172   0.998  10.506 -2.1173 -0.7918 -1.7600
 3324SOL     OW21430   2.327   0.977  14.328 -0.0400  0.3840 -0.6287
 3324SOL    HW121431   2.324   1.035  14.252  1.4797  1.1008 -0.1412
 3324SOL    HW221432   2.334   0.894  14.280  0.0660  0.6274 -1.0368
 3325SOL     OW21433   1.488   0.126   5.604 -0.4077  0.0636 -0.4613
 3325SOL    HW121434   1.574   0.097   5.634 -1.3001 -0.9910  1.1213
 3325SOL    HW221435   1.500   0.175   5.523  0.2804 -0.1543 -0.4886
 3326SOL     OW21436   0.951   0.310   2.989  0.2395  0.1490  0.4412
 3326SOL    HW121437   0.888   0.252   2.947  1.4324 -1.7766  1.3268
 3326SOL    HW221438   1.032   0.276   2.951  1.1623  3.0990 -0.2876
 3327SOL     OW21439   0.333   2.539   3.187  0.0261  0.0598  0.2395
 3327SOL    HW121440   0.280   2.574   3.116  1.2379  1.6868  0.1253
 3327SOL    HW221441   0.388   2.616   3.204  0.4369 -0.3329  0.6792
 3328SOL     OW21442   0.601   2.509   4.728 -0.1184  0.6834 -0.0222
 3328SOL    HW121443   0.560   2.429   4.761  2.8736  0.0181  2.0622
 3328SOL    HW221444   0.660   2.534   4.799  1.5513  1.2029 -1.5892
 3329SOL     OW21445   0.667   2.701   8.728  0.3292 -0.1527 -0.8031
 3329SOL    HW121446   0.604   2.692   8.799 -1.2399 -2.1774 -2.4536
 3329SOL    HW221447   0.637   2.776   8.676 -1.8187 -1.1279 -0.9963
 3330SOL     OW21448   2.672   0.341   5.427  0.7073  0.0386 -0.6033
 3330SOL    HW121449   2.616   0.337   5.505  1.7516 -1.6475  0.0590
 3330SOL    HW221450   2.626   0.308   5.350  0.3901 -2.2370  0.5378
 3331SOL     OW21451   1.228   2.927   4.353  0.4200  0.0814 -0.1652
 3331SOL    HW121452   1.322   2.919   4.366 -0.1169 -4.0979  1.2759
 3331SOL    HW221453   1.190   2.847   4.316 -2.1138  0.8107  0.8569
 3332SOL     OW21454   3.919   2.017   3.453  0.2713 -0.1308  0.3660
 3332SOL    HW121455   3.966   1.981   3.378  1.4363 -0.2858  1.1729
 3332SOL    HW221456   3.979   1.986   3.521  1.7503  0.3450 -0.7243
 3333SOL     OW21457   1.527   2.251   4.502  0.4517 -0.0669  0.2792
 3333SOL    HW121458   1.593   2.320   4.513  0.6568 -0.4563  1.5706
 3333SOL    HW221459   1.581   2.173   4.516  1.6254  1.0792  2.3135
 3334SOL     OW21460   3.626   2.236  10.031  0.2595 -0.2508  0.8045
 3334SOL    HW121461   3.676   2.164  10.068  0.5239  0.0427  1.0120
 3334SOL    HW221462   3.657   2.314  10.076 -3.3542  2.1489 -0.8797
 3335SOL     OW21463   3.938   0.647   6.545  0.3913  0.5683  0.8814
 3335SOL    HW121464   3.983   0.731   6.549 -0.2093  0.9281  0.1702
 3335SOL    HW221465   3.871   0.652   6.477  1.2657 -0.1823 -0.0356
 3336SOL     OW21466   4.308   4.163   3.569  0.6846 -0.4624  0.0507
 3336SOL    HW121467   4.279   4.205   3.488  0.1517 -1.6663 -0.3727
 3336SOL    HW221468   4.294   4.071   3.548  0.6323 -0.1377 -1.3353
 3337SOL     OW21469   0.459   2.457   9.328  0.1945 -0.0699  0.3901
 3337SOL    HW121470   0.371   2.445   9.363  0.4510 -0.4548  0.9096
 3337SOL    HW221471   0.459   2.391   9.259 -2.1232  1.3131 -0.9227
 3338SOL     OW21472   2.966   0.259  17.213  0.1761  0.1125  0.3054
 3338SOL    HW121473   2.893   0.198  17.208  1.4320 -1.2914 -0.8581
 3338SOL    HW221474   2.983   0.260  17.307 -2.3277 -1.1534  0.7729
 3339SOL     OW21475   3.250   0.377   8.385  0.1577  0.9751  0.4148
 3339SOL    HW121476   3.321   0.439   8.366 -0.0110  1.1416  0.3257
 3339SOL    HW221477   3.196   0.429   8.445 -0.3311  0.6547  0.2477
 3340SOL     OW21478   1.243   3.121   5.335  0.5138  0.0211 -0.0058
 3340SOL    HW121479   1.219   3.195   5.280 -1.6612 -0.3279  0.4855
 3340SOL    HW221480   1.164   3.127   5.388 -1.3576  0.4036 -2.8892
 3341SOL     OW21481   2.405   1.343   8.488  0.2250 -0.3560  0.0605
 3341SOL    HW121482   2.367   1.413   8.434  1.6477 -0.2954 -0.8590
 3341SOL    HW221483   2.491   1.336   8.448  2.1266  1.6298  3.7754
 3342SOL     OW21484   0.771   3.820   8.224  0.5052  0.3779  0.0768
 3342SOL    HW121485   0.743   3.734   8.193 -0.4745  0.5596  0.4526
 3342SOL    HW221486   0.802   3.866   8.146  0.8921 -1.3263 -0.7631
 3343SOL     OW21487   2.352   4.601  11.318  0.2445  0.1563  0.2664
 3343SOL    HW121488   2.424   4.664  11.323  1.5528 -1.3668  0.2587
 3343SOL    HW221489   2.395   4.530  11.271 -0.4327  1.2053 -1.9198
 3344SOL     OW21490   2.284   2.046  14.871  0.0357  0.0237 -0.3075
 3344SOL    HW121491   2.305   2.115  14.808  2.3280 -0.4653 -0.0759
 3344SOL    HW221492   2.371   2.033  14.909 -0.6896 -0.4624  1.1950
 3345SOL     OW21493   3.610   3.519  15.093  0.7598  0.4395  0.0158
 3345SOL    HW121494   3.611   3.457  15.019  4.2566 -0.3273  0.7072
 3345SOL    HW221495   3.689   3.496  15.142  2.2504  3.5654 -0.9109
 3346SOL     OW21496   2.515   0.436   4.020  0.3268  0.0590 -0.0839
 3346SOL    HW121497   2.607   0.421   3.996  0.5369  2.2117 -0.6188
 3346SOL    HW221498   2.474   0.391   3.946  0.2942  0.1478 -0.1191
 3347SOL     OW21499   1.840   2.209   1.087 -0.0844 -0.3140  0.0648
 3347SOL    HW121500   1.849   2.290   1.138  0.0730  0.2715 -0.8880
 3347SOL    HW221501   1.830   2.250   1.001  1.9288  1.3279  0.5983
 3348SOL     OW21502   3.433   1.158   4.978 -0.0528  0.4896 -0.0817
 3348SOL    HW121503   3.429   1.251   4.957  0.8412  0.6328  0.3408
 3348SOL    HW221504   3.476   1.116   4.903 -0.7640  1.6253 -1.1072
 3349SOL     OW21505   1.221   1.688   6.693 -0.4401 -0.8631 -0.8844
 3349SOL    HW121506   1.296   1.732   6.653 -1.0417 -0.9466 -2.1062
 3349SOL    HW221507   1.256   1.599   6.686  2.6252  0.0051  3.5327
 3350SOL     OW21508   1.407   3.323   9.159 -0.5414  0.0923 -0.4143
 3350SOL    HW121509   1.443   3.406   9.189 -0.7692 -1.1374  3.2116
 3350SOL    HW221510   1.480   3.262   9.164 -0.7034 -0.0183  0.5977
 3351SOL     OW21511   1.045   4.120   7.538  0.1377  0.1232  0.3816
 3351SOL    HW121512   1.063   4.026   7.548  0.0727  0.0561 -0.1469
 3351SOL    HW221513   0.970   4.130   7.596  0.7256  0.0214  1.1605
 3352SOL     OW21514   3.101   1.867   4.449 -0.2153 -0.3242 -0.0825
 3352SOL    HW121515   3.140   1.934   4.393 -0.6267 -0.0429 -0.0340
 3352SOL    HW221516   3.007   1.870   4.428 -0.2684  0.4028  0.2278
 3353SOL     OW21517   1.431   4.706  13.324 -0.2632 -0.3222 -0.3761
 3353SOL    HW121518   1.364   4.694  13.391  0.9405 -0.0629  0.8786
 3353SOL    HW221519   1.428   0.076  13.312  1.5911  0.0050  1.7461
 3354SOL     OW21520   4.311   2.673   4.206 -0.1384 -0.1130  0.5246
 3354SOL    HW121521   4.267   2.623   4.137  0.6206 -0.7592  0.5112
 3354SOL    HW221522   4.350   2.743   4.154  2.7621 -2.7413 -0.8144
 3355SOL     OW21523   0.769   0.376   5.034  0.0078  0.4401  0.2913
 3355SOL    HW121524   0.712   0.399   5.107 -0.7585  0.6646 -0.3865
 3355SOL    HW221525   0.711   0.344   4.965 -0.0033  0.4034  0.3178
 3356SOL     OW21526   0.036   2.897   9.732 -0.7630 -0.2424  0.5761
 3356SOL    HW121527   0.038   2.831   9.663  2.6351 -0.3373  0.7901
 3356SOL    HW221528   4.687   2.953   9.706 -0.4446 -0.1966 -0.2183
 3357SOL     OW21529   3.534   3.219   3.426 -0.3822 -0.4739 -0.1291
 3357SOL    HW121530   3.567   3.308   3.439 -1.8768  0.1825 -0.7376
 3357SOL    HW221531   3.530   3.213   3.330  0.9292 -1.5490 -0.1102
 3358SOL     OW21532   0.516   1.604   4.206  0.3344  0.8577 -0.0972
 3358SOL    HW121533   0.553   1.647   4.129  1.9342  0.4523  0.4336
 3358SOL    HW221534   0.451   1.546   4.167 -1.4088  0.0260  4.0221
 3359SOL     OW21535   0.190   3.252   8.163  0.4249  0.3380 -0.3691
 3359SOL    HW121536   0.275   3.263   8.121  0.9759  1.5242  1.0478
 3359SOL    HW221537   0.151   3.186   8.105  0.1843  1.8756 -1.9610
 3360SOL     OW21538   0.200   0.087  15.998 -0.3187 -0.5807 -0.0826
 3360SOL    HW121539   0.149   0.137  16.062 -1.5585 -0.1780 -1.3829
 3360SOL    HW221540   0.282   0.135  15.988 -1.7023  1.7543 -0.1826
 3361SOL     OW21541   0.641   2.291   6.445  0.0801 -0.5991 -0.0147
 3361SOL    HW121542   0.686   2.300   6.529  2.1263 -2.7637 -0.8736
 3361SOL    HW221543   0.555   2.333   6.447 -0.6999 -2.2860  0.8910
 3362SOL     OW21544   3.492   3.782   9.002 -0.3048 -0.5797 -0.5386
 3362SOL    HW121545   3.575   3.814   9.037 -1.9544  0.5628  2.4178
 3362SOL    HW221546   3.432   3.856   9.001 -0.4669 -0.6509  1.9901
 3363SOL     OW21547   1.384   1.837   1.162  0.0649 -0.5555  0.4493
 3363SOL    HW121548   1.352   1.782   1.233 -1.0287  0.1849  0.5213
 3363SOL    HW221549   1.305   1.847   1.108  0.1303  2.5599  0.9480
 3364SOL     OW21550   4.112   0.251  11.339 -0.1906 -0.0645  0.1827
 3364SOL    HW121551   4.059   0.241  11.418 -1.3536  0.0552 -0.5850
 3364SOL    HW221552   4.067   0.330  11.312  0.4457 -0.8165 -3.1244
 3365SOL     OW21553   0.291   2.240   8.256  0.3856 -0.0074 -0.4705
 3365SOL    HW121554   0.244   2.282   8.328 -2.6331 -1.3953 -1.6317
 3365SOL    HW221555   0.367   2.210   8.306  1.1814  0.6641 -1.2696
 3366SOL     OW21556   3.073   0.416   5.796  0.0512  0.4803  0.1860
 3366SOL    HW121557   3.122   0.497   5.806 -1.6297  1.6603 -1.2364
 3366SOL    HW221558   3.062   0.383   5.885  1.0396  2.0447  0.8895
 3367SOL     OW21559   0.138   3.540   6.889 -0.5453 -0.1455  0.1490
 3367SOL    HW121560   0.052   3.568   6.856  0.0720  1.5511 -0.0392
 3367SOL    HW221561   0.112   3.509   6.976  0.7633 -0.0979  0.5472
 3368SOL     OW21562   2.228   3.897   8.794 -0.3087  0.2556 -0.5544
 3368SOL    HW121563   2.285   3.849   8.733 -2.1137 -2.2818 -0.2159
 3368SOL    HW221564   2.142   3.873   8.760  0.6897  0.2586 -3.1205
 3369SOL     OW21565   2.980   1.235  11.038 -0.2998  0.1844 -0.0566
 3369SOL    HW121566   2.919   1.307  11.054  0.3794  1.2009 -2.1338
 3369SOL    HW221567   3.050   1.270  10.984 -0.2929 -0.8075 -0.7007
 3370SOL     OW21568   1.148   3.563   6.582 -0.3604 -0.4976  0.4881
 3370SOL    HW121569   1.086   3.516   6.638 -3.4521  2.7252 -0.2516
 3370SOL    HW221570   1.131   3.649   6.620  0.7069  0.2715 -0.7854
 3371SOL     OW21571   1.775   1.106   4.786 -0.0708 -0.0588 -0.1829
 3371SOL    HW121572   1.842   1.158   4.830 -0.8620  0.7312  0.0756
 3371SOL    HW221573   1.809   1.017   4.786 -0.7256 -0.3092 -2.4232
 3372SOL     OW21574   1.210   4.643  17.627  0.5729 -0.1830  0.1393
 3372SOL    HW121575   1.269   4.698  17.677 -1.3130  0.1303  2.0137
 3372SOL    HW221576   1.207   4.692  17.545  1.7115 -0.6138 -0.1676
 3373SOL     OW21577   0.827   3.522   3.191  0.6943 -0.3856 -1.0195
 3373SOL    HW121578   0.876   3.599   3.222 -0.1956 -0.5479  0.8118
 3373SOL    HW221579   0.882   3.458   3.237  0.0101  0.4926  1.0439
 3374SOL     OW21580   2.970   3.742   9.297 -0.1880 -0.2811  0.3164
 3374SOL    HW121581   3.049   3.691   9.276 -0.1341  0.9128 -2.3317
 3374SOL    HW221582   2.998   3.831   9.277 -0.7524 -0.4783 -1.3468
 3375SOL     OW21583   2.419   0.667   4.451  0.1513 -0.0332  0.4170
 3375SOL    HW121584   2.394   0.715   4.372  1.5516 -0.8020 -0.5079
 3375SOL    HW221585   2.406   0.732   4.519  2.2619  0.0250  0.7829
 3376SOL     OW21586   0.454   3.712  13.177  0.1106  0.3309 -0.5263
 3376SOL    HW121587   0.470   3.647  13.108 -1.7847 -0.8226  0.1493
 3376SOL    HW221588   0.537   3.716  13.224  0.2207 -0.0151 -0.6950
 3377SOL     OW21589   2.248   3.554   8.938 -0.6117 -0.8928 -0.5479
 3377SOL    HW121590   2.177   3.542   9.001  0.6321 -1.1312  0.8143
 3377SOL    HW221591   2.285   3.637   8.967 -1.3135 -1.2018  1.2339
 3378SOL     OW21592   0.268   2.233   6.001  0.3404  0.3972 -0.3112
 3378SOL    HW121593   0.346   2.178   6.015  0.3656  0.6876  0.7544
 3378SOL    HW221594   0.322   2.312   5.994  0.6572  0.0812 -1.3578
 3379SOL     OW21595   2.537   4.206   3.559 -0.2801  0.3432  0.1035
 3379SOL    HW121596   2.531   4.120   3.517 -0.3045  0.3009  0.1942
 3379SOL    HW221597   2.591   4.256   3.497 -0.7994  0.0504 -0.5815
 3380SOL     OW21598   0.160   2.662  12.223 -0.2365  0.0923 -0.1958
 3380SOL    HW121599   0.070   2.688  12.206 -0.1470 -0.4298 -1.4893
 3380SOL    HW221600   0.206   2.746  12.234  0.6276 -0.5629  1.2663
 3381SOL     OW21601   2.724   3.301   1.235 -0.1701  0.5439  0.1457
 3381SOL    HW121602   2.713   3.290   1.141 -2.2349 -0.5294  0.4948
 3381SOL    HW221603   2.685   3.388   1.247  0.5286  0.8749 -0.0060
 3382SOL     OW21604   0.136   1.501  13.416 -0.2197  0.0690 -0.3733
 3382SOL    HW121605   0.099   1.445  13.485  1.0179 -0.6235 -0.2704
 3382SOL    HW221606   0.077   1.491  13.342 -0.3982  0.5438 -0.2927
 3383SOL     OW21607   0.825   3.317   7.997 -0.6183 -0.3893 -0.4086
 3383SOL    HW121608   0.805   3.410   7.983 -2.2703 -0.7442 -0.4824
 3383SOL    HW221609   0.788   3.310   8.086 -0.3725  0.2660 -0.2539
 3384SOL     OW21610   2.925   2.668   2.570 -0.0978  0.6865  0.0045
 3384SOL    HW121611   2.879   2.731   2.626 -0.2760  0.3610  0.2270
 3384SOL    HW221612   2.856   2.650   2.506  1.9875 -0.3081 -1.9560
 3385SOL     OW21613   3.102   0.069  15.975 -0.4117 -0.3181  0.0400
 3385SOL    HW121614   3.169   0.093  15.912 -1.9978  0.8434 -1.2196
 3385SOL    HW221615   3.020   0.072  15.925  0.2790  0.8455 -1.0072
 3386SOL     OW21616   0.599   0.325  11.775  0.4135  0.2693 -0.4667
 3386SOL    HW121617   0.579   0.385  11.846 -2.7115 -1.4196  0.0504
 3386SOL    HW221618   0.543   0.351  11.702 -0.8594 -1.1151  0.0159
 3387SOL     OW21619   3.917   0.879  13.206  0.0964 -0.1281  0.9572
 3387SOL    HW121620   3.972   0.814  13.250  1.1908 -0.5277 -1.0268
 3387SOL    HW221621   3.908   0.845  13.117  1.4364 -0.6280  1.0103
 3388SOL     OW21622   4.148   4.308   1.820  0.1818 -0.1936  0.2196
 3388SOL    HW121623   4.132   4.300   1.914 -3.1034  0.5750 -0.2832
 3388SOL    HW221624   4.199   4.228   1.806  0.0320 -0.0653 -1.0932
 3389SOL     OW21625   1.744   2.955   6.834  0.1466 -0.2625  0.2827
 3389SOL    HW121626   1.804   3.019   6.794 -0.1080 -2.9937 -4.5514
 3389SOL    HW221627   1.710   2.913   6.754  0.0175  1.2086 -0.4461
 3390SOL     OW21628   1.898   0.055   6.824 -0.3850  0.6990 -0.7278
 3390SOL    HW121629   1.834   0.075   6.755  0.9220 -0.2691 -2.2015
 3390SOL    HW221630   1.857   0.106   6.895 -0.3766  1.1314 -1.0351
 3391SOL     OW21631   3.520   4.427   6.155  0.2584  0.0598 -0.4013
 3391SOL    HW121632   3.605   4.390   6.177  0.7270  0.2215 -1.9827
 3391SOL    HW221633   3.456   4.391   6.217  0.4510  1.6983  0.7408
 3392SOL     OW21634   1.438   2.650   2.047  0.1462  0.0440  0.0754
 3392SOL    HW121635   1.424   2.685   2.135 -0.2564  4.1822 -1.6010
 3392SOL    HW221636   1.455   2.729   1.996  1.1755 -1.0801 -1.3249
 3393SOL     OW21637   1.964   4.001  16.916 -0.1336 -0.0367  0.3190
 3393SOL    HW121638   1.899   4.007  16.846  0.6326 -1.0358 -0.4765
 3393SOL    HW221639   2.032   4.061  16.884 -0.5471  1.0121  1.3966
 3394SOL     OW21640   0.807   1.819  14.469 -0.1970 -0.1708  0.3855
 3394SOL    HW121641   0.895   1.783  14.459 -0.5423 -0.2609 -2.2398
 3394SOL    HW221642   0.763   1.744  14.510  1.1356 -1.0386  0.2165
 3395SOL     OW21643   2.966   0.162   9.911 -0.5409  0.0794 -0.0890
 3395SOL    HW121644   2.875   0.193   9.912 -0.1786  1.1796 -0.9156
 3395SOL    HW221645   3.014   0.242   9.928 -0.5885  0.0762  0.0613
 3396SOL     OW21646   2.294   0.522   1.298  0.5230 -0.5641  0.4474
 3396SOL    HW121647   2.319   0.448   1.353 -0.9761 -0.4916  1.2367
 3396SOL    HW221648   2.366   0.520   1.235 -0.6676 -1.5296 -0.9007
 3397SOL     OW21649   4.682   0.698  12.326  0.2697  0.5081  0.4677
 3397SOL    HW121650   4.641   0.699  12.239  0.2654  0.4188  0.4683
 3397SOL    HW221651   4.714   0.608  12.331  1.3238  0.8567 -0.0591
 3398SOL     OW21652   1.800   1.176   9.262  0.3416  0.0852  0.1256
 3398SOL    HW121653   1.819   1.225   9.182 -0.2440  0.4228  0.1956
 3398SOL    HW221654   1.870   1.111   9.262  0.1957 -0.0756 -0.4716
 3399SOL     OW21655   2.691   1.809   4.889 -0.0272 -0.1556 -0.6312
 3399SOL    HW121656   2.705   1.875   4.956 -1.5110 -0.1915 -0.2894
 3399SOL    HW221657   2.775   1.762   4.891 -0.0609 -0.1680  0.1849
 3400SOL     OW21658   2.438   2.927  13.453  0.0508  0.6390  0.3883
 3400SOL    HW121659   2.368   2.951  13.391 -0.5814  0.6390  1.1018
 3400SOL    HW221660   2.493   3.005  13.452  1.9946 -0.7207  1.5929
 3401SOL     OW21661   3.254   0.799  11.774 -0.3199 -0.1197  0.0899
 3401SOL    HW121662   3.169   0.834  11.801  0.1601  1.6743 -0.7197
 3401SOL    HW221663   3.240   0.784  11.681 -3.5564 -0.2872  0.6028
 3402SOL     OW21664   0.526   2.889   7.100 -0.5395  0.5498 -0.2874
 3402SOL    HW121665   0.501   2.892   7.192  0.0521  2.0638 -0.1811
 3402SOL    HW221666   0.524   2.796   7.080 -1.9328  0.5136  0.0135
 3403SOL     OW21667   0.624   4.055   5.178 -0.0976  0.1916 -0.0259
 3403SOL    HW121668   0.570   3.981   5.151 -0.3026  0.5944 -0.7408
 3403SOL    HW221669   0.701   4.041   5.124 -0.2974  2.2908 -0.8858
 3404SOL     OW21670   1.589   1.322   5.659  0.0918 -0.8476  0.4350
 3404SOL    HW121671   1.500   1.292   5.676 -0.4109  0.1748 -0.4057
 3404SOL    HW221672   1.636   1.283   5.733 -0.7757 -0.1492  1.3559
 3405SOL     OW21673   0.410   4.679   4.519 -0.1243  0.1366  0.1273
 3405SOL    HW121674   0.491   4.648   4.560  0.3155 -0.4137 -1.1497
 3405SOL    HW221675   0.352   4.604   4.536 -0.2699 -0.0749 -1.3438
 3406SOL     OW21676   1.517   2.088   0.927  0.4053 -0.3753  0.0892
 3406SOL    HW121677   1.467   2.073   0.847 -0.2973 -2.1808  0.8607
 3406SOL    HW221678   1.576   2.158   0.900 -0.8128 -0.2362 -2.2499
 3407SOL     OW21679   0.315   4.668   2.128 -0.6010  0.5693 -0.6648
 3407SOL    HW121680   0.359   4.582   2.128  0.1170  0.9570  2.0925
 3407SOL    HW221681   0.272   4.691   2.046  1.0979  1.3232 -1.3462
 3408SOL     OW21682   2.706   1.017   5.739  0.3069  0.2347  0.4794
 3408SOL    HW121683   2.751   0.935   5.761 -1.1394 -1.1002 -1.4744
 3408SOL    HW221684   2.742   1.045   5.654 -1.5806  1.6841  0.1544
 3409SOL     OW21685   1.674   1.129   8.272 -0.4154 -0.5676 -0.1425
 3409SOL    HW121686   1.665   1.091   8.359  0.5644  1.6152  0.9080
 3409SOL    HW221687   1.762   1.167   8.276 -0.3793 -0.7111  0.4274
 3410SOL     OW21688   2.088   1.484   6.810  0.2762  0.0431 -0.0441
 3410SOL    HW121689   2.003   1.483   6.854  0.8529 -1.9014  1.0396
 3410SOL    HW221690   2.119   1.567   6.847 -0.4528  0.8206 -1.2007
 3411SOL     OW21691   1.051   2.769  11.183 -0.1105  0.6811  0.3363
 3411SOL    HW121692   1.140   2.800  11.204 -0.3043  0.4642  1.5138
 3411SOL    HW221693   1.049   2.807  11.096  2.8175 -0.5529 -0.2656
 3412SOL     OW21694   4.310   1.668   4.811  0.2030 -0.1083 -0.3743
 3412SOL    HW121695   4.221   1.633   4.818 -0.2859  1.0482 -0.7986
 3412SOL    HW221696   4.310   1.725   4.888  0.5624 -1.2392  0.4605
 3413SOL     OW21697   3.101   1.702   8.994  0.3372  0.3200  0.4152
 3413SOL    HW121698   3.132   1.788   8.966 -2.2948  0.9600 -0.4743
 3413SOL    HW221699   3.169   1.677   9.057 -0.2090 -1.5194  0.2766
 3414SOL     OW21700   4.316   2.382   6.072 -0.2294 -0.0893  0.3922
 3414SOL    HW121701   4.411   2.367   6.079 -0.4863 -1.3015  1.3635
 3414SOL    HW221702   4.307   2.413   5.983 -1.9485 -0.0581  0.5819
 3415SOL     OW21703   3.456   3.327   7.174  0.1899  0.0881 -0.4882
 3415SOL    HW121704   3.409   3.344   7.256  1.2053 -2.9209  0.7558
 3415SOL    HW221705   3.379   3.288   7.132 -0.1705  1.5651 -1.1913
 3416SOL     OW21706   0.911   3.890   2.861 -0.1791  0.3534  0.4329
 3416SOL    HW121707   0.817   3.883   2.875 -0.2423  1.0112  0.3489
 3416SOL    HW221708   0.925   3.951   2.933 -1.3110 -0.5428  1.3944
 3417SOL     OW21709   1.284   1.630   2.096  0.2784 -0.1977  0.5154
 3417SOL    HW121710   1.236   1.577   2.034 -1.1633  0.7671  0.8068
 3417SOL    HW221711   1.377   1.614   2.080  0.3349  0.7617 -0.1037
 3418SOL     OW21712   3.276   2.200   6.442  0.3300 -0.1966  0.3577
 3418SOL    HW121713   3.349   2.150   6.405  0.2017 -0.2811  0.2130
 3418SOL    HW221714   3.252   2.135   6.508 -2.3046 -0.9790 -1.3336
 3419SOL     OW21715   1.538   1.360  15.959  0.3491  0.3637 -0.3870
 3419SOL    HW121716   1.460   1.304  15.958  1.9024 -1.7993  0.4897
 3419SOL    HW221717   1.508   1.437  16.009 -0.0748 -0.5524  0.7618
 3420SOL     OW21718   0.012   1.466   5.162  0.0303 -0.3423 -0.5966
 3420SOL    HW121719   0.022   1.517   5.242 -1.4172  0.7913 -1.1425
 3420SOL    HW221720   4.646   1.490   5.146  0.0305  0.9144  1.3360
 3421SOL     OW21721   2.150   3.403  13.886  0.3077 -0.2867  0.2766
 3421SOL    HW121722   2.100   3.380  13.964  1.0597  2.3911  1.5577
 3421SOL    HW221723   2.234   3.368  13.916  1.2641  0.8495 -1.0966
 3422SOL     OW21724   4.532   1.230  13.370 -0.3573  0.1053 -0.5330
 3422SOL    HW121725   4.569   1.163  13.313 -1.5960 -2.6266  1.9074
 3422SOL    HW221726   4.582   1.305  13.338 -0.9143 -0.6900 -3.3109
 3423SOL     OW21727   1.189   1.461  10.955 -0.4061 -0.1646 -0.1290
 3423SOL    HW121728   1.160   1.442  10.866 -0.8722 -1.7206  0.3616
 3423SOL    HW221729   1.105   1.455  11.000 -0.6767  0.5213 -0.5429
 3424SOL     OW21730   0.904   0.230   8.108  0.0399  0.0689  0.1247
 3424SOL    HW121731   0.826   0.248   8.161 -1.3311 -2.0988 -1.1765
 3424SOL    HW221732   0.924   0.137   8.114 -0.9960 -0.0798  1.0717
 3425SOL     OW21733   3.659   2.207   8.980 -0.6051  0.0813  0.0727
 3425SOL    HW121734   3.752   2.195   9.000 -0.2557  2.1892 -0.3335
 3425SOL    HW221735   3.628   2.225   9.068  0.0459  0.0559  0.3024
 3426SOL     OW21736   0.585   3.972   0.703  0.3154  0.4409  0.4746
 3426SOL    HW121737   0.582   3.930   0.616  1.5793  0.9037  0.2053
 3426SOL    HW221738   0.606   3.903   0.766  0.3612  1.2834  1.3751
 3427SOL     OW21739   4.414   0.231   4.927 -0.0864  0.3217  0.3489
 3427SOL    HW121740   4.508   0.232   4.914 -0.3264 -0.8124 -1.6081
 3427SOL    HW221741   4.412   0.238   5.022  2.0237 -0.4153  0.4328
 3428SOL     OW21742   4.489   4.362  12.263 -0.3038 -0.5351  0.3631
 3428SOL    HW121743   4.560   4.328  12.209 -1.3661 -0.0942 -1.2849
 3428SOL    HW221744   4.414   4.377  12.205 -0.0741  1.9270  0.6800
 3429SOL     OW21745   2.635   3.830   5.539  0.5406 -0.4237 -0.2923
 3429SOL    HW121746   2.636   3.864   5.628 -0.4072  2.5669 -1.4322
 3429SOL    HW221747   2.607   3.742   5.561  0.1048  0.0521  1.0174
 3430SOL     OW21748   3.233   0.105   8.456 -0.0798  0.1077  0.5379
 3430SOL    HW121749   3.193   0.110   8.543 -1.4317 -0.6868 -0.0512
 3430SOL    HW221750   3.242   0.194   8.421 -0.5991  0.1601  0.5380
 3431SOL     OW21751   1.398   0.461   6.492  0.0648  0.5123  0.7277
 3431SOL    HW121752   1.489   0.488   6.496 -0.0298  1.0859 -0.7420
 3431SOL    HW221753   1.367   0.486   6.405  1.4530  0.4929  0.2315
 3432SOL     OW21754   1.263   1.477   7.645 -0.0240  0.0060  0.3724
 3432SOL    HW121755   1.339   1.516   7.603 -0.3397 -0.0578 -0.2510
 3432SOL    HW221756   1.303   1.494   7.730  1.5604 -0.6711 -0.2547
 3433SOL     OW21757   0.235   2.877  14.940 -0.1272 -0.1798 -0.5112
 3433SOL    HW121758   0.179   2.877  14.863 -1.8065 -1.6710  0.7050
 3433SOL    HW221759   0.236   2.971  14.956 -1.3223  0.3205 -3.3885
 3434SOL     OW21760   1.628   1.770   7.308  0.4194  0.4636  0.5708
 3434SOL    HW121761   1.599   1.745   7.221 -0.0768 -1.7022  1.3514
 3434SOL    HW221762   1.595   1.860   7.304  0.8736  0.5841 -0.5061
 3435SOL     OW21763   2.201   3.589   8.401  0.6335  0.2846 -0.2930
 3435SOL    HW121764   2.128   3.530   8.383  2.7381 -2.5263  0.4800
 3435SOL    HW221765   2.209   3.592   8.496  2.6597  0.6023 -0.4796
 3436SOL     OW21766   3.228   1.528   4.346 -0.0469  0.2279  0.1711
 3436SOL    HW121767   3.250   1.533   4.439 -0.3654  0.2684  0.2458
 3436SOL    HW221768   3.279   1.606   4.321 -1.4498  1.2218  0.3860
 3437SOL     OW21769   4.353   2.982   3.440  0.5735  0.1629 -0.2502
 3437SOL    HW121770   4.290   3.001   3.509  1.4261  0.0498  0.5609
 3437SOL    HW221771   4.383   2.894   3.463  0.6310  0.0471 -0.7565
 3438SOL     OW21772   2.044   1.867   8.460  0.5054 -0.4843 -0.1795
 3438SOL    HW121773   2.056   1.940   8.520  0.2215  0.8385 -1.7302
 3438SOL    HW221774   2.093   1.908   8.388 -0.1146 -0.3507 -0.5297
 3439SOL     OW21775   0.809   2.438   1.941  0.6028 -0.4070  0.5099
 3439SOL    HW121776   0.795   2.356   1.895 -2.0509  1.8108 -2.6680
 3439SOL    HW221777   0.730   2.433   1.994  0.1739 -1.3154 -0.2267
 3440SOL     OW21778   2.100   0.368   3.225 -0.0933  0.6049  0.5835
 3440SOL    HW121779   2.036   0.367   3.153  0.4933 -0.8334  0.0890
 3440SOL    HW221780   2.121   0.461   3.228 -0.2645  0.6817 -0.4611
 3441SOL     OW21781   0.753   1.811  16.577 -0.9579  0.0630  0.4121
 3441SOL    HW121782   0.709   1.892  16.550  0.7633  0.6003 -0.8002
 3441SOL    HW221783   0.744   1.817  16.672 -1.6145 -0.9680  0.4022
 3442SOL     OW21784   1.603   2.629   7.665  0.1127 -0.3657  0.4839
 3442SOL    HW121785   1.561   2.713   7.648 -0.2109 -1.2710 -3.0435
 3442SOL    HW221786   1.661   2.633   7.589 -0.4832  1.4305  0.1306
 3443SOL     OW21787   0.513   1.098   5.382 -0.0014  0.5915 -0.0760
 3443SOL    HW121788   0.458   1.159   5.333 -1.7877  0.3929  1.6793
 3443SOL    HW221789   0.464   1.016   5.378  1.5741 -0.4283  1.2507
 3444SOL     OW21790   0.797   1.919  14.090  0.8316  0.2018 -0.2331
 3444SOL    HW121791   0.843   2.001  14.109 -1.4793  1.3342  0.5347
 3444SOL    HW221792   0.813   1.919  13.996 -0.6110  1.0965 -0.4855
 3445SOL     OW21793   2.478   4.466   4.125  0.1628  0.1159 -0.6194
 3445SOL    HW121794   2.448   4.488   4.037 -1.1771 -2.3482 -0.7622
 3445SOL    HW221795   2.401   4.487   4.178 -0.1273 -0.3683 -0.8500
 3446SOL     OW21796   4.001   2.940   6.829 -0.2383 -0.6776  0.8100
 3446SOL    HW121797   3.928   2.918   6.886 -0.3833 -0.1657  0.8207
 3446SOL    HW221798   4.059   2.866   6.849  2.0254  1.0095  0.5416
 3447SOL     OW21799   2.132   3.221   8.402  0.4653  0.1144 -0.0386
 3447SOL    HW121800   2.090   3.271   8.472 -3.2953  0.2747 -2.3710
 3447SOL    HW221801   2.061   3.165   8.370  0.2406  0.5770 -0.3481
 3448SOL     OW21802   2.135   2.997   3.052 -0.0519 -0.2780  0.3860
 3448SOL    HW121803   2.219   2.988   3.098  0.7358 -0.1341 -1.0125
 3448SOL    HW221804   2.139   3.092   3.036  0.5930 -0.0286  1.9655
 3449SOL     OW21805   3.641   3.245   5.465 -0.2503 -1.2463  0.0659
 3449SOL    HW121806   3.673   3.335   5.474  1.6764 -1.8724 -0.5562
 3449SOL    HW221807   3.549   3.251   5.491  0.0536 -2.5661  1.3946
 3450SOL     OW21808   1.801   2.461   1.480  0.0894  0.5884 -0.1353
 3450SOL    HW121809   1.707   2.452   1.489  0.1268 -0.3455 -0.6570
 3450SOL    HW221810   1.828   2.508   1.559 -0.7767  2.1285 -0.7663
 3451SOL     OW21811   2.800   2.094   8.082 -0.5954 -0.6261  0.3426
 3451SOL    HW121812   2.879   2.148   8.071 -0.3308 -0.8264  1.2301
 3451SOL    HW221813   2.741   2.141   8.024 -1.0814 -2.1877 -0.4390
 3452SOL     OW21814   3.582   1.012   4.802  0.3128  0.3180 -0.2326
 3452SOL    HW121815   3.566   0.943   4.867  1.3391 -0.8921 -1.2401
 3452SOL    HW221816   3.653   0.969   4.754  0.4032  0.6520 -0.3988
 3453SOL     OW21817   0.760   1.349  14.398  0.0700  0.0241  0.4020
 3453SOL    HW121818   0.722   1.399  14.325  0.0625 -1.7724 -0.8247
 3453SOL    HW221819   0.790   1.422  14.451  0.1086  0.7094 -0.5567
 3454SOL     OW21820   3.060   3.335   4.197  0.7293  1.0628 -0.0679
 3454SOL    HW121821   3.096   3.423   4.210 -1.2750  1.9817 -0.7874
 3454SOL    HW221822   2.994   3.355   4.131  1.4559 -0.6780 -1.3433
 3455SOL     OW21823   1.306   2.995   7.789  0.3298 -0.1316 -0.5242
 3455SOL    HW121824   1.249   2.928   7.827  0.2264  0.3670  0.2111
 3455SOL    HW221825   1.239   3.053   7.752  0.6134 -0.1441 -1.0518
 3456SOL     OW21826   4.231   3.272   5.609 -0.3226  0.2061 -0.2583
 3456SOL    HW121827   4.199   3.289   5.697  0.9393 -1.6142  0.5636
 3456SOL    HW221828   4.200   3.347   5.558  1.0653  1.9246  1.4904
 3457SOL     OW21829   4.593   4.579   1.823 -0.0437  0.3643  0.5713
 3457SOL    HW121830   4.612   4.655   1.768 -1.6575  0.8243  0.6373
 3457SOL    HW221831   4.509   4.548   1.790  1.4553 -1.3620 -1.5786
 3458SOL     OW21832   3.372   1.041   8.871  0.2558 -0.3212  0.5184
 3458SOL    HW121833   3.400   0.959   8.912  2.7339 -0.6976 -1.9217
 3458SOL    HW221834   3.329   1.083   8.945  0.4119 -0.0626  0.4620
 3459SOL     OW21835   4.013   0.515   1.138 -0.1537 -0.2143  0.1739
 3459SOL    HW121836   4.040   0.538   1.227  0.0534  0.2113  0.0001
 3459SOL    HW221837   4.089   0.545   1.088 -0.0647 -0.7051  0.0064
 3460SOL     OW21838   0.161   1.188  10.764  0.1711 -0.5107 -0.0919
 3460SOL    HW121839   0.133   1.247  10.694 -0.1236  0.6787  1.0385
 3460SOL    HW221840   0.079   1.152  10.798 -0.3472  0.2742 -0.5165
 3461SOL     OW21841   4.494   0.889  12.414 -0.0369 -0.0896 -0.4804
 3461SOL    HW121842   4.578   0.843  12.404  0.6677  0.8040  1.2282
 3461SOL    HW221843   4.468   0.900  12.323 -3.0072 -1.0907  0.2402
 3462SOL     OW21844   2.828   2.219   9.444 -0.1185 -0.2198  0.0349
 3462SOL    HW121845   2.923   2.210   9.451 -0.1016 -0.0486  0.0202
 3462SOL    HW221846   2.829   2.310   9.414 -0.8595 -0.4700 -0.7559
 3463SOL     OW21847   1.906   0.867  10.611 -0.3153 -0.1309  0.2015
 3463SOL    HW121848   1.860   0.788  10.637  1.0454 -1.1132 -0.3775
 3463SOL    HW221849   1.919   0.851  10.517  1.4040 -1.7435  0.7177
 3464SOL     OW21850   2.912   4.616   7.980  0.3957  0.1331  0.5877
 3464SOL    HW121851   2.946   4.643   8.066  0.1622 -2.2090  1.4190
 3464SOL    HW221852   2.929   4.690   7.922  1.0997 -0.2569  0.3008
 3465SOL     OW21853   0.168   1.915   8.787  0.5569 -0.2404  0.3932
 3465SOL    HW121854   0.076   1.897   8.768  0.6117 -0.1755  0.0503
 3465SOL    HW221855   0.174   1.894   8.880  0.5412 -1.1346  0.1948
 3466SOL     OW21856   1.311   4.121   4.576  0.5003  0.2457 -0.1924
 3466SOL    HW121857   1.343   4.038   4.541  0.2952 -0.0016  0.2052
 3466SOL    HW221858   1.270   4.095   4.659  1.8537  1.0548  0.7302
 3467SOL     OW21859   2.867   4.160   5.119 -0.9802 -0.4963 -0.3936
 3467SOL    HW121860   2.892   4.228   5.056 -0.8457 -1.4325 -1.3606
 3467SOL    HW221861   2.877   4.214   5.197 -0.2123 -1.5942  0.2623
 3468SOL     OW21862   3.763   0.341   2.363  0.6500  0.2197  0.3799
 3468SOL    HW121863   3.782   0.403   2.292 -0.2423  0.9746  0.7847
 3468SOL    HW221864   3.837   0.359   2.420  0.2476  0.7950  0.7268
 3469SOL     OW21865   3.247   2.332   4.582 -0.1666  0.0670 -0.5053
 3469SOL    HW121866   3.312   2.397   4.555 -1.1038  0.6977 -1.2265
 3469SOL    HW221867   3.307   2.262   4.607 -2.1007 -0.8254  1.5819
 3470SOL     OW21868   0.259   1.039   0.069  0.0394 -0.1704 -0.6843
 3470SOL    HW121869   0.261   1.100   0.142  1.6358  0.7185 -1.4799
 3470SOL    HW221870   0.313   1.076  17.700  0.7364 -2.1070 -1.1581
 3471SOL     OW21871   2.704   2.322   3.458 -0.5042  0.1850  0.0919
 3471SOL    HW121872   2.683   2.299   3.548 -1.2773  2.4188  0.4951
 3471SOL    HW221873   2.702   2.244   3.402  0.6546  0.9313 -0.9843
 3472SOL     OW21874   4.488   1.241   6.116 -0.2652  0.3270  0.5658
 3472SOL    HW121875   4.525   1.166   6.070  0.1255  0.5808  0.4700
 3472SOL    HW221876   4.457   1.295   6.043 -0.8892 -0.7467  0.0347
 3473SOL     OW21877   0.941   3.244   2.445 -0.0825  0.1108 -0.2537
 3473SOL    HW121878   0.980   3.170   2.399  0.7517  1.0791 -1.1006
 3473SOL    HW221879   0.994   3.318   2.415  1.5184 -0.4826  1.1217
 3474SOL     OW21880   2.336   1.919  10.965  0.7465 -0.6998 -0.0269
 3474SOL    HW121881   2.431   1.919  10.972  0.6830 -0.2938  0.8140
 3474SOL    HW221882   2.319   1.898  10.873  1.3973 -4.6676  0.7316
 3475SOL     OW21883   0.500   4.601   9.201 -0.0512 -0.4926  0.1623
 3475SOL    HW121884   0.459   4.684   9.224 -2.1455 -1.8169  1.2201
 3475SOL    HW221885   0.418   4.552   9.188 -0.6172 -0.1402  2.5163
 3476SOL     OW21886   3.721   2.938  10.959 -0.7665 -0.0357 -0.3154
 3476SOL    HW121887   3.814   2.916  10.950 -0.9561 -0.7711 -0.4663
 3476SOL    HW221888   3.706   2.954  11.052 -1.8984  1.1288 -0.6903
 3477SOL     OW21889   4.478   3.960   4.387  0.6120 -0.0261  0.0301
 3477SOL    HW121890   4.484   4.051   4.416  1.9002 -0.7276  1.9919
 3477SOL    HW221891   4.421   3.954   4.311  0.4645 -0.9699  0.2128
 3478SOL     OW21892   1.816   1.143   6.161  0.4793  0.4683 -0.1740
 3478SOL    HW121893   1.795   1.106   6.247 -3.5194 -0.8517 -1.7476
 3478SOL    HW221894   1.911   1.132   6.164  0.3629 -0.5180 -0.1315
 3479SOL     OW21895   2.669   4.281  10.132 -0.4045  0.5879  0.4964
 3479SOL    HW121896   2.598   4.317  10.185 -3.1345 -1.8868 -1.4518
 3479SOL    HW221897   2.691   4.213  10.196  1.4945  0.6562 -0.0943
 3480SOL     OW21898   1.348   1.981   8.527  0.2304 -0.4433  0.3415
 3480SOL    HW121899   1.295   1.902   8.525 -1.1934  0.4812  1.6533
 3480SOL    HW221900   1.339   2.012   8.617 -0.3164  0.0946  0.1023
 3481SOL     OW21901   3.409   3.186   5.590  0.1928  0.3107  0.0326
 3481SOL    HW121902   3.355   3.180   5.669  2.4261  0.0348  1.5479
 3481SOL    HW221903   3.345   3.173   5.520 -0.0065  2.5091 -0.1956
 3482SOL     OW21904   2.507   0.256   7.296 -0.1355 -0.5722 -0.6829
 3482SOL    HW121905   2.545   0.249   7.209  1.1636  1.1180 -0.2455
 3482SOL    HW221906   2.468   0.171   7.317 -1.9603  0.1081 -1.3398
 3483SOL     OW21907   3.939   4.684   1.802  0.3112  0.0448 -0.0960
 3483SOL    HW121908   3.970   0.000   1.882 -0.9744  1.7877 -0.4960
 3483SOL    HW221909   4.015   4.704   1.748  0.8105 -0.9911  0.2230
 3484SOL     OW21910   1.420   1.167   0.726  0.1875  0.2805  0.1775
 3484SOL    HW121911   1.483   1.145   0.794  0.4929  0.0185 -0.1924
 3484SOL    HW221912   1.431   1.262   0.726 -0.1124  0.3149  0.0131
 3485SOL     OW21913   0.038   3.975  12.276 -0.1559 -0.7266 -0.3469
 3485SOL    HW121914   0.045   3.984  12.371 -1.4420  1.9162 -0.5127
 3485SOL    HW221915   4.685   3.919  12.270 -0.0275 -0.9578  0.1228
 3486SOL     OW21916   0.838   1.540   3.761  0.4514 -0.5543 -0.5370
 3486SOL    HW121917   0.829   1.497   3.846  1.9365  1.9218  0.8524
 3486SOL    HW221918   0.811   1.466   3.706 -0.8666 -0.9589  0.6531
 3487SOL     OW21919   2.300   1.577   9.233  0.1575  0.2231  0.2058
 3487SOL    HW121920   2.286   1.582   9.327  0.8810 -3.1748  0.4972
 3487SOL    HW221921   2.238   1.643   9.199  1.3334  1.5051  0.5631
 3488SOL     OW21922   2.488   3.766  10.605 -0.1459 -0.4268 -0.2398
 3488SOL    HW121923   2.453   3.718  10.530 -1.1959 -1.0675  0.6648
 3488SOL    HW221924   2.580   3.740  10.611 -0.1693 -1.1210 -2.7659
 3489SOL     OW21925   2.304   0.981  11.336  0.0383 -0.3514 -0.1821
 3489SOL    HW121926   2.276   0.892  11.314 -0.4378 -0.1844 -0.2461
 3489SOL    HW221927   2.374   0.955  11.396 -0.7718 -1.7717  0.1643
 3490SOL     OW21928   2.639   0.026   9.336 -0.0262  0.0974 -0.1569
 3490SOL    HW121929   2.572   0.083   9.375 -0.4297 -0.9602  0.6959
 3490SOL    HW221930   2.596   4.718   9.257 -0.8688 -1.3413  0.9038
 3491SOL     OW21931   1.267   0.437   2.558 -0.3372 -0.1596  0.1885
 3491SOL    HW121932   1.359   0.413   2.571 -0.5870 -0.5361  1.3261
 3491SOL    HW221933   1.218   0.355   2.566 -2.7246  1.1828 -0.7112
 3492SOL     OW21934   1.611   2.926  11.160  0.7445  0.1259  0.2171
 3492SOL    HW121935   1.695   2.967  11.181  2.0310 -1.4828 -1.7321
 3492SOL    HW221936   1.557   2.961  11.231  1.2431 -0.9708  1.1361
 3493SOL     OW21937   0.711   2.820   5.939  0.8905 -0.0617 -0.1783
 3493SOL    HW121938   0.765   2.870   5.879  1.3802 -1.9241 -1.2925
 3493SOL    HW221939   0.663   2.890   5.983 -0.5629  0.7592 -3.0772
 3494SOL     OW21940   1.706   2.836   7.094 -0.1639  0.6843  0.2701
 3494SOL    HW121941   1.735   2.865   7.008 -0.5379  1.4658  0.4155
 3494SOL    HW221942   1.670   2.750   7.074 -0.8072  0.9133  0.4590
 3495SOL     OW21943   1.424   1.355   6.439  0.4503 -0.1227 -0.5975
 3495SOL    HW121944   1.403   1.388   6.526 -0.2664 -0.6580 -0.5698
 3495SOL    HW221945   1.444   1.263   6.459 -0.7839 -0.4329 -0.8276
 3496SOL     OW21946   4.466   0.498  13.476 -0.1433  1.0511 -0.3447
 3496SOL    HW121947   4.426   0.438  13.539 -3.0851  1.5444 -1.7586
 3496SOL    HW221948   4.484   0.575  13.530  1.5817  1.0459 -0.9202
 3497SOL     OW21949   1.650   4.592  13.726 -0.1808 -1.2749 -0.3865
 3497SOL    HW121950   1.660   4.638  13.643 -0.6440 -2.0160 -0.8503
 3497SOL    HW221951   1.740   4.575  13.755  0.2934 -0.1444 -1.2172
 3498SOL     OW21952   1.262   1.452   1.400  0.3071 -0.0044  0.2210
 3498SOL    HW121953   1.224   1.418   1.320 -0.7637  0.4597  0.5394
 3498SOL    HW221954   1.186   1.485   1.448  0.2237  1.3160 -0.8440
 3499SOL     OW21955   3.228   2.500   1.635 -0.6790  0.2988  0.1128
 3499SOL    HW121956   3.142   2.464   1.658 -1.2534  1.9613  0.5715
 3499SOL    HW221957   3.279   2.467   1.709 -0.1157  1.8073  0.3971
 3500SOL     OW21958   4.457   2.120   7.754 -0.6428 -0.0245  0.3137
 3500SOL    HW121959   4.547   2.120   7.786 -0.2345 -4.4179 -0.8477
 3500SOL    HW221960   4.416   2.160   7.831 -0.7569 -2.1283  1.3607
 3501SOL     OW21961   1.656   1.574   6.553  0.2396  0.5332  0.4308
 3501SOL    HW121962   1.643   1.584   6.459  1.1192  0.0976  0.2680
 3501SOL    HW221963   1.667   1.479   6.564  0.4847  0.4915 -0.1881
 3502SOL     OW21964   4.225   0.748   5.890 -0.3708  0.0089 -0.1595
 3502SOL    HW121965   4.194   0.823   5.840 -0.2300 -0.4744 -0.9865
 3502SOL    HW221966   4.207   0.675   5.829 -2.2662 -0.8769  1.4661
 3503SOL     OW21967   4.226   1.341   0.483  0.5057 -0.5964 -0.7778
 3503SOL    HW121968   4.189   1.254   0.469 -0.6368 -0.1790 -0.3608
 3503SOL    HW221969   4.307   1.328   0.433  3.0232  0.3650  3.0897
 3504SOL     OW21970   1.335   4.539  17.267 -0.5954 -0.7363  0.1948
 3504SOL    HW121971   1.334   4.613  17.327 -1.3769 -0.3779 -0.2603
 3504SOL    HW221972   1.428   4.528  17.247 -0.0965  2.3089  0.8754
 3505SOL     OW21973   0.269   2.049  10.669 -0.2807  0.1033  0.3725
 3505SOL    HW121974   0.213   2.048  10.747  0.1520  1.7821  0.7095
 3505SOL    HW221975   0.323   2.125  10.688 -0.0209  0.7538 -2.9631
 3506SOL     OW21976   4.637   3.360   7.646  0.1317  0.0150  0.5261
 3506SOL    HW121977   4.555   3.361   7.597  0.5082 -1.4325 -0.1102
 3506SOL    HW221978   4.606   3.300   7.713 -1.2070  0.0539 -0.0559
 3507SOL     OW21979   3.026   1.533   5.699  0.3104 -0.2375  0.7005
 3507SOL    HW121980   3.086   1.517   5.627  0.2635 -0.1098  0.6322
 3507SOL    HW221981   3.053   1.474   5.769 -0.5734 -1.5016 -0.0289
 3508SOL     OW21982   2.162   1.054   2.293 -0.1052 -0.0254 -0.1129
 3508SOL    HW121983   2.167   0.959   2.288 -0.5443 -0.0283 -0.5280
 3508SOL    HW221984   2.255   1.078   2.286 -0.6425  1.9907 -0.3560
 3509SOL     OW21985   0.496   1.159   0.011  0.2549 -0.2200  0.1489
 3509SOL    HW121986   0.547   1.078   0.003 -1.1557 -0.9509 -1.5928
 3509SOL    HW221987   0.519   1.188   0.099 -0.4366  2.4204 -0.5428
 3510SOL     OW21988   0.514   3.624   7.507  0.1103 -0.0923  0.0438
 3510SOL    HW121989   0.448   3.694   7.510 -0.0240 -0.1662 -1.0332
 3510SOL    HW221990   0.468   3.551   7.466  0.3824  0.9565 -2.1041
 3511SOL     OW21991   4.507   0.777   5.611  0.1311 -0.9207 -0.0626
 3511SOL    HW121992   4.536   0.809   5.525  0.3701  1.0953  0.7647
 3511SOL    HW221993   4.452   0.705   5.580  0.3695 -2.1019  2.2775
 3512SOL     OW21994   2.534   2.659  13.415 -0.1233 -0.1235  0.2369
 3512SOL    HW121995   2.518   2.753  13.427 -0.7067 -0.3929  1.6279
 3512SOL    HW221996   2.570   2.646  13.503 -1.3653  0.8481  0.8963
 3513SOL     OW21997   0.391   4.342   2.319 -0.4200 -0.7209  0.1872
 3513SOL    HW121998   0.309   4.325   2.365 -0.0656 -0.8506  0.7806
 3513SOL    HW221999   0.430   4.401   2.384  0.4909 -0.6473 -0.4272
 3514SOL     OW22000   4.522   0.945  11.150  0.2634 -0.5008 -0.3626
 3514SOL    HW122001   4.461   0.906  11.088 -0.5244 -1.4495  1.0063
 3514SOL    HW222002   4.506   1.035  11.123  3.0940  0.2260  0.3802
 3515SOL     OW22003   4.236   1.989   6.072 -0.3977  0.2462  0.0176
 3515SOL    HW122004   4.193   1.945   5.998 -1.8839  1.0733  0.3789
 3515SOL    HW222005   4.317   1.938   6.079 -0.6054 -0.2953 -1.5093
 3516SOL     OW22006   3.181   4.638   6.360  0.2629  0.8137  0.2037
 3516SOL    HW122007   3.168   4.603   6.272  1.3273 -2.4929  1.3582
 3516SOL    HW222008   3.250   4.704   6.352  0.0419  1.0419  0.1825
 3517SOL     OW22009   0.770   2.529   2.989 -0.3531  0.4267 -0.0308
 3517SOL    HW122010   0.723   2.612   2.994  2.4928  2.1118 -1.4044
 3517SOL    HW222011   0.824   2.535   2.910 -0.3631 -1.6368 -0.1950
 3518SOL     OW22012   4.646   3.406  14.529 -0.6362  0.0265 -0.1750
 3518SOL    HW122013   4.677   3.329  14.483  1.3809  2.0282 -2.1649
 3518SOL    HW222014   4.669   3.471  14.463  1.0619 -0.1064  0.2872
 3519SOL     OW22015   3.169   0.008   0.992 -0.6805 -0.3833  0.1205
 3519SOL    HW122016   3.205   0.027   1.079 -0.4883  2.2306 -0.5220
 3519SOL    HW222017   3.225   4.658   0.972 -0.2232 -0.2765  1.0251
 3520SOL     OW22018   2.393   4.094   6.917  0.2617  0.3865 -0.1214
 3520SOL    HW122019   2.397   4.034   6.991  0.7141 -0.4239 -0.7959
 3520SOL    HW222020   2.483   4.087   6.884  1.6436  1.1486  3.5386
 3521SOL     OW22021   2.708   4.272   3.025 -0.0908 -0.6105 -0.4237
 3521SOL    HW122022   2.720   4.186   3.065  1.8612 -1.1383 -2.1252
 3521SOL    HW222023   2.743   4.338   3.084 -1.2843  1.0884 -1.5696
 3522SOL     OW22024   1.215   1.195   2.899  0.7207  0.3226  0.2795
 3522SOL    HW122025   1.186   1.105   2.885 -0.1195  0.7620 -0.8535
 3522SOL    HW222026   1.293   1.174   2.949 -0.3315 -1.9330  0.9693
 3523SOL     OW22027   4.084   0.195   8.819 -0.0256 -0.1646  0.4088
 3523SOL    HW122028   4.070   0.194   8.913  1.6831 -0.4637  0.6674
 3523SOL    HW222029   4.031   0.275   8.811 -0.8019 -0.5519  1.7272
 3524SOL     OW22030   4.613   0.869   5.835 -0.1437 -0.4591 -0.1367
 3524SOL    HW122031   4.610   0.786   5.883  0.7935 -1.5425 -1.9505
 3524SOL    HW222032   4.575   0.846   5.750  0.6376  3.9013 -1.6540
 3525SOL     OW22033   4.357   1.455   3.676 -0.4634 -0.6159  0.1346
 3525SOL    HW122034   4.408   1.458   3.756  1.3881 -0.6262 -1.0545
 3525SOL    HW222035   4.394   1.376   3.636 -0.7083 -0.1782 -0.9735
 3526SOL     OW22036   1.925   3.699   3.262  0.3058  0.4484  0.1584
 3526SOL    HW122037   1.931   3.787   3.298  0.1228 -0.3218  2.1024
 3526SOL    HW222038   1.962   3.643   3.331  1.5274  2.6582  1.2666
 3527SOL     OW22039   3.747   3.121   2.812 -0.4189  0.2662 -0.3125
 3527SOL    HW122040   3.792   3.104   2.894 -1.2068 -3.0368 -0.5828
 3527SOL    HW222041   3.759   3.215   2.825 -1.6347  0.2222  1.0694
 3528SOL     OW22042   1.513   0.031  16.533  0.1927  0.0812 -0.2742
 3528SOL    HW122043   1.475   0.039  16.620  0.3929 -1.1814 -0.0601
 3528SOL    HW222044   1.524   0.119  16.497  2.5945  0.7530  2.1579
 3529SOL     OW22045   1.254   4.691   4.457 -0.0282 -0.2627 -1.0064
 3529SOL    HW122046   1.189   4.719   4.521  1.3122 -1.6246  0.9682
 3529SOL    HW222047   1.226   4.599   4.450  2.4490 -1.1303  0.5399
 3530SOL     OW22048   1.286   3.475   9.516  0.2578  0.6293  0.5631
 3530SOL    HW122049   1.220   3.469   9.447 -1.5303 -1.5261  2.4404
 3530SOL    HW222050   1.258   3.542   9.578 -1.0046  1.5510 -1.0012
 3531SOL     OW22051   2.403   3.154  12.681  0.1631 -0.0343  0.6347
 3531SOL    HW122052   2.483   3.157  12.734  0.6537  0.1654 -0.1119
 3531SOL    HW222053   2.372   3.243  12.695 -0.7992 -0.4843  1.3085
 3532SOL     OW22054   2.735   0.787   7.111 -0.1485  0.0774 -0.0130
 3532SOL    HW122055   2.712   0.880   7.104  0.9943  0.5907  3.2961
 3532SOL    HW222056   2.819   0.790   7.156  0.3614 -0.1539 -0.9497
 3533SOL     OW22057   4.488   1.874  15.365  0.3698 -0.1084 -0.6126
 3533SOL    HW122058   4.477   1.836  15.278  0.2625 -0.6577 -0.3619
 3533SOL    HW222059   4.502   1.796  15.420  1.6979 -1.0920 -2.3421
 3534SOL     OW22060   0.646   0.335   2.144 -0.1834 -0.1867 -0.6836
 3534SOL    HW122061   0.739   0.338   2.123 -0.1537 -1.1444 -0.6683
 3534SOL    HW222062   0.613   0.425   2.138  0.0227  0.0443  1.4655
 3535SOL     OW22063   2.063   2.297  12.678  0.0953  0.0343  0.2279
 3535SOL    HW122064   2.008   2.374  12.693  0.1683  0.2407 -0.5250
 3535SOL    HW222065   2.148   2.327  12.646 -0.4013  0.8800 -0.3030
 3536SOL     OW22066   3.591   2.395   4.234  0.3662 -0.3465 -0.0667
 3536SOL    HW122067   3.513   2.398   4.178  0.9126 -0.6407 -0.8447
 3536SOL    HW222068   3.552   2.442   4.308  0.6906  1.6896 -1.1807
 3537SOL     OW22069   4.516   3.024   6.534 -0.1425 -0.3870  0.3660
 3537SOL    HW122070   4.527   3.119   6.529 -0.2813 -0.3824  0.1500
 3537SOL    HW222071   4.436   3.007   6.483 -0.1581 -2.6559  1.1409
 3538SOL     OW22072   4.634   1.126  10.852 -0.0456 -0.1969  0.0218
 3538SOL    HW122073   4.551   1.110  10.809 -0.7543 -0.7814  1.5913
 3538SOL    HW222074   4.606   1.175  10.929 -1.0924 -0.3356 -0.2791
 3539SOL     OW22075   0.069   2.067  10.404  0.2524  0.2660 -0.4699
 3539SOL    HW122076   0.122   2.078  10.325 -0.0691  1.1891 -0.5532
 3539SOL    HW222077   0.105   2.141  10.453 -1.1261 -0.3264  1.4265
 3540SOL     OW22078   1.406   3.881  10.614  0.1111 -0.1170 -0.2720
 3540SOL    HW122079   1.441   3.965  10.645 -0.4910 -0.5314  1.5203
 3540SOL    HW222080   1.355   3.908  10.538 -1.4755 -1.8944  0.1621
 3541SOL     OW22081   3.258   3.218   6.131  0.0821  0.5800  0.4133
 3541SOL    HW122082   3.242   3.228   6.225  0.1965  1.6516  0.3110
 3541SOL    HW222083   3.350   3.193   6.127 -0.5017 -1.0608 -2.8141
 3542SOL     OW22084   4.259   0.740   3.271  0.5287  0.2801  0.3466
 3542SOL    HW122085   4.255   0.743   3.366  0.3214 -1.1915  0.3868
 3542SOL    HW222086   4.172   0.771   3.247  0.8563  0.7814 -0.1942
 3543SOL     OW22087   2.730   3.087   3.271  0.2609  0.4519  0.5425
 3543SOL    HW122088   2.734   3.183   3.273  1.9521  0.3945  0.1166
 3543SOL    HW222089   2.821   3.059   3.285  0.5715  1.1973 -0.0224
 3544SOL     OW22090   0.910   0.850   5.871  0.3989  0.4748  0.6242
 3544SOL    HW122091   0.890   0.940   5.848  1.0532  1.2883  3.2573
 3544SOL    HW222092   0.820   0.817   5.874  0.6955 -0.3044  1.2393
 3545SOL     OW22093   3.346   1.849   8.293  0.1691 -0.0678  0.6957
 3545SOL    HW122094   3.427   1.857   8.242 -0.7923  0.8526 -0.7057
 3545SOL    HW222095   3.298   1.781   8.245 -0.2974  0.0781  0.9548
 3546SOL     OW22096   4.338   3.062  12.354  0.5048  0.1782 -0.5699
 3546SOL    HW122097   4.263   3.046  12.297  0.1439 -0.2900  0.0369
 3546SOL    HW222098   4.305   3.142  12.394 -2.2926 -0.7227 -1.0701
 3547SOL     OW22099   2.733   3.617   1.249 -0.0057 -0.1671 -0.3002
 3547SOL    HW122100   2.694   3.635   1.163  0.6788  0.2647 -0.5199
 3547SOL    HW222101   2.657   3.630   1.305 -1.3020 -1.4457 -1.7462
 3548SOL     OW22102   1.552   3.597   6.097 -0.2025 -0.0540  0.4845
 3548SOL    HW122103   1.625   3.540   6.072 -0.0002  0.8506 -0.9933
 3548SOL    HW222104   1.477   3.541   6.078 -0.6283  0.3269  1.0510
 3549SOL     OW22105   3.283   2.950   8.902  0.1672  0.1671  0.3483
 3549SOL    HW122106   3.368   2.908   8.917  0.9202  0.9519 -1.8218
 3549SOL    HW222107   3.284   3.030   8.955 -2.3991 -0.2279  1.0230
 3550SOL     OW22108   4.681   2.593   3.376 -0.4141  0.5256  0.0944
 3550SOL    HW122109   4.699   2.661   3.311  0.1704  0.0266 -0.2645
 3550SOL    HW222110   0.037   2.597   3.427 -1.1821 -2.6198  1.5524
 3551SOL     OW22111   1.893   2.280   4.972  0.4607 -0.2710 -0.1736
 3551SOL    HW122112   1.835   2.307   5.045 -2.3619 -3.8551 -1.0941
 3551SOL    HW222113   1.841   2.313   4.899 -0.8524  0.9027  1.2549
 3552SOL     OW22114   2.387   3.053   2.865 -0.0562  0.5335  0.1019
 3552SOL    HW122115   2.466   3.046   2.918 -0.4689  1.5424  0.8557
 3552SOL    HW222116   2.349   3.127   2.912  0.6888  0.9196  0.0939
 3553SOL     OW22117   0.065   3.259   3.860  0.1259 -0.3588  0.4657
 3553SOL    HW122118   0.092   3.349   3.843 -0.5713  0.1029  1.8037
 3553SOL    HW222119   4.709   3.282   3.905  0.5921  0.7360  0.7432
 3554SOL     OW22120   0.354   4.468  12.197 -0.0180 -0.6874 -0.1145
 3554SOL    HW122121   0.294   4.452  12.269  1.5766 -0.4577  1.2661
 3554SOL    HW222122   0.349   4.390  12.141  0.4266 -1.4321  0.8955
 3555SOL     OW22123   4.315   0.187   6.012  0.6052  0.0164  0.1177
 3555SOL    HW122124   4.227   0.154   6.031  0.9320 -1.3509 -0.6925
 3555SOL    HW222125   4.366   0.111   5.984 -0.6137 -0.5615 -0.5345
 3556SOL     OW22126   0.098   3.118   2.841  0.2571  0.0135  0.1465
 3556SOL    HW122127   0.156   3.046   2.815  1.3117  0.6925  0.6060
 3556SOL    HW222128   0.015   3.087   2.804  0.2594  0.2714 -0.0799
 3557SOL     OW22129   1.601   3.552   6.412 -0.2796  0.5836  0.3972
 3557SOL    HW122130   1.533   3.533   6.348  0.2259 -3.2316  0.9765
 3557SOL    HW222131   1.544   3.544   6.489 -2.0942  0.2333 -0.9926
 3558SOL     OW22132   1.344   3.546  16.656  0.9297  0.1178  0.2547
 3558SOL    HW122133   1.407   3.545  16.728  0.3650 -1.0113  0.7353
 3558SOL    HW222134   1.319   3.638  16.650 -0.9877 -0.4695 -0.8367
 3559SOL     OW22135   3.202   3.652   7.066 -0.0180 -0.2501 -0.4353
 3559SOL    HW122136   3.194   3.745   7.048  0.4234 -0.0320  0.5063
 3559SOL    HW222137   3.284   3.637   7.020 -1.3625  2.2573 -3.6632
 3560SOL     OW22138   0.164   4.628   1.290  0.6414  0.2172  0.8753
 3560SOL    HW122139   0.190   4.718   1.309  2.5631 -0.1933  0.1118
 3560SOL    HW222140   0.072   4.644   1.312  0.7082  2.1338 -0.1658
 3561SOL     OW22141   3.596   3.871   9.619 -0.0925  0.3468 -0.4092
 3561SOL    HW122142   3.578   3.866   9.713 -0.9857 -0.5710 -0.6248
 3561SOL    HW222143   3.688   3.895   9.628  0.1922 -0.2254 -1.7827
 3562SOL     OW22144   3.687   3.192  11.779  0.4751 -0.3388 -0.1225
 3562SOL    HW122145   3.666   3.209  11.687  2.9998 -1.1418 -0.8322
 3562SOL    HW222146   3.782   3.190  11.767  0.6012 -0.3974  0.8369
 3563SOL     OW22147   0.390   3.577   6.461 -0.2981  0.1088  0.1084
 3563SOL    HW122148   0.326   3.649   6.460  1.1545  1.3796 -1.1251
 3563SOL    HW222149   0.349   3.532   6.535 -2.5309  3.5355  0.9834
 3564SOL     OW22150   3.059   1.976   5.113  0.4810 -0.6584 -0.0296
 3564SOL    HW122151   3.016   1.961   5.029 -0.9303 -0.3151  0.6484
 3564SOL    HW222152   3.005   2.045   5.151  0.8110 -0.7134  0.5534
 3565SOL     OW22153   3.659   1.272  11.267 -0.4234 -0.0008 -0.2155
 3565SOL    HW122154   3.732   1.333  11.281 -0.3257 -0.4983  1.3874
 3565SOL    HW222155   3.691   1.207  11.330 -0.7885  2.1251  2.1749
 3566SOL     OW22156   2.812   3.156  13.361 -0.5748 -0.2223 -0.0440
 3566SOL    HW122157   2.855   3.241  13.352  1.6614 -1.6401 -2.7703
 3566SOL    HW222158   2.810   3.129  13.269  0.3762  1.1234 -0.4498
 3567SOL     OW22159   4.376   1.171   2.334  0.0277 -0.1034 -0.0370
 3567SOL    HW122160   4.343   1.236   2.396 -1.2455 -0.7186 -0.0653
 3567SOL    HW222161   4.402   1.231   2.265 -0.7662 -1.9466 -1.9502
 3568SOL     OW22162   0.563   4.481  12.373  0.2326  0.1810 -0.6327
 3568SOL    HW122163   0.487   4.514  12.326  0.2555  0.8619 -0.2000
 3568SOL    HW222164   0.575   4.398  12.327  1.8877 -0.1428  0.3573
 3569SOL     OW22165   0.580   4.214   3.875  0.3023  0.6239 -0.0276
 3569SOL    HW122166   0.636   4.242   3.947 -0.7709  0.9457  0.6858
 3569SOL    HW222167   0.537   4.299   3.873 -1.5543 -0.2862  0.5524
 3570SOL     OW22168   2.468   1.473   3.410  0.0667  0.5232 -0.4592
 3570SOL    HW122169   2.449   1.523   3.489 -0.7874 -0.4836 -0.0191
 3570SOL    HW222170   2.447   1.384   3.438 -0.7400 -0.0291 -2.8075
 3571SOL     OW22171   1.116   3.172   4.278  0.2568 -0.1475 -0.0361
 3571SOL    HW122172   1.097   3.141   4.190  0.8949 -0.9807  0.1208
 3571SOL    HW222173   1.149   3.092   4.319 -2.5835 -0.6609  1.2474
 3572SOL     OW22174   0.805   4.217   2.310 -0.3072 -0.2830 -0.0050
 3572SOL    HW122175   0.856   4.238   2.388  0.1787 -1.0038 -0.1271
 3572SOL    HW222176   0.827   4.124   2.296 -0.5822 -0.1546 -1.3207
 3573SOL     OW22177   4.303   1.954   3.352 -0.2255 -0.1119  0.2552
 3573SOL    HW122178   4.343   1.958   3.266 -1.9334  0.3156 -0.5299
 3573SOL    HW222179   4.214   1.926   3.330 -0.9649 -0.3056  3.4412
 3574SOL     OW22180   3.972   4.049  13.095 -0.8557 -0.0257  0.0786
 3574SOL    HW122181   3.930   4.135  13.089  1.2023  0.8256 -1.9246
 3574SOL    HW222182   3.916   4.007  13.161  1.3581  0.4081  2.2464
 3575SOL     OW22183   4.069   2.490  10.052  0.4245  0.6731  0.5381
 3575SOL    HW122184   4.089   2.544   9.975 -1.2305 -0.3517 -0.5964
 3575SOL    HW222185   4.160   2.480  10.082  0.3099  0.2923  0.7517
 3576SOL     OW22186   0.628   3.716  12.184  0.2531  0.1203  0.0353
 3576SOL    HW122187   0.581   3.676  12.257 -0.4603  1.5973  0.3841
 3576SOL    HW222188   0.711   3.670  12.198  0.8873  1.2190 -0.1665
 3577SOL     OW22189   3.594   3.181   3.125  0.2049  0.2089 -0.1372
 3577SOL    HW122190   3.630   3.098   3.154 -2.6429 -0.8412  0.4049
 3577SOL    HW222191   3.672   3.222   3.088 -1.0832  0.2167 -2.8853
 3578SOL     OW22192   3.298   2.956   1.241  0.1761  0.5781  0.1253
 3578SOL    HW122193   3.379   2.906   1.249 -0.8493 -1.1505 -0.5881
 3578SOL    HW222194   3.281   2.976   1.333 -0.3975  2.6010 -0.4126
 3579SOL     OW22195   2.590   4.380   5.513 -0.3683  0.4923 -0.2559
 3579SOL    HW122196   2.609   4.446   5.579 -3.5276  0.4517  0.6950
 3579SOL    HW222197   2.606   4.296   5.556  0.6517 -0.0392 -1.6783
 3580SOL     OW22198   1.467   2.833   7.604 -0.0179 -0.1903  0.1530
 3580SOL    HW122199   1.384   2.874   7.630 -0.4722 -0.5168 -0.7859
 3580SOL    HW222200   1.515   2.914   7.586 -1.0204  0.6621  1.2913
 3581SOL     OW22201   2.277   2.394   9.391  0.2328 -0.1073 -0.1446
 3581SOL    HW122202   2.237   2.480   9.383 -0.0066  0.0006  2.2051
 3581SOL    HW222203   2.368   2.418   9.373  1.1413 -3.7238 -0.4709
 3582SOL     OW22204   2.616   3.989   4.447  0.1876 -0.0374 -0.6157
 3582SOL    HW122205   2.574   4.062   4.402 -1.2596 -1.5761 -1.7146
 3582SOL    HW222206   2.558   3.963   4.519  1.0785  0.3246  0.2357
 3583SOL     OW22207   4.157   4.597   4.696  0.4940 -0.2394  0.2875
 3583SOL    HW122208   4.215   4.646   4.754 -0.9069 -1.3477  2.6290
 3583SOL    HW222209   4.102   4.665   4.660 -0.1590 -0.0484  1.6327
 3584SOL     OW22210   3.531   0.033   8.253  0.3517  0.0250  0.0314
 3584SOL    HW122211   3.518   0.125   8.274  2.6382 -0.1395  2.1496
 3584SOL    HW222212   3.495   0.019   8.165 -0.1717 -1.0653  0.4059
 3585SOL     OW22213   0.956   4.310   7.351  0.0241 -0.2358  0.4663
 3585SOL    HW122214   0.987   4.243   7.412 -1.9250 -0.3264  1.3566
 3585SOL    HW222215   0.864   4.313   7.374 -0.1463  1.1008 -0.3515
 3586SOL     OW22216   4.225   3.523   6.227 -0.0753  0.1237  0.3474
 3586SOL    HW122217   4.285   3.556   6.160 -1.5833  3.1293  0.4587
 3586SOL    HW222218   4.258   3.577   6.299 -1.0922  1.2292 -0.0170
 3587SOL     OW22219   0.219   4.179   2.469 -0.0806 -0.0520  0.4036
 3587SOL    HW122220   0.201   4.097   2.423  0.9421 -0.2778  0.4124
 3587SOL    HW222221   0.311   4.168   2.493 -0.0843 -2.3594 -0.6864
 3588SOL     OW22222   0.547   1.557   3.627  0.4070 -0.0822  0.6284
 3588SOL    HW122223   0.621   1.575   3.570  1.1076  1.0969  1.9043
 3588SOL    HW222224   0.503   1.484   3.584  0.8868 -0.4510  0.7689
 3589SOL     OW22225   1.499   1.579   9.072 -0.3521  0.3713 -0.0814
 3589SOL    HW122226   1.521   1.506   9.129  0.7228  0.7479 -0.0113
 3589SOL    HW222227   1.403   1.577   9.078 -0.3664 -0.2535 -0.5238
 3590SOL     OW22228   0.600   3.544  16.679  0.1550 -0.1284 -0.0432
 3590SOL    HW122229   0.606   3.634  16.712 -0.4865 -0.0853 -0.0336
 3590SOL    HW222230   0.569   3.502  16.760 -1.7140 -0.6345 -1.0124
 3591SOL     OW22231   2.870   2.797   2.056 -0.3069 -0.3854  0.1638
 3591SOL    HW122232   2.826   2.749   2.126 -2.7411 -0.0187 -1.1438
 3591SOL    HW222233   2.917   2.721   2.020 -1.8957 -1.0967 -0.4027
 3592SOL     OW22234   1.370   2.074   1.660 -0.2444  0.7267  0.1835
 3592SOL    HW122235   1.405   2.068   1.571 -0.7424 -0.0255  0.0361
 3592SOL    HW222236   1.286   2.030   1.644 -0.0710  0.6380 -0.4879
 3593SOL     OW22237   3.414   3.967   4.098  0.4831 -0.1013 -0.3198
 3593SOL    HW122238   3.368   4.046   4.069  2.5873 -0.3243 -4.3043
 3593SOL    HW222239   3.365   3.952   4.178  1.7099  1.5959  0.7414
 3594SOL     OW22240   2.807   0.739  11.722 -0.2776  0.2448 -0.2112
 3594SOL    HW122241   2.825   0.645  11.721  0.7392  0.4253  0.3536
 3594SOL    HW222242   2.801   0.767  11.814  0.3387  0.3041 -0.1855
 3595SOL     OW22243   4.529   0.985   2.973  0.1464 -0.4792 -0.0973
 3595SOL    HW122244   4.465   1.036   3.023 -0.4211 -0.9327 -0.3603
 3595SOL    HW222245   4.572   1.063   2.938 -0.4450  0.6801  1.7381
 3596SOL     OW22246   4.086   4.521   6.653  0.1620  0.0779  0.0303
 3596SOL    HW122247   4.143   4.576   6.599  0.5324  0.7143  1.0643
 3596SOL    HW222248   4.006   4.574   6.651  0.6547  0.8710  1.7865
 3597SOL     OW22249   4.509   3.131   5.989 -0.4454 -0.3470 -0.2961
 3597SOL    HW122250   4.468   3.131   6.075 -1.6683  0.1652 -0.8769
 3597SOL    HW222251   4.494   3.040   5.966  1.5890 -0.4348 -1.3110
 3598SOL     OW22252   0.739   2.783   7.525  0.0298 -0.3090 -0.2444
 3598SOL    HW122253   0.761   2.831   7.605 -0.0939 -0.6289 -0.0165
 3598SOL    HW222254   0.706   2.699   7.558 -0.8932  0.0328 -0.3166
 3599SOL     OW22255   4.635   2.072   9.798  0.2729  0.2487 -0.0611
 3599SOL    HW122256   4.693   2.027   9.736 -0.6416  1.4193 -1.7866
 3599SOL    HW222257   4.593   1.997   9.840  0.8397 -0.2761 -0.4209
 3600SOL     OW22258   0.912   2.127   8.833  0.4442 -0.0714 -0.1475
 3600SOL    HW122259   0.982   2.089   8.886  1.6589 -2.3151 -3.3069
 3600SOL    HW222260   0.852   2.057   8.858  0.3300  0.0823  0.0054
 3601SOL     OW22261   3.241   0.163  13.204  0.4847  0.0743  0.1760
 3601SOL    HW122262   3.298   0.240  13.211  0.5971 -0.2479  2.5668
 3601SOL    HW222263   3.309   0.098  13.186  0.6919 -0.1623  1.8356
 3602SOL     OW22264   2.990   3.716  11.205  0.0863 -0.0938 -0.0821
 3602SOL    HW122265   2.900   3.693  11.183  0.9801 -3.1329 -0.6022
 3602SOL    HW222266   2.982   3.785  11.270  0.9934 -0.0909  0.0241
 3603SOL     OW22267   2.560   3.179  13.467  0.0536  0.3929 -0.4907
 3603SOL    HW122268   2.654   3.168  13.451  0.1264 -0.1027  0.2757
 3603SOL    HW222269   2.540   3.214  13.380  0.6698  0.8106 -0.4654
 3604SOL     OW22270   3.314   2.213   2.632 -0.5790 -0.1404 -0.2051
 3604SOL    HW122271   3.380   2.148   2.607  0.4569  1.1559 -0.8718
 3604SOL    HW222272   3.368   2.267   2.690  0.7216 -0.2906 -1.2548
 3605SOL     OW22273   3.132   1.783   7.943 -0.0281  0.0836 -0.2731
 3605SOL    HW122274   3.082   1.818   7.869  0.2557 -0.7813 -0.8719
 3605SOL    HW222275   3.095   1.839   8.012 -0.0622  0.4411 -0.5819
 3606SOL     OW22276   4.205   3.879  11.455 -0.0923  0.0776 -0.3812
 3606SOL    HW122277   4.202   3.785  11.438  2.6498 -0.0100 -0.4518
 3606SOL    HW222278   4.150   3.882  11.534  0.3810 -2.0050  0.0116
 3607SOL     OW22279   1.466   0.767   9.710 -0.2502  0.5506  0.2585
 3607SOL    HW122280   1.418   0.726   9.638  1.8181  0.5804 -1.1531
 3607SOL    HW222281   1.540   0.708   9.722  0.5156  1.4144 -0.2278
 3608SOL     OW22282   3.743   2.625  15.303  0.7520 -0.2647  0.3743
 3608SOL    HW122283   3.794   2.584  15.373  0.7986  1.4097  1.3275
 3608SOL    HW222284   3.683   2.553  15.282  0.9153 -0.0564 -0.7778
 3609SOL     OW22285   0.795   0.241  12.763 -0.5596  0.1643 -0.1371
 3609SOL    HW122286   0.779   0.148  12.775 -2.6780  0.8189  2.0310
 3609SOL    HW222287   0.789   0.243  12.667 -0.2450 -2.0551 -0.1983
 3610SOL     OW22288   3.091   0.600   7.724 -0.5901 -0.2359  0.7457
 3610SOL    HW122289   3.114   0.692   7.729 -0.8700 -0.0907 -0.6143
 3610SOL    HW222290   3.001   0.613   7.696 -1.5316 -3.0939  2.3908
 3611SOL     OW22291   4.395   3.950  13.864 -0.2487 -0.0786  0.3002
 3611SOL    HW122292   4.480   3.916  13.890 -0.0073  0.2072 -0.1009
 3611SOL    HW222293   4.399   3.915  13.775 -0.6928 -0.3978  0.4046
 3612SOL     OW22294   0.895   1.809   3.737  0.3944 -0.4145  0.2046
 3612SOL    HW122295   0.861   1.723   3.761 -0.7077  0.4953  1.9574
 3612SOL    HW222296   0.863   1.822   3.648  2.1045 -2.3904 -0.7116
 3613SOL     OW22297   3.430   2.500   8.167 -0.4108 -0.2447 -0.4031
 3613SOL    HW122298   3.481   2.542   8.099  0.0356  0.2883  0.2672
 3613SOL    HW222299   3.499   2.447   8.207  0.0854  1.1224  0.5469
 3614SOL     OW22300   4.534   3.547   3.372 -0.1726  0.0964 -0.6275
 3614SOL    HW122301   4.565   3.505   3.292  1.2326  1.7137 -0.9385
 3614SOL    HW222302   4.440   3.544   3.351 -0.6328 -1.2443  1.6362
 3615SOL     OW22303   4.098   3.464   5.490 -0.4618  0.6030 -0.2277
 3615SOL    HW122304   4.012   3.504   5.499  0.1136  1.6469  0.7377
 3615SOL    HW222305   4.152   3.543   5.494 -0.2724  0.5335 -1.4259
 3616SOL     OW22306   3.590   0.979   2.996 -0.4202  0.3099  0.3166
 3616SOL    HW122307   3.630   0.925   3.064 -0.8662  0.1386  0.4424
 3616SOL    HW222308   3.602   1.065   3.038  0.2296  0.5442 -0.3448
 3617SOL     OW22309   4.602   1.247  14.741  0.0478 -0.5809  0.1057
 3617SOL    HW122310   4.668   1.275  14.804 -0.4593 -0.0476  0.3987
 3617SOL    HW222311   4.623   1.312  14.674 -2.5742  0.0937 -0.0958
 3618SOL     OW22312   3.175   3.569  11.627 -0.2623  0.4043  0.4147
 3618SOL    HW122313   3.133   3.619  11.697  0.7783 -1.4446  2.3920
 3618SOL    HW222314   3.268   3.567  11.649 -0.6820 -2.3528  1.9593
 3619SOL     OW22315   3.208   2.096   4.357  0.0426 -0.0661  0.3335
 3619SOL    HW122316   3.145   2.168   4.355 -0.6131 -0.7802 -3.7457
 3619SOL    HW222317   3.277   2.122   4.296  1.2717 -0.5502  1.5035
 3620SOL     OW22318   1.631   2.457  12.800 -0.1046 -0.2525  0.4529
 3620SOL    HW122319   1.563   2.474  12.866 -0.9201 -3.0015  0.3120
 3620SOL    HW222320   1.581   2.460  12.719 -0.2127  0.5108  0.5402
 3621SOL     OW22321   1.887   3.510   7.261  0.5041 -0.3509  0.0348
 3621SOL    HW122322   1.813   3.482   7.316  0.0211 -1.4409 -1.1760
 3621SOL    HW222323   1.948   3.549   7.325  1.0972 -1.7041  0.2915
 3622SOL     OW22324   2.409   3.463  12.680 -0.2459 -0.3777 -0.0528
 3622SOL    HW122325   2.443   3.542  12.720 -0.7786  0.0983 -0.5268
 3622SOL    HW222326   2.315   3.480  12.687 -0.7153 -1.8376 -2.6789
 3623SOL     OW22327   0.661   4.209   0.801  0.0701 -0.4123 -0.6746
 3623SOL    HW122328   0.625   4.128   0.767  1.0047 -1.3309  0.5485
 3623SOL    HW222329   0.577   4.240   0.835 -0.5651 -0.7867 -1.9105
 3624SOL     OW22330   2.953   0.671   2.362  0.4194 -0.3044  0.1994
 3624SOL    HW122331   3.040   0.671   2.402  0.8928  0.4451 -0.8435
 3624SOL    HW222332   2.914   0.601   2.415  0.1585 -1.2548 -1.2369
 3625SOL     OW22333   2.549   2.879   2.068 -0.0865  0.0582  0.1329
 3625SOL    HW122334   2.559   2.888   2.163 -1.3642 -0.5139  0.3230
 3625SOL    HW222335   2.629   2.920   2.034  0.5750  0.2556  1.9431
 3626SOL     OW22336   0.131   0.221   3.537  0.3747  0.8043  0.7139
 3626SOL    HW122337   0.086   0.276   3.474 -0.2414  0.7128  1.0818
 3626SOL    HW222338   0.224   0.230   3.514 -0.4878  0.3574 -2.9482
 3627SOL     OW22339   1.381   3.186  13.537  0.1531  0.0373  0.0099
 3627SOL    HW122340   1.475   3.176  13.552  0.1588  2.2040  1.5415
 3627SOL    HW222341   1.356   3.098  13.511 -1.3734  0.5684 -0.3110
 3628SOL     OW22342   3.280   0.212   0.226 -0.8655 -0.2656 -0.0266
 3628SOL    HW122343   3.264   0.232   0.134  1.0882 -0.2580 -0.3757
 3628SOL    HW222344   3.347   0.143   0.227 -0.4755  0.1220  0.3420
 3629SOL     OW22345   2.087   1.279   3.431  0.8613  0.2122  0.1530
 3629SOL    HW122346   2.176   1.243   3.438  1.3551  1.6395  1.1624
 3629SOL    HW222347   2.058   1.279   3.340  0.2430 -0.0786  0.3495
 3630SOL     OW22348   3.624   0.176   4.635 -0.0619  0.4280  0.1638
 3630SOL    HW122349   3.559   0.194   4.704  0.1158  0.3536  0.3515
 3630SOL    HW222350   3.697   0.177   4.697 -0.0830  1.8686  0.1858
 3631SOL     OW22351   2.887   2.451  15.510  0.2365  0.4623  0.3781
 3631SOL    HW122352   2.949   2.453  15.583  0.6693 -0.7373  0.0491
 3631SOL    HW222353   2.942   2.462  15.432  2.1939 -1.7458  1.4779
 3632SOL     OW22354   2.235   2.584   7.719 -0.4611 -0.0006  0.2407
 3632SOL    HW122355   2.207   2.535   7.797  1.2987 -0.3792  0.6233
 3632SOL    HW222356   2.233   2.668   7.766 -2.3135 -0.2851  0.7023
 3633SOL     OW22357   0.556   3.464   3.185 -0.3307 -0.2302  0.3606
 3633SOL    HW122358   0.644   3.501   3.184 -0.7843  0.8965  1.3606
 3633SOL    HW222359   0.553   3.405   3.110  0.6256 -0.1239  0.2381
 3634SOL     OW22360   2.420   0.509   5.651  0.0197 -0.6934  0.0801
 3634SOL    HW122361   2.359   0.534   5.582  0.8521  0.0412 -0.3778
 3634SOL    HW222362   2.377   0.545   5.729  0.8632  1.6211 -0.5622
 3635SOL     OW22363   3.090   2.707   8.359  0.4252  0.0483  0.1013
 3635SOL    HW122364   3.142   2.752   8.426 -1.6898 -0.1476  1.8450
 3635SOL    HW222365   3.001   2.728   8.385 -0.1454 -0.3613 -1.5828
 3636SOL     OW22366   2.811   3.959   1.620 -0.7252  0.8024  1.0034
 3636SOL    HW122367   2.766   3.877   1.600  1.2318 -0.2617  0.8961
 3636SOL    HW222368   2.842   3.943   1.709  0.2016 -2.4070  0.1400
 3637SOL     OW22369   2.372   1.250   3.820  0.5737  0.2287  0.3339
 3637SOL    HW122370   2.315   1.280   3.891  0.8399  0.0107  0.6395
 3637SOL    HW222371   2.418   1.175   3.858 -0.8040 -0.8239 -0.0539
 3638SOL     OW22372   4.074   1.500   3.677  0.0015 -0.2172  0.5697
 3638SOL    HW122373   4.161   1.461   3.669 -0.2066 -0.1707 -1.9128
 3638SOL    HW222374   4.085   1.583   3.725 -0.0907  0.9915 -1.5042
 3639SOL     OW22375   3.034   4.172  15.516 -0.0958 -0.5798  0.5381
 3639SOL    HW122376   3.125   4.143  15.519  0.8597  2.6751  1.9397
 3639SOL    HW222377   3.010   4.182  15.608  1.3093  2.5902  0.5556
 3640SOL     OW22378   0.050   1.419  14.833  0.1140  0.3325  1.0011
 3640SOL    HW122379   0.133   1.371  14.827 -0.4048 -0.5240  0.6130
 3640SOL    HW222380   0.056   1.460  14.747 -0.0040 -0.5847  0.5513
 3641SOL     OW22381   2.042   0.006   4.652 -0.2403  0.0271  0.0263
 3641SOL    HW122382   2.015   0.020   4.743  2.6987 -1.7811  1.2106
 3641SOL    HW222383   2.068   4.639   4.647 -3.0629 -0.6241 -2.1041
 3642SOL     OW22384   3.203   1.924   3.594  0.2354  0.5874  0.0430
 3642SOL    HW122385   3.205   1.829   3.584  0.4311  0.3835  1.9723
 3642SOL    HW222386   3.111   1.946   3.581 -0.2530 -0.6013  1.4298
 3643SOL     OW22387   3.530   2.965   2.808 -0.5037 -0.3698 -0.0617
 3643SOL    HW122388   3.621   2.990   2.792 -1.4947  1.3568 -2.9003
 3643SOL    HW222389   3.479   3.041   2.834 -0.7457 -0.1939 -1.0424
 3644SOL     OW22390   3.879   0.846   3.500 -0.3441  0.2901 -0.4292
 3644SOL    HW122391   3.846   0.931   3.527 -0.0286 -0.1381  1.3645
 3644SOL    HW222392   3.973   0.865   3.495 -0.4957  1.7971  2.6022
 3645SOL     OW22393   3.827   1.862   9.754  0.4008  0.3888 -0.2020
 3645SOL    HW122394   3.889   1.934   9.761 -1.1932  1.7539 -0.2152
 3645SOL    HW222395   3.771   1.878   9.830  1.0897 -2.1098  0.8494
 3646SOL     OW22396   4.371   2.807   4.747  0.1609 -0.2957 -0.4746
 3646SOL    HW122397   4.394   2.715   4.760 -0.3451 -0.4907 -0.9888
 3646SOL    HW222398   4.283   2.804   4.712  0.0250 -0.4381 -0.1226
 3647SOL     OW22399   0.452   2.120   1.847  0.4683 -0.1479 -0.3496
 3647SOL    HW122400   0.367   2.077   1.844 -0.8422  2.3817  0.0837
 3647SOL    HW222401   0.437   2.194   1.907 -2.0700 -0.1427 -1.0084
 3648SOL     OW22402   4.339   1.772  14.176 -0.6517  0.1642  0.5370
 3648SOL    HW122403   4.307   1.791  14.088 -0.3527 -1.1390  0.1511
 3648SOL    HW222404   4.254   1.770  14.219 -0.2964  4.3483  1.3975
 3649SOL     OW22405   0.277   0.525   7.919 -0.3578 -0.3096 -0.4569
 3649SOL    HW122406   0.359   0.499   7.962 -1.1835 -1.6808  0.2640
 3649SOL    HW222407   0.289   0.490   7.831  3.5473  2.1205 -0.9300
 3650SOL     OW22408   1.260   4.402   8.753  0.1240  0.4652 -0.1804
 3650SOL    HW122409   1.172   4.424   8.724  0.7653  2.2545 -0.7774
 3650SOL    HW222410   1.240   4.339   8.822 -0.8030  0.1207 -0.7704
 3651SOL     OW22411   2.634   1.917   5.388  0.1042 -0.0218  0.1800
 3651SOL    HW122412   2.570   1.945   5.454 -0.5758  3.8377 -2.0995
 3651SOL    HW222413   2.645   2.002   5.345  0.1321 -1.4142 -2.5424
 3652SOL     OW22414   0.246   3.308   5.910 -0.6594  0.6162 -0.0418
 3652SOL    HW122415   0.159   3.331   5.943 -1.4573  1.4343 -2.7706
 3652SOL    HW222416   0.246   3.227   5.961 -0.5147 -0.4748 -1.7881
 3653SOL     OW22417   2.526   1.800   7.445  0.1800 -0.0489 -0.3560
 3653SOL    HW122418   2.604   1.853   7.427 -0.8938  1.4139 -0.7063
 3653SOL    HW222419   2.525   1.746   7.366 -1.4750 -2.3985  1.2936
 3654SOL     OW22420   3.830   4.698   8.041  0.1482  0.4507  0.1832
 3654SOL    HW122421   3.812   4.607   8.017  1.3822  0.6904 -1.6836
 3654SOL    HW222422   3.925   4.705   8.038  0.0518  1.2295 -0.9927
 3655SOL     OW22423   2.116   2.900   4.454 -0.2152 -0.1596  1.1190
 3655SOL    HW122424   2.068   2.914   4.536  0.4467  1.7380  1.1740
 3655SOL    HW222425   2.164   2.823   4.485  0.2187 -1.3998 -2.6952
 3656SOL     OW22426   4.193   0.018   7.146 -0.2430  0.4660  0.2065
 3656SOL    HW122427   4.141   0.093   7.174  2.4686  2.2015  0.5749
 3656SOL    HW222428   4.241   0.002   7.227  2.2431  0.2490 -1.3068
 3657SOL     OW22429   1.928   3.827  14.583  0.0132  0.1817  0.2570
 3657SOL    HW122430   1.933   3.881  14.662  2.8326  0.9886 -0.4590
 3657SOL    HW222431   2.017   3.793  14.589  0.0915  0.2431 -0.5133
 3658SOL     OW22432   2.345   2.728  13.186 -0.8759 -0.1642  0.1378
 3658SOL    HW122433   2.349   2.783  13.108 -0.7533 -0.1469  0.1571
 3658SOL    HW222434   2.437   2.705  13.197 -0.4703 -0.0211 -2.9216
 3659SOL     OW22435   1.681   2.780   8.428 -0.0308  0.0357  0.7553
 3659SOL    HW122436   1.586   2.785   8.437 -0.0825  0.8130 -0.0901
 3659SOL    HW222437   1.709   2.733   8.506  2.1190 -0.0266 -0.0536
 3660SOL     OW22438   4.348   2.654   2.074  0.7607  0.0984  0.3215
 3660SOL    HW122439   4.377   2.685   2.160 -0.4529  1.4747  0.2214
 3660SOL    HW222440   4.280   2.590   2.097 -1.0774  1.5514 -1.1142
 3661SOL     OW22441   1.913   2.395   3.860  0.0270  0.2424  0.5625
 3661SOL    HW122442   1.849   2.357   3.920 -1.1880  1.3196 -0.0637
 3661SOL    HW222443   1.926   2.484   3.894 -2.0900  0.7824 -0.0164
 3662SOL     OW22444   3.004   1.667   5.952 -0.0225  0.1177  0.1688
 3662SOL    HW122445   3.004   1.759   5.980 -0.2956 -0.1494  1.0286
 3662SOL    HW222446   3.050   1.664   5.868  2.3131 -1.3750  1.4829
 3663SOL     OW22447   2.476   2.447  13.999 -0.3115  0.5523  0.8393
 3663SOL    HW122448   2.492   2.417  13.910  1.2446  1.9846  0.6283
 3663SOL    HW222449   2.383   2.470  13.994 -0.5200 -0.2721  0.9205
 3664SOL     OW22450   1.764   4.276   5.310  0.3238 -0.3685 -0.1432
 3664SOL    HW122451   1.701   4.294   5.381  1.5673 -0.3494  0.9572
 3664SOL    HW222452   1.772   4.182   5.331 -0.8355 -0.7698 -1.5115
 3665SOL     OW22453   3.059   2.440  15.712 -0.4878  0.4698 -0.7301
 3665SOL    HW122454   3.146   2.481  15.710 -0.3359  0.1958  0.1163
 3665SOL    HW222455   3.080   2.356  15.753 -0.5474  1.4509  1.3253
 3666SOL     OW22456   2.616   2.380  15.532 -0.2049  0.3886 -0.1258
 3666SOL    HW122457   2.705   2.395  15.500 -1.0215  0.5363 -2.3689
 3666SOL    HW222458   2.601   2.451  15.593  0.3828  0.8366 -0.4975
 3667SOL     OW22459   0.242   4.198  15.281 -0.2134 -0.1626  0.2224
 3667SOL    HW122460   0.167   4.235  15.327  0.7208 -0.2244  1.8203
 3667SOL    HW222461   0.217   4.231  15.195  1.4384  1.4489  0.3598
 3668SOL     OW22462   1.537   2.581   4.688 -0.9893 -0.0962  0.7338
 3668SOL    HW122463   1.489   2.594   4.770 -0.9545 -0.0065  0.7393
 3668SOL    HW222464   1.479   2.520   4.641 -0.4620  0.7847 -1.0476
 3669SOL     OW22465   3.995   4.669   8.467 -0.2672  0.3157  0.2541
 3669SOL    HW122466   4.048   0.002   8.412  1.5401  0.6468  2.3470
 3669SOL    HW222467   3.914   4.677   8.417  1.3001 -1.0569 -2.5229
 3670SOL     OW22468   0.539   4.442   2.590  0.7864  0.1266  0.4612
 3670SOL    HW122469   0.528   4.526   2.633 -1.7881 -0.4903  0.9643
 3670SOL    HW222470   0.513   4.383   2.661  2.9406  2.2758  3.0604
 3671SOL     OW22471   0.831   4.685   5.954 -0.2840 -0.6769  0.0771
 3671SOL    HW122472   0.874   4.612   5.909 -1.0831 -1.2797  0.2872
 3671SOL    HW222473   0.842   0.025   5.885 -0.1077  0.9957  1.6764
 3672SOL     OW22474   0.723   2.864  11.140  0.5244 -0.3069 -0.5815
 3672SOL    HW122475   0.634   2.838  11.118  0.2682 -2.0694  2.5070
 3672SOL    HW222476   0.729   2.917  11.060  1.0459  0.0805 -0.2861
 3673SOL     OW22477   3.022   1.181   5.176 -0.2656 -0.1406 -0.1537
 3673SOL    HW122478   2.953   1.194   5.241  0.3713  0.9985  0.2856
 3673SOL    HW222479   3.068   1.109   5.219  0.4049 -0.8955 -2.1091
 3674SOL     OW22480   3.929   1.987  10.773 -0.0426 -0.1944 -0.4704
 3674SOL    HW122481   3.838   2.012  10.793  0.4163  0.3178  1.0020
 3674SOL    HW222482   3.976   2.059  10.814 -0.8569 -0.3912  0.7986
 3675SOL     OW22483   4.712   4.189   7.111 -0.0386 -0.1564  0.8550
 3675SOL    HW122484   0.077   4.222   7.110 -0.3638  0.7087 -0.3469
 3675SOL    HW222485   4.699   4.216   7.202  1.4182  0.0992  0.9945
 3676SOL     OW22486   1.862   3.847   4.757 -0.5928 -0.3033  0.2064
 3676SOL    HW122487   1.840   3.770   4.704  1.8402 -0.4395 -0.5934
 3676SOL    HW222488   1.943   3.882   4.721 -1.5967  2.7819  0.9818
 3677SOL     OW22489   4.399   2.167  12.217 -0.6908 -0.0705 -0.2941
 3677SOL    HW122490   4.455   2.110  12.270 -1.0200 -0.3599 -0.2564
 3677SOL    HW222491   4.435   2.141  12.133  0.2073  2.5349 -0.6924
 3678SOL     OW22492   1.643   1.407   8.884  0.9866  0.1813 -0.3280
 3678SOL    HW122493   1.595   1.407   8.802  0.5349 -1.5187 -0.0691
 3678SOL    HW222494   1.639   1.499   8.908 -1.1780  0.3098 -1.1997
 3679SOL     OW22495   1.952   1.287   2.931 -0.0348  0.1737 -0.1722
 3679SOL    HW122496   2.039   1.327   2.928  0.5401 -1.2039 -1.5367
 3679SOL    HW222497   1.899   1.361   2.903 -0.6053  0.3122  1.2571
 3680SOL     OW22498   1.609   3.024   8.640 -0.4556  0.6514 -0.2558
 3680SOL    HW122499   1.629   2.961   8.709  0.4005  0.1913 -0.9108
 3680SOL    HW222500   1.540   2.977   8.594 -0.7227 -0.1544  0.9939
 3681SOL     OW22501   3.026   0.337   6.825 -0.1764 -0.2017  0.2052
 3681SOL    HW122502   2.964   0.406   6.801  1.3789  0.2641 -2.4134
 3681SOL    HW222503   2.980   0.257   6.800 -2.0647  0.8800  0.2334
 3682SOL     OW22504   0.340   1.831   0.931 -0.1673 -0.3339 -0.0821
 3682SOL    HW122505   0.400   1.905   0.922 -1.5837  0.6437 -1.3818
 3682SOL    HW222506   0.258   1.873   0.953  1.6851  2.5157  1.3675
 3683SOL     OW22507   0.584   4.251   8.825 -0.1753 -0.7672  0.3223
 3683SOL    HW122508   0.609   4.333   8.867 -0.8066 -0.5266  0.2279
 3683SOL    HW222509   0.494   4.243   8.856 -0.0600 -0.5741  0.7166
 3684SOL     OW22510   3.919   1.733  13.572  0.7038  0.1160 -0.6502
 3684SOL    HW122511   3.943   1.822  13.598 -2.1913 -0.0014  2.4141
 3684SOL    HW222512   4.007   1.698  13.558 -0.1478 -2.7087  1.1021
 3685SOL     OW22513   3.746   1.648   9.160 -0.2123  0.2085  0.1110
 3685SOL    HW122514   3.666   1.636   9.109 -0.8259 -1.9748  1.5864
 3685SOL    HW222515   3.794   1.725   9.129 -0.3658 -0.2282 -1.2179
 3686SOL     OW22516   3.102   3.595   0.691  0.3461 -0.5960  0.0078
 3686SOL    HW122517   3.107   3.682   0.730  1.1311 -0.6629  0.0449
 3686SOL    HW222518   3.055   3.544   0.757  0.5179 -1.0706 -0.2376
 3687SOL     OW22519   3.048   4.202  17.394 -0.2010 -0.1564  0.6589
 3687SOL    HW122520   3.098   4.280  17.420  1.4317 -0.8407 -0.4522
 3687SOL    HW222521   3.022   4.174  17.482 -0.8100 -1.7920 -0.0444
 3688SOL     OW22522   3.757   2.410   0.511  1.0238  0.7692  0.0137
 3688SOL    HW122523   3.709   2.328   0.497  1.9374 -0.1607  2.3756
 3688SOL    HW222524   3.687   2.472   0.488  0.7135 -0.8256 -3.3810
 3689SOL     OW22525   2.615   2.502  13.631  0.1888  0.1296  0.0570
 3689SOL    HW122526   2.648   2.440  13.566 -1.1602 -0.3545 -0.1786
 3689SOL    HW222527   2.532   2.463  13.659 -0.3532 -0.1464 -1.8939
 3690SOL     OW22528   4.656   0.910   7.497  0.1468  0.3618  0.2234
 3690SOL    HW122529   4.622   0.886   7.410 -0.5087  0.4388  0.4554
 3690SOL    HW222530   0.020   0.875   7.501 -0.1177 -0.3243  0.2605
 3691SOL     OW22531   1.390   3.503   4.436  0.3689 -0.4812 -0.5445
 3691SOL    HW122532   1.485   3.515   4.444  0.3506 -0.0935 -0.9373
 3691SOL    HW222533   1.391   3.407   4.438  4.3193 -0.4568 -2.1128
 3692SOL     OW22534   2.344   3.527  14.865  0.6395 -0.2690  0.3982
 3692SOL    HW122535   2.352   3.617  14.898 -2.0163  0.4065 -0.8314
 3692SOL    HW222536   2.375   3.481  14.943  2.0341  0.6744  0.4146
 3693SOL     OW22537   3.145   3.322  13.847  0.1106 -0.2168 -0.1227
 3693SOL    HW122538   3.177   3.234  13.870 -0.5057 -0.3247  0.3181
 3693SOL    HW222539   3.120   3.356  13.932 -0.4577 -2.4536  0.6116
 3694SOL     OW22540   1.564   2.944   7.940  0.4321  0.3654 -0.0485
 3694SOL    HW122541   1.483   2.972   7.897 -0.3996  0.4314  1.5443
 3694SOL    HW222542   1.535   2.864   7.983  0.5661 -0.1896 -1.0096
 3695SOL     OW22543   1.495   1.461   8.664 -0.2209 -0.1517 -0.3330
 3695SOL    HW122544   1.448   1.435   8.584 -1.0696 -1.4765  0.6097
 3695SOL    HW222545   1.428   1.510   8.712 -0.0735  0.9623 -1.2452
 3696SOL     OW22546   1.082   1.483   7.289 -0.6651  0.0959 -0.1396
 3696SOL    HW122547   1.115   1.393   7.293 -1.1039 -0.1622 -2.0571
 3696SOL    HW222548   1.158   1.537   7.313 -0.3128 -0.3880 -0.1693
 3697SOL     OW22549   3.446   4.185   8.333 -0.4369  0.5265  0.4259
 3697SOL    HW122550   3.364   4.228   8.311 -1.3060 -2.9200 -3.1387
 3697SOL    HW222551   3.414   4.095   8.343  0.5107  0.3965  2.3495
 3698SOL     OW22552   3.880   1.725   4.580 -0.1362  0.0842  0.3292
 3698SOL    HW122553   3.808   1.687   4.530 -1.2532  2.2484  0.3259
 3698SOL    HW222554   3.842   1.763   4.659  0.0792 -0.9991  0.9511
 3699SOL     OW22555   0.057   4.456  14.763  0.0255 -0.3323 -0.0100
 3699SOL    HW122556   0.150   4.469  14.782  0.3329 -0.7529 -1.1987
 3699SOL    HW222557   0.028   4.493  14.846 -0.1068  0.8432 -0.5648
 3700SOL     OW22558   4.125   3.828   0.630  0.0588 -0.3068  0.1628
 3700SOL    HW122559   4.049   3.876   0.598  1.4550  1.4978 -0.4613
 3700SOL    HW222560   4.126   3.755   0.568 -0.4689  0.5099 -0.7928
 3701SOL     OW22561   4.692   1.565   5.439 -0.0800 -0.3608  0.2962
 3701SOL    HW122562   4.656   1.487   5.483 -0.0171 -0.1864  0.6567
 3701SOL    HW222563   4.688   1.630   5.510 -1.5008 -1.3505  1.1331
 3702SOL     OW22564   2.778   4.305   8.819 -0.0511 -0.0166  0.1228
 3702SOL    HW122565   2.811   4.250   8.890 -0.1110  2.1051  1.7823
 3702SOL    HW222566   2.740   4.242   8.757 -1.2490 -0.1948  1.0532
 3703SOL     OW22567   0.230   0.730  10.736 -0.5682  0.6697  0.1236
 3703SOL    HW122568   0.144   0.773  10.741 -1.0694 -0.4908  1.6193
 3703SOL    HW222569   0.240   0.702  10.827 -1.5669  0.7474  0.2615
 3704SOL     OW22570   3.286   3.522   5.659 -0.2248 -0.0208 -0.6317
 3704SOL    HW122571   3.196   3.554   5.654  0.6891  2.9451  1.5264
 3704SOL    HW222572   3.312   3.537   5.568 -1.0972  1.1973 -0.6824
 3705SOL     OW22573   0.026   2.343   2.789 -0.4233  0.2537  0.1485
 3705SOL    HW122574   0.049   2.369   2.700 -1.9290 -0.3093 -0.3952
 3705SOL    HW222575   0.041   2.248   2.787 -1.7140  0.0847 -0.9868
 3706SOL     OW22576   2.491   4.314   4.633 -0.1195  0.7256  0.0293
 3706SOL    HW122577   2.579   4.276   4.645 -0.9078 -1.4343 -0.8983
 3706SOL    HW222578   2.442   4.271   4.704 -1.7952  0.5349 -1.2399
 3707SOL     OW22579   3.792   3.547   0.838  0.4209 -0.3216 -0.0462
 3707SOL    HW122580   3.811   3.453   0.841 -2.1578 -0.8186  0.7512
 3707SOL    HW222581   3.805   3.572   0.930 -2.4202 -0.4978  0.3991
 3708SOL     OW22582   2.667   2.951   5.478 -0.2193  0.5736 -0.1499
 3708SOL    HW122583   2.690   2.866   5.514  0.4445  0.9648  0.3369
 3708SOL    HW222584   2.709   3.009   5.542  2.0927  0.1626 -1.3332
 3709SOL     OW22585   2.797   4.483   2.772  0.2543  0.5046 -0.5866
 3709SOL    HW122586   2.785   4.578   2.783  0.7283  0.9454 -3.8423
 3709SOL    HW222587   2.760   4.484   2.684  2.3795  0.0459 -1.4866
 3710SOL     OW22588   4.672   4.228   7.413  0.3927 -0.3115  0.2056
 3710SOL    HW122589   4.675   4.293   7.483  3.4250 -1.3583  1.0421
 3710SOL    HW222590   4.582   4.240   7.382  1.0608 -0.9846 -2.0209
 3711SOL     OW22591   1.956   3.315   8.641  0.2959 -0.2683  0.2737
 3711SOL    HW122592   1.920   3.317   8.729  1.2036 -0.0990  0.6384
 3711SOL    HW222593   1.887   3.270   8.593 -0.1780  0.5147  0.2184
 3712SOL     OW22594   1.049   1.748   4.422 -0.7313  0.1468 -0.1606
 3712SOL    HW122595   1.035   1.815   4.355 -0.4350 -1.4004 -1.7616
 3712SOL    HW222596   1.113   1.689   4.382  0.8836  0.1962  2.3309
 3713SOL     OW22597   4.413   3.375   5.912  0.2522 -0.0762  0.2433
 3713SOL    HW122598   4.461   3.293   5.907  0.6675  0.1621  0.3235
 3713SOL    HW222599   4.322   3.345   5.913 -0.2409  1.4672  1.2562
 3714SOL     OW22600   3.679   1.998   0.923  0.1446  0.1692 -0.1098
 3714SOL    HW122601   3.679   2.094   0.931 -0.3611  0.1345  0.2829
 3714SOL    HW222602   3.715   1.992   0.834 -1.4089 -2.4789 -0.5540
 3715SOL     OW22603   2.490   4.159   9.047  0.2875 -0.3442  0.2891
 3715SOL    HW122604   2.397   4.139   9.049 -0.1220  1.6023  0.6265
 3715SOL    HW222605   2.504   4.143   9.140  1.4929  0.8452  0.3216
 3716SOL     OW22606   2.890   1.336   3.882 -0.0428 -0.8425  0.1919
 3716SOL    HW122607   2.822   1.308   3.820  0.2757  3.3881 -2.0342
 3716SOL    HW222608   2.901   1.257   3.935 -0.6215 -0.6040  0.6654
 3717SOL     OW22609   4.136   4.465   8.577  0.0995  0.3286 -0.1307
 3717SOL    HW122610   4.165   4.509   8.657 -0.4765  0.4555  0.0067
 3717SOL    HW222611   4.082   4.534   8.539 -1.6772 -1.3575 -0.6333
 3718SOL     OW22612   1.096   2.796   3.414 -0.0882 -0.6329 -0.6653
 3718SOL    HW122613   1.037   2.746   3.470 -0.9929  0.4170 -0.6724
 3718SOL    HW222614   1.183   2.759   3.430 -0.6713 -1.6752  0.1117
 3719SOL     OW22615   1.853   0.942   2.589  0.1500 -0.2934  0.0035
 3719SOL    HW122616   1.764   0.915   2.570  0.4235 -0.2592 -1.3115
 3719SOL    HW222617   1.878   0.982   2.506 -0.4697 -0.8574 -0.4504
 3720SOL     OW22618   0.680   1.851   2.644 -0.2103 -0.1545 -0.1265
 3720SOL    HW122619   0.641   1.834   2.729  1.5465  1.9565  1.1034
 3720SOL    HW222620   0.756   1.793   2.652 -0.8975 -0.8002  1.6331
 3721SOL     OW22621   2.240   0.337  12.787 -0.7395 -0.0828 -0.2403
 3721SOL    HW122622   2.329   0.362  12.810 -1.6001 -0.3711  3.3816
 3721SOL    HW222623   2.251   0.253  12.743 -1.0191 -0.5423  0.5544
 3722SOL     OW22624   2.415   2.407   9.911 -0.4690  0.1409  0.1821
 3722SOL    HW122625   2.333   2.359   9.926  0.5268 -1.1030  1.6286
 3722SOL    HW222626   2.455   2.397   9.997  1.9536  1.2267 -0.8155
 3723SOL     OW22627   3.286   2.904   3.754  0.3560  0.1954 -0.1154
 3723SOL    HW122628   3.241   2.842   3.696 -2.2581  1.5632  0.4202
 3723SOL    HW222629   3.347   2.942   3.691  1.1472  0.1268  0.6144
 3724SOL     OW22630   2.719   0.517   2.265  0.3950  0.4415  0.3713
 3724SOL    HW122631   2.677   0.434   2.245  0.5296  0.4248  0.1577
 3724SOL    HW222632   2.728   0.514   2.361 -4.6883  1.7788  0.8668
 3725SOL     OW22633   0.361   1.311   5.225  0.1648  0.9752 -1.2794
 3725SOL    HW122634   0.292   1.259   5.183  1.4306 -1.0411 -0.8742
 3725SOL    HW222635   0.327   1.370   5.291 -1.1242 -1.2225  0.0395
 3726SOL     OW22636   0.569   1.092  10.963 -0.0121 -0.6785 -0.2517
 3726SOL    HW122637   0.623   1.160  10.922  2.9007 -0.0325  4.6803
 3726SOL    HW222638   0.600   1.018  10.912 -1.4770 -1.3724 -0.1362
 3727SOL     OW22639   3.549   0.018   7.702 -0.1846 -0.4483  0.5117
 3727SOL    HW122640   3.616   4.696   7.653 -0.3256  1.9296 -1.9813
 3727SOL    HW222641   3.501   0.054   7.627  0.7391 -1.5507 -0.6003
 3728SOL     OW22642   3.760   0.397   7.357  0.6948  0.2782  0.2638
 3728SOL    HW122643   3.785   0.449   7.434  0.9851  1.0116 -0.3263
 3728SOL    HW222644   3.778   0.307   7.385  0.5513 -0.2412 -1.3434
 3729SOL     OW22645   1.816   4.002   8.515 -0.9576  0.5327 -0.0272
 3729SOL    HW122646   1.721   3.995   8.506 -0.9430  0.1635  0.1079
 3729SOL    HW222647   1.827   4.078   8.458 -0.3690 -0.6767 -1.5326
 3730SOL     OW22648   2.371   2.300  13.025  0.5024  0.3930 -0.0549
 3730SOL    HW122649   2.432   2.353  13.075  0.1868  0.9132 -0.2203
 3730SOL    HW222650   2.315   2.368  12.988  1.5015  1.4756  0.4355
 3731SOL     OW22651   0.772   3.743   2.555 -0.3474 -0.3005  0.0857
 3731SOL    HW122652   0.728   3.795   2.622  0.5207 -1.0209  1.2085
 3731SOL    HW222653   0.858   3.741   2.597 -1.6435 -1.0292  2.6832
 3732SOL     OW22654   0.565   3.401   6.385  0.0140 -0.3122  0.3926
 3732SOL    HW122655   0.503   3.462   6.423  1.9440  0.7889  1.7672
 3732SOL    HW222656   0.499   3.339   6.352 -1.9478  1.1824  1.5462
 3733SOL     OW22657   4.155   3.172   2.872  0.1638 -0.1354  0.6854
 3733SOL    HW122658   4.240   3.179   2.828  0.9106 -1.9108  1.8130
 3733SOL    HW222659   4.176   3.097   2.929 -2.0077 -0.6061  0.8690
 3734SOL     OW22660   2.080   1.126   6.198  0.2804 -0.2880  0.0896
 3734SOL    HW122661   2.153   1.162   6.148 -0.8289 -0.0662 -1.3701
 3734SOL    HW222662   2.068   1.042   6.154 -0.6558  0.2863 -0.7550
 3735SOL     OW22663   4.210   0.265   2.598  0.3236 -0.2368  0.1685
 3735SOL    HW122664   4.190   0.348   2.555 -1.1277 -1.0825 -0.7958
 3735SOL    HW222665   4.255   0.294   2.678 -0.2566 -1.2689  0.8720
 3736SOL     OW22666   1.964   4.157   6.123  0.3009 -0.2264  0.1695
 3736SOL    HW122667   1.928   4.210   6.052 -0.5697 -3.5894 -1.8975
 3736SOL    HW222668   1.886   4.117   6.160  0.5248  0.0601  0.9492
 3737SOL     OW22669   2.491   0.150   8.629  0.2084 -0.0354  0.1709
 3737SOL    HW122670   2.514   0.079   8.568 -0.7598 -0.2762  0.0928
 3737SOL    HW222671   2.566   0.209   8.617 -0.1408  0.1250 -1.2090
 3738SOL     OW22672   2.571   1.078  11.686  0.4565  0.1047 -0.2815
 3738SOL    HW122673   2.539   0.998  11.728 -0.2282  0.7419  0.4039
 3738SOL    HW222674   2.542   1.138  11.754  0.5383 -0.4371  0.2312
 3739SOL     OW22675   2.929   3.316   2.973  0.0131 -0.1876 -0.0885
 3739SOL    HW122676   2.883   3.328   2.890  3.0655  0.5372 -1.6730
 3739SOL    HW222677   2.856   3.308   3.034 -0.3176 -1.6327 -0.6708
 3740SOL     OW22678   1.683   3.121   5.900  0.2107 -0.0445  0.6910
 3740SOL    HW122679   1.626   3.044   5.906  1.0426 -0.4524  3.2116
 3740SOL    HW222680   1.682   3.155   5.990  0.3084 -2.1662  1.5001
 3741SOL     OW22681   2.555   4.289  10.648 -0.4009 -0.3328  0.2210
 3741SOL    HW122682   2.492   4.222  10.620  0.4922 -1.4632  0.8941
 3741SOL    HW222683   2.568   4.351  10.577 -0.2275 -0.3416  0.2448
 3742SOL     OW22684   2.658   4.310   9.525 -0.1103 -0.2729  0.2919
 3742SOL    HW122685   2.688   4.400   9.532  2.3162 -1.0801  0.4641
 3742SOL    HW222686   2.666   4.297   9.430 -0.3474  0.8346  0.1183
 3743SOL     OW22687   0.307   3.933   8.976  0.3288  0.5351  0.3207
 3743SOL    HW122688   0.331   3.913   8.886  2.6519 -2.6027  1.6313
 3743SOL    HW222689   0.246   3.866   9.007  0.4653 -0.4004 -1.4643
 3744SOL     OW22690   3.674   3.743  14.922 -0.0789 -0.2214 -0.6098
 3744SOL    HW122691   3.639   3.692  14.995  0.1220 -1.7433 -1.5678
 3744SOL    HW222692   3.646   3.690  14.848 -1.1003 -1.9554  1.0032
 3745SOL     OW22693   4.173   1.021   4.716  0.1568 -0.8595  0.1252
 3745SOL    HW122694   4.105   0.954   4.706  1.1893 -1.7584 -0.7962
 3745SOL    HW222695   4.144   1.087   4.654  1.3016 -1.2848 -0.8626
 3746SOL     OW22696   1.707   0.750   6.701  0.2633  0.2643 -0.5074
 3746SOL    HW122697   1.759   0.818   6.745  0.0965 -0.9657  1.6377
 3746SOL    HW222698   1.693   0.683   6.769  0.0993  1.3492  0.5191
 3747SOL     OW22699   3.065   0.890  17.697  0.8719 -0.1970  0.3969
 3747SOL    HW122700   3.151   0.900  17.656  1.5613  1.7279  2.2959
 3747SOL    HW222701   3.028   0.836  17.627  2.3536 -1.3608  0.4947
 3748SOL     OW22702   0.113   3.160  15.390 -0.0650  0.1415 -0.1996
 3748SOL    HW122703   0.061   3.222  15.339  0.4153 -1.2492 -2.4121
 3748SOL    HW222704   0.045   3.097  15.412  0.7856 -1.1971 -1.3211
 3749SOL     OW22705   3.387   4.213   7.557  0.4145 -0.3762 -0.6068
 3749SOL    HW122706   3.330   4.167   7.619  2.7812 -0.9422  1.1433
 3749SOL    HW222707   3.321   4.246   7.497  2.3868  1.4443 -1.7701
 3750SOL     OW22708   1.631   1.339   2.275  0.3474 -0.3420 -0.4858
 3750SOL    HW122709   1.723   1.335   2.249  0.3923 -1.3469 -0.1684
 3750SOL    HW222710   1.627   1.276   2.347  0.5328  1.2035  0.8730
 3751SOL     OW22711   1.250   0.887   9.818  0.2018 -0.4556  0.2084
 3751SOL    HW122712   1.191   0.813   9.830  2.3021 -2.1610  0.1301
 3751SOL    HW222713   1.330   0.848   9.782  0.0204 -0.2254 -0.4446
 3752SOL     OW22714   2.325   0.614  15.575  0.4993  0.2598  0.3880
 3752SOL    HW122715   2.241   0.656  15.554 -1.0021 -2.8585  0.1602
 3752SOL    HW222716   2.321   0.601  15.670 -0.7528 -1.8594  0.0359
 3753SOL     OW22717   1.932   3.503  15.457 -0.3567  0.0690  0.0570
 3753SOL    HW122718   1.852   3.554  15.465 -0.9097 -0.3042 -3.0808
 3753SOL    HW222719   1.906   3.416  15.487  0.2753 -0.3651 -0.6631
 3754SOL     OW22720   1.823   0.699   0.236  0.2715 -0.0509 -0.0751
 3754SOL    HW122721   1.732   0.673   0.223  0.1830  1.5181 -2.5232
 3754SOL    HW222722   1.862   0.642   0.170 -1.4034 -1.9810  0.6072
 3755SOL     OW22723   0.310   1.236   8.606 -0.1889  0.2201  0.5723
 3755SOL    HW122724   0.405   1.226   8.613 -0.6861 -3.5667  2.0423
 3755SOL    HW222725   0.295   1.219   8.513 -1.0589 -0.6028  0.8548
 3756SOL     OW22726   1.276   4.363  13.824 -0.5337  0.1427  0.2652
 3756SOL    HW122727   1.305   4.363  13.733  0.1456 -0.2051  0.4777
 3756SOL    HW222728   1.290   4.269  13.841  0.3434  0.5493  1.8031
 3757SOL     OW22729   2.501   3.579  13.159  0.1655  0.3093 -0.3230
 3757SOL    HW122730   2.498   3.531  13.076 -0.1995 -0.0880 -0.0816
 3757SOL    HW222731   2.589   3.553  13.187  0.6762  2.0127 -0.3530
 3758SOL     OW22732   3.450   0.560   9.839  0.5662  0.4752  0.3723
 3758SOL    HW122733   3.436   0.618   9.914 -1.9689 -1.5010  1.4002
 3758SOL    HW222734   3.439   0.473   9.876 -0.3654 -0.3119 -1.7381
 3759SOL     OW22735   0.683   2.651   3.810 -0.1628 -0.4691 -0.1311
 3759SOL    HW122736   0.736   2.573   3.823  0.4138 -0.1535 -0.5849
 3759SOL    HW222737   0.683   2.684   3.900 -0.1302  0.7313 -0.5720
 3760SOL     OW22738   3.436   4.022   0.406  0.3499  0.1425 -0.7402
 3760SOL    HW122739   3.383   3.943   0.392 -1.2455  1.1904 -0.6573
 3760SOL    HW222740   3.373   4.085   0.440  2.8755  3.4928 -2.2520
 3761SOL     OW22741   0.996   1.383   4.476 -0.0159 -0.3908 -0.6833
 3761SOL    HW122742   1.015   1.338   4.558  0.1586 -0.6809 -0.8811
 3761SOL    HW222743   0.931   1.450   4.500  0.0500 -0.9366  0.9879
 3762SOL     OW22744   0.105   1.991   4.088 -0.2960  0.0278  0.5530
 3762SOL    HW122745   0.068   1.944   4.163 -2.3539  1.3034  0.3274
 3762SOL    HW222746   0.189   1.946   4.080 -1.0066 -1.3819  1.1744
 3763SOL     OW22747   1.386   4.422   8.499  0.2655  0.3022  0.2469
 3763SOL    HW122748   1.355   4.442   8.411 -1.5100 -1.1836  0.5356
 3763SOL    HW222749   1.344   4.493   8.549 -1.4288 -1.0198  0.6984
 3764SOL     OW22750   0.832   1.659  13.014 -0.1449 -0.1724 -0.1417
 3764SOL    HW122751   0.759   1.599  13.005 -0.8992  0.7535 -0.2134
 3764SOL    HW222752   0.788   1.740  13.040  0.0399 -0.6055  1.4826
 3765SOL     OW22753   1.898   2.255   5.851 -0.5627 -0.2880  0.1294
 3765SOL    HW122754   1.886   2.263   5.946  0.9188 -1.8628  0.4484
 3765SOL    HW222755   1.812   2.222   5.823 -0.8360  0.5126  0.0391
 3766SOL     OW22756   2.691   0.654  14.233  1.0253  0.8960 -0.3015
 3766SOL    HW122757   2.771   0.696  14.264  1.0093 -0.9682  2.2995
 3766SOL    HW222758   2.735   0.595  14.172  1.5405 -0.1237  1.0424
 3767SOL     OW22759   1.356   1.008   0.506  0.5228  0.3875  0.3256
 3767SOL    HW122760   1.372   1.073   0.574 -1.3028  0.2479  0.8784
 3767SOL    HW222761   1.324   1.062   0.433  0.6615 -0.3807 -0.3096
 3768SOL     OW22762   4.115   3.974   2.945 -0.0044  0.4241 -0.3806
 3768SOL    HW122763   4.031   4.012   2.970 -0.0872 -0.6885  1.0262
 3768SOL    HW222764   4.074   3.912   2.885 -0.1872  0.3876 -0.2175
 3769SOL     OW22765   0.987   3.702   6.037 -0.3442  0.3056  0.3952
 3769SOL    HW122766   1.060   3.725   5.979 -1.5706  2.8236 -0.1549
 3769SOL    HW222767   0.985   3.778   6.095  1.2283  0.5799  0.1062
 3770SOL     OW22768   0.611   2.960   8.659  0.5886 -0.2317  0.2523
 3770SOL    HW122769   0.663   3.002   8.727 -2.4214  0.0348  2.3988
 3770SOL    HW222770   0.521   2.975   8.688  0.6257  3.0280 -1.3596
 3771SOL     OW22771   1.980   3.348   0.764 -0.4271 -0.6410 -0.5087
 3771SOL    HW122772   1.890   3.333   0.737 -0.3288 -1.3732 -0.4238
 3771SOL    HW222773   1.995   3.437   0.733 -0.1963 -1.3143 -2.3413
 3772SOL     OW22774   2.425   1.855  13.434 -0.2269 -0.2527 -0.5715
 3772SOL    HW122775   2.400   1.776  13.482 -2.1610  1.1326  0.6793
 3772SOL    HW222776   2.387   1.845  13.347 -2.2465  0.2546  0.2665
 3773SOL     OW22777   2.401   4.378   3.125  0.2232  0.3004 -0.1894
 3773SOL    HW122778   2.489   4.395   3.093 -0.3974 -0.3283 -2.2273
 3773SOL    HW222779   2.347   4.436   3.071  2.5361  2.5852 -0.0265
 3774SOL     OW22780   3.715   0.888   5.187  0.2288 -0.8584  0.3906
 3774SOL    HW122781   3.750   0.973   5.160  0.3454 -0.7199  0.9774
 3774SOL    HW222782   3.787   0.831   5.213  0.9722 -0.5438 -0.9732
 3775SOL     OW22783   1.979   2.137  14.909  0.4143  0.0878 -0.6250
 3775SOL    HW122784   1.946   2.225  14.927  1.2226  0.6020 -1.6600
 3775SOL    HW222785   2.001   2.155  14.818 -0.9026 -1.8716 -1.3305
 3776SOL     OW22786   3.625   3.935   8.754 -0.5306  0.1818 -0.4193
 3776SOL    HW122787   3.658   3.867   8.696 -2.5399  0.3201 -1.7154
 3776SOL    HW222788   3.610   4.008   8.694 -0.5228 -1.5113 -2.4760
 3777SOL     OW22789   1.188   3.570  12.485  0.0938  0.1704  0.7742
 3777SOL    HW122790   1.148   3.547  12.402  0.6712 -2.3305  1.1775
 3777SOL    HW222791   1.209   3.663  12.489  1.3444 -0.0759  0.1135
 3778SOL     OW22792   1.909   3.923   2.202 -0.5447 -0.0674 -0.0560
 3778SOL    HW122793   1.836   3.973   2.238 -0.8085  0.1664 -0.9137
 3778SOL    HW222794   1.954   3.995   2.158  0.8575 -0.7522  0.2427
 3779SOL     OW22795   1.391   3.488   4.748 -0.3950  0.1570 -0.2327
 3779SOL    HW122796   1.441   3.565   4.776 -0.9345  0.6653 -0.6757
 3779SOL    HW222797   1.351   3.519   4.667  1.9502  1.8981 -0.7186
 3780SOL     OW22798   2.808   2.315   8.866  0.4579 -0.1276  0.4932
 3780SOL    HW122799   2.760   2.233   8.859  0.1087  0.2073 -1.0854
 3780SOL    HW222800   2.732   2.368   8.888 -0.1259 -0.0195 -1.7472
 3781SOL     OW22801   3.986   3.435  16.956 -0.4685  0.2253  0.1919
 3781SOL    HW122802   3.964   3.435  17.049 -3.2206  1.2375 -0.4745
 3781SOL    HW222803   3.914   3.473  16.906 -1.7652 -0.1402  1.7766
 3782SOL     OW22804   3.375   1.922   2.810  0.3197 -0.7595 -0.0520
 3782SOL    HW122805   3.436   1.912   2.883  0.9626 -0.2151 -0.5190
 3782SOL    HW222806   3.446   1.934   2.747 -0.8715  0.1928 -1.2219
 3783SOL     OW22807   3.051   0.238  10.279  0.0174 -0.0239  0.1786
 3783SOL    HW122808   3.034   0.181  10.354 -0.5166 -2.0888 -1.5220
 3783SOL    HW222809   2.988   0.307  10.303 -1.0392 -0.3866 -1.5297
 3784SOL     OW22810   1.254   1.072   0.999 -0.0244 -0.2689 -0.2224
 3784SOL    HW122811   1.255   0.989   0.951  5.8644  0.4801 -1.4460
 3784SOL    HW222812   1.337   1.098   0.959  1.3464 -1.9432  1.5380
 3785SOL     OW22813   1.961   3.902  11.156 -0.0857 -0.4562 -0.3089
 3785SOL    HW122814   2.028   3.966  11.179  0.6940 -2.1348  2.0500
 3785SOL    HW222815   2.000   3.825  11.195  0.0773 -1.1112 -1.7725
 3786SOL     OW22816   2.116   4.317  10.985  0.3165  0.3633 -0.3484
 3786SOL    HW122817   2.192   4.262  11.002 -0.6229 -0.4349  1.2413
 3786SOL    HW222818   2.091   4.345  11.073  0.6602 -0.0576 -0.1201
 3787SOL     OW22819   0.296   0.986   5.052  0.1178  0.6452  0.1872
 3787SOL    HW122820   0.301   0.952   4.962  1.0639 -0.3401  0.6142
 3787SOL    HW222821   0.263   1.074   5.033 -0.1200  0.9385  2.0102
 3788SOL     OW22822   4.625   2.200   8.027 -0.2862  0.5858  0.6642
 3788SOL    HW122823   4.678   2.273   7.996 -0.3691  0.5638  0.4696
 3788SOL    HW222824   4.536   2.236   8.033 -0.7494  0.0067 -2.7743
 3789SOL     OW22825   3.558   3.464   5.730  0.5404 -0.0090 -0.0464
 3789SOL    HW122826   3.469   3.497   5.740  0.8114  0.7570 -0.1094
 3789SOL    HW222827   3.540   3.378   5.692  1.2792 -1.0422  1.9389
 3790SOL     OW22828   2.659   1.961  12.072 -0.8207 -0.1897 -0.1276
 3790SOL    HW122829   2.586   1.957  12.134 -0.1017 -0.7985  0.6855
 3790SOL    HW222830   2.634   1.889  12.014 -2.7297 -0.1688  0.6783
 3791SOL     OW22831   1.356   2.824   1.005  0.3555  0.4562 -0.1546
 3791SOL    HW122832   1.269   2.792   0.981  1.1574 -0.8833 -1.2593
 3791SOL    HW222833   1.325   2.905   1.047 -0.6648 -0.8953  1.6852
 3792SOL     OW22834   0.291   2.885   4.614 -0.4554 -0.2668 -0.0080
 3792SOL    HW122835   0.367   2.897   4.558 -0.7621  0.6626 -0.2207
 3792SOL    HW222836   0.303   2.795   4.643 -1.9958 -0.6109 -0.4460
 3793SOL     OW22837   0.512   0.062   4.135 -0.2868  0.2904 -0.1235
 3793SOL    HW122838   0.498   0.152   4.164  0.4527 -0.6666  3.2631
 3793SOL    HW222839   0.429   0.021   4.160 -0.5820  0.6786 -0.4716
 3794SOL     OW22840   2.889   0.441   8.835  0.4284  0.8950 -0.1276
 3794SOL    HW122841   2.818   0.505   8.842 -0.5185 -0.2855  1.0294
 3794SOL    HW222842   2.851   0.372   8.889  1.1571  1.1105  0.6464
 3795SOL     OW22843   0.829   1.888   8.121  0.6362  0.1675  0.3943
 3795SOL    HW122844   0.902   1.949   8.135  0.9273 -0.0457 -0.2160
 3795SOL    HW222845   0.791   1.905   8.035 -1.6439  0.4780  1.4497
 3796SOL     OW22846   3.082   0.929  16.386  0.3368  0.1049 -0.6205
 3796SOL    HW122847   3.160   0.920  16.330  0.6618 -1.2091  0.0261
 3796SOL    HW222848   3.111   0.989  16.455  2.5357 -1.3068 -0.3110
 3797SOL     OW22849   2.002   1.275   4.438  0.0295  0.0101 -0.6553
 3797SOL    HW122850   1.921   1.319   4.411 -2.1623 -2.6445  1.5898
 3797SOL    HW222851   1.977   1.183   4.444 -0.9544  0.3314  0.1924
 3798SOL     OW22852   1.620   4.339   8.281  0.8499 -0.1377 -0.9042
 3798SOL    HW122853   1.589   4.403   8.217  0.4958  0.5478 -0.0502
 3798SOL    HW222854   1.609   4.392   8.360  0.1092 -0.9523 -0.4561
 3799SOL     OW22855   2.450   4.126  13.033 -0.5107  0.0877  0.3955
 3799SOL    HW122856   2.524   4.154  12.980 -0.7804  1.1617  0.5791
 3799SOL    HW222857   2.493   4.092  13.112  0.0251  1.2878  0.6211
 3800SOL     OW22858   2.829   1.155   6.216 -0.0190 -0.8536  0.5362
 3800SOL    HW122859   2.841   1.086   6.281 -2.3134 -2.4279 -0.7073
 3800SOL    HW222860   2.799   1.112   6.136  0.3039 -1.1803  0.5905
 3801SOL     OW22861   2.349   2.211   7.109 -0.5956 -0.7585 -0.1825
 3801SOL    HW122862   2.442   2.205   7.128 -0.4703 -0.0937 -0.5839
 3801SOL    HW222863   2.308   2.216   7.196 -1.5635 -1.9383 -0.5679
 3802SOL     OW22864   2.813   4.308  16.320  0.5595  0.2371 -0.3439
 3802SOL    HW122865   2.873   4.354  16.379  1.2981  1.6740 -2.2100
 3802SOL    HW222866   2.790   4.377  16.258  1.2098  1.0074  0.2760
 3803SOL     OW22867   2.786   0.195   7.041  0.0434 -0.5564 -0.3867
 3803SOL    HW122868   2.761   0.134   6.972 -1.5778  0.9743 -1.1595
 3803SOL    HW222869   2.868   0.217   6.998  0.4429 -1.2597  0.0139
 3804SOL     OW22870   3.016   3.422  11.357  0.6455  0.0598  0.4758
 3804SOL    HW122871   2.973   3.507  11.345  3.0930  1.4536  1.6497
 3804SOL    HW222872   3.087   3.438  11.295  1.5579 -1.3689  1.1757
 3805SOL     OW22873   0.125   1.498   4.446 -0.0372 -0.3067  0.6946
 3805SOL    HW122874   0.134   1.438   4.520 -1.3517 -1.8477 -0.4231
 3805SOL    HW222875   0.141   1.583   4.489  0.9958 -0.3419  0.3954
 3806SOL     OW22876   2.772   4.300  15.311 -0.0792  0.1255  0.2703
 3806SOL    HW122877   2.850   4.323  15.261 -1.3932  2.0290 -0.8648
 3806SOL    HW222878   2.794   4.212  15.343 -0.6911 -0.5772 -1.2660
 3807SOL     OW22879   2.606   2.206   7.458 -0.0785 -0.4578 -0.4792
 3807SOL    HW122880   2.670   2.274   7.481 -0.6612  0.5899 -1.9363
 3807SOL    HW222881   2.607   2.207   7.362  0.2856 -1.9275 -0.4817
 3808SOL     OW22882   3.798   0.447   4.244 -0.3257 -0.6375  0.7001
 3808SOL    HW122883   3.760   0.359   4.247  1.4516 -1.4028  1.3142
 3808SOL    HW222884   3.783   0.460   4.338  0.2082  0.3164  0.6505
 3809SOL     OW22885   2.248   1.664  16.617  0.1752 -0.2573  0.1020
 3809SOL    HW122886   2.262   1.759  16.613 -0.3609 -0.2384 -1.0916
 3809SOL    HW222887   2.172   1.651  16.561  0.5800  0.1922 -0.5524
 3810SOL     OW22888   1.615   1.621   1.315 -0.1000 -0.3643 -0.0012
 3810SOL    HW122889   1.561   1.581   1.246  1.2296 -1.1820 -0.5641
 3810SOL    HW222890   1.687   1.561   1.299 -2.2636 -2.9537 -0.0754
 3811SOL     OW22891   1.282   0.173   2.078 -0.0473  0.1951  0.3270
 3811SOL    HW122892   1.239   0.092   2.106 -1.4678  0.7758 -0.2191
 3811SOL    HW222893   1.314   0.202   2.164  0.0989 -1.3702  0.8167
 3812SOL     OW22894   2.153   2.359   5.110  0.4882  0.3991  0.1116
 3812SOL    HW122895   2.079   2.344   5.052  0.9710  0.6574 -0.5777
 3812SOL    HW222896   2.216   2.396   5.048 -1.5318  2.0293 -0.9493
 3813SOL     OW22897   0.963   4.210   4.260 -0.0321  0.2108  0.4542
 3813SOL    HW122898   0.999   4.205   4.349  1.1356 -0.8682 -0.0820
 3813SOL    HW222899   1.039   4.188   4.206  0.6203  2.0066  0.6620
 3814SOL     OW22900   0.034   0.453  12.306  0.1654  0.1801  0.3743
 3814SOL    HW122901   0.118   0.456  12.260 -1.7043  0.3662 -3.0475
 3814SOL    HW222902   0.015   0.360  12.315  1.1445 -0.2777 -2.2243
 3815SOL     OW22903   1.611   2.124   6.963 -0.2903  0.0450  1.0919
 3815SOL    HW122904   1.685   2.079   6.922  0.1536  2.3912 -0.7436
 3815SOL    HW222905   1.659   2.172   7.031  0.8505 -0.9610  1.0026
 3816SOL     OW22906   4.464   3.584   6.878 -0.5460  1.0154  0.1342
 3816SOL    HW122907   4.406   3.512   6.853 -1.5561  2.0139 -0.3851
 3816SOL    HW222908   4.403   3.655   6.898 -0.3202  1.7823 -1.8734
 3817SOL     OW22909   2.395   4.427   9.741 -0.1154  0.0029 -0.4660
 3817SOL    HW122910   2.338   4.412   9.666  0.8967  0.9287 -1.4220
 3817SOL    HW222911   2.370   4.358   9.803 -1.2106  1.0953  0.2846
 3818SOL     OW22912   0.983   3.433   6.733  0.0341 -0.2153  0.1638
 3818SOL    HW122913   0.938   3.417   6.816 -0.3117  2.0949  0.4253
 3818SOL    HW222914   0.946   3.368   6.674  0.7554  0.4834 -1.0520
 3819SOL     OW22915   1.089   1.836  16.823  0.1382 -0.4372 -0.4868
 3819SOL    HW122916   1.136   1.802  16.747  1.1461 -0.1968  0.0352
 3819SOL    HW222917   1.020   1.887  16.780 -0.8547 -0.5422  0.9703
 3820SOL     OW22918   1.784   3.713   5.688 -0.5071 -0.3407  0.2196
 3820SOL    HW122919   1.782   3.679   5.599 -2.3713  1.3385 -0.3884
 3820SOL    HW222920   1.777   3.809   5.686  0.0202 -0.3424 -1.3286
 3821SOL     OW22921   1.888   0.467   7.410 -0.5879  0.3406 -0.1867
 3821SOL    HW122922   1.918   0.534   7.348  1.2626 -0.0256  0.3198
 3821SOL    HW222923   1.931   0.391   7.371 -0.8188 -0.7645  1.7449
 3822SOL     OW22924   4.487   2.988   5.050  0.1716 -0.0784 -0.0485
 3822SOL    HW122925   4.490   3.017   5.141  0.3430 -2.6832  0.7940
 3822SOL    HW222926   4.435   2.907   5.047  0.8846 -0.5252 -0.1754
 3823SOL     OW22927   1.831   1.572  12.120  0.5190  0.4296 -0.2665
 3823SOL    HW122928   1.744   1.610  12.135  0.3173 -0.1965  0.1861
 3823SOL    HW222929   1.802   1.490  12.079 -0.5911  0.2880  0.7875
 3824SOL     OW22930   1.348   4.063  11.728  0.0940 -0.4820 -0.6258
 3824SOL    HW122931   1.343   3.998  11.658  0.4939  0.2879 -1.3748
 3824SOL    HW222932   1.309   4.018  11.803  1.2173  0.6506  0.6177
 3825SOL     OW22933   3.638   3.620  13.983 -0.0094 -0.4418  0.3395
 3825SOL    HW122934   3.552   3.605  14.022 -0.3208 -2.3044 -1.0319
 3825SOL    HW222935   3.629   3.698  13.927  0.9344 -0.6896 -0.1514
 3826SOL     OW22936   0.359   2.930   8.165 -0.3760  0.0108 -0.0276
 3826SOL    HW122937   0.437   2.878   8.149 -0.7494 -1.6417  3.5582
 3826SOL    HW222938   0.391   3.009   8.121  1.1874 -0.2626  0.6563
 3827SOL     OW22939   2.759   2.839   0.945  0.3656 -0.2014  0.0191
 3827SOL    HW122940   2.807   2.843   0.862  1.6802 -0.2224  0.7796
 3827SOL    HW222941   2.811   2.776   0.994  2.1035  1.5939  0.4849
 3828SOL     OW22942   2.355   0.654  15.844 -0.0339 -0.3366  0.5748
 3828SOL    HW122943   2.432   0.602  15.870  1.0971  1.4494  0.8183
 3828SOL    HW222944   2.368   0.728  15.904  1.9923  0.0521 -0.3571
 3829SOL     OW22945   1.464   0.924  10.267 -0.6264  0.2325  0.7010
 3829SOL    HW122946   1.461   0.852  10.330 -0.2941 -0.7122 -0.3732
 3829SOL    HW222947   1.516   0.886  10.197 -0.7491  0.6126  0.3968
 3830SOL     OW22948   4.677   3.572   3.780 -0.4684  0.1335 -0.2296
 3830SOL    HW122949   4.652   3.511   3.711 -0.0240  0.7772 -0.9676
 3830SOL    HW222950   0.047   3.579   3.766 -0.5083  0.5678 -0.2907
 3831SOL     OW22951   4.002   3.819   8.100 -0.2865  0.0012 -0.0726
 3831SOL    HW122952   3.919   3.853   8.069  0.2381  1.5429  0.1955
 3831SOL    HW222953   4.022   3.871   8.178 -0.8078 -0.6456  0.4878
 3832SOL     OW22954   2.692   3.317   0.969 -0.5021 -0.3100  0.3078
 3832SOL    HW122955   2.658   3.368   0.895 -0.9717 -0.9635  0.0712
 3832SOL    HW222956   2.720   3.234   0.930  2.0217  1.1068 -0.8564
 3833SOL     OW22957   2.786   0.519   5.820  0.3731  0.1963 -0.1944
 3833SOL    HW122958   2.724   0.530   5.748 -0.1841 -2.8175 -0.1836
 3833SOL    HW222959   2.867   0.503   5.770 -0.3696 -1.4926 -0.8450
 3834SOL     OW22960   2.378   0.713   4.867  0.0981  0.8236 -0.1231
 3834SOL    HW122961   2.293   0.708   4.911  0.9623  1.4316  1.5972
 3834SOL    HW222962   2.383   0.621   4.841  4.6279  1.2169 -0.5757
 3835SOL     OW22963   3.820   1.934   3.125 -0.2545  0.2864 -0.5622
 3835SOL    HW122964   3.761   2.001   3.161 -0.1977 -0.0752  0.2037
 3835SOL    HW222965   3.805   1.860   3.184 -3.0858  1.3409  0.0621
 3836SOL     OW22966   0.208   3.247   2.416 -0.3708 -0.3504 -0.0386
 3836SOL    HW122967   0.218   3.159   2.380 -0.1683  0.4573 -1.9809
 3836SOL    HW222968   0.230   3.297   2.337  0.9956 -0.5465  0.2299
 3837SOL     OW22969   0.556   2.145  14.896  0.5556 -0.4931 -0.4796
 3837SOL    HW122970   0.651   2.149  14.906  0.4253  1.3305  0.0025
 3837SOL    HW222971   0.565   2.077  14.829 -0.4277 -1.2848  0.1853
 3838SOL     OW22972   0.694   1.372   4.606  0.4286  0.2874 -0.7390
 3838SOL    HW122973   0.710   1.455   4.560  2.3036  0.6277  0.5663
 3838SOL    HW222974   0.647   1.410   4.680  0.5991 -1.6595  0.3471
 3839SOL     OW22975   0.314   0.951   3.724 -0.0749 -0.7476  0.1766
 3839SOL    HW122976   0.389   0.928   3.669  0.2000  0.7390 -0.0707
 3839SOL    HW222977   0.254   0.877   3.709  2.3019 -1.9756 -3.2339
 3840SOL     OW22978   1.841   2.500   1.191  0.4261 -0.0346  0.0100
 3840SOL    HW122979   1.793   2.506   1.273 -0.1991 -2.0189 -0.2100
 3840SOL    HW222980   1.931   2.510   1.221  1.1323 -0.9765 -1.7896
 3841SOL     OW22981   1.087   0.211   8.626 -0.1479  0.5335  0.2386
 3841SOL    HW122982   1.101   0.157   8.547 -2.0474 -0.8157  0.8073
 3841SOL    HW222983   1.138   0.283   8.590  1.2609  0.0687  1.3265
 3842SOL     OW22984   0.241   4.067   3.470  0.3377 -0.0495  0.3033
 3842SOL    HW122985   0.288   3.985   3.456  0.3281  0.0623 -0.3773
 3842SOL    HW222986   0.155   4.047   3.434  1.1708 -3.9961  0.5585
 3843SOL     OW22987   2.091   1.773  14.857 -0.2484  0.1864  0.3829
 3843SOL    HW122988   2.059   1.750  14.770 -0.4179 -2.4468  1.1550
 3843SOL    HW222989   2.051   1.710  14.917  0.8022  0.3334  1.2491
 3844SOL     OW22990   3.722   3.565   0.579  0.0257  0.1461 -0.0875
 3844SOL    HW122991   3.703   3.620   0.655  3.6228  1.1746  0.0573
 3844SOL    HW222992   3.725   3.480   0.623  0.4498  0.9245  1.3927
 3845SOL     OW22993   3.309   3.080  16.546  0.4709 -0.0613 -0.0991
 3845SOL    HW122994   3.218   3.051  16.542  0.8935 -1.5540  0.8319
 3845SOL    HW222995   3.337   3.043  16.630  2.3200  0.1609 -0.6075
 3846SOL     OW22996   0.715   1.341   8.061 -0.7995 -0.0417  1.1454
 3846SOL    HW122997   0.627   1.367   8.036 -1.2140 -2.1351  0.3908
 3846SOL    HW222998   0.701   1.247   8.048 -1.0005 -0.0061  1.1010
 3847SOL     OW22999   3.272   1.493   4.079 -0.3920 -0.1991 -0.1586
 3847SOL    HW123000   3.303   1.584   4.088 -0.4773 -0.2414  0.5918
 3847SOL    HW223001   3.228   1.488   4.164 -0.4948  0.6959 -0.1592
 3848SOL     OW23002   1.663   2.834  13.967 -0.3269  0.1498 -0.0575
 3848SOL    HW123003   1.591   2.789  14.010 -0.5376  0.5399 -0.0064
 3848SOL    HW223004   1.642   2.822  13.874 -0.0377  1.8581 -0.3302
 3849SOL     OW23005   1.495   3.666  16.401 -0.9866  0.2754 -0.3904
 3849SOL    HW123006   1.556   3.677  16.328 -0.0923  0.2306  0.3518
 3849SOL    HW223007   1.475   3.757  16.421 -1.3821  0.1622 -0.2621
 3850SOL     OW23008   3.577   3.674   4.219  0.1217  0.1932  0.2906
 3850SOL    HW123009   3.613   3.653   4.133 -0.8202 -0.2219 -0.0029
 3850SOL    HW223010   3.485   3.691   4.200  0.1975  1.3459  0.9334
 3851SOL     OW23011   1.773   2.258   3.269 -0.2295 -0.3297  0.0228
 3851SOL    HW123012   1.853   2.282   3.222  0.0372 -0.7278  0.2690
 3851SOL    HW223013   1.711   2.231   3.201 -0.8922  0.3496  0.3704
 3852SOL     OW23014   3.743   3.878   9.146  0.2472  0.5415  0.6533
 3852SOL    HW123015   3.693   3.956   9.171 -0.3956  0.3394 -0.0116
 3852SOL    HW223016   3.729   3.826   9.225  0.1238  1.6988  1.3980
 3853SOL     OW23017   3.617   2.458   1.982 -0.1640  0.1308 -0.6016
 3853SOL    HW123018   3.659   2.408   2.052 -1.2933 -2.3070 -1.6794
 3853SOL    HW223019   3.684   2.510   1.938  0.5521  1.9326  2.6114
 3854SOL     OW23020   1.010   2.311  17.206  0.2470 -0.0879 -0.1541
 3854SOL    HW123021   0.942   2.377  17.220 -1.2238 -2.0288  1.7046
 3854SOL    HW223022   1.038   2.278  17.291 -2.4190  2.6022  1.7912
 3855SOL     OW23023   1.529   4.669   2.389 -0.3452  0.0471  0.8559
 3855SOL    HW123024   1.566   0.030   2.411 -0.0073 -0.7042  3.3319
 3855SOL    HW223025   1.438   4.682   2.416 -0.3794 -0.3235  0.9321
 3856SOL     OW23026   0.350   3.686   4.736  0.5362 -0.1532  0.3533
 3856SOL    HW123027   0.326   3.770   4.696  2.2062  0.4215  0.5459
 3856SOL    HW223028   0.318   3.701   4.825 -0.7583 -0.5149 -0.0456
 3857SOL     OW23029   4.387   1.012  13.164  0.6914  0.0089 -0.3615
 3857SOL    HW123030   4.357   1.014  13.073  0.8462 -0.6801 -0.4223
 3857SOL    HW223031   4.481   1.031  13.158  0.9087 -1.0586 -0.3006
 3858SOL     OW23032   3.243   0.295   4.529  0.5850 -0.0895  0.1713
 3858SOL    HW123033   3.162   0.345   4.519  1.6237  1.5042 -0.3766
 3858SOL    HW223034   3.210   0.210   4.558  1.3616 -0.2802  0.4775
 3859SOL     OW23035   2.597   0.484   4.536 -0.6518 -0.1570 -0.3006
 3859SOL    HW123036   2.526   0.423   4.515 -0.9894  0.8136 -1.9015
 3859SOL    HW223037   2.593   0.555   4.472 -0.6483  0.3116  0.2128
 3860SOL     OW23038   0.464   3.429   7.976  0.8507  0.3521 -0.0003
 3860SOL    HW123039   0.456   3.426   8.072 -1.3905 -1.1248 -0.2308
 3860SOL    HW223040   0.519   3.506   7.964 -0.3763  1.5131  1.7341
 3861SOL     OW23041   0.981   0.657   8.012  0.0381  0.0471 -0.9018
 3861SOL    HW123042   1.030   0.587   8.055  0.7881  0.4956 -1.0458
 3861SOL    HW223043   0.898   0.613   7.991  2.5476 -3.6980 -2.8915
 3862SOL     OW23044   3.983   3.563   5.057 -0.2860  0.9047  0.0977
 3862SOL    HW123045   3.969   3.490   5.118 -0.2760 -0.3717 -1.4170
 3862SOL    HW223046   4.027   3.520   4.983 -1.5058  0.4387 -0.3652
 3863SOL     OW23047   4.638   4.129  17.289 -0.0004  0.6891  0.0325
 3863SOL    HW123048   4.568   4.068  17.314 -0.2231  0.5435 -0.9287
 3863SOL    HW223049   4.626   4.204  17.347 -0.3002  1.1329 -0.6054
 3864SOL     OW23050   1.316   0.549   2.008 -0.2447 -0.2074  0.2163
 3864SOL    HW123051   1.304   0.553   2.103 -2.4780  0.4572 -0.0850
 3864SOL    HW223052   1.367   0.629   1.993  0.7396 -0.6870  0.9907
 3865SOL     OW23053   4.215   3.978  13.038  0.4237  0.3819  0.0545
 3865SOL    HW123054   4.133   4.025  13.056  1.0098  0.8288  1.5890
 3865SOL    HW223055   4.184   3.888  13.041  1.1320  0.1033 -1.2078
 3866SOL     OW23056   0.159   0.000   1.688  0.0678 -0.1085  0.0463
 3866SOL    HW123057   0.093   0.029   1.624  1.3661  0.1237 -1.1823
 3866SOL    HW223058   0.151   4.632   1.666 -1.0709 -0.5817  2.3835
 3867SOL     OW23059   2.535   1.826   3.314  0.2562  0.1239 -0.0215
 3867SOL    HW123060   2.465   1.832   3.379 -0.2087 -1.6738 -0.3662
 3867SOL    HW223061   2.606   1.778   3.356  0.6565  1.0022  0.3112
 3868SOL     OW23062   3.875   3.774   4.889  0.1859  0.2630 -0.4241
 3868SOL    HW123063   3.882   3.695   4.942 -0.4730 -0.0511 -0.8111
 3868SOL    HW223064   3.784   3.788   4.914  0.7512 -0.0307  1.7433
 3869SOL     OW23065   3.381   4.656   7.273  0.6657  0.4866 -0.0102
 3869SOL    HW123066   3.365   4.719   7.202  0.4371  0.4467  0.0051
 3869SOL    HW223067   3.452   4.601   7.240  0.4946 -0.4201  1.1626
 3870SOL     OW23068   0.429   1.811  15.965  0.0474 -0.2242  0.0576
 3870SOL    HW123069   0.390   1.764  15.892  2.0676 -0.6713 -0.7414
 3870SOL    HW223070   0.505   1.755  15.983 -0.7225 -1.2398  0.1138
 3871SOL     OW23071   3.658   2.383   5.986 -0.2264 -0.2522 -1.1185
 3871SOL    HW123072   3.644   2.447   5.917 -0.6495  0.7822 -0.0768
 3871SOL    HW223073   3.723   2.325   5.947  1.3793  0.1301  0.9610
 3872SOL     OW23074   4.432   4.041  15.094  0.5385  0.1478 -0.2063
 3872SOL    HW123075   4.404   3.950  15.109  1.3877  0.0947  1.0496
 3872SOL    HW223076   4.388   4.094  15.160 -1.7084  0.4939 -1.9939
 3873SOL     OW23077   0.165   3.845  14.180 -0.4619  0.1038  0.4471
 3873SOL    HW123078   0.187   3.764  14.135  1.7043  1.5172 -1.0530
 3873SOL    HW223079   0.240   3.897  14.151  0.2085 -0.1480  1.7285
 3874SOL     OW23080   3.933   3.957   0.493  0.1616  0.2146  0.3339
 3874SOL    HW123081   3.878   3.932   0.419  0.8446  0.0486 -0.1239
 3874SOL    HW223082   3.879   4.024   0.534 -0.6775 -0.2695  0.0135
 3875SOL     OW23083   2.274   4.280   4.931  1.0133  0.1106  0.1119
 3875SOL    HW123084   2.304   4.359   4.885 -3.1763  1.6312  0.0695
 3875SOL    HW223085   2.204   4.323   4.980  1.8250 -0.6821  1.9638
 3876SOL     OW23086   3.088   0.510   9.761  0.6389 -0.1175  0.4990
 3876SOL    HW123087   3.043   0.582   9.804  0.1898 -1.3533  2.0783
 3876SOL    HW223088   3.020   0.478   9.701 -0.2844  1.2421  0.8255
 3877SOL     OW23089   3.446   1.967   7.985  0.0015 -0.3775 -0.2557
 3877SOL    HW123090   3.385   2.006   8.048 -1.5370  1.0149 -2.6379
 3877SOL    HW223091   3.400   1.972   7.902  1.9679 -1.1556 -1.4002
 3878SOL     OW23092   1.614   2.455   8.466  0.0960  0.5538 -0.5083
 3878SOL    HW123093   1.532   2.410   8.449 -1.4988  3.3202 -0.0899
 3878SOL    HW223094   1.661   2.447   8.383  0.0307 -0.1762 -0.4789
 3879SOL     OW23095   3.147   1.278   3.978  0.0872  0.0193  0.4228
 3879SOL    HW123096   3.202   1.340   4.027  2.0119 -2.1539  1.0069
 3879SOL    HW223097   3.158   1.199   4.032 -0.5392 -1.2093 -1.2541
 3880SOL     OW23098   0.913   3.170  17.244  0.3446  0.2913  0.5977
 3880SOL    HW123099   0.898   3.079  17.221 -1.2056  0.8006 -0.4352
 3880SOL    HW223100   1.009   3.173  17.248  0.4019 -1.6678  0.4987
 3881SOL     OW23101   3.432   2.669   1.916  0.2324 -0.1828  0.2306
 3881SOL    HW123102   3.427   2.691   2.009 -1.0240  2.4727 -0.4617
 3881SOL    HW223103   3.476   2.585   1.929  0.3585  0.0905  1.6123
 3882SOL     OW23104   2.977   0.743   5.364 -0.2989 -0.3312  0.2493
 3882SOL    HW123105   2.958   0.650   5.351  0.7436 -0.6024  0.6247
 3882SOL    HW223106   2.995   0.747   5.457  1.6783 -0.4219 -0.1320
 3883SOL     OW23107   4.455   3.626   4.228 -0.4834 -0.2639  0.4381
 3883SOL    HW123108   4.374   3.637   4.278 -0.6398  1.2937 -0.1741
 3883SOL    HW223109   4.449   3.691   4.158 -2.4641 -1.2629 -0.3222
 3884SOL     OW23110   0.321   3.366   5.627  0.7146  0.0139  0.0629
 3884SOL    HW123111   0.250   3.367   5.691  0.2595  1.2152 -0.4572
 3884SOL    HW223112   0.333   3.455   5.595  0.2522  0.3077  0.7134
 3885SOL     OW23113   2.527   1.519   6.483 -0.1866 -0.4414  0.0030
 3885SOL    HW123114   2.489   1.443   6.439 -1.7362  0.0564  0.4855
 3885SOL    HW223115   2.494   1.509   6.572  0.2928 -1.1410  0.1033
 3886SOL     OW23116   0.309   3.315   4.307  0.8175  0.4448 -0.0553
 3886SOL    HW123117   0.396   3.351   4.321 -0.2301  2.2988  1.7115
 3886SOL    HW223118   0.279   3.359   4.227  1.3107 -0.5496 -0.7822
 3887SOL     OW23119   2.361   0.649  15.173 -0.5619 -0.2342  0.2111
 3887SOL    HW123120   2.276   0.659  15.130 -1.3231  2.4289  2.3343
 3887SOL    HW223121   2.331   0.587  15.240 -1.0323  0.3548  0.5417
 3888SOL     OW23122   3.577   2.039   3.296  0.0985 -0.1516  0.0283
 3888SOL    HW123123   3.618   2.125   3.285 -1.3555  0.4244 -0.9375
 3888SOL    HW223124   3.601   2.029   3.388  0.8416  2.4563  0.1404
 3889SOL     OW23125   4.394   2.739   3.510 -0.2907  0.1249  0.9533
 3889SOL    HW123126   4.455   2.701   3.573  0.0420 -3.0233 -1.2786
 3889SOL    HW223127   4.382   2.674   3.441 -3.3111  0.1585  1.4208
 3890SOL     OW23128   4.476   2.832  12.461 -0.2896  0.1805 -0.3895
 3890SOL    HW123129   4.440   2.912  12.422  0.4100 -0.2065 -1.8089
 3890SOL    HW223130   4.546   2.868  12.516 -0.4456 -0.1213  0.0067
 3891SOL     OW23131   1.314   2.613   3.402 -0.3305 -1.1306  0.0714
 3891SOL    HW123132   1.328   2.666   3.324  1.4560 -1.4618  0.1798
 3891SOL    HW223133   1.380   2.544   3.405  0.8641 -0.0421 -1.6419
 3892SOL     OW23134   1.706   1.963   6.658  0.3312  0.7412  0.3777
 3892SOL    HW123135   1.694   2.035   6.596  1.9762  0.6418 -0.0544
 3892SOL    HW223136   1.769   2.000   6.720  0.3126  1.5537 -0.0893
 3893SOL     OW23137   0.406   3.839   5.765 -0.5836  0.1588 -0.1030
 3893SOL    HW123138   0.316   3.850   5.795 -0.0760 -0.0740  1.5230
 3893SOL    HW223139   0.417   3.749   5.736  3.1969  1.1794 -1.8407
 3894SOL     OW23140   1.790   0.577   3.799  0.6655 -0.2191  0.2585
 3894SOL    HW123141   1.874   0.610   3.768  0.8894 -0.7027  0.3416
 3894SOL    HW223142   1.795   0.617   3.885  0.5790  0.6513 -0.1385
 3895SOL     OW23143   2.547   1.319   3.041  0.1925  0.1148  0.4163
 3895SOL    HW123144   2.530   1.348   2.951  0.7566  0.5518  0.4424
 3895SOL    HW223145   2.642   1.307   3.041  0.2707  0.6818 -0.6081
 3896SOL     OW23146   3.157   2.354   1.946 -0.2073 -0.7409 -0.0871
 3896SOL    HW123147   3.242   2.343   1.903  0.3990 -0.4967  1.0546
 3896SOL    HW223148   3.181   2.323   2.033 -1.0889  0.2369  0.5042
 3897SOL     OW23149   2.217   4.616   9.404  0.4916 -0.0133  0.2569
 3897SOL    HW123150   2.208   4.549   9.471 -0.3538 -0.3308 -0.1833
 3897SOL    HW223151   2.298   4.660   9.433  0.7987  0.3155 -1.1008
 3898SOL     OW23152   2.314   1.040  14.657 -0.1309 -0.1921  0.4623
 3898SOL    HW123153   2.340   0.949  14.646 -1.0036 -0.3358 -0.4051
 3898SOL    HW223154   2.234   1.049  14.604  0.9630 -1.1322 -1.3432
 3899SOL     OW23155   0.012   1.123   6.942 -0.0157 -0.1903 -0.4662
 3899SOL    HW123156   0.069   1.052   6.971  2.5938  0.8782 -2.9656
 3899SOL    HW223157   4.691   1.085   6.867  1.0810  0.8337 -1.6702
 3900SOL     OW23158   1.989   3.920   1.709 -0.3682 -0.0647  0.2536
 3900SOL    HW123159   2.018   3.977   1.780  0.1295 -0.6474  0.5179
 3900SOL    HW223160   1.954   3.846   1.758 -0.2237 -0.0776  0.3365
 3901SOL     OW23161   0.382   4.646  17.194 -0.0392  0.1008  0.0749
 3901SOL    HW123162   0.440   4.702  17.246 -2.9684  0.1700  3.2161
 3901SOL    HW223163   0.428   4.652  17.110  2.6557 -1.9235  1.4215
 3902SOL     OW23164   3.957   3.051   4.568 -0.0219 -0.7220  0.0352
 3902SOL    HW123165   3.879   2.995   4.572 -0.4989 -0.0724 -0.0354
 3902SOL    HW223166   3.961   3.091   4.655 -0.2054  0.2377 -0.3968
 3903SOL     OW23167   2.246   1.392   5.127  0.7342  0.1532  0.4650
 3903SOL    HW123168   2.335   1.419   5.102  0.4107 -0.1087 -0.9222
 3903SOL    HW223169   2.200   1.469   5.093  0.2537  0.5791  2.0432
 3904SOL     OW23170   0.717   1.267  13.714 -0.0920 -0.1033  0.3295
 3904SOL    HW123171   0.691   1.194  13.771  0.6477 -1.1355 -0.6398
 3904SOL    HW223172   0.707   1.343  13.771 -0.4466 -0.5348  0.8509
 3905SOL     OW23173   2.335   0.416  11.105 -0.1565 -0.1831 -0.1118
 3905SOL    HW123174   2.250   0.409  11.062 -0.5122 -0.7990  0.7023
 3905SOL    HW223175   2.312   0.403  11.197  0.8598  1.2943  0.3538
 3906SOL     OW23176   1.254   1.276   7.252  0.3074 -0.0239  0.1215
 3906SOL    HW123177   1.202   1.245   7.177 -1.3077 -0.1716  1.2976
 3906SOL    HW223178   1.324   1.211   7.260  1.9489  1.6512 -0.6522
 3907SOL     OW23179   1.294   3.626   6.365  0.3809 -0.0748  0.0845
 3907SOL    HW123180   1.215   3.596   6.320 -0.4545  0.1634  1.4146
 3907SOL    HW223181   1.270   3.595   6.452 -1.2326  1.3743  0.1508
 3908SOL     OW23182   3.132   4.608   8.310 -0.5094  0.7135  0.6301
 3908SOL    HW123183   3.182   4.650   8.380 -0.8284  3.1756 -0.6341
 3908SOL    HW223184   3.055   4.577   8.358 -0.4549 -0.4437 -0.0179
 3909SOL     OW23185   3.976   0.242  11.587  0.3313  0.0700  0.6514
 3909SOL    HW123186   4.060   0.223  11.627 -0.3385 -0.1270  1.9617
 3909SOL    HW223187   3.932   0.157  11.588 -0.1988  0.3345  0.1516
 3910SOL     OW23188   1.626   3.520  15.010  0.0809  0.3547 -0.0432
 3910SOL    HW123189   1.692   3.590  15.012  0.4690  0.0284 -1.8540
 3910SOL    HW223190   1.544   3.570  15.008  0.4683  1.0235  0.8808
 3911SOL     OW23191   4.468   2.569  15.541  0.2701 -0.1485 -0.1713
 3911SOL    HW123192   4.477   2.556  15.446  1.1567 -2.9098  0.2803
 3911SOL    HW223193   4.535   2.512  15.579 -0.9410 -1.3180  0.1759
 3912SOL     OW23194   1.724   3.248   4.005  0.4193  0.4496  0.1350
 3912SOL    HW123195   1.765   3.195   3.937 -1.5135 -0.3203 -0.4458
 3912SOL    HW223196   1.642   3.281   3.968  2.0690  1.5901 -2.4659
 3913SOL     OW23197   2.012   3.415  10.390 -0.1549  0.4408  0.6833
 3913SOL    HW123198   2.104   3.398  10.408 -0.4480  0.6502  2.2988
 3913SOL    HW223199   1.989   3.351  10.322 -1.2745 -0.2137  1.6714
 3914SOL     OW23200   0.322   3.239  12.983 -0.5327  0.1074  0.8581
 3914SOL    HW123201   0.274   3.296  13.043 -2.1324 -0.0952 -0.2182
 3914SOL    HW223202   0.408   3.244  13.023 -0.5783  0.7578  0.8775
 3915SOL     OW23203   0.645   2.607  17.105 -0.4610  0.1505  0.4331
 3915SOL    HW123204   0.638   2.556  17.024 -1.0623  0.2769  0.4028
 3915SOL    HW223205   0.565   2.579  17.149 -2.3252  2.4726 -1.4971
 3916SOL     OW23206   2.606   1.377   4.004  1.3692  0.2941 -0.0938
 3916SOL    HW123207   2.698   1.359   4.027  1.4018 -0.8451 -1.1284
 3916SOL    HW223208   2.616   1.432   3.926  0.4193  0.1214 -0.3345
 3917SOL     OW23209   2.262   3.310   0.596 -0.5400 -0.2380  0.1578
 3917SOL    HW123210   2.204   3.347   0.530 -0.7959  1.5510  1.3778
 3917SOL    HW223211   2.249   3.215   0.594 -0.5741 -0.1807 -2.2927
 3918SOL     OW23212   2.670   0.822   8.253 -0.2458  0.1374  0.0250
 3918SOL    HW123213   2.688   0.882   8.325  1.7598 -0.3940 -0.0328
 3918SOL    HW223214   2.640   0.881   8.183 -0.3607 -0.1792 -0.1899
 3919SOL     OW23215   3.278   3.987   0.125  0.8456 -0.1360 -0.1298
 3919SOL    HW123216   3.363   4.031   0.115  0.0436  1.3816 -0.3039
 3919SOL    HW223217   3.301   3.894   0.124 -1.9372 -0.8269 -0.1764
 3920SOL     OW23218   0.386   2.720   8.754 -0.3472  0.6342  0.1115
 3920SOL    HW123219   0.302   2.703   8.711 -0.1601 -1.4379  0.5717
 3920SOL    HW223220   0.358   2.782   8.822 -0.7530 -0.7012  1.1623
 3921SOL     OW23221   0.558   1.809   2.311 -0.2695  0.3022  0.2237
 3921SOL    HW123222   0.510   1.885   2.279 -1.1185 -0.1554  0.4093
 3921SOL    HW223223   0.619   1.852   2.370  0.0939 -0.3060  0.2965
 3922SOL     OW23224   2.028   1.508   1.636  0.2655 -0.4747  0.1121
 3922SOL    HW123225   1.942   1.546   1.622  1.4099  1.1799 -2.4798
 3922SOL    HW223226   2.088   1.570   1.593 -0.4233 -0.0930 -0.2944
 3923SOL     OW23227   4.688   0.173   4.847  0.3285 -0.0242  0.4389
 3923SOL    HW123228   4.700   0.081   4.824  0.7221 -0.3252  1.8521
 3923SOL    HW223229   0.014   0.211   4.776 -0.1073  1.1508  0.7576
 3924SOL     OW23230   1.035   2.336   3.815  0.2510 -0.0765  0.2152
 3924SOL    HW123231   1.119   2.375   3.791  1.5355 -3.0576 -0.0999
 3924SOL    HW223232   1.033   2.268   3.748 -0.7969 -2.7922  3.0024
 3925SOL     OW23233   3.079   4.471   4.004  0.3476 -0.0951  0.3075
 3925SOL    HW123234   3.004   4.506   3.955  0.3298 -0.7193 -0.1067
 3925SOL    HW223235   3.037   4.420   4.074  2.0021 -0.3638  1.1019
 3926SOL     OW23236   4.444   4.407   9.910  0.2081 -0.4089 -0.0364
 3926SOL    HW123237   4.533   4.438   9.892 -0.2732  1.0176  0.0972
 3926SOL    HW223238   4.398   4.471   9.856 -3.5896 -3.3269 -0.2907
 3927SOL     OW23239   1.692   0.614   9.017 -0.3375  0.3302 -0.1897
 3927SOL    HW123240   1.659   0.654   9.098 -1.9996 -1.3757 -0.0335
 3927SOL    HW223241   1.663   0.524   9.035 -0.2125  0.5630  1.2228
 3928SOL     OW23242   1.071   1.621   5.230  0.1807 -0.2575 -0.2995
 3928SOL    HW123243   1.011   1.556   5.266 -1.8861  1.7242 -0.1500
 3928SOL    HW223244   1.115   1.638   5.314 -1.2034  1.9421 -0.0164
 3929SOL     OW23245   0.920   0.107   7.726  0.4447  0.5904  0.0799
 3929SOL    HW123246   0.927   0.202   7.734  2.0621  0.2109  2.9719
 3929SOL    HW223247   0.987   0.084   7.662  1.8587  1.6687  1.1747
 3930SOL     OW23248   2.269   0.049   7.341  0.6658 -0.5350 -0.4895
 3930SOL    HW123249   2.261   4.687   7.301 -0.3595 -0.8784  0.4361
 3930SOL    HW223250   2.271   0.105   7.264  0.4925 -2.4465 -1.8674
 3931SOL     OW23251   2.309   1.867  10.680 -0.2091 -0.3672  0.4432
 3931SOL    HW123252   2.248   1.934  10.648  1.1017 -0.4039 -2.1199
 3931SOL    HW223253   2.268   1.783  10.661  1.0502 -0.8522 -0.1161
 3932SOL     OW23254   3.825   2.536  11.694 -0.3781 -0.3362  0.3296
 3932SOL    HW123255   3.914   2.521  11.662  0.0422 -1.3189  1.9237
 3932SOL    HW223256   3.800   2.595  11.623 -0.1383 -2.4526 -1.5024
 3933SOL     OW23257   1.556   1.819   3.724  0.5692  0.1346 -0.1448
 3933SOL    HW123258   1.535   1.797   3.633  2.2670  0.9413 -0.7182
 3933SOL    HW223259   1.568   1.913   3.711 -0.8622  0.2856 -0.4122
 3934SOL     OW23260   2.654   1.558   3.832 -0.0515  0.1207  0.1144
 3934SOL    HW123261   2.577   1.594   3.788  0.0127 -0.6721 -0.6630
 3934SOL    HW223262   2.709   1.535   3.757 -0.3565  3.1075 -1.0067
 3935SOL     OW23263   2.588   2.722  10.778  0.1049  0.0535 -0.8530
 3935SOL    HW123264   2.514   2.708  10.721 -1.3797 -0.5947  1.2283
 3935SOL    HW223265   2.597   2.818  10.777 -1.3425  0.2428  2.6925
 3936SOL     OW23266   4.593   3.704   8.894  0.3934 -0.0931  0.3899
 3936SOL    HW123267   4.506   3.666   8.885 -0.0455  1.2941 -1.3117
 3936SOL    HW223268   4.620   3.672   8.980  1.9192  0.5261  0.1354
 3937SOL     OW23269   0.413   1.766   9.202 -0.0772 -0.2336 -0.4010
 3937SOL    HW123270   0.369   1.735   9.123 -0.8042  0.3536 -0.2314
 3937SOL    HW223271   0.449   1.852   9.181  0.6147 -1.1808 -3.0975
 3938SOL     OW23272   0.948   4.216   9.637  0.6313  0.4195  0.2477
 3938SOL    HW123273   0.947   4.165   9.718 -1.4986  1.5296  0.9081
 3938SOL    HW223274   0.856   4.201   9.613  0.8426 -0.2899 -0.1068
 3939SOL     OW23275   3.539   3.734  11.194  1.2931  0.0320 -0.2953
 3939SOL    HW123276   3.470   3.793  11.226  0.1777 -1.4655  0.0728
 3939SOL    HW223277   3.540   3.772  11.107  1.2083 -1.0072 -0.7501
 3940SOL     OW23278   2.271   0.714   1.558  0.5538 -0.6115  0.2463
 3940SOL    HW123279   2.363   0.713   1.584  0.6502  1.1534 -0.0179
 3940SOL    HW223280   2.235   0.778   1.619 -0.8856  0.5011 -1.7784
 3941SOL     OW23281   1.835   2.029   7.559  0.2614  0.0492 -0.5158
 3941SOL    HW123282   1.926   2.022   7.590  0.3387  0.9116 -0.5481
 3941SOL    HW223283   1.836   1.982   7.475  0.3606  0.0147 -0.4957
 3942SOL     OW23284   0.175   3.109   7.918 -0.1369 -0.2025 -0.0713
 3942SOL    HW123285   0.095   3.062   7.896 -0.4749  0.5113 -0.3910
 3942SOL    HW223286   0.234   3.046   7.877  1.5696  1.5760 -0.3483
 3943SOL     OW23287   4.718   2.613   8.124  0.6987 -0.4427 -0.0978
 3943SOL    HW123288   4.669   2.654   8.195  0.8123  1.0424 -0.8770
 3943SOL    HW223289   4.678   2.657   8.049 -0.1956  0.8653  1.1485
 3944SOL     OW23290   4.311   0.048   1.448  0.1866 -0.8933  0.2071
 3944SOL    HW123291   4.303   0.141   1.471 -0.0379 -1.1962  1.3227
 3944SOL    HW223292   4.386   0.048   1.389  1.0830  1.7978  1.3783
 3945SOL     OW23293   2.168   1.226   8.404 -0.0025  0.3227 -0.2167
 3945SOL    HW123294   2.226   1.169   8.355 -0.0373  1.4703 -1.5878
 3945SOL    HW223295   2.225   1.276   8.464 -0.4835 -1.0474  1.3762
 3946SOL     OW23296   1.716   2.547   7.391  0.2045 -0.0961 -0.5750
 3946SOL    HW123297   1.738   2.455   7.404  0.7413  0.4832  2.7618
 3946SOL    HW223298   1.788   2.585   7.441 -0.3946 -0.0954  0.2937
 3947SOL     OW23299   1.376   0.540   8.358 -0.2754 -0.2722  0.0602
 3947SOL    HW123300   1.401   0.551   8.266  0.9815 -0.5094  0.3678
 3947SOL    HW223301   1.391   0.629   8.390  1.5398 -0.7367  0.5202
 3948SOL     OW23302   1.892   4.206   8.788  0.3788 -0.1921 -0.5182
 3948SOL    HW123303   1.882   4.135   8.852 -1.0433 -1.6938 -2.4275
 3948SOL    HW223304   1.897   4.268   8.861 -0.0644 -0.3231 -0.3808
 3949SOL     OW23305   4.166   0.512   3.474  0.0571  0.9011  0.5225
 3949SOL    HW123306   4.195   0.547   3.559  0.4365  2.0223 -0.0653
 3949SOL    HW223307   4.142   0.422   3.493  2.6973  0.0865  0.0431
 3950SOL     OW23308   3.798   4.244   2.070  0.5620 -0.3749  0.4442
 3950SOL    HW123309   3.794   4.222   2.163 -0.8968 -0.7357  0.3049
 3950SOL    HW223310   3.868   4.190   2.033  0.5481  0.1388 -0.3173
 3951SOL     OW23311   2.063   2.549   8.221 -0.2322 -0.0752  0.1354
 3951SOL    HW123312   2.108   2.597   8.290  0.3807 -2.3883  1.3170
 3951SOL    HW223313   2.087   2.605   8.147 -0.7828 -1.5120 -1.1278
 3952SOL     OW23314   4.489   4.626   4.151  0.0619  0.3345  0.6219
 3952SOL    HW123315   4.572   4.667   4.127  0.9979 -0.5933  2.2960
 3952SOL    HW223316   4.502   4.546   4.101  1.1545 -0.0341  1.5117
 3953SOL     OW23317   0.475   0.314  15.545  0.4116  0.5901 -0.2017
 3953SOL    HW123318   0.426   0.320  15.463  0.6772  0.8076 -0.3453
 3953SOL    HW223319   0.564   0.307  15.512 -0.6081 -1.5892 -2.4092
 3954SOL     OW23320   0.084   3.015   3.641 -0.1161 -0.3520  0.2094
 3954SOL    HW123321   0.097   3.023   3.735  0.9717 -0.6370  0.0822
 3954SOL    HW223322   0.109   3.101   3.609  1.4061 -1.0223 -0.3891
 3955SOL     OW23323   0.917   1.725  17.177 -0.2155 -0.3911  0.2433
 3955SOL    HW123324   0.908   1.817  17.200  1.9393 -0.4496  1.2974
 3955SOL    HW223325   0.909   1.694  17.267 -2.1776 -0.8428 -0.0837
 3956SOL     OW23326   2.432   4.528   4.892 -0.3108  0.0447  0.3340
 3956SOL    HW123327   2.360   4.589   4.905  0.0171  0.3095  0.8765
 3956SOL    HW223328   2.470   4.572   4.815  1.8312 -0.9904  0.7919
 3957SOL     OW23329   3.451   1.223   9.259 -0.3772 -0.4764  0.7192
 3957SOL    HW123330   3.522   1.231   9.322 -1.3610 -0.2940  1.8162
 3957SOL    HW223331   3.486   1.278   9.189 -0.2976  2.0627  2.7544
 3958SOL     OW23332   3.259   0.944   4.869 -0.3489 -0.2861 -0.4803
 3958SOL    HW123333   3.303   1.001   4.932 -0.6491 -0.6375  0.0475
 3958SOL    HW223334   3.321   0.871   4.861  1.1438  0.9975 -0.6102
 3959SOL     OW23335   4.144   2.846   0.296  0.1254  0.2093 -0.1325
 3959SOL    HW123336   4.171   2.863   0.205  1.6784  1.3506  0.5354
 3959SOL    HW223337   4.232   2.833   0.331 -0.0880 -0.0988  0.2903
 3960SOL     OW23338   1.404   1.758   9.872 -0.2612 -0.3519 -0.3549
 3960SOL    HW123339   1.495   1.730   9.887 -0.7707 -0.5949  2.2026
 3960SOL    HW223340   1.353   1.693   9.921  0.6326 -2.2040 -1.8902
 3961SOL     OW23341   3.596   4.064   9.271  1.0572 -0.2173 -0.3572
 3961SOL    HW123342   3.510   4.044   9.308  0.2105  2.9033 -0.6817
 3961SOL    HW223343   3.589   4.145   9.222 -1.9937  0.3926  1.0871
 3962SOL     OW23344   2.020   0.219  10.077  0.1565 -0.2003 -0.2418
 3962SOL    HW123345   2.098   0.256  10.035 -0.2386  0.9128  0.0080
 3962SOL    HW223346   2.032   0.125  10.064 -0.0225 -0.2967  0.2700
 3963SOL     OW23347   2.725   0.509   8.334 -0.1165 -0.1614  0.2113
 3963SOL    HW123348   2.725   0.492   8.240 -0.5312 -1.6839  0.4826
 3963SOL    HW223349   2.816   0.482   8.344 -0.2884 -0.8987 -0.1822
 3964SOL     OW23350   3.995   4.566   2.166  0.2696  0.2800  0.5063
 3964SOL    HW123351   3.972   4.651   2.127  0.0772  0.0755  0.1697
 3964SOL    HW223352   3.927   4.503   2.142  2.1091 -1.3029 -0.5892
 3965SOL     OW23353   2.697   0.725  10.913 -0.3175 -0.2862  0.2668
 3965SOL    HW123354   2.609   0.746  10.879 -0.2097  0.0781  0.2187
 3965SOL    HW223355   2.678   0.709  11.006 -2.5066  0.7735  0.0092
 3966SOL     OW23356   1.374   4.097  13.948  0.0220  0.2595 -0.3155
 3966SOL    HW123357   1.373   4.157  14.022 -0.8485 -0.0129 -0.1070
 3966SOL    HW223358   1.375   4.015  13.998 -0.7203 -0.8048 -2.0452
 3967SOL     OW23359   2.700   2.189   1.588 -0.4830  0.5741 -0.2996
 3967SOL    HW123360   2.713   2.094   1.584  0.3114  0.6434  0.8662
 3967SOL    HW223361   2.786   2.226   1.573 -0.6028  0.7486 -0.5497
 3968SOL     OW23362   2.589   2.338   0.307  0.7051  0.0019  0.0217
 3968SOL    HW123363   2.680   2.344   0.335  0.3359  0.1553  1.1993
 3968SOL    HW223364   2.556   2.306   0.392  0.9306 -1.5440 -0.4682
 3969SOL     OW23365   4.584   1.076   3.846 -0.0381  0.1730  0.0756
 3969SOL    HW123366   4.680   1.080   3.848 -0.0700  0.1994  1.6761
 3969SOL    HW223367   4.560   1.058   3.937  2.8592 -3.7473  0.0492
 3970SOL     OW23368   2.690   3.942   6.537  0.6183 -0.3153  0.3559
 3970SOL    HW123369   2.609   3.931   6.487  0.5462  2.4563 -0.1205
 3970SOL    HW223370   2.667   3.947   6.630 -1.9958  0.1944 -0.3071
 3971SOL     OW23371   1.834   2.857   4.332 -0.2931  0.3515  0.3986
 3971SOL    HW123372   1.803   2.944   4.306 -1.9618 -1.2878 -3.2036
 3971SOL    HW223373   1.878   2.899   4.406  2.3445  1.2789 -1.6968
 3972SOL     OW23374   0.271   1.503   5.731  0.1592 -0.8322 -0.8319
 3972SOL    HW123375   0.358   1.468   5.709  1.1582  0.9026  0.3645
 3972SOL    HW223376   0.277   1.491   5.826 -4.5418  0.4008 -0.3987
 3973SOL     OW23377   1.932   4.578   8.955  0.8182  0.3981 -0.0724
 3973SOL    HW123378   1.892   4.492   8.971  1.1751  0.1312 -0.5960
 3973SOL    HW223379   1.984   4.595   9.033  0.4148  0.4892  0.1755
 3974SOL     OW23380   1.365   0.869   2.681  0.2876 -0.0490 -0.0661
 3974SOL    HW123381   1.310   0.895   2.754 -0.1401  0.4930 -0.5869
 3974SOL    HW223382   1.308   0.810   2.632 -1.2553  0.4703  1.1125
 3975SOL     OW23383   1.586   0.052  16.017 -0.2406 -0.2382 -0.0047
 3975SOL    HW123384   1.564   0.066  15.925 -1.1541  0.1490  0.2772
 3975SOL    HW223385   1.524   0.113  16.056 -1.4872 -0.5068 -1.5652
 3976SOL     OW23386   1.430   4.016   9.065 -0.0805 -0.0279  0.4153
 3976SOL    HW123387   1.469   4.054   9.143 -0.8182  0.0182  0.7590
 3976SOL    HW223388   1.359   4.077   9.044  1.5188  1.4792 -0.6594
 3977SOL     OW23389   3.093   0.526  11.815  0.0070 -0.2858  0.0162
 3977SOL    HW123390   3.018   0.490  11.863 -0.0428  1.0345  0.9210
 3977SOL    HW223391   3.080   0.488  11.728  1.0092  3.0219 -1.5643
 3978SOL     OW23392   4.052   1.428   4.511  0.5521  0.0599 -0.2653
 3978SOL    HW123393   4.044   1.431   4.415 -0.0004  0.8778 -0.1978
 3978SOL    HW223394   4.030   1.520   4.525  1.3632  0.6351 -2.6652
 3979SOL     OW23395   4.344   0.177   7.350  0.4041  0.2259 -0.0347
 3979SOL    HW123396   4.258   0.213   7.329  0.7918  0.5708 -1.0653
 3979SOL    HW223397   4.385   0.213   7.271 -0.5983 -2.3510 -1.7633
 3980SOL     OW23398   3.657   3.778   6.760  0.0531  0.4327 -0.1707
 3980SOL    HW123399   3.712   3.756   6.684 -1.3148 -1.1585 -0.6880
 3980SOL    HW223400   3.709   3.764   6.839  0.2041 -1.4248 -0.5804
 3981SOL     OW23401   1.747   2.727   4.616  0.3346  0.4585  0.3923
 3981SOL    HW123402   1.672   2.675   4.644  1.4320 -1.3186  0.0095
 3981SOL    HW223403   1.710   2.815   4.620  0.5540  0.5660  0.0654
 3982SOL     OW23404   0.486   2.413   6.001 -0.3024 -0.2126  0.1106
 3982SOL    HW123405   0.554   2.365   6.049 -0.7263 -2.7869 -1.8287
 3982SOL    HW223406   0.434   2.452   6.071 -2.3863 -1.0663 -0.9719
 3983SOL     OW23407   3.869   1.200   7.690 -0.1455  0.0652  0.5044
 3983SOL    HW123408   3.809   1.238   7.753  0.8233 -2.0839  2.7531
 3983SOL    HW223409   3.895   1.277   7.639 -2.4423  1.0056  0.7740
 3984SOL     OW23410   2.728   2.541   0.804  0.4113 -0.2601  0.1950
 3984SOL    HW123411   2.710   2.554   0.898 -0.7345  2.3907 -0.3793
 3984SOL    HW223412   2.664   2.474   0.782  1.7966 -1.8007  0.9086
 3985SOL     OW23413   2.867   4.716  14.551  0.5269  0.4247 -0.1515
 3985SOL    HW123414   2.897   0.021  14.637  2.7857 -1.5073 -0.2679
 3985SOL    HW223415   2.948   4.678  14.516 -0.2539  0.2979 -1.8139
 3986SOL     OW23416   4.346   4.083   7.987 -0.2332  0.8156  0.3383
 3986SOL    HW123417   4.414   4.035   7.940  0.2199  0.4694  1.3497
 3986SOL    HW223418   4.268   4.034   7.959 -0.0749  2.1135 -2.3172
 3987SOL     OW23419   2.386   1.543  15.831 -0.5046  0.1941  0.1284
 3987SOL    HW123420   2.473   1.526  15.793  0.0153  1.5896  0.7130
 3987SOL    HW223421   2.327   1.560  15.757  0.8232 -0.9536 -1.2058
 3988SOL     OW23422   1.903   4.561  13.874 -0.9355 -0.0141 -0.1406
 3988SOL    HW123423   1.982   4.568  13.927 -1.1994 -0.9800  0.3909
 3988SOL    HW223424   1.835   4.532  13.935  0.4925  0.1734  1.5464
 3989SOL     OW23425   4.417   4.666   4.821  0.3657  0.2931 -0.4143
 3989SOL    HW123426   4.382   0.028   4.805 -0.0203  0.5485  1.9041
 3989SOL    HW223427   4.512   4.682   4.824 -0.1842  3.7013 -2.0151
 3990SOL     OW23428   2.858   1.112  16.463  0.2154 -0.1406 -0.0452
 3990SOL    HW123429   2.941   1.064  16.459  1.3623  1.8557 -0.6813
 3990SOL    HW223430   2.880   1.179  16.398 -2.7855  1.2643  0.4112
 3991SOL     OW23431   2.444   2.383   2.336  0.0910  0.6097  0.1980
 3991SOL    HW123432   2.383   2.344   2.399 -0.3464 -0.1922 -0.7241
 3991SOL    HW223433   2.527   2.348   2.369 -0.1004 -1.8323 -1.9504
 3992SOL     OW23434   2.102   0.925  13.312  0.3495 -0.0361  0.3073
 3992SOL    HW123435   2.045   0.994  13.347  2.4466  1.5309  0.6371
 3992SOL    HW223436   2.162   0.966  13.250  0.5220 -1.2448 -0.3218
 3993SOL     OW23437   4.317   1.605   1.036 -0.2539 -0.5245 -0.8278
 3993SOL    HW123438   4.242   1.554   1.064 -0.1823  0.1161  0.5005
 3993SOL    HW223439   4.381   1.535   1.020  0.9390  0.5435 -0.7920
 3994SOL     OW23440   3.673   4.194  11.168  1.4907  0.2106 -0.4868
 3994SOL    HW123441   3.750   4.144  11.193  1.3841  0.7580  0.9524
 3994SOL    HW223442   3.632   4.211  11.253  0.7292  0.4521 -0.8968
 3995SOL     OW23443   4.254   2.937   7.697  0.3812 -0.1749 -0.2883
 3995SOL    HW123444   4.159   2.945   7.693  0.3941  0.3149  0.4568
 3995SOL    HW223445   4.282   3.025   7.670  0.0531  0.2815  0.8911
 3996SOL     OW23446   0.604   1.326   5.929  0.1414 -0.6723 -0.2191
 3996SOL    HW123447   0.590   1.274   6.008 -1.1882 -1.7611 -1.1747
 3996SOL    HW223448   0.609   1.413   5.969 -1.2770 -0.9769  0.6421
 3997SOL     OW23449   0.701   1.763   3.085 -0.1194 -0.5273 -0.5782
 3997SOL    HW123450   0.686   1.856   3.102  2.0717 -0.6071  1.8619
 3997SOL    HW223451   0.648   1.762   3.005  0.2611  0.4991 -0.8469
 3998SOL     OW23452   3.639   4.117  13.807  0.0364  0.0882  0.3149
 3998SOL    HW123453   3.629   4.207  13.776  1.0271  0.2501  0.4654
 3998SOL    HW223454   3.626   4.132  13.900  2.0651 -0.2460  0.6677
 3999SOL     OW23455   0.909   0.529   9.424  0.1519 -0.3237 -0.0990
 3999SOL    HW123456   0.986   0.581   9.404  0.0935 -0.4759 -0.7035
 3999SOL    HW223457   0.947   0.484   9.500 -1.0107  0.5153  0.9911
 4000SOL     OW23458   0.980   0.702   5.061 -0.4037  0.1489 -0.0906
 4000SOL    HW123459   1.064   0.748   5.059  0.6562 -1.7852  0.3760
 4000SOL    HW223460   1.010   0.612   5.049  1.2211  1.1657 -3.6671
 4001SOL     OW23461   0.541   2.006   4.300  0.7147 -1.2140 -0.5450
 4001SOL    HW123462   0.480   2.068   4.342  1.0581 -1.1802 -0.0925
 4001SOL    HW223463   0.627   2.034   4.332 -0.4541  0.8127  0.8822
 4002SOL     OW23464   3.790   2.010   8.170 -0.3129  0.6145 -0.0906
 4002SOL    HW123465   3.775   1.946   8.100  0.6935 -0.3441  0.5847
 4002SOL    HW223466   3.703   2.051   8.173 -0.9117 -0.6401 -0.0106
 4003SOL     OW23467   0.950   3.221   2.728 -0.2548  0.1016 -0.1495
 4003SOL    HW123468   0.933   3.199   2.636  0.9331  0.6748 -0.5079
 4003SOL    HW223469   1.008   3.156   2.768  0.0246  1.6506  1.9210
 4004SOL     OW23470   3.954   4.363   0.171  0.3144  0.5253 -0.0819
 4004SOL    HW123471   4.050   4.370   0.166  0.4089 -0.5020  0.2326
 4004SOL    HW223472   3.922   4.415   0.098 -1.9773 -2.5555 -1.2571
 4005SOL     OW23473   2.689   3.097  14.936  0.6735 -0.2071  0.5634
 4005SOL    HW123474   2.768   3.048  14.957 -0.5109 -2.8565 -1.2085
 4005SOL    HW223475   2.742   3.163  14.892 -0.4764 -0.4502 -1.1756
 4006SOL     OW23476   0.648   0.550   3.710  0.2531  0.3965  0.1230
 4006SOL    HW123477   0.741   0.574   3.711  0.8279 -1.9098  2.3161
 4006SOL    HW223478   0.634   0.532   3.803 -0.3773  0.2510 -0.0002
 4007SOL     OW23479   0.249   4.623   0.895 -0.2029 -0.2870 -0.1818
 4007SOL    HW123480   0.176   4.608   0.834 -0.7063 -0.8534  0.5639
 4007SOL    HW223481   0.224   4.574   0.973 -1.4893  0.8084  0.0871
 4008SOL     OW23482   3.237   0.158   9.541  0.1518  0.4327  0.1368
 4008SOL    HW123483   3.259   0.238   9.590 -0.3731  0.3437  0.5162
 4008SOL    HW223484   3.165   0.192   9.488 -0.9224 -1.0743  0.6376
 4009SOL     OW23485   3.183   0.390   2.495 -0.4881 -0.8086  0.1077
 4009SOL    HW123486   3.171   0.416   2.404 -0.2968  0.6542  0.5014
 4009SOL    HW223487   3.278   0.385   2.504 -0.2638  1.9289 -0.7012
 4010SOL     OW23488   2.140   1.641   3.328  0.1529  0.6525 -0.0406
 4010SOL    HW123489   2.045   1.638   3.312  0.6231 -1.0670 -2.5438
 4010SOL    HW223490   2.172   1.575   3.267 -0.2816  0.1972  0.2193
 4011SOL     OW23491   0.738   4.695  12.782  0.4378 -0.6565 -0.0626
 4011SOL    HW123492   0.688   4.709  12.863  0.8778 -2.6492  0.5637
 4011SOL    HW223493   0.691   4.625  12.738  1.2612 -0.6303 -0.9803
 4012SOL     OW23494   2.241   4.680   2.440 -0.7355 -0.2657  0.3587
 4012SOL    HW123495   2.194   4.651   2.518 -1.3383 -1.8043 -0.5853
 4012SOL    HW223496   2.170   4.721   2.390  0.4231  1.3240  0.0026
 4013SOL     OW23497   1.315   2.186   6.283  0.0535  0.0133  0.2350
 4013SOL    HW123498   1.338   2.263   6.334 -1.2247 -0.4822  1.5342
 4013SOL    HW223499   1.299   2.121   6.351 -0.3746  0.0675  0.1866
 4014SOL     OW23500   0.599   1.949   3.364  0.4557  0.0144 -0.4654
 4014SOL    HW123501   0.504   1.949   3.350  0.3811 -2.7675  0.0110
 4014SOL    HW223502   0.627   1.995   3.286 -1.8745 -1.1280 -1.9913
 4015SOL     OW23503   1.383   1.334  12.638 -0.4119 -0.5168  0.0317
 4015SOL    HW123504   1.464   1.376  12.611 -0.4855 -1.2462 -1.3259
 4015SOL    HW223505   1.330   1.404  12.677 -0.4627  0.8759 -2.5794
 4016SOL     OW23506   4.428   2.887  10.666 -0.4946 -0.2557  0.2016
 4016SOL    HW123507   4.364   2.958  10.672 -0.1435 -0.0680  1.7621
 4016SOL    HW223508   4.403   2.829  10.738 -0.9742  0.0198  0.2565
 4017SOL     OW23509   4.479   0.251   2.378 -0.1945  0.1152  0.3956
 4017SOL    HW123510   4.386   0.276   2.371  0.6479  2.7851 -1.5217
 4017SOL    HW223511   4.503   0.198   2.302 -0.8430  1.3494 -0.6927
 4018SOL     OW23512   3.615   1.021  13.257  0.2489 -0.1210  0.1369
 4018SOL    HW123513   3.599   0.926  13.260 -0.0583 -0.0726 -0.0465
 4018SOL    HW223514   3.544   1.055  13.309  0.6407  0.6846  0.1406
 4019SOL     OW23515   3.247   3.136   5.814  0.4395 -0.3427  0.0777
 4019SOL    HW123516   3.154   3.112   5.812  0.5686 -1.0529  2.9053
 4019SOL    HW223517   3.247   3.182   5.898  0.2847  0.6809 -0.4773
 4020SOL     OW23518   2.334   2.001   4.714  0.1882  0.2463 -1.0286
 4020SOL    HW123519   2.341   1.939   4.786  0.7310  0.6991 -0.7000
 4020SOL    HW223520   2.246   1.981   4.682 -0.2223  1.0783 -0.4074
 4021SOL     OW23521   3.288   3.405   4.916 -0.2938 -0.5770 -0.3693
 4021SOL    HW123522   3.239   3.476   4.874  1.0260  1.2098  1.1178
 4021SOL    HW223523   3.373   3.444   4.936  0.3690 -1.7220 -0.9628
 4022SOL     OW23524   4.716   2.074  12.935  0.0839  0.3373  0.1247
 4022SOL    HW123525   0.035   2.023  13.003 -1.5548  0.3676  1.1960
 4022SOL    HW223526   4.642   2.021  12.907 -0.5837  1.4699 -0.2597
 4023SOL     OW23527   2.629   0.750   9.871  0.4925  0.1150 -0.0744
 4023SOL    HW123528   2.563   0.812   9.903 -0.0324  0.0792 -1.0847
 4023SOL    HW223529   2.701   0.784   9.923  1.9238 -2.4454 -0.3900
 4024SOL     OW23530   2.795   0.454  11.773 -0.2428 -0.0259 -0.3202
 4024SOL    HW123531   2.700   0.439  11.773  0.0574 -1.9471 -0.2318
 4024SOL    HW223532   2.830   0.413  11.852 -0.0395 -0.2516 -0.5287
 4025SOL     OW23533   3.630   2.067   5.215 -0.5916 -0.1105 -0.0868
 4025SOL    HW123534   3.659   2.089   5.126 -1.4109 -0.6272 -0.4832
 4025SOL    HW223535   3.548   2.023   5.190  0.1893 -0.8940 -1.2863
 4026SOL     OW23536   2.112   0.090  15.992  0.0365  0.0474  0.6182
 4026SOL    HW123537   2.030   0.052  15.961  0.7165  1.7595 -3.1895
 4026SOL    HW223538   2.124   0.165  15.934 -1.6162  1.2989  1.8996
 4027SOL     OW23539   2.045   1.699  12.247 -0.3854  0.0470  0.0690
 4027SOL    HW123540   1.977   1.638  12.218 -1.7967  1.7376 -0.1002
 4027SOL    HW223541   2.109   1.689  12.176 -0.2091 -0.2322  0.2615
 4028SOL     OW23542   4.059   4.250   6.588  0.0714 -0.2766  0.2196
 4028SOL    HW123543   4.052   4.341   6.618 -1.4663 -0.2592 -0.1705
 4028SOL    HW223544   4.116   4.216   6.656 -0.7343 -2.0121  0.0224
 4029SOL     OW23545   3.635   4.404   8.861  0.3139 -0.1159  0.0069
 4029SOL    HW123546   3.645   4.497   8.839 -3.7331  0.4423  0.4432
 4029SOL    HW223547   3.723   4.369   8.857  0.1856 -0.0709 -2.7096
 4030SOL     OW23548   4.315   1.039   3.322  0.1597  0.3345 -0.6243
 4030SOL    HW123549   4.300   0.960   3.270 -1.4431  1.0515 -1.2526
 4030SOL    HW223550   4.323   1.103   3.252  0.2647  0.8662 -0.1302
 4031SOL     OW23551   3.417   4.203   5.383  0.4503 -0.4779 -0.3188
 4031SOL    HW123552   3.348   4.229   5.322 -0.1032  0.3352  0.6370
 4031SOL    HW223553   3.485   4.173   5.324  0.0059 -0.5429 -0.7919
 4032SOL     OW23554   0.105   2.690  10.143 -0.6423  0.0029 -0.0543
 4032SOL    HW123555   0.067   2.725  10.223 -1.4094 -0.3742 -0.2573
 4032SOL    HW223556   0.039   2.621  10.144  1.0844 -1.6332  0.4213
 4033SOL     OW23557   3.075   4.722   9.718  0.0025  0.8041 -0.0139
 4033SOL    HW123558   3.142   0.049   9.674 -0.2311  1.2744  0.1792
 4033SOL    HW223559   3.025   0.069   9.757  1.4965  0.8916  1.6941
 4034SOL     OW23560   0.889   0.389  10.569  0.7490  0.0615  0.6868
 4034SOL    HW123561   0.914   0.481  10.571 -1.3767  0.6030  2.1706
 4034SOL    HW223562   0.949   0.342  10.627  0.4438  1.7062  2.3273
 4035SOL     OW23563   3.273   2.218   8.347  0.3945  0.4024  0.4005
 4035SOL    HW123564   3.189   2.191   8.384 -0.3242  0.6402 -1.0644
 4035SOL    HW223565   3.271   2.313   8.345  2.5288  0.4397 -0.2930
 4036SOL     OW23566   0.282   4.630   8.857 -0.0745  0.0674  0.5078
 4036SOL    HW123567   0.260   4.578   8.934 -2.7881  1.1109  0.4576
 4036SOL    HW223568   0.343   4.693   8.894 -0.0595  0.5184 -0.2841
 4037SOL     OW23569   1.629   2.144  17.516  0.5749  0.6164  0.5121
 4037SOL    HW123570   1.684   2.084  17.465  0.7742 -0.5714  2.1196
 4037SOL    HW223571   1.623   2.219  17.457  0.7229 -0.2628 -0.6349
 4038SOL     OW23572   4.008   4.199  15.262  0.4670  0.6332  0.0598
 4038SOL    HW123573   4.103   4.189  15.254  0.4284  0.7465 -0.5397
 4038SOL    HW223574   4.007   4.249  15.343  0.4690  0.9085 -0.1082
 4039SOL     OW23575   2.680   0.659   5.481 -0.1407 -0.0868  0.0319
 4039SOL    HW123576   2.730   0.581   5.504 -2.0142 -1.2777  0.0298
 4039SOL    HW223577   2.644   0.636   5.396  0.2646  1.2195 -0.5074
 4040SOL     OW23578   1.266   0.434   7.097  0.1382  0.2342  0.4647
 4040SOL    HW123579   1.269   0.517   7.049  0.0539 -0.3637 -0.5526
 4040SOL    HW223580   1.314   0.457   7.178  2.0032 -2.2193  0.0609
 4041SOL     OW23581   2.174   3.055  13.683 -0.0664  0.0241  0.3842
 4041SOL    HW123582   2.267   3.036  13.670  0.0591 -1.0786  2.8847
 4041SOL    HW223583   2.173   3.148  13.660 -0.1852  0.3214  1.6092
 4042SOL     OW23584   0.015   3.476   8.079 -0.6409  0.6207 -0.2752
 4042SOL    HW123585   4.673   3.411   8.059  1.9781 -2.1858  0.0056
 4042SOL    HW223586   0.086   3.419   8.110 -0.0404  1.8809  0.6633
 4043SOL     OW23587   0.662   2.051  10.854  0.5587 -0.0740  0.3166
 4043SOL    HW123588   0.584   2.025  10.903 -1.1683  0.5146 -2.1434
 4043SOL    HW223589   0.676   1.974  10.799  1.8205 -1.2317  2.2597
 4044SOL     OW23590   2.109   3.895  10.118  0.1594  0.5528 -0.2479
 4044SOL    HW123591   2.091   3.815  10.167  1.3586  0.3991 -0.0580
 4044SOL    HW223592   2.182   3.938  10.164 -2.2350  0.9811  3.1177
 4045SOL     OW23593   4.692   4.520   3.916 -0.1221 -1.0185  0.2733
 4045SOL    HW123594   4.657   4.506   3.828  0.3400 -1.1611  0.1081
 4045SOL    HW223595   4.713   4.433   3.948  0.7838 -0.3510  1.5289
 4046SOL     OW23596   0.497   0.524  14.059 -0.3364  0.5312  0.2843
 4046SOL    HW123597   0.520   0.469  13.985 -1.3407  2.5093 -1.5085
 4046SOL    HW223598   0.580   0.527  14.107  0.0576 -1.6516 -0.2595
 4047SOL     OW23599   1.353   0.802   6.063 -0.0497 -0.2207 -0.2723
 4047SOL    HW123600   1.314   0.858   5.996  0.2747  1.1566  0.6880
 4047SOL    HW223601   1.403   0.873   6.102  0.1156  0.9228 -2.5903
 4048SOL     OW23602   1.049   2.821  10.914 -1.1282 -0.2284  0.2452
 4048SOL    HW123603   1.056   2.758  10.843 -0.0732  1.9961 -1.6078
 4048SOL    HW223604   1.065   2.897  10.858  1.3772 -0.2940  0.8616
 4049SOL     OW23605   4.080   2.844   1.487 -0.7709  0.8197  0.0761
 4049SOL    HW123606   4.141   2.854   1.560  1.2212  0.9468 -1.6101
 4049SOL    HW223607   4.106   2.920   1.435  1.0989  1.0605  1.3637
 4050SOL     OW23608   4.666   1.770   8.670  0.5490  0.1797 -0.1736
 4050SOL    HW123609   4.617   1.844   8.634 -0.7039 -0.7946 -0.4649
 4050SOL    HW223610   4.609   1.702   8.634  1.9978 -0.7365 -0.7333
 4051SOL     OW23611   0.882   3.131   6.109  0.3018  0.2424  0.4760
 4051SOL    HW123612   0.805   3.162   6.062 -0.3960 -0.4518  1.1685
 4051SOL    HW223613   0.885   3.037   6.090 -1.0957  0.1881  0.5077
 4052SOL     OW23614   1.461   0.940   7.700 -0.3092 -0.3048 -0.2835
 4052SOL    HW123615   1.484   1.006   7.635 -1.1522  0.5933  0.3468
 4052SOL    HW223616   1.506   0.970   7.779 -1.4194 -0.5900  0.4507
 4053SOL     OW23617   1.285   2.154   5.844 -0.0918  0.4651 -0.4235
 4053SOL    HW123618   1.216   2.100   5.806 -0.8726  1.0118  0.2161
 4053SOL    HW223619   1.356   2.143   5.781 -0.3459 -0.5750 -0.5313
 4054SOL     OW23620   0.418   4.051   1.812  0.0015 -0.1723 -0.1711
 4054SOL    HW123621   0.430   4.132   1.763  1.5115 -0.9421 -1.1009
 4054SOL    HW223622   0.478   3.987   1.772 -0.4133  0.3797 -1.6594
 4055SOL     OW23623   2.915   3.747   4.689  0.0162 -0.2108  0.0898
 4055SOL    HW123624   2.845   3.701   4.642  0.2885 -0.9771  0.4329
 4055SOL    HW223625   2.864   3.823   4.721 -2.3957 -2.0228  0.5860
 4056SOL     OW23626   1.927   4.033   4.371 -0.5900 -0.2781 -0.0320
 4056SOL    HW123627   1.904   3.947   4.337  0.6440 -0.2551 -0.9035
 4056SOL    HW223628   1.845   4.081   4.379 -1.2861 -1.3717 -0.5612
 4057SOL     OW23629   2.992   0.095  14.760  0.5303 -0.4167  0.2381
 4057SOL    HW123630   3.032   0.103  14.847  0.1794  0.4237  0.3191
 4057SOL    HW223631   3.071   0.110  14.707 -0.3676  1.2704 -0.6060
 4058SOL     OW23632   2.302   4.595   0.177 -0.6697  0.4412  0.6814
 4058SOL    HW123633   2.380   4.648   0.192  1.1887 -2.8230  2.6231
 4058SOL    HW223634   2.233   4.659   0.195  0.9270  1.4176  3.3342
 4059SOL     OW23635   3.852   3.382   1.100  0.4899  0.5103 -0.0240
 4059SOL    HW123636   3.778   3.373   1.160 -0.8094 -0.7078 -1.8223
 4059SOL    HW223637   3.860   3.290   1.075  0.3969  1.0982 -2.2132
 4060SOL     OW23638   0.717   0.505   2.430  0.0699 -0.4776  0.1235
 4060SOL    HW123639   0.676   0.587   2.402 -1.5731 -0.4933  2.4508
 4060SOL    HW223640   0.757   0.475   2.348  0.8528  1.2831 -0.1354
 4061SOL     OW23641   1.597   3.445  16.537 -0.4058  0.5262  0.6634
 4061SOL    HW123642   1.549   3.520  16.503 -1.1899 -1.6354 -3.0012
 4061SOL    HW223643   1.573   3.384  16.468  2.1103  0.4252 -0.1272
 4062SOL     OW23644   1.746   3.085   1.225 -0.0454 -0.0831  0.5578
 4062SOL    HW123645   1.817   3.139   1.191  0.3926 -1.9458 -1.4957
 4062SOL    HW223646   1.666   3.117   1.182 -0.5478 -0.2448  1.3654
 4063SOL     OW23647   2.347   3.118  17.335  0.4097 -0.2482  0.1491
 4063SOL    HW123648   2.257   3.148  17.341  0.4724 -0.2363  1.0182
 4063SOL    HW223649   2.351   3.045  17.396 -1.2710  1.8027  2.7015
 4064SOL     OW23650   0.944   3.954  11.154  0.3542  0.7094 -0.2009
 4064SOL    HW123651   0.851   3.952  11.133  0.4161  0.7497 -0.4890
 4064SOL    HW223652   0.928   3.976  11.245 -0.0913 -0.2204 -0.0564
 4065SOL     OW23653   4.137   3.311   5.875  0.3497 -0.6996 -0.1668
 4065SOL    HW123654   4.108   3.269   5.956 -1.0497 -0.2957 -0.4599
 4065SOL    HW223655   4.082   3.388   5.867  1.7258  0.2159 -0.8485
 4066SOL     OW23656   3.056   0.659   6.170 -0.2946 -0.0065 -0.1814
 4066SOL    HW123657   2.960   0.660   6.161 -0.3082  0.6448  0.0060
 4066SOL    HW223658   3.063   0.615   6.255 -1.5893 -1.8378 -1.0287
 4067SOL     OW23659   1.816   2.890   1.884 -0.6484  0.1525 -0.0764
 4067SOL    HW123660   1.780   2.979   1.887 -0.1768  0.3128  1.0091
 4067SOL    HW223661   1.850   2.878   1.973  0.8709 -0.4232 -0.7465
 4068SOL     OW23662   3.327   2.289   0.470  0.2698 -0.4841 -0.1444
 4068SOL    HW123663   3.282   2.360   0.517  0.6913 -1.0830  1.1538
 4068SOL    HW223664   3.257   2.281   0.406 -1.4153  2.2267  1.3489
 4069SOL     OW23665   3.974   2.553   3.441  0.1663  0.4333 -0.1971
 4069SOL    HW123666   4.032   2.569   3.516 -3.4986 -0.3840  2.8451
 4069SOL    HW223667   4.026   2.483   3.401  0.8068  0.2872  0.8858
 4070SOL     OW23668   3.613   1.786   8.092  0.1019 -0.5018 -0.3901
 4070SOL    HW123669   3.645   1.782   8.002 -0.0220 -5.0609 -0.2096
 4070SOL    HW223670   3.539   1.843   8.067 -0.0346 -0.2736  0.5290
 4071SOL     OW23671   3.791   2.626   9.633 -0.3570 -0.3689  0.4804
 4071SOL    HW123672   3.758   2.681   9.562 -1.2188  0.8771  1.8392
 4071SOL    HW223673   3.730   2.552   9.633  1.7073 -2.0655  1.7297
 4072SOL     OW23674   3.104   4.568  14.511  0.6674  0.0718  0.0258
 4072SOL    HW123675   3.089   4.476  14.532  0.1113  0.2607  0.4849
 4072SOL    HW223676   3.199   4.576  14.511  0.6887 -0.1679  0.4738
 4073SOL     OW23677   4.469   2.739   2.947 -0.4950 -0.0714 -0.2484
 4073SOL    HW123678   4.409   2.744   3.021 -1.6254 -1.5846 -1.0633
 4073SOL    HW223679   4.558   2.746   2.981 -0.3274 -1.7700 -0.3384
 4074SOL     OW23680   2.005   2.611   7.936 -0.3194 -0.5143 -0.6712
 4074SOL    HW123681   1.971   2.521   7.936 -0.5270 -0.4392 -1.8784
 4074SOL    HW223682   1.929   2.669   7.928  1.0343  1.3234  0.0423
 4075SOL     OW23683   2.090   2.233   9.261 -0.9132 -0.1050 -0.0461
 4075SOL    HW123684   2.044   2.302   9.214 -1.1236  0.4295  0.9490
 4075SOL    HW223685   2.164   2.279   9.299 -2.9878  1.9296  1.5047
 4076SOL     OW23686   2.884   4.013   4.401 -0.2028 -0.0255  0.1922
 4076SOL    HW123687   2.888   4.107   4.416  0.9276  0.1905 -1.4092
 4076SOL    HW223688   2.803   3.985   4.443  0.0167 -1.4515 -0.3191
 4077SOL     OW23689   1.804   3.422  10.546  0.1985  0.1972 -0.0305
 4077SOL    HW123690   1.766   3.349  10.497 -0.0931  0.1330  0.2895
 4077SOL    HW223691   1.885   3.433  10.497  2.0363 -2.0259  2.4984
 4078SOL     OW23692   2.804   2.473   9.396 -0.3429 -0.3971  0.0905
 4078SOL    HW123693   2.815   2.520   9.478  0.3589  2.1042 -1.4507
 4078SOL    HW223694   2.882   2.500   9.347 -0.7261  0.3367 -0.1045
 4079SOL     OW23695   3.902   1.389  12.606 -0.4956  0.4173 -0.1414
 4079SOL    HW123696   3.867   1.460  12.552  1.2158  2.3306  1.2812
 4079SOL    HW223697   3.862   1.420  12.688  0.9789  0.4616  0.5582
 4080SOL     OW23698   0.039   3.201  13.450 -0.0623  0.0393  0.0316
 4080SOL    HW123699   0.027   3.293  13.472 -1.8123 -0.3850  0.8656
 4080SOL    HW223700   0.123   3.202  13.403  0.3213  0.2065  0.7346
 4081SOL     OW23701   0.125   3.760   1.825  0.3457 -0.0532  0.1987
 4081SOL    HW123702   0.131   3.850   1.858  1.1045 -0.6098  1.5657
 4081SOL    HW223703   0.199   3.761   1.764  1.4348  0.1351  1.4926
 4082SOL     OW23704   3.908   4.269   0.585 -0.2285 -0.1338 -0.1910
 4082SOL    HW123705   3.829   4.247   0.535 -0.1988 -1.1440  0.2136
 4082SOL    HW223706   3.927   4.349   0.536  0.5082 -0.4582 -0.4428
 4083SOL     OW23707   4.703   4.554   2.190 -0.3336 -0.1919  0.1657
 4083SOL    HW123708   0.022   4.498   2.255  0.6756 -2.2496 -2.3079
 4083SOL    HW223709   4.713   4.643   2.223 -1.7646 -0.2332  0.7489
 4084SOL     OW23710   0.769   0.385   6.305 -0.3229 -0.2099  1.0760
 4084SOL    HW123711   0.835   0.445   6.337  1.1862 -2.0349  1.3742
 4084SOL    HW223712   0.695   0.424   6.352  0.6028  0.0127  2.3393
 4085SOL     OW23713   1.848   0.715   7.600 -0.0742 -0.0519  0.1367
 4085SOL    HW123714   1.938   0.716   7.566  0.1517  0.7214  0.7578
 4085SOL    HW223715   1.865   0.726   7.693 -1.3944 -0.0457  0.3706
 4086SOL     OW23716   0.875   2.405  16.412  0.1366  0.2999 -0.8019
 4086SOL    HW123717   0.822   2.352  16.473  2.0128 -1.2477 -0.5353
 4086SOL    HW223718   0.911   2.479  16.462 -0.1488  0.8990 -1.4901
 4087SOL     OW23719   4.552   0.916   0.144  0.4044 -0.5999 -0.4979
 4087SOL    HW123720   4.573   0.851   0.210  1.6610  0.4438  0.1130
 4087SOL    HW223721   4.480   0.963   0.185  3.1816  2.8029  0.4322
 4088SOL     OW23722   4.602   1.319   5.577  0.1040  0.2834  0.2992
 4088SOL    HW123723   4.622   1.260   5.504 -1.9647 -1.1730  0.8734
 4088SOL    HW223724   4.670   1.297   5.640  0.6878  2.4665  0.4076
 4089SOL     OW23725   0.682   1.643   7.743 -0.4997 -0.2633  0.4549
 4089SOL    HW123726   0.601   1.623   7.789 -0.7819  0.8331  0.4499
 4089SOL    HW223727   0.662   1.622   7.652  0.4253 -2.4545  0.7678
 4090SOL     OW23728   1.721   3.084   5.221  0.6197  0.1142 -0.3871
 4090SOL    HW123729   1.663   3.049   5.154  0.9565  1.9469 -1.6409
 4090SOL    HW223730   1.661   3.091   5.295  0.4757 -0.7318 -0.4225
 4091SOL     OW23731   3.026   3.020   7.988  0.0922  0.4857 -0.3632
 4091SOL    HW123732   3.027   3.001   8.082  1.1798  1.6440 -0.1522
 4091SOL    HW223733   3.117   3.044   7.971  0.3334 -1.6530 -1.9927
 4092SOL     OW23734   3.008   3.995   3.487 -0.3320 -0.4692 -0.6913
 4092SOL    HW123735   3.100   3.970   3.481 -0.1595  0.5871 -2.4258
 4092SOL    HW223736   3.020   4.090   3.490  3.1069 -0.8380 -2.4014
 4093SOL     OW23737   3.005   3.010   3.254  0.5096  0.4337  0.3988
 4093SOL    HW123738   3.046   3.062   3.324 -1.7195  0.9773  1.2810
 4093SOL    HW223739   3.022   2.924   3.292 -0.9763  0.1037  0.2841
 4094SOL     OW23740   2.314   0.995   7.490  0.1143 -0.9419  0.0413
 4094SOL    HW123741   2.279   0.980   7.578 -2.7268 -0.8667 -1.0978
 4094SOL    HW223742   2.364   0.914   7.484  1.6764 -0.1009  1.6719
 4095SOL     OW23743   0.399   1.076   6.937  0.0974 -0.2770 -0.5991
 4095SOL    HW123744   0.390   1.165   6.903  0.4832  0.1458  0.4007
 4095SOL    HW223745   0.487   1.053   6.906 -0.2000 -1.2856 -0.6767
 4096SOL     OW23746   2.522   3.865   7.472  0.0549 -0.4581  0.2288
 4096SOL    HW123747   2.429   3.850   7.490  0.6035 -1.9267  1.8121
 4096SOL    HW223748   2.557   3.898   7.554  1.8616 -2.5345  0.3007
 4097SOL     OW23749   4.629   1.290   3.440 -0.2046  0.8712  0.1917
 4097SOL    HW123750   4.577   1.265   3.516  0.3609  1.7857  0.8773
 4097SOL    HW223751   4.674   1.209   3.416  2.6765  2.2001  1.0832
 4098SOL     OW23752   1.474   3.024   1.755  0.2250 -0.3096 -0.2918
 4098SOL    HW123753   1.503   2.934   1.773 -0.4689 -0.3470  0.6321
 4098SOL    HW223754   1.381   3.008   1.741  0.0044  0.2622  0.5582
 4099SOL     OW23755   3.221   0.154   1.856  0.2624 -0.1666 -0.9010
 4099SOL    HW123756   3.287   0.116   1.915 -0.3374 -0.8728 -0.6956
 4099SOL    HW223757   3.236   0.247   1.872  0.3918 -0.3503  0.0560
 4100SOL     OW23758   4.533   1.142  17.414 -0.3612  0.4896 -0.0417
 4100SOL    HW123759   4.592   1.200  17.366 -2.1292  3.3076  1.2166
 4100SOL    HW223760   4.452   1.169  17.370 -1.7379 -1.6444  1.1647
 4101SOL     OW23761   4.293   2.628  12.462 -0.0967 -0.4977 -0.4352
 4101SOL    HW123762   4.340   2.708  12.440 -3.3014  1.2657 -0.8561
 4101SOL    HW223763   4.213   2.672  12.491  0.0107 -0.0682 -0.7940
 4102SOL     OW23764   2.366   3.432   2.320 -0.1786 -0.0430 -0.0924
 4102SOL    HW123765   2.457   3.412   2.345  0.1224  0.5050 -0.7524
 4102SOL    HW223766   2.323   3.346   2.320  0.9423 -0.6041  0.3007
 4103SOL     OW23767   0.438   4.659  15.202 -0.2173  0.0869 -0.6868
 4103SOL    HW123768   0.520   4.682  15.246 -0.0295  1.1335 -1.5930
 4103SOL    HW223769   0.425   4.577  15.251 -1.3872  1.0007  0.5492
 4104SOL     OW23770   0.484   4.478   6.459 -0.1522 -0.5055 -0.3613
 4104SOL    HW123771   0.461   4.445   6.372  0.7572 -0.7770 -0.5023
 4104SOL    HW223772   0.407   4.531   6.478 -0.0790 -1.2301  1.9351
 4105SOL     OW23773   3.172   2.727   3.560  0.0625 -0.1839  0.0387
 4105SOL    HW123774   3.082   2.743   3.531 -0.0001  0.9529  0.8428
 4105SOL    HW223775   3.188   2.656   3.499  1.5749  1.0264 -0.9758
 4106SOL     OW23776   3.178   1.406  10.862  0.0150 -0.0252  0.4162
 4106SOL    HW123777   3.131   1.486  10.885 -0.9297 -0.2532 -0.7586
 4106SOL    HW223778   3.179   1.414  10.767  0.1508  2.2066  0.6009
 4107SOL     OW23779   3.412   0.588   8.112 -0.0974 -0.0366 -0.1807
 4107SOL    HW123780   3.339   0.545   8.068 -1.7200  0.1478  2.3068
 4107SOL    HW223781   3.434   0.656   8.048  1.2875  0.2249  0.5672
 4108SOL     OW23782   4.142   1.961  12.442  0.0510 -0.3668 -0.7161
 4108SOL    HW123783   4.101   2.016  12.375  0.8619  1.0192 -0.0732
 4108SOL    HW223784   4.220   2.011  12.467  0.4277 -0.7569 -1.1211
 4109SOL     OW23785   4.026   1.143   2.985  0.1217  0.4631  0.1790
 4109SOL    HW123786   3.997   1.096   2.907 -1.0917 -2.2639  2.2926
 4109SOL    HW223787   3.945   1.194   2.993 -0.3085 -0.1220 -0.4216
 4110SOL     OW23788   3.342   1.952   3.840  0.4253  0.0013 -0.0068
 4110SOL    HW123789   3.290   1.898   3.900 -0.7610 -0.3426 -1.3400
 4110SOL    HW223790   3.288   1.962   3.761 -0.5858  2.3293  0.9654
 4111SOL     OW23791   0.483   2.324   4.913  0.3784 -0.1569  0.6335
 4111SOL    HW123792   0.444   2.265   4.848 -1.3364  2.6518 -0.9013
 4111SOL    HW223793   0.451   2.286   4.995 -1.6923 -2.2303 -1.1165
 4112SOL     OW23794   2.688   2.562   2.465  0.1246  0.2142  0.4281
 4112SOL    HW123795   2.642   2.546   2.547  2.7050 -0.8247  1.6407
 4112SOL    HW223796   2.676   2.477   2.423  3.5905  0.8790 -1.9483
 4113SOL     OW23797   0.600   3.717   6.092  0.5180  0.1180 -0.5940
 4113SOL    HW123798   0.659   3.731   6.018  2.9917 -1.1514  1.1214
 4113SOL    HW223799   0.556   3.643   6.049 -1.0004  0.9965 -0.5479
 4114SOL     OW23800   3.714   1.858   7.310  0.2407 -0.2939  0.1994
 4114SOL    HW123801   3.708   1.782   7.252 -1.2434  0.2571 -0.3734
 4114SOL    HW223802   3.695   1.822   7.397 -0.3804 -0.0464  0.1658
 4115SOL     OW23803   2.795   1.793   9.628  0.0875  0.0611 -0.0590
 4115SOL    HW123804   2.708   1.824   9.652  0.6502  1.5994  0.0060
 4115SOL    HW223805   2.803   1.833   9.542  0.0265 -0.5985 -0.3673
 4116SOL     OW23806   0.513   1.474   8.711 -0.6999  0.1455  0.4326
 4116SOL    HW123807   0.535   1.495   8.621 -1.9144  0.4669  0.2021
 4116SOL    HW223808   0.533   1.381   8.699 -0.3320  0.3640 -0.6740
 4117SOL     OW23809   2.149   3.150  12.378 -0.0461  0.2064  0.0305
 4117SOL    HW123810   2.244   3.142  12.392 -0.2048  0.0123  0.9910
 4117SOL    HW223811   2.142   3.242  12.402  1.8592  0.0889  1.0919
 4118SOL     OW23812   0.265   4.216   8.705  0.2809 -0.6101 -0.2344
 4118SOL    HW123813   0.256   4.274   8.629 -0.6584 -1.4983 -0.8207
 4118SOL    HW223814   0.309   4.147   8.655  1.7401 -0.8329  1.3840
 4119SOL     OW23815   2.075   1.010   6.642  0.9573 -0.4878  0.4644
 4119SOL    HW123816   1.997   0.998   6.696  0.5380  0.8202  0.1790
 4119SOL    HW223817   2.066   1.095   6.597 -1.9054 -0.2725  1.4188
 4120SOL     OW23818   4.359   3.370   3.008  0.1306 -0.2695  0.2437
 4120SOL    HW123819   4.434   3.411   2.966 -0.1184  0.4934  0.5516
 4120SOL    HW223820   4.393   3.280   3.011  1.5307  0.1776 -1.8008
 4121SOL     OW23821   1.097   2.402   3.333  0.4367  0.2340  0.8679
 4121SOL    HW123822   1.106   2.446   3.248 -0.2531 -0.1007  0.6221
 4121SOL    HW223823   1.040   2.464   3.379 -0.1127 -0.1949  0.7527
 4122SOL     OW23824   1.281   1.268   6.182 -0.1382  0.3112  0.2966
 4122SOL    HW123825   1.220   1.285   6.254  1.0712  0.3392  1.3139
 4122SOL    HW223826   1.347   1.224   6.235 -1.6142 -0.7328  1.2682
 4123SOL     OW23827   3.126   1.017   2.886 -0.2498  0.1030 -0.7198
 4123SOL    HW123828   3.084   1.032   2.801 -0.6361  0.8794 -0.3908
 4123SOL    HW223829   3.170   0.934   2.870 -1.3885 -0.2886 -1.8778
 4124SOL     OW23830   2.613   4.437   9.113 -0.2042  0.2243 -0.3906
 4124SOL    HW123831   2.574   4.357   9.079  0.2076  0.7991 -2.1917
 4124SOL    HW223832   2.626   4.408   9.203  2.1155  2.2091 -0.0897
 4125SOL     OW23833   4.665   2.964   3.974 -0.1625  0.4566 -0.9212
 4125SOL    HW123834   0.033   2.953   3.993 -0.2434  0.4757 -0.5155
 4125SOL    HW223835   4.642   3.046   4.018 -2.1816 -0.8467  0.4776
 4126SOL     OW23836   4.569   1.941   7.086 -0.1982  0.0750  0.0184
 4126SOL    HW123837   4.561   1.925   7.180  1.3278 -1.6013 -0.1279
 4126SOL    HW223838   4.483   1.918   7.051 -0.5437  1.8356 -0.3144
 4127SOL     OW23839   0.441   0.865   1.568 -0.0005 -0.2521  0.4218
 4127SOL    HW123840   0.464   0.952   1.535 -1.2132 -0.8708 -2.0348
 4127SOL    HW223841   0.404   0.819   1.492 -0.2909  1.0647 -0.2289
 4128SOL     OW23842   3.272   2.781   7.630 -0.0889  0.8421 -0.0164
 4128SOL    HW123843   3.293   2.859   7.682 -0.4024  1.5587 -0.9600
 4128SOL    HW223844   3.183   2.801   7.601 -1.1022 -2.2743  1.0078
 4129SOL     OW23845   2.131   4.386   0.126 -0.0156 -0.2810 -0.2448
 4129SOL    HW123846   2.157   4.319   0.190 -0.4542  1.6280  1.9412
 4129SOL    HW223847   2.169   4.468   0.156 -0.2547  0.1357 -1.0663
 4130SOL     OW23848   3.682   2.720   6.628 -0.2228  0.2275  0.4851
 4130SOL    HW123849   3.630   2.761   6.697  1.6501  0.7516  1.5933
 4130SOL    HW223850   3.692   2.632   6.663 -2.7320 -0.5634 -0.8131
 4131SOL     OW23851   3.490   3.284  15.924  0.6065 -0.0583  0.0836
 4131SOL    HW123852   3.462   3.293  15.833 -1.0547  2.4085  0.8462
 4131SOL    HW223853   3.547   3.358  15.943 -1.6650  1.5576  0.4928
 4132SOL     OW23854   2.639   0.908   4.702  0.2955 -0.2489  0.1720
 4132SOL    HW123855   2.632   0.814   4.715  0.5110 -0.3724 -0.6284
 4132SOL    HW223856   2.710   0.933   4.761 -1.4486  0.1218  2.1219
 4133SOL     OW23857   2.948   0.232   4.605  0.0042 -0.4143 -0.9760
 4133SOL    HW123858   2.955   0.289   4.528 -2.6796  0.1703 -0.7822
 4133SOL    HW223859   2.906   0.287   4.672 -1.5759 -0.7302 -1.7151
 4134SOL     OW23860   2.419   1.752   3.814 -0.0901 -0.6479 -0.7017
 4134SOL    HW123861   2.417   1.728   3.907 -1.2619 -1.8482 -1.0410
 4134SOL    HW223862   2.375   1.681   3.768  0.2681 -0.8175 -0.7855
 4135SOL     OW23863   0.694   4.507   8.977  0.3300 -0.0745  0.2534
 4135SOL    HW123864   0.752   4.578   8.950 -0.6696  0.2711 -0.9926
 4135SOL    HW223865   0.638   4.552   9.040 -2.3117  1.2224 -3.0550
 4136SOL     OW23866   4.415   4.227   5.132 -0.2140  0.3227  0.0016
 4136SOL    HW123867   4.379   4.159   5.189 -1.6367 -0.1706 -1.4921
 4136SOL    HW223868   4.331   4.254   5.095 -0.2188 -0.6860 -0.7084
 4137SOL     OW23869   2.135   0.267  15.615 -0.0733 -0.9051  0.7578
 4137SOL    HW123870   2.214   0.213  15.617  0.5108 -0.0904 -0.1408
 4137SOL    HW223871   2.132   0.286  15.708 -1.4905 -0.6345  0.6524
 4138SOL     OW23872   3.332   2.547  11.962  0.5005 -0.2092  0.4028
 4138SOL    HW123873   3.256   2.508  11.919 -0.0397  0.1982  0.9966
 4138SOL    HW223874   3.390   2.567  11.888 -0.5901 -0.4454 -0.5141
 4139SOL     OW23875   4.117   1.240   6.538 -0.4828  0.3723 -0.0616
 4139SOL    HW123876   4.159   1.255   6.453  0.3434 -1.1070  0.0838
 4139SOL    HW223877   4.048   1.181   6.508 -0.3960  1.6348 -2.7434
 4140SOL     OW23878   3.457   4.584  10.077  0.0857  0.0887 -0.5102
 4140SOL    HW123879   3.456   4.626  10.164  2.0034  0.8778 -0.8703
 4140SOL    HW223880   3.413   4.654  10.028  1.5577  1.3508 -0.0345
 4141SOL     OW23881   0.857   1.952   3.453 -0.0396 -0.2009  0.3276
 4141SOL    HW123882   0.855   1.858   3.435  1.8493 -0.2653  0.4184
 4141SOL    HW223883   0.774   1.968   3.408 -1.5509 -0.7439  2.9350
 4142SOL     OW23884   3.747   3.072   3.935  0.1905  0.2603  0.3025
 4142SOL    HW123885   3.830   3.025   3.945 -0.5662 -1.3011 -0.8891
 4142SOL    HW223886   3.694   2.994   3.949  0.2482  0.2816  0.6493
 4143SOL     OW23887   0.476   1.315  14.031  0.3274 -0.6764  0.1577
 4143SOL    HW123888   0.465   1.334  13.937  0.0078 -0.8947  0.1503
 4143SOL    HW223889   0.399   1.262  14.050 -0.4361 -1.2122 -4.2871
 4144SOL     OW23890   2.912   1.333  10.704 -0.0395  0.0770 -0.4523
 4144SOL    HW123891   2.833   1.300  10.747  0.1406  1.7829  1.1403
 4144SOL    HW223892   2.874   1.390  10.636  0.3221  1.2415  0.3355
 4145SOL     OW23893   2.910   1.356   2.121 -0.2570  0.1559  0.3657
 4145SOL    HW123894   2.945   1.444   2.111  1.7402 -0.4379  2.0976
 4145SOL    HW223895   2.850   1.361   2.046 -0.2446 -0.0131  0.3442
 4146SOL     OW23896   2.709   0.099  15.969 -0.2023 -0.2682 -0.5695
 4146SOL    HW123897   2.619   0.092  16.001  0.5496 -0.0188  1.5849
 4146SOL    HW223898   2.745   0.014  15.944  0.4695 -0.7519  2.0921
 4147SOL     OW23899   0.097   4.041   6.006 -0.5030  0.1444 -0.1515
 4147SOL    HW123900   0.092   3.948   5.986 -1.2770  0.3451 -0.8982
 4147SOL    HW223901   0.082   4.049   6.100  0.9696  1.3854 -0.0355
 4148SOL     OW23902   3.055   1.726   7.041  0.2636  0.5872  0.5814
 4148SOL    HW123903   2.972   1.704   7.084 -1.4836  1.0003 -2.6035
 4148SOL    HW223904   3.020   1.741   6.953  1.6489  0.1697 -0.0408
 4149SOL     OW23905   4.538   0.761   4.679  0.0290 -0.1815 -0.2269
 4149SOL    HW123906   4.508   0.744   4.768 -0.3227 -4.4608 -1.1253
 4149SOL    HW223907   4.460   0.737   4.630 -0.9885 -1.3958  1.9823
 4150SOL     OW23908   1.399   3.706   5.619 -0.1962 -0.8138 -1.0268
 4150SOL    HW123909   1.349   3.731   5.543 -0.0301 -1.4459 -1.3492
 4150SOL    HW223910   1.370   3.777   5.676  1.8559 -0.7929  0.0158
 4151SOL     OW23911   1.549   0.012   3.908  0.2774  0.0567 -0.1184
 4151SOL    HW123912   1.527   0.104   3.921  0.4371  0.0944 -0.1133
 4151SOL    HW223913   1.462   4.697   3.909 -0.8737  2.5852 -0.1019
 4152SOL     OW23914   1.033   2.186  16.395 -0.1829 -0.6750 -0.3276
 4152SOL    HW123915   1.091   2.208  16.468 -0.3337  1.0162 -0.7066
 4152SOL    HW223916   0.997   2.274  16.384  0.6318 -0.4171 -0.9188
 4153SOL     OW23917   1.013   2.064   6.623 -0.5468 -0.2523 -0.1831
 4153SOL    HW123918   1.062   2.145   6.639  0.2110 -0.7533  0.0527
 4153SOL    HW223919   1.057   2.039   6.542  0.0734 -0.5962  0.2595
 4154SOL     OW23920   4.583   2.403  10.986  0.3755 -0.1730 -0.2927
 4154SOL    HW123921   4.629   2.486  10.997 -1.1745  0.8658 -1.6100
 4154SOL    HW223922   4.588   2.386  10.892 -0.6789 -0.2947 -0.3268
 4155SOL     OW23923   3.673   3.565   2.247  0.0002 -0.0278  0.5698
 4155SOL    HW123924   3.723   3.560   2.328  1.6099  0.5197 -0.3804
 4155SOL    HW223925   3.659   3.473   2.223 -0.4945  0.2848 -0.3609
 4156SOL     OW23926   2.642   1.765   6.443 -0.5034  0.0482  0.1891
 4156SOL    HW123927   2.727   1.751   6.485 -0.2919  2.5812  0.6490
 4156SOL    HW223928   2.610   1.677   6.465 -3.6444  1.5329  1.6483
 4157SOL     OW23929   1.408   1.875   9.618  0.0309 -0.7158 -0.0003
 4157SOL    HW123930   1.456   1.832   9.548  2.0447  1.3649  0.1294
 4157SOL    HW223931   1.396   1.807   9.685 -1.6601 -1.0282 -0.6193
 4158SOL     OW23932   2.291   0.448  15.341  0.5837 -0.2223  0.7285
 4158SOL    HW123933   2.339   0.368  15.365  1.8856  0.3129 -0.0818
 4158SOL    HW223934   2.230   0.447  15.415  0.0908  0.1750  0.3260
 4159SOL     OW23935   4.062   0.144  15.935  0.2207 -0.2499  0.2582
 4159SOL    HW123936   4.045   0.206  16.006 -2.3157 -0.0905 -0.4835
 4159SOL    HW223937   3.982   0.146  15.883 -0.2737 -0.7632  0.9953
 4160SOL     OW23938   0.020   1.292  17.312  0.0353  0.1703  0.2741
 4160SOL    HW123939   0.043   1.385  17.302  0.5817  0.1425  1.1904
 4160SOL    HW223940   0.060   1.279  17.399 -0.8414 -2.1837  0.3034
 4161SOL     OW23941   1.510   0.033   5.149  0.0137 -0.6847 -0.4542
 4161SOL    HW123942   1.544   0.082   5.074 -2.0145  0.3544 -0.7027
 4161SOL    HW223943   1.577   4.689   5.153  1.0628  0.4805  2.0395
 4162SOL     OW23944   1.976   1.815   1.693 -0.3714 -0.4962  0.1910
 4162SOL    HW123945   1.944   1.775   1.613  0.0494 -0.6841  0.1206
 4162SOL    HW223946   2.056   1.857   1.663  0.8141 -1.8740  1.4269
 4163SOL     OW23947   3.378   3.452   3.849 -0.8282  0.7394  0.4660
 4163SOL    HW123948   3.312   3.433   3.782 -0.0834  1.8048 -0.5735
 4163SOL    HW223949   3.370   3.377   3.908 -0.0145 -0.2280 -0.6892
 4164SOL     OW23950   1.026   4.330   1.025 -0.2342 -0.4216 -0.1778
 4164SOL    HW123951   1.069   4.368   1.101 -1.9059  1.7815 -0.3008
 4164SOL    HW223952   0.942   4.377   1.033  1.1543  1.6125  2.2687
 4165SOL     OW23953   2.794   3.713  14.530  0.0332 -0.0198 -0.3418
 4165SOL    HW123954   2.753   3.771  14.466 -2.0683 -0.1702  0.8646
 4165SOL    HW223955   2.806   3.637  14.473  1.1547  2.3394 -3.3068
 4166SOL     OW23956   0.475   3.788   6.639 -0.4763 -0.5624  0.2437
 4166SOL    HW123957   0.537   3.719   6.616  1.0225  0.5454  0.9768
 4166SOL    HW223958   0.421   3.738   6.700 -1.5149 -0.1496 -0.3513
 4167SOL     OW23959   4.538   0.244  16.160  0.2908  0.0618  0.9552
 4167SOL    HW123960   4.533   0.334  16.126  1.4855 -0.0099  0.6014
 4167SOL    HW223961   4.518   0.250  16.253 -1.9443 -2.6286  0.6376
 4168SOL     OW23962   1.752   4.148   6.993  0.0992 -0.2501  0.3088
 4168SOL    HW123963   1.737   4.203   6.916 -1.2347 -0.1765  0.6232
 4168SOL    HW223964   1.779   4.061   6.964  0.3258  0.1162 -0.5625
 4169SOL     OW23965   1.727   1.045   7.608  0.1887  0.3600 -0.2761
 4169SOL    HW123966   1.800   0.984   7.622 -0.0685 -0.1865 -1.2627
 4169SOL    HW223967   1.778   1.121   7.636  1.7280 -1.5695  2.1645
 4170SOL     OW23968   4.196   2.396   3.017 -0.7785  0.2557  0.9445
 4170SOL    HW123969   4.289   2.398   3.041 -0.8385 -0.6042  1.2553
 4170SOL    HW223970   4.199   2.360   2.928  1.7871 -2.4859  2.1314
 4171SOL     OW23971   3.423   2.465   7.305 -0.1078  0.5507  0.5750
 4171SOL    HW123972   3.348   2.518   7.279 -1.1326 -1.0941  0.2515
 4171SOL    HW223973   3.467   2.445   7.222  1.1078 -0.7321  1.5264
 4172SOL     OW23974   4.541   4.331   7.818 -0.1391  0.5719 -0.7335
 4172SOL    HW123975   4.504   4.380   7.745 -1.7264 -0.4782 -0.6200
 4172SOL    HW223976   4.471   4.350   7.880  0.7462  2.1921 -0.2056
 4173SOL     OW23977   2.041   1.710  16.474  0.2647 -0.5902  0.0857
 4173SOL    HW123978   1.960   1.752  16.446  0.5668 -0.1508 -0.1301
 4173SOL    HW223979   2.093   1.713  16.393 -1.5810  0.3513 -1.0523
 4174SOL     OW23980   3.416   1.517   0.736  0.3071  0.0653 -0.6979
 4174SOL    HW123981   3.401   1.544   0.827  1.0666 -0.6841 -0.3541
 4174SOL    HW223982   3.509   1.537   0.726  1.3752 -4.7680 -0.2275
 4175SOL     OW23983   3.475   4.625   7.951 -0.5158  0.0158  0.2156
 4175SOL    HW123984   3.467   4.666   7.865 -1.7991  0.6200  0.6106
 4175SOL    HW223985   3.553   4.570   7.943  0.6984  1.4439  2.2909
 4176SOL     OW23986   2.862   1.272   5.828 -0.1643  0.7152 -0.1960
 4176SOL    HW123987   2.940   1.265   5.883  0.6711  1.1034 -1.3206
 4176SOL    HW223988   2.821   1.187   5.840 -1.6579  1.7007  1.7702
 4177SOL     OW23989   3.408   1.625   2.894 -0.5505 -0.2560 -0.5025
 4177SOL    HW123990   3.382   1.568   2.821  0.4572 -1.0968 -0.2004
 4177SOL    HW223991   3.344   1.697   2.888  0.1872  0.4177 -0.3033
 4178SOL     OW23992   4.441   0.312   4.511  0.4802  0.4185  0.3292
 4178SOL    HW123993   4.523   0.277   4.477 -0.8241 -0.3503 -2.0144
 4178SOL    HW223994   4.374   0.243   4.517  1.4396 -0.5710 -0.3621
 4179SOL     OW23995   4.696   2.689  14.810 -0.2752  0.4294  0.4497
 4179SOL    HW123996   0.037   2.656  14.870  0.2598  1.2837  0.3409
 4179SOL    HW223997   4.626   2.627  14.828 -1.2774  1.8031  1.3223
 4180SOL     OW23998   3.604   4.513   8.477 -0.2790 -0.1115 -0.8142
 4180SOL    HW123999   3.549   4.585   8.509 -0.5650 -0.1551 -1.2088
 4180SOL    HW224000   3.689   4.556   8.484  0.0739 -0.6383 -1.9704
 4181SOL     OW24001   0.922   1.669   5.601  0.6383  0.8752 -0.0913
 4181SOL    HW124002   0.874   1.593   5.569 -0.7250  1.1299  1.3613
 4181SOL    HW224003   0.862   1.743   5.589 -0.3071  0.2350  0.6641
 4182SOL     OW24004   2.128   4.127  14.964 -0.4090 -0.0254 -0.8001
 4182SOL    HW124005   2.163   4.202  15.013 -1.9861 -0.2996  0.7237
 4182SOL    HW224006   2.204   4.111  14.908 -1.1711 -2.4807 -1.1096
 4183SOL     OW24007   3.656   3.328   3.855  0.3344 -0.1157 -0.0175
 4183SOL    HW124008   3.689   3.243   3.882  3.8344  0.6106 -2.0531
 4183SOL    HW224009   3.561   3.322   3.869  0.5876 -0.5708  1.5640
 4184SOL     OW24010   0.968   3.113  13.089 -0.1652  0.2659  0.2437
 4184SOL    HW124011   1.054   3.071  13.101 -0.4088  0.6367  3.2686
 4184SOL    HW224012   0.931   3.085  13.172  0.8942 -1.1599  0.2411
 4185SOL     OW24013   0.504   3.637   8.464  0.5433 -0.1191 -0.2992
 4185SOL    HW124014   0.536   3.628   8.553 -0.3469 -0.1802  0.0097
 4185SOL    HW224015   0.412   3.650   8.485  0.4426 -1.4407  0.0630
 4186SOL     OW24016   4.125   0.359   8.256 -0.0607  0.2045  0.2663
 4186SOL    HW124017   4.067   0.388   8.326  1.7122 -1.0736  2.2829
 4186SOL    HW224018   4.193   0.426   8.269  0.6220 -0.4871  0.3216
 4187SOL     OW24019   4.333   1.671   3.089 -0.6112  0.2672  0.2668
 4187SOL    HW124020   4.374   1.596   3.045 -1.8266 -1.2242  1.6976
 4187SOL    HW224021   4.242   1.643   3.088 -0.6699  0.4667 -0.0458
 4188SOL     OW24022   1.265   1.595   7.017 -0.5806  0.2906 -0.2376
 4188SOL    HW124023   1.345   1.551   6.990 -1.2175 -0.4363 -0.9354
 4188SOL    HW224024   1.204   1.522   7.008 -0.1966 -0.1894  1.1282
 4189SOL     OW24025   1.818   1.679  16.981  0.1539 -0.5946  0.1946
 4189SOL    HW124026   1.855   1.703  16.896  1.2991  0.2031  0.9249
 4189SOL    HW224027   1.895   1.670  17.037  0.5532  0.2235 -0.2224
 4190SOL     OW24028   3.476   1.742   6.439 -0.2724  0.0722  0.4415
 4190SOL    HW124029   3.384   1.732   6.414 -0.2424 -2.1328  1.1349
 4190SOL    HW224030   3.509   1.654   6.418 -0.1967  0.3917 -0.7977
 4191SOL     OW24031   0.468   1.864   6.191  0.2829  0.3031  0.3783
 4191SOL    HW124032   0.561   1.872   6.213  0.3061  0.4636  0.2287
 4191SOL    HW224033   0.454   1.771   6.210  0.2332  0.2078 -0.1033
 4192SOL     OW24034   4.653   1.904   5.324 -0.6249  0.1931  0.2463
 4192SOL    HW124035   4.615   1.991   5.312 -0.9183  0.0318  0.0217
 4192SOL    HW224036   4.583   1.848   5.356 -1.0747  0.9172  0.5360
 4193SOL     OW24037   3.551   2.701   7.068  0.3333 -0.1267  0.1169
 4193SOL    HW124038   3.572   2.609   7.088  0.0388 -0.1136  0.4840
 4193SOL    HW224039   3.529   2.702   6.975 -0.1436 -0.5725  0.2268
 4194SOL     OW24040   3.606   4.350   7.437 -0.1284  0.1061 -0.0786
 4194SOL    HW124041   3.681   4.296   7.460 -0.8273 -0.4281  0.9214
 4194SOL    HW224042   3.532   4.309   7.482 -0.6606 -2.2861 -3.1465
 4195SOL     OW24043   3.251   3.024   2.568 -0.0960  0.3262  0.0529
 4195SOL    HW124044   3.168   3.069   2.552 -0.8214 -0.5042  1.4961
 4195SOL    HW224045   3.216   2.951   2.619 -0.7004  1.1417  0.8055
 4196SOL     OW24046   1.950   0.925   7.789  0.4566  0.2877 -0.2332
 4196SOL    HW124047   1.996   0.866   7.849  1.1542  1.2993  0.2234
 4196SOL    HW224048   2.005   1.003   7.797  0.1542  0.3654  1.0122
 4197SOL     OW24049   3.688   0.025   5.779 -0.4381 -0.1082  0.7736
 4197SOL    HW124050   3.671   4.658   5.802 -1.2801 -0.6672 -2.1572
 4197SOL    HW224051   3.608   0.068   5.811 -0.5617  1.4171 -1.6141
 4198SOL     OW24052   0.672   1.698  11.036  0.2051  0.3803  0.2410
 4198SOL    HW124053   0.629   1.679  11.119 -1.0943  0.0358 -0.5135
 4198SOL    HW224054   0.764   1.712  11.060  0.9833  0.8514 -2.8991
 4199SOL     OW24055   1.132   0.269   9.307 -0.0912  1.0434  0.4719
 4199SOL    HW124056   1.088   0.338   9.257 -2.3488 -0.9479 -0.3516
 4199SOL    HW224057   1.064   0.201   9.311 -2.2795  3.1973  0.1820
 4200SOL     OW24058   1.630   3.615  16.184 -0.1604  0.3354 -0.0638
 4200SOL    HW124059   1.719   3.649  16.174  0.2751 -0.7958 -0.0647
 4200SOL    HW224060   1.640   3.520  16.172 -0.4819  0.4519 -1.2424
 4201SOL     OW24061   4.541   2.858  13.353  0.4410 -0.9305  0.2200
 4201SOL    HW124062   4.448   2.870  13.335  0.8415 -1.3771 -2.1883
 4201SOL    HW224063   4.543   2.881  13.445 -0.6587 -0.3654  0.0983
 4202SOL     OW24064   2.040   0.522  15.141  0.5456  0.2229 -0.2656
 4202SOL    HW124065   2.111   0.493  15.199 -0.2113  0.3490  0.7218
 4202SOL    HW224066   1.966   0.483  15.188 -0.8706  1.5231 -1.4285
 4203SOL     OW24067   4.380   0.966  17.613  0.6656 -0.1776  0.3091
 4203SOL    HW124068   4.435   0.935  17.685 -0.4868 -1.5015  0.6210
 4203SOL    HW224069   4.442   1.007  17.554  0.4229  0.7511  0.7075
 4204SOL     OW24070   1.593   0.225   9.633  0.2144  0.2126  0.1678
 4204SOL    HW124071   1.559   0.166   9.700 -0.8186  0.6648  0.0497
 4204SOL    HW224072   1.685   0.217   9.656 -0.4125 -2.6092  1.6955
 4205SOL     OW24073   2.171   1.449   2.938 -0.0154 -0.2728  0.9009
 4205SOL    HW124074   2.230   1.483   3.005  0.9550  0.0757 -0.1096
 4205SOL    HW224075   2.198   1.487   2.854  0.1202  0.3024  1.2052
 4206SOL     OW24076   3.494   3.045  11.261 -1.0587 -1.2426 -0.5173
 4206SOL    HW124077   3.484   2.966  11.208  0.0155 -1.0558 -0.9906
 4206SOL    HW224078   3.585   3.035  11.290 -1.3439 -1.5351  0.2704
 4207SOL     OW24079   1.428   1.286  15.681  0.5191  0.5771 -0.2454
 4207SOL    HW124080   1.442   1.377  15.707 -1.0910  0.6919  0.2293
 4207SOL    HW224081   1.376   1.262  15.757  1.4863 -1.2860 -0.1720
 4208SOL     OW24082   0.284   1.998  12.940  0.2738  0.3539  0.0071
 4208SOL    HW124083   0.374   1.987  12.910  1.0857  2.1187  1.8062
 4208SOL    HW224084   0.288   2.085  12.978  1.0870  0.8813 -1.2752
 4209SOL     OW24085   2.826   3.532  14.324  0.0357 -0.0707 -0.2007
 4209SOL    HW124086   2.920   3.538  14.305  0.3825 -0.9851  1.2343
 4209SOL    HW224087   2.807   3.604  14.264  1.0858 -0.9897 -1.6256
 4210SOL     OW24088   2.119   0.239   1.236  0.9061  0.0360  0.2582
 4210SOL    HW124089   2.180   0.309   1.261 -0.1074  0.6280  1.0592
 4210SOL    HW224090   2.167   0.159   1.258 -2.3448 -2.3400 -1.3557
 4211SOL     OW24091   3.358   3.480  13.719 -0.0111  0.2245 -0.2161
 4211SOL    HW124092   3.396   3.399  13.685 -0.5978 -0.0619 -0.1880
 4211SOL    HW224093   3.284   3.440  13.765 -1.6393  0.9487 -2.1822
 4212SOL     OW24094   1.727   1.049   8.554 -0.4962  0.1810  0.1622
 4212SOL    HW124095   1.716   0.954   8.556  0.0820  0.1047 -0.1923
 4212SOL    HW224096   1.821   1.063   8.556 -0.6702  1.2226  1.7693
 4213SOL     OW24097   1.355   3.591   8.606  0.2512 -0.1906 -0.3058
 4213SOL    HW124098   1.320   3.509   8.569  2.8982 -1.5805  0.2787
 4213SOL    HW224099   1.325   3.607   8.695  1.9157  4.3755 -0.5884
 4214SOL     OW24100   1.078   2.494   8.392 -0.2051 -0.5612  0.2578
 4214SOL    HW124101   1.140   2.422   8.381 -1.8312 -1.9859  0.4971
 4214SOL    HW224102   1.117   2.539   8.467 -1.0752  0.0558  0.3444
 4215SOL     OW24103   2.881   1.064  12.596  0.5685  0.2413  0.2800
 4215SOL    HW124104   2.845   1.151  12.579  0.6030  0.5468  1.7110
 4215SOL    HW224105   2.882   1.056  12.691  1.1741  0.0289  0.2572
 4216SOL     OW24106   3.762   1.446   4.158 -0.5715  0.4730  0.0774
 4216SOL    HW124107   3.810   1.454   4.075  2.1052  2.4437  1.8276
 4216SOL    HW224108   3.678   1.405   4.135 -0.4149  0.2305 -0.0618
 4217SOL     OW24109   2.134   1.292   0.186  0.4020  0.6831 -0.4624
 4217SOL    HW124110   2.194   1.358   0.152  0.1372  0.5686 -1.1527
 4217SOL    HW224111   2.142   1.234   0.111  1.6096 -0.3318  0.4407
 4218SOL     OW24112   2.530   4.646  15.715  0.2403 -0.0157 -0.0907
 4218SOL    HW124113   2.625   4.650  15.729  0.4597 -0.6782 -1.4257
 4218SOL    HW224114   2.532   4.569  15.658  0.1946 -1.8524  2.3918
 4219SOL     OW24115   2.709   1.307   9.441 -0.0571 -0.3438 -0.6830
 4219SOL    HW124116   2.650   1.286   9.513 -1.4064  0.1012 -1.6547
 4219SOL    HW224117   2.783   1.357   9.476 -0.3744  0.3469 -0.9970
 4220SOL     OW24118   4.397   4.044   8.992  0.2059 -0.0608 -0.0690
 4220SOL    HW124119   4.330   4.051   9.060  0.3858  0.9110  0.0127
 4220SOL    HW224120   4.359   4.116   8.941  0.5533  0.1361 -0.0457
 4221SOL     OW24121   1.117   0.693   9.316 -0.6779  0.1174  0.8906
 4221SOL    HW124122   1.112   0.776   9.365 -1.5337  0.9326 -0.5829
 4221SOL    HW224123   1.106   0.732   9.229  2.1604 -1.5906 -0.2202
 4222SOL     OW24124   2.143   3.633   5.790  0.4861 -0.1356  0.2610
 4222SOL    HW124125   2.228   3.676   5.796  0.1582  0.3748  1.2603
 4222SOL    HW224126   2.100   3.701   5.738  0.0698  0.1643  1.0007
 4223SOL     OW24127   4.271   2.801   6.174  0.3713 -0.6060 -0.0825
 4223SOL    HW124128   4.260   2.707   6.187  0.8067 -0.3377  2.3338
 4223SOL    HW224129   4.264   2.814   6.080  0.1063 -2.1845 -0.2819
 4224SOL     OW24130   2.355   1.990  15.850  0.2981 -0.2955  0.4118
 4224SOL    HW124131   2.364   1.995  15.755 -2.7980 -0.2389  0.1251
 4224SOL    HW224132   2.260   1.981  15.857  0.3342 -0.3761  0.8363
 4225SOL     OW24133   2.883   4.333   5.603  0.0253  0.8428 -0.0229
 4225SOL    HW124134   2.845   4.246   5.614 -2.1016  2.2060  3.4741
 4225SOL    HW224135   2.966   4.322   5.649 -1.1854 -1.3072  1.6892
 4226SOL     OW24136   2.773   3.936   8.223  0.0050 -0.6194 -0.2357
 4226SOL    HW124137   2.800   4.023   8.193 -0.3569 -0.7736 -1.0011
 4226SOL    HW224138   2.853   3.893   8.254  0.5441  0.7001  0.1896
 4227SOL     OW24139   2.070   2.262   7.725 -0.2545 -0.3722 -0.3633
 4227SOL    HW124140   2.126   2.306   7.788 -0.7423  0.1527 -0.2912
 4227SOL    HW224141   1.988   2.304   7.751 -1.0170 -1.8383 -0.3466
 4228SOL     OW24142   4.076   0.850   2.202 -0.2389  0.4431 -0.8555
 4228SOL    HW124143   4.120   0.778   2.156  1.7187  1.0643  0.0315
 4228SOL    HW224144   4.002   0.861   2.142 -1.0312  1.1623  0.2610
 4229SOL     OW24145   0.494   2.638  14.249  0.0486  0.5208  0.1710
 4229SOL    HW124146   0.469   2.546  14.236 -0.7689  0.9356 -1.1973
 4229SOL    HW224147   0.530   2.629  14.337 -0.1846 -3.0329 -0.0959
 4230SOL     OW24148   3.900   0.554  15.254  0.3555  0.3205  0.1553
 4230SOL    HW124149   3.946   0.636  15.271 -2.4100  1.6957  0.9381
 4230SOL    HW224150   3.807   0.578  15.262  1.1793  4.7440 -3.1688
 4231SOL     OW24151   2.517   4.558  10.542  0.4365  0.6196  0.2917
 4231SOL    HW124152   2.552   4.609  10.615 -1.7421 -0.0909  1.8162
 4231SOL    HW224153   2.424   4.563  10.562  0.1482  0.1945 -0.9625
 4232SOL     OW24154   1.158   1.770   5.651 -0.1153  0.1042  0.4264
 4232SOL    HW124155   1.124   1.855   5.676  0.7419  1.1574 -1.9911
 4232SOL    HW224156   1.079   1.725   5.621  1.0502 -1.1943 -0.7073
 4233SOL     OW24157   0.279   3.696   8.036 -0.2775  0.0734 -0.2324
 4233SOL    HW124158   0.302   3.619   8.086 -0.1943  0.2224 -0.0422
 4233SOL    HW224159   0.252   3.751   8.110  1.3698  0.9423 -0.2658
 4234SOL     OW24160   1.907   3.325   1.157 -0.5025 -0.2481  0.2725
 4234SOL    HW124161   1.984   3.307   1.212 -0.4961  0.1275  0.3853
 4234SOL    HW224162   1.898   3.419   1.175 -0.8489 -0.1224 -0.5948
 4235SOL     OW24163   4.665   2.135   4.499 -0.3115 -0.1677 -0.1291
 4235SOL    HW124164   4.714   2.178   4.429  0.2245 -2.2213 -0.9972
 4235SOL    HW224165   4.604   2.084   4.447  0.9559 -2.1844  0.3717
 4236SOL     OW24166   0.462   1.319  10.661  0.0426 -0.1651 -0.4139
 4236SOL    HW124167   0.465   1.391  10.598  2.7128  0.1179  0.0418
 4236SOL    HW224168   0.495   1.366  10.738  0.3945  1.8646 -1.8113
 4237SOL     OW24169   0.517   4.248   6.614  0.1135 -0.2147 -0.4721
 4237SOL    HW124170   0.591   4.294   6.652  0.3799 -0.3981 -0.7668
 4237SOL    HW224171   0.507   4.313   6.544  0.1900  0.8383  0.4893
 4238SOL     OW24172   3.764   4.608   5.249 -0.1146  0.4507 -0.4002
 4238SOL    HW124173   3.674   4.638   5.236 -0.1926  0.4634  0.1791
 4238SOL    HW224174   3.756   4.595   5.343  1.3689 -0.4295 -0.3965
 4239SOL     OW24175   1.953   1.248   8.006 -1.1388 -0.3837  0.3730
 4239SOL    HW124176   2.048   1.239   7.998 -0.9388  0.1917  2.1391
 4239SOL    HW224177   1.944   1.293   8.090  0.2674 -0.7832  0.7300
 4240SOL     OW24178   2.142   1.606   6.442  0.3691  0.5475  1.0188
 4240SOL    HW124179   2.199   1.666   6.491  2.4737 -0.5110 -0.1308
 4240SOL    HW224180   2.061   1.647   6.472  0.3826 -0.6643  2.7064
 4241SOL     OW24181   0.614   1.635   5.297 -0.4402  0.3406 -0.0573
 4241SOL    HW124182   0.558   1.693   5.348  0.1124  0.5249  0.3375
 4241SOL    HW224183   0.684   1.694   5.269 -0.0421 -0.4490 -0.7577
 4242SOL     OW24184   2.616   2.275  16.493 -0.2308 -0.5175  0.4256
 4242SOL    HW124185   2.615   2.370  16.503 -0.1869 -0.5373  0.6200
 4242SOL    HW224186   2.564   2.253  16.570  1.4745 -1.6798  1.2662
 4243SOL     OW24187   0.942   1.184   0.870  0.2817  0.2925  0.0977
 4243SOL    HW124188   0.877   1.176   0.800 -0.3258 -2.4062  0.9507
 4243SOL    HW224189   1.019   1.182   0.813  2.4567  2.2784  2.9314
 4244SOL     OW24190   4.322   2.051   5.374 -0.2413 -0.2639  0.3301
 4244SOL    HW124191   4.376   2.117   5.418  1.6403 -1.6104  0.0203
 4244SOL    HW224192   4.343   2.058   5.280 -2.5336 -0.6722 -0.2103
 4245SOL     OW24193   2.540   4.038  14.184  0.6728  0.6170 -0.5484
 4245SOL    HW124194   2.555   4.001  14.271 -0.6304  1.0791 -0.1310
 4245SOL    HW224195   2.618   4.018  14.132  0.3229 -0.7615 -0.5618
 4246SOL     OW24196   0.930   4.500   2.002  0.0238  0.2533 -0.1559
 4246SOL    HW124197   0.996   4.458   2.057  2.0828  0.8998 -2.1784
 4246SOL    HW224198   0.852   4.496   2.059 -0.0422  0.0991 -0.2564
 4247SOL     OW24199   4.331   4.428  14.057 -0.4740  0.3447  0.3728
 4247SOL    HW124200   4.319   4.350  14.003  0.8931  0.4631 -0.1115
 4247SOL    HW224201   4.344   4.489  13.984  1.5302  0.5974  0.9428
 4248SOL     OW24202   0.829   4.247   7.657 -0.0786 -0.2119 -0.3712
 4248SOL    HW124203   0.766   4.249   7.728 -2.3520 -1.0041 -2.3691
 4248SOL    HW224204   0.911   4.241   7.705  0.5440  0.9705 -1.2678
 4249SOL     OW24205   0.081   2.268   5.314  0.7134 -0.3992  0.0833
 4249SOL    HW124206   0.094   2.237   5.224 -1.2380  0.2470 -0.4176
 4249SOL    HW224207   0.056   2.359   5.297  2.1754 -0.0272 -0.1055
 4250SOL     OW24208   3.502   1.690  17.015 -0.6328 -0.5141 -0.7885
 4250SOL    HW124209   3.509   1.710  16.921 -0.3702  0.9840 -0.4526
 4250SOL    HW224210   3.419   1.725  17.046 -0.4196 -2.9100  2.3969
 4251SOL     OW24211   4.006   3.788  15.380  0.1216  0.3313  0.0610
 4251SOL    HW124212   3.927   3.829  15.344 -0.5331  0.6776  1.8510
 4251SOL    HW224213   4.079   3.830  15.335  0.7251 -0.0507  0.6882
 4252SOL     OW24214   1.923   0.913   1.845 -0.2590 -0.3998  0.0493
 4252SOL    HW124215   1.879   0.869   1.772  0.3649  0.4438 -0.8320
 4252SOL    HW224216   1.899   1.004   1.831 -0.9222 -0.5120  0.4771
 4253SOL     OW24217   2.030   0.061   2.292 -0.2437  0.0193  0.0574
 4253SOL    HW124218   1.947   0.079   2.336 -0.2218 -0.1982  0.1818
 4253SOL    HW224219   2.011   0.003   2.218 -0.3963  0.6108 -0.3688
 4254SOL     OW24220   1.986   3.416   6.440 -0.3235  0.1164 -0.8525
 4254SOL    HW124221   1.900   3.402   6.478 -1.3350  0.1166 -3.1246
 4254SOL    HW224222   2.005   3.325   6.415 -2.4359 -0.2433 -1.1219
 4255SOL     OW24223   1.884   4.545  10.268  0.0614 -0.1636  0.0729
 4255SOL    HW124224   1.888   4.636  10.298 -0.7985 -0.7041  1.8139
 4255SOL    HW224225   1.834   4.568  10.190  2.3011 -0.7316 -1.5028
 4256SOL     OW24226   2.632   3.182  17.345  0.4029  1.0248  0.2619
 4256SOL    HW124227   2.547   3.139  17.340  0.0547  1.6712  0.6233
 4256SOL    HW224228   2.632   3.229  17.262  1.7223  1.2113  0.3587
 4257SOL     OW24229   3.645   2.667  13.048  0.4150 -0.5566  0.0729
 4257SOL    HW124230   3.715   2.665  12.983  0.9508 -0.8993  0.6707
 4257SOL    HW224231   3.575   2.617  13.007 -0.8014  0.1183  1.3171
 4258SOL     OW24232   0.658   3.013   5.311 -0.2140 -0.1191 -0.3181
 4258SOL    HW124233   0.581   3.016   5.366 -0.7785 -1.1653 -1.0417
 4258SOL    HW224234   0.720   2.954   5.354 -1.4958  0.5754  2.4814
 4259SOL     OW24235   2.211   2.795   8.314  0.3007 -0.1181 -1.0557
 4259SOL    HW124236   2.228   2.876   8.363 -1.1739  0.1327 -0.9824
 4259SOL    HW224237   2.298   2.781   8.277  0.4304  0.3569 -0.9326
 4260SOL     OW24238   2.364   3.756  14.976 -0.4855 -0.1768  0.4545
 4260SOL    HW124239   2.278   3.786  15.006 -1.5565 -1.4926 -1.3369
 4260SOL    HW224240   2.410   3.739  15.058 -0.6152  1.0457  0.7831
 4261SOL     OW24241   4.435   0.501  17.654  0.4390 -0.2651  0.0909
 4261SOL    HW124242   4.443   0.499   0.048  1.1369  0.1517  0.0395
 4261SOL    HW224243   4.527   0.487  17.632  0.5014  1.2418 -0.5927
 4262SOL     OW24244   1.686   0.728   5.187  0.6208  0.1079  0.1860
 4262SOL    HW124245   1.650   0.803   5.234 -0.6078 -0.4814  0.1794
 4262SOL    HW224246   1.719   0.762   5.104  0.7087 -1.5042 -0.4349
 4263SOL     OW24247   2.059   1.828   6.745  0.5338 -0.0681 -0.1977
 4263SOL    HW124248   1.996   1.840   6.815 -0.6556 -0.0754 -1.2539
 4263SOL    HW224249   2.114   1.758   6.781  1.6189  0.0667 -1.5792
 4264SOL     OW24250   3.691   2.370   8.219  0.4154  0.1129 -0.3159
 4264SOL    HW124251   3.762   2.345   8.279  2.0148  0.6855 -1.9891
 4264SOL    HW224252   3.738   2.412   8.147  1.6893 -0.7418  0.0322
 4265SOL     OW24253   0.932   3.270   5.805  0.4345 -0.0183  0.2628
 4265SOL    HW124254   1.017   3.269   5.849  0.5390  1.6595  0.1248
 4265SOL    HW224255   0.884   3.334   5.857  1.1849  1.6226 -1.0381
 4266SOL     OW24256   0.498   4.107   6.052  0.4369 -0.5894  0.1634
 4266SOL    HW124257   0.513   4.069   5.965  0.5103  0.7280 -0.4050
 4266SOL    HW224258   0.553   4.050   6.106  1.7175 -0.9516 -1.4973
 4267SOL     OW24259   1.886   2.390   9.569  0.5922 -0.0738 -0.3485
 4267SOL    HW124260   1.882   2.304   9.612 -2.7237  0.4148  0.3107
 4267SOL    HW224261   1.826   2.375   9.496 -0.4827  0.0361  0.5087
 4268SOL     OW24262   0.297   4.163   5.872 -0.0269  0.1038 -0.3199
 4268SOL    HW124263   0.213   4.140   5.911  0.2175 -1.2020 -0.5585
 4268SOL    HW224264   0.358   4.151   5.945  0.7238  0.5671 -0.8731
 4269SOL     OW24265   1.766   4.653   3.076 -0.4167  0.0738 -0.4621
 4269SOL    HW124266   1.772   4.557   3.080 -1.8349  0.0149  0.2108
 4269SOL    HW224267   1.770   4.676   3.169 -3.3815  1.7912 -0.7594
 4270SOL     OW24268   4.375   2.225   2.489  0.6456 -0.0258  0.3197
 4270SOL    HW124269   4.378   2.208   2.583 -0.2325 -2.1335 -0.0320
 4270SOL    HW224270   4.468   2.220   2.467  0.9588 -0.4915  1.7304
 4271SOL     OW24271   3.188   3.650   8.238 -0.2049 -1.1328 -0.0937
 4271SOL    HW124272   3.259   3.651   8.174 -0.1732  0.6879 -0.0281
 4271SOL    HW224273   3.143   3.567   8.223 -0.6753 -0.4505 -2.4685
 4272SOL     OW24274   1.826   3.034   5.665 -0.6769 -0.3133  0.2298
 4272SOL    HW124275   1.755   3.021   5.603 -1.5749 -1.6261  1.5389
 4272SOL    HW224276   1.786   3.086   5.735 -2.9430 -0.6039 -0.8855
 4273SOL     OW24277   4.612   3.586  10.173  0.4387  0.0555 -0.7699
 4273SOL    HW124278   4.653   3.626  10.096 -1.9362 -0.1909 -2.1372
 4273SOL    HW224279   4.685   3.530  10.200 -0.7530  0.0252  2.3892
 4274SOL     OW24280   0.830   4.351   3.251  0.0650  0.0241  0.3889
 4274SOL    HW124281   0.886   4.408   3.305 -0.9339  0.8846  0.5195
 4274SOL    HW224282   0.795   4.412   3.186 -0.1502  0.2686  0.7327
 4275SOL     OW24283   4.609   1.045  14.232 -0.1683 -0.1530 -0.0474
 4275SOL    HW124284   4.657   1.033  14.313  1.2646 -0.6213 -0.9709
 4275SOL    HW224285   4.678   1.043  14.166  0.0801 -1.6367  0.2556
 4276SOL     OW24286   1.286   2.001   6.509 -0.4365  0.2783  0.0307
 4276SOL    HW124287   1.308   2.077   6.564  2.2632 -0.3091 -0.2103
 4276SOL    HW224288   1.365   1.949   6.526 -1.8624 -1.8125  0.3239
 4277SOL     OW24289   3.994   0.036   5.261 -0.0790  0.5212 -0.5135
 4277SOL    HW124290   3.912   4.714   5.247 -0.2401  0.1395  1.7036
 4277SOL    HW224291   4.016   0.048   5.168  0.1812 -1.3834 -0.7128
 4278SOL     OW24292   0.934   0.174  17.417 -0.0191  0.3937 -0.0437
 4278SOL    HW124293   0.854   0.227  17.415 -0.7259 -0.6297  0.5014
 4278SOL    HW224294   0.919   0.117  17.341  3.0996 -0.8789  0.3227
 4279SOL     OW24295   4.111   0.840  14.558 -0.1937  0.4241  0.4472
 4279SOL    HW124296   4.075   0.901  14.494 -1.7781 -1.5121 -0.5058
 4279SOL    HW224297   4.134   0.901  14.628  0.7542  1.2038 -0.5343
 4280SOL     OW24298   1.377   4.337   5.847 -0.4447 -0.0449  0.1698
 4280SOL    HW124299   1.384   4.333   5.943  3.2190 -0.6173 -0.1147
 4280SOL    HW224300   1.292   4.303   5.819 -1.2503  0.7601  1.6207
 4281SOL     OW24301   1.624   2.613   8.063 -0.4513  0.3387  0.7187
 4281SOL    HW124302   1.530   2.605   8.049 -0.6957 -0.4579  2.8810
 4281SOL    HW224303   1.657   2.628   7.974 -2.5250  0.0681 -0.0918
 4282SOL     OW24304   4.090   3.738  13.032  0.3095  0.4459 -0.4520
 4282SOL    HW124305   4.023   3.706  13.093 -0.6668 -1.0097 -2.2943
 4282SOL    HW224306   4.146   3.661  13.026  0.2745  0.5500 -2.1438
 4283SOL     OW24307   2.217   2.111   5.490  0.0228  0.0766  0.5120
 4283SOL    HW124308   2.136   2.141   5.532 -0.3373 -1.2525  0.7876
 4283SOL    HW224309   2.277   2.133   5.562 -1.2095  1.7059  1.0367
 4284SOL     OW24310   1.321   0.151   7.482  0.1164 -0.3764 -0.4357
 4284SOL    HW124311   1.315   0.161   7.387  0.2065  0.7008 -0.3219
 4284SOL    HW224312   1.414   0.134   7.494 -0.2651 -2.1022  0.0500
 4285SOL     OW24313   2.735   0.832   7.421 -0.1498 -0.6473  0.0733
 4285SOL    HW124314   2.764   0.803   7.334  0.5764  1.1914 -0.3078
 4285SOL    HW224315   2.703   0.750   7.458 -1.9142 -0.1158 -0.2721
 4286SOL     OW24316   4.060   1.708   8.373  0.2033  0.3336 -0.3157
 4286SOL    HW124317   4.089   1.617   8.383 -1.5739  0.0151  2.1661
 4286SOL    HW224318   3.990   1.705   8.439  0.0890  0.0869 -0.4481
 4287SOL     OW24319   0.466   3.168   8.106 -0.3030  0.0197 -0.1114
 4287SOL    HW124320   0.538   3.191   8.164  0.5995  0.1411 -1.2889
 4287SOL    HW224321   0.463   3.242   8.045 -2.5234 -0.6751 -0.8382
 4288SOL     OW24322   2.173   4.030   3.275 -0.2557 -0.0195 -0.5845
 4288SOL    HW124323   2.259   4.071   3.281  0.3312 -1.5223  1.4686
 4288SOL    HW224324   2.169   4.029   3.180  0.5654 -2.5126 -0.5821
 4289SOL     OW24325   2.098   2.102   3.714  0.4021 -0.1902  0.1849
 4289SOL    HW124326   2.066   2.065   3.632 -1.6884 -0.5112  1.1375
 4289SOL    HW224327   2.018   2.117   3.766  0.6003  0.9818  0.1419
 4290SOL     OW24328   4.685   3.867  15.210  0.2686  0.1640 -0.8492
 4290SOL    HW124329   4.601   3.837  15.176 -0.1694  0.7427 -0.2944
 4290SOL    HW224330   4.659   3.947  15.256 -2.6000 -1.3010  0.0854
 4291SOL     OW24331   3.425   2.737   4.082 -0.0635  0.1520  0.0496
 4291SOL    HW124332   3.352   2.701   4.032  0.5642  0.9658 -1.4671
 4291SOL    HW224333   3.380   2.744   4.166 -2.8034  2.3651 -1.6065
 4292SOL     OW24334   2.326   3.326   8.781  0.1660 -0.1743 -0.3801
 4292SOL    HW124335   2.276   3.379   8.843  0.7720 -0.4013  0.3005
 4292SOL    HW224336   2.274   3.246   8.788 -0.1959  0.0446 -0.5978
 4293SOL     OW24337   0.248   4.688   5.478  0.4058  0.4809 -0.2089
 4293SOL    HW124338   0.281   4.665   5.565 -1.3051 -1.2841 -0.0061
 4293SOL    HW224339   0.233   0.056   5.493 -0.3699  0.4909 -1.0073
 4294SOL     OW24340   0.428   4.614  11.944 -0.2595  0.2981  0.3608
 4294SOL    HW124341   0.516   4.585  11.921 -0.4186  0.5724 -0.6310
 4294SOL    HW224342   0.416   4.556  12.018  1.6359 -0.1454  0.3197
 4295SOL     OW24343   3.714   4.236   2.812  0.0068  0.0956 -0.1585
 4295SOL    HW124344   3.716   4.331   2.826  4.0415  0.4132 -2.8265
 4295SOL    HW224345   3.625   4.225   2.778 -0.5077  1.9710  0.5336
 4296SOL     OW24346   3.583   1.132   3.304 -0.1151  0.1479 -0.2942
 4296SOL    HW124347   3.624   1.047   3.289 -0.7588 -0.2122 -0.0418
 4296SOL    HW224348   3.495   1.107   3.333 -1.1156  0.9245 -2.6570
 4297SOL     OW24349   3.534   3.654  11.993  0.3489  0.2421  0.0461
 4297SOL    HW124350   3.472   3.726  12.009  1.2738  1.2794 -1.0513
 4297SOL    HW224351   3.514   3.610  12.075  1.0227  1.3835  0.8321
 4298SOL     OW24352   3.956   3.136   0.957 -0.1089 -0.3591  0.3381
 4298SOL    HW124353   3.961   3.057   1.011 -0.8914  1.2341  2.7773
 4298SOL    HW224354   4.037   3.122   0.908 -1.2262 -0.8032 -1.3671
 4299SOL     OW24355   3.521   2.715   7.404  0.1018 -0.0260  0.1303
 4299SOL    HW124356   3.434   2.689   7.373  0.2317  0.2604 -0.4750
 4299SOL    HW224357   3.503   2.809   7.397 -1.7289 -0.3219  0.9793
 4300SOL     OW24358   2.034   2.078   4.836  0.5649  0.3933  0.3587
 4300SOL    HW124359   2.012   2.124   4.917  0.4835 -1.7498  1.5581
 4300SOL    HW224360   2.042   2.152   4.776 -0.0545  0.4714  0.3713
 4301SOL     OW24361   2.474   0.363   5.195  0.6138  0.4213 -0.5479
 4301SOL    HW124362   2.474   0.270   5.171  2.1759  0.4673 -0.7239
 4301SOL    HW224363   2.382   0.390   5.201  0.6871  0.3400  1.0098
 4302SOL     OW24364   4.114   1.251  15.774 -0.0308 -0.3230 -0.4427
 4302SOL    HW124365   4.025   1.269  15.745 -0.2237 -0.5654 -0.0123
 4302SOL    HW224366   4.148   1.340  15.770 -0.8791 -0.0841 -2.2689
 4303SOL     OW24367   2.099   2.060   6.596  0.1395 -0.3844 -0.2522
 4303SOL    HW124368   2.100   1.978   6.645  1.7845 -1.1862 -1.6378
 4303SOL    HW224369   2.153   2.105   6.661 -1.9736  0.3516  0.9935
 4304SOL     OW24370   4.248   0.819  12.584  0.5787  0.1095  0.2116
 4304SOL    HW124371   4.325   0.836  12.529  0.8004  0.0463  0.5014
 4304SOL    HW224372   4.186   0.884  12.551 -1.4358 -1.8948  0.0108
 4305SOL     OW24373   0.638   0.660  11.710  0.1551 -0.7578  0.0338
 4305SOL    HW124374   0.681   0.599  11.650 -2.1657 -3.2182  0.8728
 4305SOL    HW224375   0.637   0.617  11.795  1.2607  1.4213  1.1663
 4306SOL     OW24376   4.648   3.142   2.090 -0.0747 -0.0826 -0.4613
 4306SOL    HW124377   4.630   3.216   2.149  0.2771  0.5072 -1.0998
 4306SOL    HW224378   4.609   3.172   2.008  0.4764  0.5091 -0.4997
 4307SOL     OW24379   4.498   1.550  14.531 -0.6026  0.1764  0.3021
 4307SOL    HW124380   4.406   1.532  14.515  0.0654 -1.3713 -1.9363
 4307SOL    HW224381   4.539   1.468  14.502  0.8017  1.1858 -0.5620
 4308SOL     OW24382   2.439   4.706   7.880 -0.5693 -0.3712 -0.2874
 4308SOL    HW124383   2.366   4.644   7.891 -0.1258 -1.2059 -1.9466
 4308SOL    HW224384   2.494   4.646   7.830 -0.1056  0.0414 -0.2655
 4309SOL     OW24385   1.858   0.141  14.954  0.3270 -0.5552  0.4857
 4309SOL    HW124386   1.855   0.051  14.920  0.3366 -1.3437  2.5620
 4309SOL    HW224387   1.922   0.139  15.024 -0.5095  0.2045  1.2625
 4310SOL     OW24388   3.657   3.589   8.040 -0.4404 -0.3766  0.6535
 4310SOL    HW124389   3.663   3.639   8.121  0.9857 -0.1822  0.4227
 4310SOL    HW224390   3.565   3.563   8.041 -0.5272 -0.0713  0.4819
 4311SOL     OW24391   0.121   4.677  17.270  0.1960  0.0770  0.2053
 4311SOL    HW124392   0.076   4.684  17.186  3.3212 -1.6001 -1.6375
 4311SOL    HW224393   0.214   4.680  17.245 -0.1465 -1.8505 -1.2673
 4312SOL     OW24394   1.409   0.633   5.227 -0.4243  0.3392 -0.1117
 4312SOL    HW124395   1.498   0.662   5.210  0.3832 -2.0132  0.0807
 4312SOL    HW224396   1.360   0.685   5.164  1.1848 -0.3465 -1.9329
 4313SOL     OW24397   4.205   3.758   5.859  0.7032  0.0731 -0.3147
 4313SOL    HW124398   4.113   3.783   5.849  0.2995 -1.9931 -1.6823
 4313SOL    HW224399   4.251   3.790   5.782  0.6954 -5.0887 -2.4164
 4314SOL     OW24400   0.622   0.951  11.503  0.2602  0.5698 -0.1101
 4314SOL    HW124401   0.573   0.874  11.476 -0.8668  0.7920  1.2495
 4314SOL    HW224402   0.683   0.967  11.432 -1.2439 -0.5620 -1.6495
 4315SOL     OW24403   3.411   0.624   5.418 -0.5006 -0.2879  0.1227
 4315SOL    HW124404   3.496   0.604   5.379  0.9362  2.3945  1.8310
 4315SOL    HW224405   3.415   0.718   5.398  0.7262 -0.0466  1.4728
 4316SOL     OW24406   0.919   2.153  13.395 -0.2510 -0.6019  0.0938
 4316SOL    HW124407   0.866   2.099  13.336  1.5628 -1.0418 -1.1105
 4316SOL    HW224408   0.990   2.198  13.350  0.3296 -2.6375 -1.0385
 4317SOL     OW24409   2.756   2.904   7.258 -0.3263 -0.3657 -0.3575
 4317SOL    HW124410   2.687   2.948   7.209  0.8150 -0.2608 -1.8781
 4317SOL    HW224411   2.735   2.811   7.249 -1.5912 -0.1426  0.2951
 4318SOL     OW24412   3.110   1.287   0.345  0.0679 -0.1464 -0.4968
 4318SOL    HW124413   3.179   1.227   0.317  0.2798 -0.0419 -0.1958
 4318SOL    HW224414   3.148   1.372   0.368  0.3133 -0.2534 -0.5022
 4319SOL     OW24415   4.171   0.489   7.431  0.4563 -0.3218 -0.1966
 4319SOL    HW124416   4.092   0.524   7.390 -0.6644 -0.8529  1.5163
 4319SOL    HW224417   4.223   0.482   7.351 -2.6201 -2.3141 -2.0372
 4320SOL     OW24418   0.800   1.740   1.974  0.5165 -0.8211  0.0961
 4320SOL    HW124419   0.775   1.648   1.988 -0.7438 -0.4519  0.2848
 4320SOL    HW224420   0.746   1.769   1.901 -0.4687  1.4130  1.7099
 4321SOL     OW24421   1.067   1.654   4.748 -0.3288 -0.4065  0.5447
 4321SOL    HW124422   1.059   1.679   4.656  1.8757 -0.6820  0.2903
 4321SOL    HW224423   1.161   1.642   4.761 -0.4207 -0.6602  0.9930
 4322SOL     OW24424   2.516   3.554   4.364  0.3236 -0.2613 -0.4872
 4322SOL    HW124425   2.532   3.462   4.340 -0.3875 -0.7594  0.9835
 4322SOL    HW224426   2.494   3.591   4.278  0.7968  0.8938 -0.1032
 4323SOL     OW24427   0.893   4.077   0.981  0.1409  0.6192  0.1359
 4323SOL    HW124428   0.844   4.093   0.900 -0.3323  0.1591  0.3312
 4323SOL    HW224429   0.940   4.160   0.984  0.3012  0.4496  2.2752
 4324SOL     OW24430   4.720   3.854   3.554  0.8653 -0.1244 -0.1568
 4324SOL    HW124431   0.031   3.863   3.466 -0.9949 -0.7884 -0.9800
 4324SOL    HW224432   4.629   3.832   3.533  1.0027 -2.6130  1.8251
 4325SOL     OW24433   1.719   1.448   2.596  0.1488 -0.8002 -0.2712
 4325SOL    HW124434   1.751   1.428   2.684  0.5547 -1.3660 -0.5448
 4325SOL    HW224435   1.784   1.515   2.576 -2.2090  1.6928  0.3909
 4326SOL     OW24436   4.298   0.079  16.076  0.0366 -0.0180  0.2823
 4326SOL    HW124437   4.227   0.070  16.013 -0.3321  0.4176  0.6290
 4326SOL    HW224438   4.298   0.171  16.103  0.1338 -0.6046  2.3095
 4327SOL     OW24439   4.244   1.479   3.984  0.1794 -0.3277  0.6396
 4327SOL    HW124440   4.332   1.448   3.962 -0.0687 -0.2169 -0.4721
 4327SOL    HW224441   4.261   1.573   3.990 -1.2029 -0.0489  0.0419
 4328SOL     OW24442   2.423   0.862   5.299 -0.0406  0.1435  0.5154
 4328SOL    HW124443   2.458   0.859   5.388  1.2198  1.0850  0.0509
 4328SOL    HW224444   2.489   0.809   5.253 -0.5050  0.6186 -0.6974
 4329SOL     OW24445   3.432   4.456   3.036  0.0938  0.0971 -0.0048
 4329SOL    HW124446   3.453   4.363   3.025  0.7622  0.0916  1.2794
 4329SOL    HW224447   3.471   4.488   2.956 -0.6724  0.1866 -0.3457
 4330SOL     OW24448   3.509   0.824   4.986 -0.0287  0.1601 -0.7345
 4330SOL    HW124449   3.500   0.732   4.962 -1.8695 -0.1997  1.3709
 4330SOL    HW224450   3.545   0.805   5.072  0.3304 -2.6655 -1.4869
 4331SOL     OW24451   0.333   2.874   8.967  0.4881  0.0218 -0.0604
 4331SOL    HW124452   0.326   2.822   9.047 -1.0382  0.7378  0.2685
 4331SOL    HW224453   0.381   2.948   9.003  0.9255 -0.6767  0.7756
 4332SOL     OW24454   1.798   4.254   5.902 -0.5801  0.1006  0.1175
 4332SOL    HW124455   1.741   4.330   5.887  0.1630  0.6152 -0.1016
 4332SOL    HW224456   1.765   4.195   5.834  0.9606 -1.7699  1.0342
 4333SOL     OW24457   3.449   1.476  11.396  0.0035  0.0807  0.4549
 4333SOL    HW124458   3.366   1.432  11.378  0.3663  0.0520 -1.1894
 4333SOL    HW224459   3.495   1.417  11.455  3.0561  2.2108  0.1776
 4334SOL     OW24460   4.539   1.990   8.612 -0.2412 -0.0793 -0.3370
 4334SOL    HW124461   4.469   1.959   8.669 -0.9200 -1.0473 -1.6743
 4334SOL    HW224462   4.556   2.072   8.658 -1.9193 -0.6240  1.2464
 4335SOL     OW24463   0.257   1.002   6.282 -0.2618 -0.1404 -0.3302
 4335SOL    HW124464   0.197   1.073   6.306  0.4469  1.0296 -2.0755
 4335SOL    HW224465   0.340   1.019   6.327  1.4334 -0.1438 -3.4490
 4336SOL     OW24466   1.096   0.145   3.235 -0.4987  0.2449 -0.1071
 4336SOL    HW124467   1.058   0.218   3.284  0.0841  0.5091 -0.0502
 4336SOL    HW224468   1.135   0.095   3.307 -1.9443 -0.2273  0.3355
 4337SOL     OW24469   4.222   3.302   4.629  1.2696 -0.1093 -0.7016
 4337SOL    HW124470   4.281   3.324   4.557 -1.1465  0.8509 -2.4144
 4337SOL    HW224471   4.268   3.223   4.656 -0.4967 -0.3374  1.6606
 4338SOL     OW24472   2.993   2.236   1.328  0.4435 -0.3591  0.7164
 4338SOL    HW124473   3.060   2.168   1.339  0.4811 -0.3871  0.3097
 4338SOL    HW224474   2.947   2.205   1.250  0.2638 -0.0108  0.6838
 4339SOL     OW24475   3.456   0.429  15.987  0.3189 -0.0222 -0.1020
 4339SOL    HW124476   3.417   0.393  16.066 -1.3157 -0.7379 -1.2399
 4339SOL    HW224477   3.397   0.422  15.912  1.0472  1.5599 -0.8285
 4340SOL     OW24478   3.503   2.682  10.100 -0.2096 -0.0588 -0.5807
 4340SOL    HW124479   3.512   2.775  10.079  1.1388 -0.3945 -1.5057
 4340SOL    HW224480   3.412   2.682  10.130  0.6825  1.6255  2.1445
 4341SOL     OW24481   1.949   0.397   4.529 -0.4840  0.2494  0.0432
 4341SOL    HW124482   1.885   0.467   4.526  1.6108  2.1582 -0.5765
 4341SOL    HW224483   2.032   0.444   4.517  0.5822 -1.6299  0.1011
 4342SOL     OW24484   0.390   1.931   8.132  0.6223  0.1784 -0.0503
 4342SOL    HW124485   0.459   1.865   8.136  1.3863  1.0651  1.3547
 4342SOL    HW224486   0.411   1.957   8.042  1.4756  3.0005  0.9615
 4343SOL     OW24487   0.566   3.532   9.779  0.1300 -0.2656  0.5694
 4343SOL    HW124488   0.492   3.486   9.819  0.6193  0.1275  1.9393
 4343SOL    HW224489   0.563   3.507   9.687 -1.0605  0.6256  0.3686
 4344SOL     OW24490   1.263   3.277   2.029 -0.1230  0.2149  0.3039
 4344SOL    HW124491   1.189   3.268   1.969  0.5245 -1.1317 -0.2881
 4344SOL    HW224492   1.232   3.215   2.095  1.4308 -0.1144  0.7245
 4345SOL     OW24493   1.681   1.994  13.749  0.1218 -0.3292  0.3962
 4345SOL    HW124494   1.608   2.056  13.751  0.5179  0.1373  0.3276
 4345SOL    HW224495   1.742   2.032  13.812 -0.3460  0.7968  0.1795
 4346SOL     OW24496   4.660   4.534   9.835 -0.1787  0.0896  0.9645
 4346SOL    HW124497   4.675   4.540   9.740 -2.6579  0.0267  0.5614
 4346SOL    HW224498   4.723   4.599   9.866 -0.9073  0.4766  1.6080
 4347SOL     OW24499   1.131   3.971   5.300  0.0316 -0.0011  0.2192
 4347SOL    HW124500   1.050   3.972   5.350  0.5270 -3.1603  1.0546
 4347SOL    HW224501   1.168   4.055   5.327  2.1275 -1.0726  0.6146
 4348SOL     OW24502   0.049   2.607   9.256  0.4210  0.5886  0.0362
 4348SOL    HW124503   0.126   2.650   9.219  0.9557 -1.2806 -1.0456
 4348SOL    HW224504   0.088   2.532   9.300  0.2674 -0.0689 -0.9517
 4349SOL     OW24505   3.294   0.421   5.303 -0.1747  0.6688 -0.0144
 4349SOL    HW124506   3.339   0.347   5.343 -2.5946  1.2451  3.7290
 4349SOL    HW224507   3.339   0.490   5.351  0.0275  1.8262 -1.8625
 4350SOL     OW24508   4.203   3.847   4.631 -0.3231  0.3146  0.5429
 4350SOL    HW124509   4.225   3.864   4.539 -0.6872  0.6177  0.5121
 4350SOL    HW224510   4.119   3.802   4.615  0.1343 -0.1334 -0.6513
 4351SOL     OW24511   2.708   0.094   3.990  0.0254 -0.4713  0.4461
 4351SOL    HW124512   2.679   0.110   3.901 -2.3946  1.5763  1.6081
 4351SOL    HW224513   2.628   0.062   4.032 -1.7796  0.0122 -2.6708
 4352SOL     OW24514   0.165   2.987  13.800 -0.0243 -0.1736 -0.2379
 4352SOL    HW124515   0.234   2.932  13.762 -0.4129 -0.9845  0.2346
 4352SOL    HW224516   0.177   3.068  13.750 -0.9425 -1.5441 -2.6681
 4353SOL     OW24517   0.706   2.293  16.081 -0.3997  0.1719 -0.2141
 4353SOL    HW124518   0.761   2.371  16.082  2.0600 -1.6226  2.7430
 4353SOL    HW224519   0.676   2.281  16.171 -0.5928 -0.9450 -0.4220
 4354SOL     OW24520   0.372   0.954  15.210 -0.8876 -0.2805  0.0233
 4354SOL    HW124521   0.418   0.878  15.175 -2.0665 -0.6152 -0.8000
 4354SOL    HW224522   0.338   0.996  15.131 -1.6546  1.2957  1.1747
 4355SOL     OW24523   4.624   2.699   6.503 -0.0069 -0.1720 -0.0408
 4355SOL    HW124524   4.657   2.782   6.469 -0.0453 -0.6579 -1.2562
 4355SOL    HW224525   4.529   2.704   6.487 -0.0843 -2.0982 -0.1726
 4356SOL     OW24526   4.206   0.448   2.396 -0.0087 -0.7906 -0.4766
 4356SOL    HW124527   4.280   0.506   2.416  0.2826 -0.7942 -1.5558
 4356SOL    HW224528   4.136   0.501   2.433 -1.9512 -1.5299 -3.1008
 4357SOL     OW24529   1.086   3.379   8.135 -0.8680 -0.9185 -0.4824
 4357SOL    HW124530   1.070   3.359   8.042 -2.0439  1.7116 -0.8727
 4357SOL    HW224531   1.075   3.474   8.127  1.3925 -0.8247 -2.5322
 4358SOL     OW24532   4.682   0.088   6.983 -1.0947 -0.2956  0.2110
 4358SOL    HW124533   4.636   0.129   6.909 -1.4809 -1.2734 -0.0924
 4358SOL    HW224534   0.023   0.154   7.003 -1.7592  0.3095  0.3809
 4359SOL     OW24535   1.272   0.370   0.813  0.6551  0.1008 -0.0543
 4359SOL    HW124536   1.269   0.276   0.830 -2.2831 -0.1979 -2.1716
 4359SOL    HW224537   1.328   0.372   0.735  1.5178 -1.2415  0.5306
 4360SOL     OW24538   3.451   4.341   0.574  0.2520 -0.2896  0.3864
 4360SOL    HW124539   3.379   4.367   0.516  0.7831  0.7954  0.2149
 4360SOL    HW224540   3.500   4.423   0.571  0.1028 -0.3237 -3.1133
 4361SOL     OW24541   2.847   0.005   5.847  0.7559 -0.6802 -0.1440
 4361SOL    HW124542   2.868   0.095   5.825  1.0574 -1.1680 -1.8075
 4361SOL    HW224543   2.771   4.710   5.792 -0.7437  0.1145  1.6336
 4362SOL     OW24544   2.935   3.811   5.364  0.0685  0.1073  0.3353
 4362SOL    HW124545   2.929   3.899   5.326 -2.0292 -0.1587  0.0559
 4362SOL    HW224546   2.895   3.751   5.301 -0.1130  0.8540 -0.2634
 4363SOL     OW24547   0.115   4.703   6.175  0.1799  0.2631  0.2778
 4363SOL    HW124548   0.111   4.690   6.270 -0.7590 -0.5507  0.1314
 4363SOL    HW224549   0.157   4.619   6.159  1.8733  1.4383 -1.5030
 4364SOL     OW24550   1.160   0.716   8.558  0.5056  0.3902  0.0748
 4364SOL    HW124551   1.142   0.738   8.467  1.4672  1.3813  0.1245
 4364SOL    HW224552   1.169   0.802   8.601  2.1728 -0.1798  0.8510
 4365SOL     OW24553   3.375   0.040   1.579 -0.1003  0.0586 -0.2985
 4365SOL    HW124554   3.387   0.109   1.644 -0.1195 -0.4992  0.2861
 4365SOL    HW224555   3.406   4.688   1.625 -1.1539  0.2376  0.7155
 4366SOL     OW24556   1.310   4.620   6.082 -0.7753  0.0165 -0.6678
 4366SOL    HW124557   1.304   4.652   5.992 -2.4173 -0.0397 -0.5809
 4366SOL    HW224558   1.347   4.532   6.077 -1.6958 -0.3429 -1.1021
 4367SOL     OW24559   0.843   2.202   5.536 -0.6264 -0.0773  0.0116
 4367SOL    HW124560   0.804   2.206   5.449  0.6372 -0.5687 -0.5864
 4367SOL    HW224561   0.759   2.193   5.579 -1.1549  2.2067 -0.5384
 4368SOL     OW24562   0.611   4.628   3.279 -0.0051 -0.3586 -0.4001
 4368SOL    HW124563   0.681   4.648   3.216 -0.5676 -0.0475 -0.9359
 4368SOL    HW224564   0.633   4.698   3.340 -3.0101 -0.7205  1.1094
 4369SOL     OW24565   0.887   1.654   9.211  0.4528 -0.0192 -0.2278
 4369SOL    HW124566   0.846   1.608   9.138 -0.1264 -0.0221  0.0944
 4369SOL    HW224567   0.809   1.703   9.238 -0.6698 -0.3456 -2.9124
 4370SOL     OW24568   2.685   2.288  11.026 -0.4146  0.3579 -0.3313
 4370SOL    HW124569   2.751   2.295  10.957 -0.7389 -3.7363 -1.0489
 4370SOL    HW224570   2.653   2.378  11.024 -0.4293  0.3388 -0.9601
 4371SOL     OW24571   3.654   3.028   5.868  0.2972 -0.1366 -0.5090
 4371SOL    HW124572   3.626   3.095   5.930  0.4444 -1.2355  0.7400
 4371SOL    HW224573   3.710   3.079   5.810  0.0299  0.1774 -0.4877
 4372SOL     OW24574   0.188   3.741   0.254  0.0692 -0.0562  0.1706
 4372SOL    HW124575   0.184   3.679   0.181  1.7333  1.5555 -1.3015
 4372SOL    HW224576   0.137   3.816   0.223  1.1931  1.4605  1.9917
 4373SOL     OW24577   0.391   2.262  10.793  0.3487 -0.0360  0.1186
 4373SOL    HW124578   0.484   2.271  10.773  0.3599 -1.4093 -0.4387
 4373SOL    HW224579   0.388   2.267  10.889 -0.6452 -1.3583  0.1523
 4374SOL     OW24580   2.222   0.356  11.826 -0.0287 -0.2421 -0.8902
 4374SOL    HW124581   2.317   0.367  11.832 -0.1370 -0.3224  1.1117
 4374SOL    HW224582   2.200   0.373  11.918  1.6957 -4.5779  0.2929
 4375SOL     OW24583   3.038   2.041  11.953 -0.2106  0.3230 -0.2100
 4375SOL    HW124584   2.993   2.122  11.975 -1.1010 -0.4426  0.7860
 4375SOL    HW224585   3.076   2.067  11.870  0.8105 -0.3608  0.0474
 4376SOL     OW24586   1.189   3.149   2.862 -0.2110  0.3341  0.7024
 4376SOL    HW124587   1.281   3.130   2.844 -0.1121 -0.8005  2.4579
 4376SOL    HW224588   1.170   3.081   2.927  1.4978 -0.3408  0.4815
 4377SOL     OW24589   3.356   3.436   1.345  0.0027  0.1019 -0.0484
 4377SOL    HW124590   3.442   3.456   1.382  0.5895 -0.0595 -1.3142
 4377SOL    HW224591   3.326   3.522   1.316 -1.7592 -0.5613 -0.1906
 4378SOL     OW24592   2.890   3.059   6.847 -0.3031 -0.4174 -0.1494
 4378SOL    HW124593   2.804   3.070   6.888  0.6626 -0.3616  1.8707
 4378SOL    HW224594   2.909   2.966   6.859 -0.4019 -0.4141  0.0341
 4379SOL     OW24595   2.949   2.788  11.980 -0.4072 -0.3368  0.6953
 4379SOL    HW124596   2.904   2.847  12.040  0.7788  0.6607  0.6270
 4379SOL    HW224597   3.030   2.776  12.031 -0.4133 -4.0675 -0.1544
 4380SOL     OW24598   2.099   3.777   4.312  0.5917 -0.5509 -0.3948
 4380SOL    HW124599   2.178   3.757   4.361  0.2054 -0.9822  0.0447
 4380SOL    HW224600   2.142   3.844   4.259  0.8961  1.4076  2.3566
 4381SOL     OW24601   1.578   2.429   3.046  0.0860  0.4287 -0.1276
 4381SOL    HW124602   1.580   2.512   2.997  1.3427  1.3159  1.4242
 4381SOL    HW224603   1.485   2.408   3.049  0.0605  0.7122  1.1353
 4382SOL     OW24604   3.955   1.613  16.962 -0.1174 -0.1044 -0.1392
 4382SOL    HW124605   3.952   1.699  16.920  1.9918  1.5028  2.9301
 4382SOL    HW224606   4.018   1.565  16.908  1.9270  2.9656 -0.5122
 4383SOL     OW24607   4.665   3.501   3.117 -0.6772  0.1893  0.0143
 4383SOL    HW124608   4.686   3.463   3.032 -0.2033 -2.3095  1.2139
 4383SOL    HW224609   0.006   3.570   3.121 -0.7483  0.1351  2.3087
 4384SOL     OW24610   3.256   3.969   5.890  0.2674  0.3330 -0.2591
 4384SOL    HW124611   3.276   3.981   5.983  1.7558  3.2035 -0.9620
 4384SOL    HW224612   3.193   3.896   5.893  0.0974  0.4253 -1.8960
 4385SOL     OW24613   1.486   1.285   1.453  0.2174 -0.0910  0.2634
 4385SOL    HW124614   1.431   1.356   1.418  2.0236 -1.4763 -5.3720
 4385SOL    HW224615   1.553   1.286   1.386  0.6300 -1.6482  0.6552
 4386SOL     OW24616   2.409   0.972   2.508  0.9215  0.2615  0.1891
 4386SOL    HW124617   2.477   0.907   2.491  0.7066  0.4349 -1.3101
 4386SOL    HW224618   2.452   1.050   2.472  1.8935 -0.4178 -0.1161
 4387SOL     OW24619   0.129   2.792   6.067  0.4024  0.3900  0.3590
 4387SOL    HW124620   0.150   2.770   5.976  0.2392  2.0415 -0.0764
 4387SOL    HW224621   0.075   2.715   6.081  2.8739 -1.4301 -0.1498
 4388SOL     OW24622   3.727   1.685  17.162  0.1354  0.6417 -0.4628
 4388SOL    HW124623   3.666   1.663  17.092 -0.5545 -0.3450  0.4429
 4388SOL    HW224624   3.695   1.773  17.178  1.5311  1.1476 -0.4660
 4389SOL     OW24625   4.175   0.590  15.987 -0.5391 -0.0302 -0.0044
 4389SOL    HW124626   4.178   0.596  15.891  0.8750  2.1621  0.1732
 4389SOL    HW224627   4.111   0.659  16.005  0.3655  0.4914  1.1917
 4390SOL     OW24628   2.812   1.674   7.136 -0.2364  0.7765  0.0272
 4390SOL    HW124629   2.722   1.707   7.135 -0.4260  0.1943 -1.3710
 4390SOL    HW224630   2.817   1.658   7.231 -1.8483 -0.4491 -0.0892
 4391SOL     OW24631   2.090   0.286   9.711 -0.9209  0.3848  0.7398
 4391SOL    HW124632   2.110   0.194   9.695  3.3842  1.4516  0.0725
 4391SOL    HW224633   2.169   0.311   9.759  1.6234  0.0107 -3.2338
 4392SOL     OW24634   0.231   3.845   3.689  0.1243  0.4795  0.6070
 4392SOL    HW124635   0.283   3.886   3.620 -0.5840  0.7817  0.2543
 4392SOL    HW224636   0.144   3.856   3.651 -0.0076  2.2815  1.4368
 4393SOL     OW24637   0.632   1.109  13.186  0.2480  0.1537 -0.4912
 4393SOL    HW124638   0.638   1.074  13.275 -1.2974  1.3242  0.0638
 4393SOL    HW224639   0.540   1.133  13.180 -0.2892 -2.1726 -1.5846
 4394SOL     OW24640   3.339   0.251  16.140  0.6686  0.0095 -0.3104
 4394SOL    HW124641   3.245   0.265  16.152  0.3356 -0.8866 -1.8315
 4394SOL    HW224642   3.338   0.162  16.104 -2.2446 -0.1913  0.2257
 4395SOL     OW24643   4.247   0.817   1.252  0.4116  0.3069 -0.3544
 4395SOL    HW124644   4.277   0.843   1.164  2.5866  0.9106  0.5638
 4395SOL    HW224645   4.186   0.889   1.269  0.4022  0.2956 -0.3406
 4396SOL     OW24646   2.802   1.395   4.232 -0.1473  0.0214  0.1320
 4396SOL    HW124647   2.807   1.306   4.199 -0.6304 -0.3979  1.1834
 4396SOL    HW224648   2.707   1.405   4.225 -0.3214 -1.0661  0.9342
 4397SOL     OW24649   3.371   0.097   2.492  0.4479 -0.4233 -0.1929
 4397SOL    HW124650   3.409   0.183   2.509  1.3310 -0.9624  0.5871
 4397SOL    HW224651   3.388   0.088   2.398  1.1967 -0.3128 -0.0721
 4398SOL     OW24652   1.291   2.376   5.524 -0.1352  0.4192  0.0084
 4398SOL    HW124653   1.230   2.336   5.585 -0.0855 -1.4614 -1.1880
 4398SOL    HW224654   1.358   2.407   5.584 -0.0178  1.2603 -0.5467
 4399SOL     OW24655   2.464   0.774   7.144 -0.1101 -0.0565  0.7220
 4399SOL    HW124656   2.555   0.748   7.129 -0.1528  0.4848 -0.4655
 4399SOL    HW224657   2.461   0.860   7.185 -2.9054 -0.8927  2.2953
 4400SOL     OW24658   1.943   0.846   5.677  0.7077  0.7119 -0.1451
 4400SOL    HW124659   1.849   0.827   5.684  0.4947  1.9993  0.5169
 4400SOL    HW224660   1.939   0.908   5.604 -0.3865  0.5742 -0.2083
 4401SOL     OW24661   1.108   1.394   6.978 -0.7294  0.7450 -0.4988
 4401SOL    HW124662   1.036   1.380   6.917 -1.4106 -0.2504  0.5315
 4401SOL    HW224663   1.135   1.304   6.997 -1.2887  0.1660 -2.4423
 4402SOL     OW24664   3.743   1.364   2.167 -0.2267  0.5289  0.2819
 4402SOL    HW124665   3.676   1.431   2.154 -2.1728 -1.3349  0.7020
 4402SOL    HW224666   3.820   1.413   2.138 -1.3148  2.1166  0.0508
 4403SOL     OW24667   4.532   0.966   4.089 -0.5930 -0.0872  0.5404
 4403SOL    HW124668   4.611   0.912   4.088 -0.3806  0.2266  0.1427
 4403SOL    HW224669   4.457   0.911   4.112 -0.4201 -0.5705 -0.0687
 4404SOL     OW24670   3.678   4.047   0.791  0.2240  0.1465  0.3646
 4404SOL    HW124671   3.767   4.046   0.828  0.3253 -2.1691  0.0375
 4404SOL    HW224672   3.700   4.085   0.706  1.3262  0.4243  0.7656
 4405SOL     OW24673   0.417   1.204  14.312  0.1211 -0.3933 -0.1018
 4405SOL    HW124674   0.447   1.290  14.282 -1.0781 -0.0386 -0.3039
 4405SOL    HW224675   0.354   1.196  14.241 -3.6817  0.3496  3.1948
 4406SOL     OW24676   3.621   3.539   3.039 -0.4122 -0.5243 -0.7305
 4406SOL    HW124677   3.662   3.598   2.976  2.1759 -0.5105  0.9553
 4406SOL    HW224678   3.683   3.467   3.047 -1.7986 -1.4705  1.6259
 4407SOL     OW24679   3.823   0.953   7.865 -0.2954  0.2498  0.3005
 4407SOL    HW124680   3.798   1.045   7.853  0.0713  0.6605  2.6177
 4407SOL    HW224681   3.911   0.961   7.904  0.3554  0.8289 -1.2772
 4408SOL     OW24682   2.231   4.051   1.570  0.2737 -0.4242 -0.3473
 4408SOL    HW124683   2.174   4.022   1.640  0.3837 -1.0505 -0.5118
 4408SOL    HW224684   2.166   4.033   1.502  0.6366 -1.2843 -0.4669
 4409SOL     OW24685   0.270   3.219  14.537 -0.6090  0.0957 -0.2472
 4409SOL    HW124686   0.288   3.312  14.554  0.7397 -0.4103  1.1268
 4409SOL    HW224687   0.191   3.224  14.484 -0.2026  3.5562 -0.5137
 4410SOL     OW24688   2.526   1.024   3.913 -0.7512 -0.4337  0.3089
 4410SOL    HW124689   2.515   0.930   3.933  0.6153 -1.1674 -2.5079
 4410SOL    HW224690   2.604   1.028   3.859 -0.9091 -1.3576  0.0129
 4411SOL     OW24691   4.630   3.938   9.151 -0.6999 -0.4426 -0.2496
 4411SOL    HW124692   4.551   3.912   9.198 -0.2050 -1.1790  0.1903
 4411SOL    HW224693   4.592   3.958   9.065  0.7767 -1.9014 -1.2425
 4412SOL     OW24694   2.270   2.981   8.470 -0.0205  0.5517 -0.2748
 4412SOL    HW124695   2.235   3.070   8.467  2.5018  1.5584  0.3031
 4412SOL    HW224696   2.350   3.002   8.518  0.2396  0.6368 -0.7439
 4413SOL     OW24697   3.589   1.406  17.353 -0.0269 -0.3290  0.4115
 4413SOL    HW124698   3.641   1.485  17.367 -1.5958  0.8777 -0.5890
 4413SOL    HW224699   3.658   1.343  17.370  1.2782  0.9632 -0.1418
 4414SOL     OW24700   4.108   3.574   7.297  0.5097 -0.1614  0.5012
 4414SOL    HW124701   4.072   3.485   7.302 -0.7989  0.4164  1.1628
 4414SOL    HW224702   4.074   3.607   7.214  1.6118  1.5335  0.7230
 4415SOL     OW24703   3.890   0.478   2.739  0.3310 -0.7981  0.6305
 4415SOL    HW124704   3.918   0.464   2.829  2.9786 -0.9154 -0.2292
 4415SOL    HW224705   3.797   0.456   2.747 -0.1252  1.8321  2.2940
 4416SOL     OW24706   4.278   3.718   1.138  0.2285  0.1616  0.1642
 4416SOL    HW124707   4.193   3.675   1.150 -1.0319  1.9457 -2.2412
 4416SOL    HW224708   4.280   3.728   1.042 -2.3186 -0.2756  0.0567
 4417SOL     OW24709   2.528   2.403   2.640 -0.1864  0.3760 -0.2269
 4417SOL    HW124710   2.464   2.436   2.704 -0.6029 -0.2093 -0.3455
 4417SOL    HW224711   2.575   2.345   2.700 -0.4205  0.4586  0.0364
 4418SOL     OW24712   4.218   3.511   3.342  0.2963  0.0519  0.5257
 4418SOL    HW124713   4.151   3.569   3.380 -0.1708  0.6048 -1.1429
 4418SOL    HW224714   4.168   3.433   3.317  2.4527 -1.1445  0.0269
 4419SOL     OW24715   1.908   3.845  12.968  0.2986 -0.2356 -0.0298
 4419SOL    HW124716   1.863   3.905  12.908 -1.2949 -2.7284 -1.3503
 4419SOL    HW224717   1.980   3.904  12.988 -0.1419  0.1245  0.5155
 4420SOL     OW24718   4.471   4.514   6.866 -0.0862  0.3357 -0.1794
 4420SOL    HW124719   4.460   4.520   6.961 -3.5973  0.4798 -0.6043
 4420SOL    HW224720   4.384   4.539   6.835  0.1719  1.2292 -0.1826
 4421SOL     OW24721   3.638   2.312   7.833  0.1982  0.1051 -0.4021
 4421SOL    HW124722   3.556   2.305   7.784 -0.5471  2.0869  0.5873
 4421SOL    HW224723   3.655   2.218   7.845 -2.1045 -0.3698 -0.8007
 4422SOL     OW24724   0.062   0.162   4.251  0.2519 -0.5494 -0.0730
 4422SOL    HW124725   0.074   0.255   4.231 -1.1617 -0.4158 -0.2777
 4422SOL    HW224726   0.008   0.133   4.178  0.2319  2.5190 -1.2960
 4423SOL     OW24727   1.801   2.284   7.547  0.2658 -0.0777 -0.0711
 4423SOL    HW124728   1.814   2.189   7.545  0.2161 -0.0345 -2.1517
 4423SOL    HW224729   1.748   2.293   7.627 -0.3927 -1.0136 -0.4030
 4424SOL     OW24730   0.188   2.560  10.607  0.8818 -0.4241  0.1793
 4424SOL    HW124731   0.164   2.574  10.699  1.0665  1.3370 -0.0519
 4424SOL    HW224732   0.278   2.591  10.603  0.7806 -0.0469  0.8335
 4425SOL     OW24733   1.281   1.613   5.474 -0.7419  0.3393  0.4432
 4425SOL    HW124734   1.245   1.650   5.555  1.6432  0.6798  1.3520
 4425SOL    HW224735   1.254   1.521   5.477  0.1417  0.1254  1.7578
 4426SOL     OW24736   3.588   2.564  11.792  0.3254 -0.1047 -0.2099
 4426SOL    HW124737   3.679   2.549  11.767  0.5404  0.1207  0.4594
 4426SOL    HW224738   3.547   2.614  11.721 -0.4539 -0.0508  0.2776
 4427SOL     OW24739   4.321   2.131  12.563  0.7063 -0.2694 -0.1195
 4427SOL    HW124740   4.314   2.219  12.527  1.7244 -0.6802 -1.3348
 4427SOL    HW224741   4.404   2.111  12.518  1.5887  0.7058  1.0635
 4428SOL     OW24742   3.942   4.411   5.758 -0.3067  0.7277 -0.3457
 4428SOL    HW124743   3.848   4.415   5.773 -0.1900  1.2716  0.2682
 4428SOL    HW224744   3.951   4.320   5.730 -0.0942  0.8780 -0.7654
 4429SOL     OW24745   3.613   2.419   3.241  0.7543  0.3507  0.4191
 4429SOL    HW124746   3.646   2.351   3.300  2.5812  0.0055 -0.9892
 4429SOL    HW224747   3.577   2.484   3.302  0.0684  1.0806 -0.7588
 4430SOL     OW24748   3.872   3.738   1.721  0.0617  0.2699 -0.5185
 4430SOL    HW124749   3.918   3.673   1.773 -1.6020  1.3639  2.3510
 4430SOL    HW224750   3.795   3.765   1.771  0.7279  1.6965 -0.2585
 4431SOL     OW24751   0.777   2.881   3.468 -0.0536 -0.1200  0.0761
 4431SOL    HW124752   0.849   2.832   3.509 -0.1853 -0.3928 -0.0242
 4431SOL    HW224753   0.703   2.823   3.486 -0.1944  0.4581  1.3630
 4432SOL     OW24754   3.184   3.179   1.080  0.3375 -0.7625 -1.0496
 4432SOL    HW124755   3.103   3.205   1.124  0.2724 -0.7906 -1.1514
 4432SOL    HW224756   3.232   3.138   1.151 -0.2361 -0.1117 -0.2708
 4433SOL     OW24757   1.799   4.261   2.683  0.3661  0.0344  0.4639
 4433SOL    HW124758   1.767   4.312   2.609  0.0812 -1.0006 -0.1187
 4433SOL    HW224759   1.726   4.200   2.690  0.4380 -0.5132 -3.9374
 4434SOL     OW24760   4.482   2.129   9.402 -0.3429 -0.5236  0.5609
 4434SOL    HW124761   4.442   2.050   9.438 -0.5407 -0.7741 -0.2064
 4434SOL    HW224762   4.570   2.093   9.411 -0.9869 -2.2051  0.1959
 4435SOL     OW24763   3.321   1.577   4.617  0.8391 -0.4395  0.3056
 4435SOL    HW124764   3.413   1.556   4.604  0.2829 -1.8371 -1.4442
 4435SOL    HW224765   3.323   1.672   4.612 -2.4964 -0.3678  0.2367
 4436SOL     OW24766   3.053   2.104   2.671 -0.3722  0.2780 -0.4171
 4436SOL    HW124767   3.038   2.098   2.766 -3.4084  0.1215 -0.8922
 4436SOL    HW224768   3.144   2.134   2.672  0.2805 -1.7769  0.6765
 4437SOL     OW24769   2.788   3.150   2.737 -0.0095  0.3487 -0.4338
 4437SOL    HW124770   2.712   3.113   2.692 -0.2481  1.0551 -0.6109
 4437SOL    HW224771   2.764   3.242   2.747 -1.9710 -0.2755  0.7072
 4438SOL     OW24772   2.233   3.707   3.161  0.0593  0.5806 -0.0049
 4438SOL    HW124773   2.164   3.732   3.098 -0.4028  1.5173  0.8744
 4438SOL    HW224774   2.214   3.614   3.171  0.2937  0.4843 -0.4374
 4439SOL     OW24775   3.363   2.536   2.429  0.3873 -0.3193  0.3495
 4439SOL    HW124776   3.362   2.444   2.456 -0.4829 -0.1619  0.8604
 4439SOL    HW224777   3.340   2.580   2.512 -2.1803 -1.8250  0.4134
 4440SOL     OW24778   2.820   0.941   9.970  0.1934  0.7781  0.4115
 4440SOL    HW124779   2.805   0.984   9.886 -4.1425  1.3987  1.4977
 4440SOL    HW224780   2.903   0.984   9.991  0.9008 -0.6754  0.6035
 4441SOL     OW24781   2.620   0.668  11.168 -0.0796  0.3267 -0.6118
 4441SOL    HW124782   2.556   0.644  11.235  1.3393 -0.7413  0.3705
 4441SOL    HW224783   2.646   0.757  11.192  1.7702 -0.4015  0.0894
 4442SOL     OW24784   3.389   3.653   0.368  0.3078  0.1972  0.4423
 4442SOL    HW124785   3.311   3.684   0.413 -1.2759 -0.6787 -1.7022
 4442SOL    HW224786   3.381   3.696   0.283 -2.8526  1.0139  1.1824
 4443SOL     OW24787   3.068   0.240   6.360  0.4309  0.6441  0.2432
 4443SOL    HW124788   3.099   0.242   6.450 -0.3469  0.1953  0.5181
 4443SOL    HW224789   2.974   0.252   6.370 -0.0877 -0.4444 -3.3507
 4444SOL     OW24790   4.017   3.036  11.152  0.3535 -0.1438 -0.3616
 4444SOL    HW124791   4.078   3.031  11.078  1.5931  1.9242  0.5337
 4444SOL    HW224792   4.055   3.093  11.218 -0.9352 -0.1555  0.3847
 4445SOL     OW24793   1.868   1.108  17.584  0.5221 -1.0801  0.6967
 4445SOL    HW124794   1.908   1.053  17.517 -1.8951 -1.6792 -0.2101
 4445SOL    HW224795   1.882   1.060  17.666 -1.2319 -1.5709  0.6916
 4446SOL     OW24796   3.257   1.169   7.594 -0.3785  0.1720  0.5571
 4446SOL    HW124797   3.274   1.092   7.541 -0.3795 -0.7817  1.9570
 4446SOL    HW224798   3.237   1.225   7.519  0.6270  1.7120  1.4356
 4447SOL     OW24799   1.221   3.611   2.542  0.1418 -0.0020  0.3737
 4447SOL    HW124800   1.153   3.676   2.563 -0.8923 -0.0656 -2.8638
 4447SOL    HW224801   1.205   3.545   2.609 -1.6415  0.3581  0.3155
 4448SOL     OW24802   0.955   1.773  10.872 -0.0428 -0.4697 -0.5776
 4448SOL    HW124803   0.935   1.709  10.941  0.2711  2.4872  2.2952
 4448SOL    HW224804   1.026   1.817  10.919 -2.5018  2.9724 -0.0623
 4449SOL     OW24805   0.829   1.097   7.130 -0.1113 -0.2376 -0.4865
 4449SOL    HW124806   0.760   1.039   7.162  0.4222 -0.3378  0.4756
 4449SOL    HW224807   0.783   1.180   7.146 -1.5443 -1.1462  0.0672
 4450SOL     OW24808   3.683   2.024   0.632  0.1919  0.1150 -0.0791
 4450SOL    HW124809   3.743   2.087   0.593  1.0196 -0.6903 -0.1065
 4450SOL    HW224810   3.707   1.947   0.580 -1.5483 -0.7188  0.3418
 4451SOL     OW24811   0.720   1.903  16.847 -0.1653 -0.0415 -0.3599
 4451SOL    HW124812   0.637   1.950  16.855  2.1715  3.9538  0.4145
 4451SOL    HW224813   0.703   1.830  16.908  2.7314  0.3871  0.9377
 4452SOL     OW24814   4.336   3.956   2.172 -0.0956  0.1217  0.2257
 4452SOL    HW124815   4.348   3.868   2.134 -0.2243 -0.5976  1.8522
 4452SOL    HW224816   4.362   3.939   2.263 -0.8053 -1.7254  0.0791
 4453SOL     OW24817   3.177   3.521   4.607  0.3040  0.1769  0.2027
 4453SOL    HW124818   3.099   3.469   4.626  1.0956 -1.0669  0.0097
 4453SOL    HW224819   3.201   3.564   4.689  1.1314  1.1537 -0.5593
 4454SOL     OW24820   1.096   0.059  14.779 -0.1865 -0.5553 -0.0053
 4454SOL    HW124821   1.113   4.714  14.842  0.6438 -1.6410 -1.4316
 4454SOL    HW224822   1.129   0.140  14.817  0.7306  0.2884 -2.5254
 4455SOL     OW24823   1.151   1.419   0.717  0.4881 -0.1020  0.2003
 4455SOL    HW124824   1.096   1.487   0.754  1.4914  1.2964 -0.8832
 4455SOL    HW224825   1.206   1.389   0.789  0.3294 -0.9207 -0.0192
 4456SOL     OW24826   3.185   4.611   4.202  0.7117  0.4576 -0.6773
 4456SOL    HW124827   3.157   4.565   4.123  0.5472  0.6157 -0.7134
 4456SOL    HW224828   3.278   4.591   4.196  0.4822 -1.0434  0.9018
 4457SOL     OW24829   4.529   2.070   6.208 -0.9540  0.5668  0.0254
 4457SOL    HW124830   4.529   2.098   6.300  2.2871  0.8337 -0.0551
 4457SOL    HW224831   4.612   2.106   6.179  0.8669 -2.8606  0.9377
 4458SOL     OW24832   3.884   3.718   3.178  0.5406  0.7773  0.0632
 4458SOL    HW124833   3.963   3.764   3.149  0.2642  1.1101 -0.1484
 4458SOL    HW224834   3.917   3.691   3.264 -1.5593 -1.2148  0.2389
 4459SOL     OW24835   1.762   3.558  14.604 -0.0031 -0.1023  0.4602
 4459SOL    HW124836   1.839   3.553  14.661 -0.1220  0.6445  0.6828
 4459SOL    HW224837   1.766   3.648  14.573 -0.5858  0.2551  1.4088
 4460SOL     OW24838   3.366   1.939   5.188  0.5230  0.6544 -0.1889
 4460SOL    HW124839   3.380   1.849   5.161  0.4424  0.5535  0.1028
 4460SOL    HW224840   3.270   1.938   5.194  0.4531  3.2813 -0.8087
 4461SOL     OW24841   4.190   0.409   4.375  0.7666  0.1887  0.5083
 4461SOL    HW124842   4.229   0.394   4.289 -1.2442  1.1110 -0.5622
 4461SOL    HW224843   4.242   0.356   4.436 -0.9380  0.7845  2.4531
 4462SOL     OW24844   0.237   3.015   3.915  0.0181 -0.3460  0.4664
 4462SOL    HW124845   0.273   3.033   4.002 -3.1715  0.8219  1.5254
 4462SOL    HW224846   0.228   3.103   3.878  0.2575  0.6637  2.7935
 4463SOL     OW24847   2.879   0.169  15.765 -0.6793 -0.5814 -0.4168
 4463SOL    HW124848   2.872   0.261  15.790  4.0964  0.5515 -3.1999
 4463SOL    HW224849   2.823   0.126  15.829 -2.2280  2.7677  0.4839
 4464SOL     OW24850   2.101   3.502  11.444 -0.1772 -0.7140  0.1630
 4464SOL    HW124851   2.120   3.464  11.358  1.6678  1.6308 -0.4601
 4464SOL    HW224852   2.056   3.424  11.479  1.5984 -1.1370  1.4819
 4465SOL     OW24853   2.136   2.056   7.128 -0.0002  0.2070  0.2276
 4465SOL    HW124854   2.225   2.086   7.110 -0.7995  1.3488 -1.8318
 4465SOL    HW224855   2.094   2.107   7.059  1.0372 -0.2825 -0.7701
 4466SOL     OW24856   2.959   3.894   9.569 -0.2325 -0.0710 -0.0759
 4466SOL    HW124857   2.885   3.944   9.604  0.0452  0.5423 -0.3690
 4466SOL    HW224858   3.008   3.973   9.548 -4.0675  2.4737  0.5272
 4467SOL     OW24859   0.961   1.257  17.091  0.3339  0.5195 -0.0134
 4467SOL    HW124860   0.904   1.250  17.015  0.2227 -0.5516  0.1736
 4467SOL    HW224861   0.891   1.263  17.155 -0.9722 -1.1392 -1.2844
 4468SOL     OW24862   4.582   3.358   4.153 -0.2742 -0.5154 -0.3677
 4468SOL    HW124863   4.547   3.446   4.169 -3.6946 -1.6945 -1.3183
 4468SOL    HW224864   4.566   3.341   4.060 -3.2109  2.2881 -0.3879
 4469SOL     OW24865   1.240   1.863  14.494 -0.5890  0.1057  0.0121
 4469SOL    HW124866   1.164   1.806  14.499 -0.2511 -0.4102 -0.5968
 4469SOL    HW224867   1.304   1.805  14.453 -2.2525 -1.1003 -0.8700
 4470SOL     OW24868   1.659   2.568   3.607  0.4237  0.6362 -0.3955
 4470SOL    HW124869   1.614   2.528   3.532 -1.7991  1.2313  0.6252
 4470SOL    HW224870   1.741   2.599   3.569  0.5914  2.1766  1.2349
 4471SOL     OW24871   4.060   2.371   4.259  0.4551  0.2576 -0.1251
 4471SOL    HW124872   3.986   2.319   4.226 -0.3161  1.0500  0.3768
 4471SOL    HW224873   4.063   2.443   4.196  1.8362  0.1375 -0.2034
 4472SOL     OW24874   0.553   2.015   6.998 -0.0249  0.3990 -0.3582
 4472SOL    HW124875   0.577   2.051   7.084 -2.0199 -0.1244  0.4039
 4472SOL    HW224876   0.617   2.066   6.948 -0.6420  2.1886  0.6869
 4473SOL     OW24877   1.495   2.019   7.275 -0.1007  0.5406  0.4001
 4473SOL    HW124878   1.557   2.088   7.255  1.3026 -0.5510  0.9946
 4473SOL    HW224879   1.430   2.035   7.207 -1.6390  0.2097  1.7698
 4474SOL     OW24880   1.798   4.122   9.367 -0.1813  0.0218  0.7650
 4474SOL    HW124881   1.870   4.185   9.361 -0.8442  0.4899 -2.7889
 4474SOL    HW224882   1.849   4.050   9.405 -0.2898  0.3645  1.5383
 4475SOL     OW24883   1.419   0.090   4.306  0.4024 -0.0379  0.5212
 4475SOL    HW124884   1.475   0.019   4.275 -0.0799 -0.5884  0.9147
 4475SOL    HW224885   1.350   0.046   4.356 -0.4735 -0.0438 -0.7007
 4476SOL     OW24886   2.301   1.928   6.074  0.6657  0.1004 -0.1722
 4476SOL    HW124887   2.220   1.913   6.026  0.5215 -1.9397  0.7437
 4476SOL    HW224888   2.261   1.940   6.160  3.5416  1.3454  1.0223
 4477SOL     OW24889   1.505   0.928   4.199 -0.6246  0.0213 -0.4562
 4477SOL    HW124890   1.461   0.888   4.124  0.4168 -2.3609  0.2108
 4477SOL    HW224891   1.552   0.997   4.153  1.9366  0.8152  3.3965
 4478SOL     OW24892   0.509   2.618   6.563  0.4481  0.6890 -0.2685
 4478SOL    HW124893   0.476   2.705   6.584 -2.2627 -0.4487  0.2732
 4478SOL    HW224894   0.432   2.561   6.574  1.5737 -0.3622  2.1526
 4479SOL     OW24895   3.101   1.676   8.450 -0.2387  0.2566 -0.4707
 4479SOL    HW124896   3.128   1.643   8.535 -1.4789  1.3275  0.3413
 4479SOL    HW224897   3.156   1.635   8.384 -1.6380 -0.7995 -0.9780
 4480SOL     OW24898   4.285   0.295   1.541  0.2790 -0.3062  0.1033
 4480SOL    HW124899   4.231   0.373   1.550  2.0863  0.8673  0.9470
 4480SOL    HW224900   4.378   0.319   1.547  0.3909 -1.6766  3.8288
 4481SOL     OW24901   1.100   3.583   3.239  0.2690  0.2291  0.2030
 4481SOL    HW124902   1.063   3.670   3.259  1.0259  0.9048 -1.3083
 4481SOL    HW224903   1.172   3.617   3.187  0.6233  1.2400  1.3460
 4482SOL     OW24904   1.750   3.222   9.389  0.4407 -0.1386  0.6594
 4482SOL    HW124905   1.846   3.227   9.389  0.4352 -0.0307  0.1960
 4482SOL    HW224906   1.725   3.314   9.401  1.4534  0.4319 -1.6225
 4483SOL     OW24907   2.727   2.473   7.585  0.3291  0.0553 -0.2244
 4483SOL    HW124908   2.805   2.511   7.625 -1.3893  1.2202  1.9989
 4483SOL    HW224909   2.654   2.516   7.628  0.6286  1.3373 -1.0013
 4484SOL     OW24910   0.344   1.479   8.291 -0.0109 -0.7286  0.0242
 4484SOL    HW124911   0.327   1.386   8.305 -0.7060 -0.3328  1.7964
 4484SOL    HW224912   0.388   1.502   8.372 -0.5785  0.7293 -0.0646
 4485SOL     OW24913   0.276   0.439   3.316 -0.3474 -0.1322 -0.1572
 4485SOL    HW124914   0.361   0.471   3.345 -0.8936  0.0232  1.2426
 4485SOL    HW224915   0.226   0.520   3.330 -3.5143 -1.9915 -0.8412
 4486SOL     OW24916   3.749   4.398   6.973 -0.5183  0.2083 -0.2399
 4486SOL    HW124917   3.758   4.303   6.982  2.0314  0.5749  1.2028
 4486SOL    HW224918   3.831   4.427   6.932  0.1456  1.9060  2.2895
 4487SOL     OW24919   2.443   1.032   6.397  0.3941  0.2568  0.2458
 4487SOL    HW124920   2.516   1.080   6.436 -1.3466  1.4032  2.0711
 4487SOL    HW224921   2.404   1.000   6.478  0.1095 -1.5734 -0.6140
 4488SOL     OW24922   0.051   0.942   4.678  0.2389  0.0967  0.1425
 4488SOL    HW124923   4.705   0.878   4.667  3.0617 -2.8711 -0.7359
 4488SOL    HW224924   0.060   0.971   4.587 -0.1544  2.1202  0.7372
 4489SOL     OW24925   2.998   2.713  17.084 -0.1662  0.0275  0.4708
 4489SOL    HW124926   3.037   2.641  17.033  0.9409  1.6209 -0.9515
 4489SOL    HW224927   3.045   2.705  17.167  0.5067  1.2129  0.2056
 4490SOL     OW24928   4.339   2.795  15.980 -0.0975  0.4418  0.0838
 4490SOL    HW124929   4.348   2.766  15.890  1.2387 -2.7205  1.2587
 4490SOL    HW224930   4.346   2.713  16.029 -2.8476  0.0859 -0.0785
 4491SOL     OW24931   0.590   2.564  15.907 -0.6117  0.1475 -0.1229
 4491SOL    HW124932   0.624   2.623  15.840  1.0196 -0.9348 -0.2540
 4491SOL    HW224933   0.553   2.500  15.846 -0.8668 -0.9890  1.2398
 4492SOL     OW24934   4.258   1.147   4.959  0.5673 -0.7696 -0.6849
 4492SOL    HW124935   4.196   1.134   4.887  1.1714 -0.3814 -1.2748
 4492SOL    HW224936   4.211   1.218   5.003 -0.2508 -2.9332  1.9131
 4493SOL     OW24937   2.330   1.146   3.321 -0.1818 -0.1763 -0.6952
 4493SOL    HW124938   2.290   1.062   3.299 -0.1230 -0.5762  0.7475
 4493SOL    HW224939   2.343   1.187   3.235 -2.8425 -0.6402 -1.3148
 4494SOL     OW24940   3.921   0.672   5.233 -0.3482 -0.2405  0.2670
 4494SOL    HW124941   3.956   0.631   5.312 -0.1860  1.5661  1.1220
 4494SOL    HW224942   4.004   0.710   5.203 -2.4442  3.1529 -1.2641
 4495SOL     OW24943   4.483   1.308   5.141 -0.3974 -0.4831 -0.2509
 4495SOL    HW124944   4.404   1.333   5.095  0.8367 -0.2507 -2.2545
 4495SOL    HW224945   4.527   1.245   5.084 -0.6602 -0.6345 -0.2831
 4496SOL     OW24946   2.035   1.745   7.670  0.4104 -0.2761  0.0793
 4496SOL    HW124947   2.059   1.838   7.672  1.8062 -0.5819 -1.8179
 4496SOL    HW224948   2.115   1.723   7.621 -0.4138 -1.6500 -0.6208
 4497SOL     OW24949   0.039   2.443   1.738 -0.7140  0.1952 -0.0758
 4497SOL    HW124950   0.064   2.361   1.780 -1.0769  0.8594  1.4551
 4497SOL    HW224951   4.709   2.490   1.802 -0.1308  0.8318 -0.0455
 4498SOL     OW24952   0.065   1.547   3.168  0.5313  0.7943 -0.2851
 4498SOL    HW124953   4.704   1.558   3.208 -0.4232  1.4224 -2.5079
 4498SOL    HW224954   0.113   1.535   3.250 -0.1448  0.9144  0.1248
 4499SOL     OW24955   3.058   3.255   6.851 -0.4309  0.2002  0.1279
 4499SOL    HW124956   3.003   3.332   6.866  0.3419  0.9262 -0.7672
 4499SOL    HW224957   2.999   3.181   6.836 -1.9303  1.8594 -2.1902
 4500SOL     OW24958   4.059   3.717  15.644 -0.1233 -0.5438 -1.2479
 4500SOL    HW124959   4.037   3.769  15.567  1.1544  0.2883 -1.0603
 4500SOL    HW224960   4.154   3.718  15.634  0.2246  1.0749  2.4417
 4501SOL     OW24961   4.586   0.594  10.814  0.8517 -0.1067 -0.2746
 4501SOL    HW124962   4.626   0.675  10.848  0.3456 -0.0736  0.2347
 4501SOL    HW224963   4.576   0.616  10.721 -2.3254 -0.7580 -0.0910
 4502SOL     OW24964   1.006   1.873  14.694  0.1443 -0.5498 -0.4175
 4502SOL    HW124965   0.984   1.818  14.769  0.7042  1.2172  1.0395
 4502SOL    HW224966   1.031   1.807  14.629  2.2782  1.5444 -1.7397
 4503SOL     OW24967   3.369   3.260   2.402 -0.0168  0.4610 -0.5962
 4503SOL    HW124968   3.352   3.175   2.443  0.3788  0.5665 -0.2126
 4503SOL    HW224969   3.305   3.317   2.445 -1.1076 -2.6161  1.8481
 4504SOL     OW24970   2.912   1.607   0.448  0.6683 -0.0166 -0.1862
 4504SOL    HW124971   2.943   1.517   0.438 -0.8366 -0.6361  0.8938
 4504SOL    HW224972   2.977   1.643   0.508  2.5388  1.2158 -2.9357
 4505SOL     OW24973   3.618   1.249   8.783 -0.1522  0.2593 -0.4962
 4505SOL    HW124974   3.706   1.283   8.768 -0.7574  2.8661  1.7873
 4505SOL    HW224975   3.632   1.177   8.845  0.0457 -0.1679 -1.0374
 4506SOL     OW24976   3.562   1.161   1.847  0.0296  0.4219 -0.0950
 4506SOL    HW124977   3.473   1.184   1.819 -0.6354 -1.8242  0.2177
 4506SOL    HW224978   3.541   1.072   1.873 -0.3067  0.4604 -0.2282
 4507SOL     OW24979   3.400   3.839  14.015 -0.1481 -0.0868  0.1886
 4507SOL    HW124980   3.412   3.746  14.036 -1.1953 -0.3624 -0.4515
 4507SOL    HW224981   3.306   3.850  14.031 -0.3820  1.0523 -1.9285
 4508SOL     OW24982   3.244   1.464   6.933 -0.1958 -0.2371  0.1793
 4508SOL    HW124983   3.176   1.503   6.987  1.3871  2.7105  0.0210
 4508SOL    HW224984   3.268   1.543   6.884  1.0779 -1.2055 -0.7670
 4509SOL     OW24985   1.523   1.166  12.853 -0.1552  0.3770 -0.3471
 4509SOL    HW124986   1.441   1.186  12.808 -0.3720 -2.6037 -1.2983
 4509SOL    HW224987   1.499   1.091  12.908  0.8590  0.0534 -0.3500
 4510SOL     OW24988   0.567   3.551  16.238  0.1439 -0.4144 -0.1101
 4510SOL    HW124989   0.589   3.536  16.146  0.8263  0.7632 -0.1490
 4510SOL    HW224990   0.533   3.464  16.259 -0.8724  0.1424  0.5722
 4511SOL     OW24991   0.438   4.622   7.289 -0.5455 -0.9001 -0.3900
 4511SOL    HW124992   0.485   4.542   7.313 -1.0034 -0.9240  0.4483
 4511SOL    HW224993   0.391   4.587   7.214  1.5360  0.7068 -2.4329
 4512SOL     OW24994   3.382   2.974  16.256 -0.4052  0.2141 -0.2981
 4512SOL    HW124995   3.404   2.985  16.349 -0.1810 -0.7310 -0.2406
 4512SOL    HW224996   3.307   2.915  16.258  0.2754 -0.6433 -0.0077
 4513SOL     OW24997   1.038   0.622   8.794  0.1652 -0.1518 -0.4484
 4513SOL    HW124998   1.062   0.628   8.701  0.3549  2.0450 -0.2548
 4513SOL    HW224999   1.050   0.711   8.825 -1.2542  0.3814 -1.4346
 4514SOL     OW25000   0.606   3.471   2.457 -0.2641  0.0489 -0.0188
 4514SOL    HW125001   0.633   3.537   2.393 -0.9172 -0.7853 -1.1774
 4514SOL    HW225002   0.522   3.508   2.483  0.2603  1.4585 -0.3550
 4515SOL     OW25003   2.939   4.034   5.960  0.0288  0.1600 -0.1291
 4515SOL    HW125004   2.979   3.999   5.880  1.8695  1.4603  0.2340
 4515SOL    HW225005   2.855   4.071   5.931 -1.2722 -0.4223  2.9632
 4516SOL     OW25006   3.634   4.261  14.032 -0.2011  0.1814 -0.1505
 4516SOL    HW125007   3.642   4.356  14.037 -2.1025  0.3114  0.3468
 4516SOL    HW225008   3.608   4.237  14.120 -0.5281  1.6632  0.1500
 4517SOL     OW25009   3.680   0.201   7.095  0.0040  0.5489  0.6844
 4517SOL    HW125010   3.599   0.221   7.142 -0.6456  2.3128 -1.2032
 4517SOL    HW225011   3.650   0.230   7.009  0.2669 -1.3947 -0.0671
 4518SOL     OW25012   3.156   4.090   5.548 -0.1959  0.5829  0.2379
 4518SOL    HW125013   3.153   4.130   5.634 -2.3919  0.9020  0.0333
 4518SOL    HW225014   3.214   4.151   5.503  0.3854  0.9030  1.4368
 4519SOL     OW25015   1.288   3.217   6.774  0.0341 -0.3901 -0.4816
 4519SOL    HW125016   1.229   3.165   6.720  1.5479 -2.4274 -0.1401
 4519SOL    HW225017   1.250   3.203   6.861  0.5890 -0.8775 -0.3186
 4520SOL     OW25018   3.766   0.608  11.043 -0.1348 -0.4397 -0.1395
 4520SOL    HW125019   3.788   0.567  10.959 -1.5680 -0.0707 -0.6913
 4520SOL    HW225020   3.804   0.695  11.030  0.1214 -0.7578 -1.5922
 4521SOL     OW25021   1.289   2.350   3.028 -0.0092 -0.1784 -0.3943
 4521SOL    HW125022   1.259   2.311   2.945 -1.9620 -1.2950  0.8277
 4521SOL    HW225023   1.229   2.423   3.047  0.9390  0.7409 -0.9059
 4522SOL     OW25024   3.201   1.205   6.163  0.0721  0.5398  0.2382
 4522SOL    HW125025   3.194   1.112   6.184  0.5103  0.2280 -1.0185
 4522SOL    HW225026   3.141   1.206   6.088 -1.2319 -3.3409  1.2119
 4523SOL     OW25027   2.195   3.059   7.734 -0.3954 -0.4471 -0.3957
 4523SOL    HW125028   2.116   3.107   7.711 -0.0170 -0.2438 -1.2870
 4523SOL    HW225029   2.235   3.043   7.648 -1.6289 -1.2250 -0.8284
 4524SOL     OW25030   0.523   1.539  10.844 -0.0617 -0.2466 -0.7082
 4524SOL    HW125031   0.589   1.581  10.899 -1.1310 -1.7028  1.6758
 4524SOL    HW225032   0.558   1.561  10.757 -0.7571  1.0159 -0.6686
 4525SOL     OW25033   1.495   0.020   9.784 -0.5163 -0.0192 -0.5321
 4525SOL    HW125034   1.500   0.048   9.875  0.4488 -0.0892 -0.5636
 4525SOL    HW225035   1.509   4.652   9.797 -0.2867  0.4050  2.1694
 4526SOL     OW25036   0.471   1.528   0.066  0.3239  0.2467  0.5812
 4526SOL    HW125037   0.439   1.460   0.007 -0.8684  2.3325 -1.1465
 4526SOL    HW225038   0.565   1.509   0.078 -0.3297 -1.5115  2.9584
 4527SOL     OW25039   3.267   4.469   8.097 -0.1851  0.1983  0.5200
 4527SOL    HW125040   3.199   4.530   8.126 -1.6671 -0.7504 -0.9361
 4527SOL    HW225041   3.326   4.526   8.048 -0.4886  0.4825  0.4807
 4528SOL     OW25042   1.223   0.520   2.259 -0.1201 -0.0460  0.3458
 4528SOL    HW125043   1.267   0.522   2.344 -0.0948  1.6470  0.2995
 4528SOL    HW225044   1.187   0.432   2.270  1.9470 -0.8675  0.4708
 4529SOL     OW25045   4.132   4.349   3.829  0.1039  0.1249  0.2058
 4529SOL    HW125046   4.214   4.300   3.831 -0.2238 -0.4317 -0.1168
 4529SOL    HW225047   4.121   4.350   3.734 -4.1240 -1.5197  0.6532
 4530SOL     OW25048   0.477   1.069   2.258 -0.1709  0.0900  0.2221
 4530SOL    HW125049   0.428   1.001   2.305 -0.8291 -2.2764 -3.8900
 4530SOL    HW225050   0.462   1.136   2.325  0.3261 -0.9150  1.3405
 4531SOL     OW25051   2.363   2.696   5.276  0.2851  0.2016 -0.3367
 4531SOL    HW125052   2.406   2.637   5.338 -0.0450 -0.7629 -1.0374
 4531SOL    HW225053   2.274   2.696   5.314  0.9788  0.3608  1.2945
 4532SOL     OW25054   1.577   1.466  11.815 -0.1049  0.2163 -0.4831
 4532SOL    HW125055   1.596   1.463  11.721  0.9066 -1.7582 -0.2081
 4532SOL    HW225056   1.484   1.444  11.817  0.4507 -1.7961  2.5256
 4533SOL     OW25057   2.899   2.241   6.407  0.5421 -0.3494 -0.0246
 4533SOL    HW125058   2.949   2.218   6.486  0.1808 -1.9911 -0.2637
 4533SOL    HW225059   2.962   2.287   6.352  1.3256 -2.8996 -1.2492
 4534SOL     OW25060   3.505   0.030   9.085 -0.4631 -0.2811 -0.6560
 4534SOL    HW125061   3.492   0.122   9.061 -0.5536  0.2674  1.5329
 4534SOL    HW225062   3.596   0.040   9.111 -0.6395  1.2426 -0.6395
 4535SOL     OW25063   0.962   4.531  15.039 -0.0448 -0.4065  0.2158
 4535SOL    HW125064   1.042   4.525  14.987 -0.2077 -0.0594 -0.0773
 4535SOL    HW225065   0.893   4.523  14.972 -0.2533  0.5543  0.3160
 4536SOL     OW25066   1.796   1.490   2.853 -0.9487  0.2835 -0.2200
 4536SOL    HW125067   1.833   1.575   2.878 -0.2879  0.2541 -1.1381
 4536SOL    HW225068   1.744   1.472   2.932 -1.6357 -1.8217 -1.1522
 4537SOL     OW25069   3.090   0.447   4.858 -0.2663  0.5029 -0.3092
 4537SOL    HW125070   3.098   0.360   4.897  2.3022  0.2660 -1.3918
 4537SOL    HW225071   2.999   0.466   4.882  0.2244  0.3665  1.6381
 4538SOL     OW25072   2.025   2.923   8.011  0.1781 -0.2005 -0.5960
 4538SOL    HW125073   1.964   2.887   8.075 -1.4611  1.6528 -1.1314
 4538SOL    HW225074   1.958   2.922   7.942 -1.2981 -1.0186  0.8417
 4539SOL     OW25075   3.959   2.556   3.108  0.1669 -0.2687 -0.1275
 4539SOL    HW125076   3.968   2.492   3.038  0.3774 -1.1762  0.7182
 4539SOL    HW225077   3.962   2.500   3.186  0.9881 -0.0031  0.0242
 4540SOL     OW25078   2.570   2.123   8.494 -0.1883  0.5670 -0.2842
 4540SOL    HW125079   2.520   2.152   8.570  0.6797 -3.2271  1.7267
 4540SOL    HW225080   2.558   2.029   8.495  0.0692  0.5275 -0.9889
 4541SOL     OW25081   2.937   2.546  14.324  0.3722  0.2599  0.2091
 4541SOL    HW125082   2.904   2.531  14.236 -1.8329 -0.6524  1.1829
 4541SOL    HW225083   2.978   2.460  14.332  0.5567  0.4128  0.8636
 4542SOL     OW25084   1.825   1.020   4.448  0.3096 -0.5344  0.8423
 4542SOL    HW125085   1.739   1.003   4.408  0.0173 -0.0466  1.2675
 4542SOL    HW225086   1.818   0.959   4.521 -1.5330  0.0688  1.1821
 4543SOL     OW25087   0.397   4.277   0.875 -0.0942  0.2622  0.4141
 4543SOL    HW125088   0.335   4.232   0.818 -1.4874 -0.3353  2.4359
 4543SOL    HW225089   0.338   4.286   0.949 -0.5639  2.4618 -0.2216
 4544SOL     OW25090   0.461   1.139   1.887 -0.7122 -0.2423  0.5756
 4544SOL    HW125091   0.480   1.059   1.838 -1.1438 -1.0039  1.6652
 4544SOL    HW225092   0.431   1.201   1.820 -3.9383 -1.4904  0.8751
 4545SOL     OW25093   4.352   4.653   8.214  0.6171 -0.4737  0.2135
 4545SOL    HW125094   4.407   4.694   8.281 -1.3751 -0.2948  1.7295
 4545SOL    HW225095   4.327   4.578   8.269 -0.0765 -0.1956  0.2748
 4546SOL     OW25096   2.527   2.552   7.760 -0.2240  0.5053  0.0665
 4546SOL    HW125097   2.530   2.647   7.772 -0.1684  0.4289  0.6708
 4546SOL    HW225098   2.437   2.532   7.784 -0.0137  0.5351  0.8934
 4547SOL     OW25099   0.924   2.049  16.765 -0.3304  0.2349  0.1203
 4547SOL    HW125100   0.936   2.108  16.840  2.4810 -2.2047  1.6288
 4547SOL    HW225101   0.852   2.000  16.805  2.5153 -3.8768  0.1328
 4548SOL     OW25102   1.801   4.390   7.537  0.2551 -0.6804 -0.1990
 4548SOL    HW125103   1.837   4.474   7.566  1.8694 -0.9321 -1.4770
 4548SOL    HW225104   1.750   4.426   7.464 -2.2673 -0.6592  1.5781
 4549SOL     OW25105   1.501   3.994   5.983 -0.0958  0.3921 -0.2934
 4549SOL    HW125106   1.512   3.915   6.036  0.6592 -0.6532 -1.9894
 4549SOL    HW225107   1.549   4.052   6.042 -1.0287 -0.4512  1.3163
 4550SOL     OW25108   4.265   0.114   3.597 -0.2797 -0.6099  0.1509
 4550SOL    HW125109   4.182   0.150   3.566  0.8980  1.6246 -0.3475
 4550SOL    HW225110   4.254   0.128   3.691  0.2176 -0.1270  0.1385
 4551SOL     OW25111   3.796   3.943   0.263  0.3093  0.1155 -0.0221
 4551SOL    HW125112   3.874   3.962   0.211 -0.3489  1.2468 -0.6015
 4551SOL    HW225113   3.789   3.847   0.263 -0.0192  0.1370 -0.9672
 4552SOL     OW25114   2.983   4.434   8.496  0.2430 -0.1989 -0.4897
 4552SOL    HW125115   3.008   4.361   8.553 -1.1907 -0.8666 -0.7111
 4552SOL    HW225116   2.933   4.484   8.561 -0.0371 -0.1681 -0.7257
 4553SOL     OW25117   2.393   2.542   8.498  0.6693 -0.2877  0.0058
 4553SOL    HW125118   2.436   2.521   8.415 -0.8109  0.4466 -0.9499
 4553SOL    HW225119   2.419   2.634   8.506  0.9625 -0.1212 -2.9023
 4554SOL     OW25120   4.256   2.537   4.699  0.3889 -0.0354 -0.3632
 4554SOL    HW125121   4.209   2.456   4.678 -0.4581 -0.0692  1.6601
 4554SOL    HW225122   4.273   2.552   4.606  0.6143 -0.4940 -0.3981
 4555SOL     OW25123   0.409   0.637   7.646 -0.0335 -0.1218  0.0451
 4555SOL    HW125124   0.357   0.557   7.647 -2.9949  1.8028  1.4869
 4555SOL    HW225125   0.496   0.599   7.634 -1.0945 -2.4079 -0.3796
 4556SOL     OW25126   2.210   1.880   5.616  0.3698  0.7980  0.0766
 4556SOL    HW125127   2.198   1.956   5.558  2.0619  1.4344  0.5734
 4556SOL    HW225128   2.277   1.910   5.677  0.3955 -0.7694  0.7989
 4557SOL     OW25129   1.388   3.723   0.159  0.7792  0.1742  0.4061
 4557SOL    HW125130   1.450   3.774   0.107  2.0984 -0.2491  1.5617
 4557SOL    HW225131   1.442   3.671   0.219  1.5876  1.5279  0.8661
 4558SOL     OW25132   4.214   2.531   6.285  0.2749 -0.1230 -0.2491
 4558SOL    HW125133   4.256   2.468   6.225 -0.4846 -2.4004  1.6049
 4558SOL    HW225134   4.139   2.480   6.314  0.3198 -1.8228 -3.0719
 4559SOL     OW25135   3.263   1.228  15.506  0.6136 -0.4269 -0.3291
 4559SOL    HW125136   3.285   1.313  15.544 -0.2191 -1.6137  2.8004
 4559SOL    HW225137   3.311   1.180  15.574  0.7373 -0.0174 -0.1294
 4560SOL     OW25138   1.453   2.096   8.033 -0.5091 -0.0537  0.4895
 4560SOL    HW125139   1.467   2.019   7.979 -2.2590 -0.2978  0.3625
 4560SOL    HW225140   1.449   2.051   8.117 -1.3190 -0.1535  0.4040
 4561SOL     OW25141   4.519   0.481   0.265  0.6950 -0.3629  0.4556
 4561SOL    HW125142   4.603   0.479   0.311  1.9069 -0.5823 -1.7459
 4561SOL    HW225143   4.496   0.572   0.282  0.4868 -0.0356 -1.5994
 4562SOL     OW25144   0.338   3.519   8.766 -0.6452  0.2898  0.1174
 4562SOL    HW125145   0.301   3.608   8.773 -3.6132 -0.9673  0.2919
 4562SOL    HW225146   0.330   3.482   8.854  0.3917  0.7145  0.3940
 4563SOL     OW25147   0.643   3.268   6.841 -0.1686  0.0114  0.3032
 4563SOL    HW125148   0.647   3.173   6.842 -1.3812 -0.0880 -2.1495
 4563SOL    HW225149   0.676   3.290   6.753  2.1866 -0.1711  1.1524
 4564SOL     OW25150   3.957   1.622   2.391  0.0902 -0.0641  0.2367
 4564SOL    HW125151   3.875   1.661   2.360 -0.0561 -1.3911 -1.0372
 4564SOL    HW225152   3.957   1.546   2.333  0.9807  1.2949 -1.5301
 4565SOL     OW25153   0.417   1.832   3.546 -1.0287  0.2683 -0.1065
 4565SOL    HW125154   0.495   1.834   3.491  0.1010  0.1995  1.5056
 4565SOL    HW225155   0.356   1.796   3.482  0.3182 -1.8850 -0.1921
 4566SOL     OW25156   2.965   3.026   3.800  0.8699 -0.2802 -0.1635
 4566SOL    HW125157   2.890   3.084   3.807  1.0507  0.0414 -1.0295
 4566SOL    HW225158   2.999   3.023   3.890  1.9074  3.2395 -0.4410
 4567SOL     OW25159   2.345   3.676   6.453  0.1431 -0.3684  0.4137
 4567SOL    HW125160   2.385   3.752   6.410 -1.1465 -0.1982 -0.5139
 4567SOL    HW225161   2.379   3.685   6.541  1.3503 -2.4956  0.1428
 4568SOL     OW25162   2.167   4.621  14.351 -0.2059  0.1821 -0.1196
 4568SOL    HW125163   2.087   4.593  14.308 -2.6746  1.9995  3.2677
 4568SOL    HW225164   2.147   4.713  14.367 -1.3316  0.0133 -0.5594
 4569SOL     OW25165   4.150   4.575   2.945  0.2086 -0.0056 -0.0620
 4569SOL    HW125166   4.231   4.539   2.981 -0.3241 -0.7589  0.3868
 4569SOL    HW225167   4.083   4.525   2.992 -0.5343  0.3198 -0.7626
 4570SOL     OW25168   3.972   3.421  11.857 -0.0066 -0.3462 -0.2249
 4570SOL    HW125169   4.054   3.439  11.903 -1.7020  1.8042  1.9512
 4570SOL    HW225170   3.911   3.423  11.931  0.4242 -0.2255  0.1283
 4571SOL     OW25171   3.901   4.653  13.681 -0.3562  0.0669  0.6680
 4571SOL    HW125172   3.881   4.642  13.588  0.4714 -0.5475  0.5659
 4571SOL    HW225173   3.897   4.566  13.719  2.9888  0.5690  2.1049
 4572SOL     OW25174   3.105   1.841   2.738  0.1023  0.1489  0.5749
 4572SOL    HW125175   3.068   1.919   2.696 -2.5337  0.2295  3.1114
 4572SOL    HW225176   3.192   1.868   2.767  0.3111 -0.9392  0.9503
 4573SOL     OW25177   1.618   2.696  11.803 -0.0453  0.0516 -0.2857
 4573SOL    HW125178   1.599   2.660  11.717  1.2292 -0.9365 -0.1438
 4573SOL    HW225179   1.683   2.640  11.846 -0.3321  0.8516  1.1848
 4574SOL     OW25180   1.931   0.092  12.561 -0.5586 -0.0036  0.5482
 4574SOL    HW125181   1.898   0.045  12.484  1.3707 -0.0231 -0.2604
 4574SOL    HW225182   2.008   0.044  12.590  0.3136  0.8282 -0.3915
 4575SOL     OW25183   1.480   3.251   7.203  0.0744  0.3113 -0.9689
 4575SOL    HW125184   1.495   3.172   7.255  1.0826  1.5788  0.6465
 4575SOL    HW225185   1.505   3.207   7.121 -1.1288 -3.4982  0.7071
 4576SOL     OW25186   2.582   3.678   8.207  0.4093  0.7180  0.0087
 4576SOL    HW125187   2.566   3.584   8.214 -0.2355  0.7269 -1.4931
 4576SOL    HW225188   2.662   3.664   8.157  0.7087 -0.9070  0.9268
 4577SOL     OW25189   1.399   3.905   7.444  0.0447 -0.2544  0.1398
 4577SOL    HW125190   1.360   3.835   7.497  1.9615  0.4071  2.4560
 4577SOL    HW225191   1.385   3.883   7.352  1.0743 -1.6003  0.3066
 4578SOL     OW25192   3.069   1.989   2.171  0.1389 -0.1851 -0.0247
 4578SOL    HW125193   2.995   1.962   2.225 -1.1257  2.3028 -0.4924
 4578SOL    HW225194   3.085   1.907   2.125 -2.5165 -1.1260  0.7289
 4579SOL     OW25195   2.203   2.331   8.209 -0.1135 -0.1976 -0.5582
 4579SOL    HW125196   2.291   2.354   8.239 -0.2304  1.4808 -1.5457
 4579SOL    HW225197   2.172   2.418   8.185 -0.8871 -0.3381 -0.0770
 4580SOL     OW25198   2.612   4.085   8.768  0.2766 -0.1088  0.3732
 4580SOL    HW125199   2.648   4.016   8.824 -0.8107 -0.7156  0.3196
 4580SOL    HW225200   2.546   4.107   8.834 -1.2904 -0.0884 -1.2045
 4581SOL     OW25201   2.908   3.835   2.419 -0.2311 -0.0306  0.7019
 4581SOL    HW125202   2.813   3.830   2.428 -0.2308  1.8946  1.7636
 4581SOL    HW225203   2.917   3.930   2.421 -1.3929  0.1172 -0.9867
 4582SOL     OW25204   3.941   3.027   4.854 -0.4169 -0.1654 -0.2012
 4582SOL    HW125205   3.901   3.031   4.941 -2.7715  2.0444 -1.3869
 4582SOL    HW225206   3.960   2.933   4.849  3.2341  0.5241  0.8480
 4583SOL     OW25207   3.392   2.279   7.730 -0.7087  0.6309  0.2028
 4583SOL    HW125208   3.364   2.188   7.731  1.2052  0.0459  0.6797
 4583SOL    HW225209   3.343   2.316   7.656  0.7297  0.5872 -0.7814
 4584SOL     OW25210   0.304   2.568   5.303  0.3579 -0.1313 -0.2483
 4584SOL    HW125211   0.317   2.473   5.310  0.7655 -0.1040 -0.6619
 4584SOL    HW225212   0.367   2.600   5.239  0.9761 -1.1593 -0.1468
 4585SOL     OW25213   1.509   4.652  10.750  0.6100 -0.2688  0.3911
 4585SOL    HW125214   1.587   4.603  10.778 -0.5081 -0.9434  2.2808
 4585SOL    HW225215   1.496   4.717  10.818 -2.4612 -0.0560 -0.4355
 4586SOL     OW25216   3.814   2.758   8.466 -0.0571  0.4671 -0.3378
 4586SOL    HW125217   3.788   2.741   8.376  0.4504  0.3921 -0.4689
 4586SOL    HW225218   3.836   2.851   8.468  2.9015 -0.1799 -3.0032
 4587SOL     OW25219   2.942   0.906   6.368 -0.5937  0.0272 -0.4199
 4587SOL    HW125220   2.854   0.880   6.342 -1.9886  5.0566 -0.6538
 4587SOL    HW225221   2.939   0.904   6.463  0.1033 -1.8936 -0.4437
 4588SOL     OW25222   4.247   0.978   8.129 -0.3119  0.7716  0.0060
 4588SOL    HW125223   4.255   1.069   8.100 -0.3693  1.1681  1.2407
 4588SOL    HW225224   4.321   0.930   8.091 -0.6295 -2.6300  3.6492
 4589SOL     OW25225   2.260   4.525   4.264 -0.3657  0.3215 -0.2444
 4589SOL    HW125226   2.293   4.520   4.354 -0.1461 -1.3090 -0.4091
 4589SOL    HW225227   2.233   4.615   4.243 -0.2922  0.3801 -0.0874
 4590SOL     OW25228   1.263   3.660   7.472  0.3211  0.3493 -0.3654
 4590SOL    HW125229   1.232   3.578   7.512  1.9360  0.1567  0.4760
 4590SOL    HW225230   1.296   3.618   7.393 -1.2596  2.5812 -2.2205
 4591SOL     OW25231   0.763   3.595   2.911 -0.0658 -0.6965 -0.5879
 4591SOL    HW125232   0.794   3.585   2.821 -0.5701  2.3290 -1.1108
 4591SOL    HW225233   0.835   3.567   2.967 -1.3814 -0.1313  1.4066
 4592SOL     OW25234   3.319   4.222   3.992 -0.0210  0.1638  0.1240
 4592SOL    HW125235   3.239   4.248   3.945 -0.3099 -2.2857 -0.7455
 4592SOL    HW225236   3.389   4.250   3.934  0.1765 -3.0037 -1.1858
 4593SOL     OW25237   2.331   0.458   4.208  0.0335  0.0636 -0.4277
 4593SOL    HW125238   2.376   0.540   4.229  0.1815  0.5237 -2.5377
 4593SOL    HW225239   2.391   0.421   4.143  1.2924 -0.7578  1.2164
 4594SOL     OW25240   1.701   2.627  16.706 -0.6280  0.3821 -0.1707
 4594SOL    HW125241   1.689   2.630  16.611  0.2325 -1.3489 -0.3261
 4594SOL    HW225242   1.767   2.697  16.711 -0.0018 -0.1326 -1.3724
 4595SOL     OW25243   2.096   4.448   7.620 -0.8287  0.1829 -0.7493
 4595SOL    HW125244   2.107   4.394   7.542  0.3068 -1.4144  0.5231
 4595SOL    HW225245   2.023   4.406   7.666 -0.0865 -0.7015 -0.3644
 4596SOL     OW25246   1.200   0.833   7.233 -0.0574 -0.3459  0.0827
 4596SOL    HW125247   1.137   0.898   7.264  1.0258  1.1934 -0.9431
 4596SOL    HW225248   1.207   0.780   7.313  1.7416  0.1950  0.2871
 4597SOL     OW25249   1.465   1.646  14.478  0.0831  0.2405 -0.0797
 4597SOL    HW125250   1.458   1.681  14.566 -0.0595  0.6375 -0.2491
 4597SOL    HW225251   1.456   1.554  14.503 -2.2684  0.1585 -1.2404
 4598SOL     OW25252   3.310   3.459   5.968  0.2360 -0.4240 -0.1565
 4598SOL    HW125253   3.237   3.433   6.025  0.6865  2.8994  1.9227
 4598SOL    HW225254   3.381   3.400   5.992 -0.0071  0.1170  1.8859
 4599SOL     OW25255   3.509   4.232  14.658  1.0540 -0.1105  0.3091
 4599SOL    HW125256   3.461   4.315  14.658  1.2423  0.0014 -0.0295
 4599SOL    HW225257   3.462   4.190  14.586 -0.2796 -1.4943  2.0101
 4600SOL     OW25258   2.723   1.593   7.674  0.1311 -0.3349  0.2549
 4600SOL    HW125259   2.719   1.689   7.674 -0.3361 -0.3497 -0.9976
 4600SOL    HW225260   2.752   1.583   7.765 -0.9035  0.7202  0.7029
 4601SOL     OW25261   1.681   1.386   3.087  0.4541 -0.3156  0.2384
 4601SOL    HW125262   1.651   1.304   3.048 -0.5561 -0.6275  1.6698
 4601SOL    HW225263   1.601   1.429   3.117 -0.2719  0.3148 -2.5653
 4602SOL     OW25264   3.327   3.037   9.684  0.1364  0.2105 -0.2579
 4602SOL    HW125265   3.233   3.023   9.692  0.4043 -0.6783  1.3857
 4602SOL    HW225266   3.369   2.969   9.737  1.0735  0.8834 -0.1230
 4603SOL     OW25267   1.079   2.481   9.341  0.5530 -0.2518 -0.1288
 4603SOL    HW125268   1.067   2.568   9.380 -0.0963  0.1218 -1.1833
 4603SOL    HW225269   1.023   2.437   9.405 -0.9610  1.0698 -0.5604
 4604SOL     OW25270   2.606   1.081   7.547  0.5079  0.1817 -0.1607
 4604SOL    HW125271   2.580   0.997   7.511  1.1529  0.0810 -0.3866
 4604SOL    HW225272   2.701   1.069   7.539  0.6283  0.0045  1.6212
 4605SOL     OW25273   2.430   0.071   4.424  0.0097 -0.3770 -0.4405
 4605SOL    HW125274   2.367   0.001   4.444  0.2337 -0.2566  0.6853
 4605SOL    HW225275   2.507   0.016   4.411 -0.0604 -1.1287  2.2640
 4606SOL     OW25276   0.760   0.242   0.765 -0.1308 -0.6211 -0.0973
 4606SOL    HW125277   0.743   0.156   0.726 -1.3668 -0.3022 -0.2848
 4606SOL    HW225278   0.789   0.294   0.690 -2.9328  2.4184  0.9223
 4607SOL     OW25279   1.090   1.040   9.995 -0.2347  0.5538  0.2141
 4607SOL    HW125280   1.156   0.984   9.955  1.2398  0.8855  2.1886
 4607SOL    HW225281   1.139   1.066  10.073  2.2684  0.3071 -1.2778
 4608SOL     OW25282   0.605   0.918   3.939 -0.2159  0.1609 -0.6380
 4608SOL    HW125283   0.581   0.944   3.851 -2.0624  0.6962  0.0341
 4608SOL    HW225284   0.658   0.993   3.967  1.2662 -1.0843 -0.0904
 4609SOL     OW25285   0.436   1.728   4.664  0.5595 -0.2651 -0.8930
 4609SOL    HW125286   0.479   1.713   4.580  0.1580 -1.8222 -0.8329
 4609SOL    HW225287   0.341   1.722   4.649  0.7253 -0.6282 -1.7974
 4610SOL     OW25288   1.579   1.750   3.165 -0.3538  0.4929  0.5001
 4610SOL    HW125289   1.526   1.676   3.194  0.7021 -0.4410  0.0186
 4610SOL    HW225290   1.560   1.807   3.239 -3.6045 -0.0752  0.1298
 4611SOL     OW25291   2.317   0.558  10.759 -0.1583  0.2479  0.2065
 4611SOL    HW125292   2.386   0.498  10.790 -1.6192  0.2693  3.4560
 4611SOL    HW225293   2.334   0.640  10.805 -1.1122  2.0700 -2.7110
 4612SOL     OW25294   4.395   2.774   0.087 -0.5054 -0.0422 -0.0720
 4612SOL    HW125295   4.398   2.735   0.174 -2.1848 -2.0402 -0.9082
 4612SOL    HW225296   4.464   2.841   0.085  1.6255 -2.2032  1.5869
 4613SOL     OW25297   1.101   1.270   3.252  0.7288  0.5460  0.2802
 4613SOL    HW125298   1.053   1.326   3.190  0.2546  2.1177  2.0471
 4613SOL    HW225299   1.042   1.291   3.325 -0.7101  1.5380 -1.1505
 4614SOL     OW25300   1.403   3.506   7.259 -0.1865 -0.4074 -0.3400
 4614SOL    HW125301   1.420   3.413   7.246  1.7667  0.1672 -1.8083
 4614SOL    HW225302   1.312   3.514   7.232 -0.0954 -0.7968 -0.7529
 4615SOL     OW25303   0.250   3.383   7.782  0.4284 -0.6310  0.2145
 4615SOL    HW125304   0.312   3.400   7.853  2.2945  0.6446 -1.6814
 4615SOL    HW225305   0.172   3.397   7.835  0.1717 -3.5494  0.5898
 4616SOL     OW25306   1.617   2.957  10.343 -0.0168 -0.0217  0.0366
 4616SOL    HW125307   1.639   2.864  10.346  1.3879  0.3113  0.3286
 4616SOL    HW225308   1.689   2.988  10.399 -0.1318 -0.3036  0.3392
 4617SOL     OW25309   0.244   0.786   3.064  0.1813  0.0754  0.6185
 4617SOL    HW125310   0.203   0.704   3.092 -1.0243  1.2524  2.2339
 4617SOL    HW225311   0.177   0.833   3.015  0.9682  0.1694 -0.3720
 4618SOL     OW25312   4.207   0.191  15.589 -0.5779 -0.1276  0.1885
 4618SOL    HW125313   4.261   0.113  15.595 -2.0852 -1.0223  2.0466
 4618SOL    HW225314   4.249   0.244  15.657  0.9767 -2.4105  0.9854
 4619SOL     OW25315   4.450   4.486   2.075 -0.2540  0.5421  0.1943
 4619SOL    HW125316   4.529   4.539   2.071  0.7113 -0.8408  0.8904
 4619SOL    HW225317   4.391   4.522   2.009 -0.4903  2.4649  1.4571
 4620SOL     OW25318   2.799   3.753  12.949 -0.2437 -0.3666  0.2767
 4620SOL    HW125319   2.854   3.745  13.027  0.0036  2.5951  0.4092
 4620SOL    HW225320   2.726   3.792  12.997 -0.2155  0.0512 -0.0161
 4621SOL     OW25321   0.505   1.219   7.677 -0.2759  0.0864 -0.2086
 4621SOL    HW125322   0.482   1.173   7.596  0.8879  0.7623 -0.9251
 4621SOL    HW225323   0.599   1.229   7.659 -0.4017  0.0891 -0.8763
 4622SOL     OW25324   4.515   0.658  11.838  0.6887  0.4774 -0.9329
 4622SOL    HW125325   4.552   0.571  11.829 -0.7170 -0.1020 -1.0546
 4622SOL    HW225326   4.552   0.691  11.756  0.2237 -1.2522 -1.8353
 4623SOL     OW25327   2.652   0.587   1.738 -0.4750 -0.6728 -0.1544
 4623SOL    HW125328   2.569   0.605   1.783  0.3385  1.7390  0.3797
 4623SOL    HW225329   2.629   0.602   1.646 -0.4272 -0.5532 -0.1467
 4624SOL     OW25330   3.132   1.972  10.237  0.3187 -1.0067  0.0323
 4624SOL    HW125331   3.167   2.007  10.318  0.9998 -1.1734 -0.1841
 4624SOL    HW225332   3.045   2.012  10.242  1.2205  1.1096 -1.1923
 4625SOL     OW25333   1.989   3.440   0.355 -0.1187 -0.3807 -0.5296
 4625SOL    HW125334   2.080   3.436   0.323 -1.5150 -1.1631 -4.4643
 4625SOL    HW225335   1.953   3.357   0.324  0.4563 -0.7677 -0.1712
 4626SOL     OW25336   2.649   1.549   1.899 -0.3719  0.5795 -0.8151
 4626SOL    HW125337   2.586   1.569   1.968 -1.8961  1.1804 -2.3629
 4626SOL    HW225338   2.635   1.454   1.894 -1.3181  0.6625  0.3178
 4627SOL     OW25339   0.874   1.054   8.143 -0.1485  0.1746 -0.0175
 4627SOL    HW125340   0.829   1.068   8.060  0.7186 -0.7068 -0.6334
 4627SOL    HW225341   0.803   0.999   8.177 -1.3246 -0.1083 -2.9880
 4628SOL     OW25342   2.657   1.042   7.127  0.3951  0.1011  0.7159
 4628SOL    HW125343   2.722   1.112   7.128  0.5230 -0.0108  0.4134
 4628SOL    HW225344   2.585   1.096   7.095  0.9682  0.3689 -0.1316
 4629SOL     OW25345   1.481   2.929   5.930  0.2519 -0.0350 -0.9259
 4629SOL    HW125346   1.519   2.867   5.992  0.1025 -0.6981 -1.4996
 4629SOL    HW225347   1.406   2.956   5.981  0.7583  0.9738 -0.7169
 4630SOL     OW25348   3.726   4.678  12.224  0.5829  0.1573  0.3059
 4630SOL    HW125349   3.775   4.659  12.144 -0.1927  1.7666 -0.5511
 4630SOL    HW225350   3.641   4.704  12.188 -0.3615 -1.1752  1.5501
 4631SOL     OW25351   4.198   3.406   2.641  0.1447 -0.1579 -0.8872
 4631SOL    HW125352   4.286   3.406   2.604  0.0166 -1.0444 -1.1971
 4631SOL    HW225353   4.155   3.338   2.589  0.1379 -0.6077 -0.2970
 4632SOL     OW25354   3.196   2.731   6.679  0.0277  0.1355  0.1398
 4632SOL    HW125355   3.168   2.670   6.610  0.0009  3.5898 -2.9326
 4632SOL    HW225356   3.153   2.814   6.662 -0.2296 -0.0891 -0.3074
 4633SOL     OW25357   1.872   1.816   2.485 -0.4704  0.0529 -0.6097
 4633SOL    HW125358   1.913   1.867   2.556  1.0536 -3.1866  0.8477
 4633SOL    HW225359   1.800   1.774   2.532 -2.6057  1.8127 -2.3604
 4634SOL     OW25360   4.024   3.124   5.488 -0.0729  0.2673 -0.1879
 4634SOL    HW125361   4.081   3.165   5.554 -0.7969 -1.3371  1.4275
 4634SOL    HW225362   4.099   3.096   5.434  0.0438 -0.1062  0.1668
 4635SOL     OW25363   1.820   0.834   4.712 -0.1119 -0.3884  0.1904
 4635SOL    HW125364   1.903   0.804   4.674  0.9411  1.1953  1.2266
 4635SOL    HW225365   1.773   0.752   4.727 -1.1351 -0.0573 -1.1919
 4636SOL     OW25366   1.205   0.710   2.539 -0.3601 -0.0611  0.4498
 4636SOL    HW125367   1.110   0.709   2.526 -0.3248  2.0955  0.0744
 4636SOL    HW225368   1.227   0.620   2.562 -1.0998 -0.6746 -1.2254
 4637SOL     OW25369   4.137   1.908  16.437 -0.8506 -0.1321  0.0444
 4637SOL    HW125370   4.193   1.949  16.370  1.0726 -3.1150 -0.1930
 4637SOL    HW225371   4.142   1.813  16.424  1.3908 -0.3205  2.2817
 4638SOL     OW25372   4.309   4.583   2.435 -0.1656  0.1987 -0.0673
 4638SOL    HW125373   4.307   4.596   2.530  1.8896  0.3963 -0.0574
 4638SOL    HW225374   4.345   4.494   2.428  0.1547  0.3116  0.1569
 4639SOL     OW25375   2.728   3.099  12.428 -0.0206  0.2163 -0.2096
 4639SOL    HW125376   2.763   3.187  12.444  0.1388  0.2481 -0.7333
 4639SOL    HW225377   2.767   3.049  12.499  1.5912  2.3260  0.4190
 4640SOL     OW25378   3.587   1.468  13.303 -0.1581  0.0247 -0.6234
 4640SOL    HW125379   3.665   1.448  13.356  1.3468 -1.8530 -3.5085
 4640SOL    HW225380   3.630   1.491  13.221  0.0073 -1.9357 -1.0839
 4641SOL     OW25381   2.237   4.542   7.919 -0.0355  0.1208 -0.4632
 4641SOL    HW125382   2.177   4.490   7.973 -0.4700  1.1282  0.0390
 4641SOL    HW225383   2.246   4.475   7.851 -1.9953  0.4703 -1.0768
 4642SOL     OW25384   0.850   1.365   6.456  0.6155  0.2234  0.2900
 4642SOL    HW125385   0.773   1.387   6.405  0.5818 -2.5036 -0.8475
 4642SOL    HW225386   0.895   1.449   6.456 -2.4322  1.8301 -2.4190
 4643SOL     OW25387   2.110   3.863   4.626 -0.4384 -0.6015 -0.2651
 4643SOL    HW125388   2.160   3.800   4.575  0.7029  1.2082 -1.3839
 4643SOL    HW225389   2.077   3.929   4.565  2.7844 -0.5315 -1.9576
 4644SOL     OW25390   3.596   4.689   3.769  0.2781 -0.0586  0.5098
 4644SOL    HW125391   3.579   0.023   3.696 -0.7585 -0.5748  0.3404
 4644SOL    HW225392   3.650   4.621   3.729 -0.1675  1.1809 -2.1574
 4645SOL     OW25393   3.167   1.828  15.951  0.3979  0.0164  0.4408
 4645SOL    HW125394   3.203   1.762  16.011 -2.2424 -2.6960 -0.9775
 4645SOL    HW225395   3.145   1.902  16.008  0.9674 -0.7928  1.7002
 4646SOL     OW25396   0.403   1.327   6.811 -0.7817 -0.3364  0.2666
 4646SOL    HW125397   0.375   1.322   6.720  0.0144 -1.1099  0.0597
 4646SOL    HW225398   0.488   1.371   6.809 -0.4466 -1.0048 -0.3877
 4647SOL     OW25399   1.857   0.379   2.591  0.3201 -0.5717 -0.2397
 4647SOL    HW125400   1.837   0.447   2.655 -2.5693 -1.4608 -0.2147
 4647SOL    HW225401   1.951   0.362   2.605  0.7260 -0.1678 -2.5236
 4648SOL     OW25402   3.048   0.185   4.978 -0.3270  0.5346 -0.3274
 4648SOL    HW125403   3.022   0.192   5.070  1.0543 -1.6321  0.2253
 4648SOL    HW225404   2.969   0.169   4.927  0.6848  0.0431 -1.7331
 4649SOL     OW25405   3.727   4.615   7.529  0.2462  0.5793  0.3421
 4649SOL    HW125406   3.698   4.533   7.490  0.5309 -1.3316  4.1388
 4649SOL    HW225407   3.798   4.587   7.587  0.4982 -0.7459 -0.6110
 4650SOL     OW25408   2.101   3.411   8.201 -0.1388 -0.0710  0.4146
 4650SOL    HW125409   2.006   3.394   8.196  0.0307 -0.5779 -0.9470
 4650SOL    HW225410   2.128   3.326   8.236 -1.5263 -1.3584 -1.6566
 4651SOL     OW25411   2.025   3.163  10.234 -0.0285  0.0560 -0.3766
 4651SOL    HW125412   2.012   3.105  10.160  2.0821 -1.0835  0.1639
 4651SOL    HW225413   2.101   3.211  10.202  0.8173 -0.7077  0.4812
 4652SOL     OW25414   1.441   0.523   3.385  0.3626 -0.5637  0.3526
 4652SOL    HW125415   1.477   0.594   3.439 -1.6068  0.2178  0.6363
 4652SOL    HW225416   1.508   0.511   3.318 -0.2435  0.5102 -0.4439
 4653SOL     OW25417   0.007   1.632  12.522  0.0679  0.2961  0.6550
 4653SOL    HW125418   0.000   1.582  12.603  1.9613  1.4170  1.4978
 4653SOL    HW225419   4.712   1.722  12.551 -0.6029 -0.0147  1.1622
 4654SOL     OW25420   0.267   0.404   7.691 -0.5930  0.5301  0.1780
 4654SOL    HW125421   0.184   0.358   7.707 -1.1434  1.6539  0.5036
 4654SOL    HW225422   0.281   0.378   7.599  1.7630 -0.7362  0.8868
 4655SOL     OW25423   3.159   3.981   5.252 -0.3940  0.0356  0.1895
 4655SOL    HW125424   3.155   4.076   5.243 -1.9805 -0.2345 -2.0111
 4655SOL    HW225425   3.168   3.965   5.346  2.3241  0.8058  0.0583
 4656SOL     OW25426   0.863   0.952   5.108  0.5387 -0.0832  0.2263
 4656SOL    HW125427   0.770   0.931   5.108  0.6029 -0.3740  0.7005
 4656SOL    HW225428   0.900   0.868   5.080 -0.5617  0.2253 -2.0706
 4657SOL     OW25429   0.885   3.075  15.170  0.4423  0.3157 -0.1756
 4657SOL    HW125430   0.942   3.007  15.204 -1.1508 -1.8183 -1.8144
 4657SOL    HW225431   0.903   3.083  15.076 -1.8057  2.7791 -0.3970
 4658SOL     OW25432   2.516   2.723   7.062  0.0986  0.0469  0.2046
 4658SOL    HW125433   2.429   2.685   7.057 -0.3822  1.0737  0.8482
 4658SOL    HW225434   2.496   2.805   7.108 -0.2876  0.5557 -0.8755
 4659SOL     OW25435   0.497   4.504  16.095  0.3489 -0.4147 -0.1767
 4659SOL    HW125436   0.507   4.566  16.023  2.7643 -0.1758  0.3748
 4659SOL    HW225437   0.577   4.452  16.083  0.8340  0.2338  0.2452
 4660SOL     OW25438   0.723   1.992   2.008  0.5534 -0.1933  0.1091
 4660SOL    HW125439   0.742   1.901   2.030  0.0044 -0.5811 -1.0024
 4660SOL    HW225440   0.781   2.051   2.058  0.8625  0.2344 -0.7513
 4661SOL     OW25441   2.383   3.652   6.108  0.0345  0.6420 -0.5125
 4661SOL    HW125442   2.403   3.562   6.135  0.2788  0.4584 -1.3164
 4661SOL    HW225443   2.460   3.699   6.142  0.7877 -2.1391  1.6894
 4662SOL     OW25444   2.332   4.067   3.753  0.0179 -0.0251  0.3700
 4662SOL    HW125445   2.266   4.105   3.811  0.0598  0.3474  0.1699
 4662SOL    HW225446   2.296   4.076   3.665  1.5515 -2.4572 -0.5034
 4663SOL     OW25447   0.245   3.657   6.105  0.4329  1.1026  0.5830
 4663SOL    HW125448   0.283   3.718   6.169  1.5364  0.9479  0.0769
 4663SOL    HW225449   0.200   3.594   6.161  0.4899  0.6409  0.1099
 4664SOL     OW25450   4.332   0.531   5.351 -0.5938 -0.1289 -0.4405
 4664SOL    HW125451   4.398   0.475   5.393  0.5420  1.9158  0.5006
 4664SOL    HW225452   4.272   0.545   5.424  0.0125 -0.7599  0.1813
 4665SOL     OW25453   0.887   3.648   1.997  0.2357  0.3389 -0.0756
 4665SOL    HW125454   0.959   3.667   2.058  0.2190  1.6754 -0.4756
 4665SOL    HW225455   0.926   3.621   1.914 -0.0316  1.2057 -0.4850
 4666SOL     OW25456   1.504   0.788   4.890 -0.0309  0.4928 -0.1574
 4666SOL    HW125457   1.514   0.781   4.795  0.0523  1.2190 -0.2056
 4666SOL    HW225458   1.555   0.867   4.912 -0.6962  1.9607 -3.7403
 4667SOL     OW25459   1.084   1.549  11.868  0.0716  0.1682 -0.4026
 4667SOL    HW125460   1.149   1.493  11.827 -0.8715 -0.9506 -0.3704
 4667SOL    HW225461   1.133   1.588  11.940  1.0439  0.5788 -1.2938
 4668SOL     OW25462   4.452   1.036   4.757 -0.2887 -0.2143  0.7376
 4668SOL    HW125463   4.454   0.945   4.729 -0.7324  0.6713 -2.1871
 4668SOL    HW225464   4.360   1.044   4.782 -1.5166  1.2293 -4.2459
 4669SOL     OW25465   0.334   3.994   4.641  0.3170 -0.2585  0.3677
 4669SOL    HW125466   0.316   4.014   4.549 -0.9021 -0.5812  0.5307
 4669SOL    HW225467   0.261   4.035   4.688  2.6945  2.9695  1.2300
 4670SOL     OW25468   0.045   3.486  17.535  0.3017 -0.0749  0.6466
 4670SOL    HW125469   4.696   3.541  17.563 -1.9882 -3.0259  0.3994
 4670SOL    HW225470   0.082   3.548  17.472 -0.8149  0.6985  0.7506
 4671SOL     OW25471   1.916   2.855   2.982  0.0384 -0.6872  0.0414
 4671SOL    HW125472   1.931   2.789   3.050 -1.0403 -0.6094  0.3523
 4671SOL    HW225473   1.980   2.912   3.023  0.8874 -0.2684 -1.8419
 4672SOL     OW25474   2.466   0.567   0.484  0.2931  0.0551 -0.4209
 4672SOL    HW125475   2.517   0.497   0.523 -0.8275 -0.9609 -0.7974
 4672SOL    HW225476   2.375   0.536   0.482  1.1900 -2.3689 -2.2971
 4673SOL     OW25477   0.317   3.515   2.849  0.5087 -0.8315 -0.1819
 4673SOL    HW125478   0.388   3.454   2.829 -0.9929 -3.0202  1.1762
 4673SOL    HW225479   0.373   3.588   2.876 -1.7298  1.0817 -0.6906
 4674SOL     OW25480   1.551   3.283  16.002  0.4753 -0.2304 -0.1056
 4674SOL    HW125481   1.504   3.359  15.968 -0.8709 -1.3674 -0.7595
 4674SOL    HW225482   1.543   3.210  15.940 -0.3843 -1.4670  1.4668
 4675SOL     OW25483   0.879   2.316  10.552  0.5746  0.4681  0.0001
 4675SOL    HW125484   0.905   2.287  10.464  2.2311 -2.3647  1.4377
 4675SOL    HW225485   0.955   2.296  10.605  0.5666 -0.0715 -0.1911
 4676SOL     OW25486   3.965   1.647   9.659 -0.3008  0.4036 -0.2724
 4676SOL    HW125487   3.906   1.575   9.682  0.1979  0.0645 -0.0624
 4676SOL    HW225488   3.914   1.718   9.697  0.8718  2.3076 -2.2401
 4677SOL     OW25489   2.011   3.355   2.051 -0.2001  0.4819 -0.1738
 4677SOL    HW125490   1.928   3.333   2.093  0.7728 -0.9988  1.0049
 4677SOL    HW225491   2.024   3.438   2.096  2.2417 -0.3256  0.6479
 4678SOL     OW25492   2.048   0.634   3.724 -0.2792 -0.3707  0.0453
 4678SOL    HW125493   2.116   0.608   3.786 -1.2009  0.2750  1.3150
 4678SOL    HW225494   2.095   0.694   3.667 -1.7031  0.5932 -0.1063
 4679SOL     OW25495   2.461   3.274  13.212  0.1799  0.3483 -0.4098
 4679SOL    HW125496   2.514   3.319  13.147  0.6485 -0.8806 -0.8901
 4679SOL    HW225497   2.418   3.205  13.161  0.3051  0.2122 -0.3294
 4680SOL     OW25498   3.355   0.616   3.629  0.1513  0.3753 -0.1598
 4680SOL    HW125499   3.387   0.693   3.675 -0.7122  1.2288 -0.9995
 4680SOL    HW225500   3.353   0.641   3.537  0.6031 -0.0473 -0.2882
 4681SOL     OW25501   0.202   1.680   4.145  0.0988 -0.0416  0.2599
 4681SOL    HW125502   0.156   1.714   4.222 -0.5217 -1.5059  0.5367
 4681SOL    HW225503   0.245   1.753   4.100  1.4813 -1.2910 -0.4800
 4682SOL     OW25504   0.510   0.599  15.339  0.2006 -0.3891  0.3036
 4682SOL    HW125505   0.458   0.680  15.335  2.6360  1.1296 -0.3073
 4682SOL    HW225506   0.455   0.534  15.296  1.3537 -1.6629  0.7790
 4683SOL     OW25507   3.625   3.409   6.822  0.2024  0.7565  0.2159
 4683SOL    HW125508   3.606   3.316   6.808 -2.2077  1.0244  1.6164
 4683SOL    HW225509   3.700   3.422   6.764  0.0577  0.7082  0.0175
 4684SOL     OW25510   0.014   0.113   2.360 -0.1601 -0.2550 -0.1173
 4684SOL    HW125511   4.706   0.136   2.447  0.3071 -0.2262  0.0535
 4684SOL    HW225512   0.105   0.086   2.373 -0.4412 -1.1246  0.0630
 4685SOL     OW25513   2.125   1.191   4.131  0.0238 -0.5602 -0.0713
 4685SOL    HW125514   2.165   1.277   4.122  2.1860 -1.5679 -0.1376
 4685SOL    HW225515   2.033   1.211   4.115  0.1163  1.1557  1.6204
 4686SOL     OW25516   4.488   3.020  11.608 -0.1705  0.2490  0.4076
 4686SOL    HW125517   4.566   3.067  11.641  0.7672 -2.2191  1.6791
 4686SOL    HW225518   4.505   2.942  11.660 -1.3010 -1.2252 -1.4825
 4687SOL     OW25519   0.863   1.743   7.287 -0.5649  0.2958  0.6766
 4687SOL    HW125520   0.931   1.723   7.222 -1.1025 -0.8804  0.4682
 4687SOL    HW225521   0.783   1.721   7.240  0.5273  3.0070 -2.4702
 4688SOL     OW25522   3.001   1.115   8.441 -0.2960  0.2996 -0.1099
 4688SOL    HW125523   2.996   1.204   8.476 -0.7101 -0.1237  0.9037
 4688SOL    HW225524   3.088   1.114   8.402 -1.2126  2.5449 -2.2285
 4689SOL     OW25525   4.597   2.990   2.747  0.0924 -0.2225  0.1483
 4689SOL    HW125526   4.552   2.910   2.775 -1.0970  0.8567  1.3008
 4689SOL    HW225527   4.621   2.965   2.657  1.0421  1.2850 -0.0161
 4690SOL     OW25528   3.979   0.104   2.033  0.0346 -0.0582 -0.2599
 4690SOL    HW125529   3.926   0.150   1.968 -1.3705 -2.1054 -0.5518
 4690SOL    HW225530   4.027   0.175   2.076 -0.1489  0.1706 -0.4312
 4691SOL     OW25531   2.556   3.230   5.387  0.4822 -0.2718 -0.2228
 4691SOL    HW125532   2.567   3.258   5.478 -0.5155 -2.1885  0.4918
 4691SOL    HW225533   2.560   3.136   5.405  2.1537  0.2365  1.9984
 4692SOL     OW25534   1.949   1.182   5.804 -0.0835  0.4364 -0.1026
 4692SOL    HW125535   1.925   1.166   5.713  1.5771 -1.5452 -0.1909
 4692SOL    HW225536   2.042   1.161   5.795 -0.7000 -2.2850 -0.1971
 4693SOL     OW25537   4.571   2.998   0.262  0.2861 -0.2039 -0.2715
 4693SOL    HW125538   4.497   3.052   0.233 -0.0821  0.9429  2.8986
 4693SOL    HW225539   4.543   2.932   0.326 -2.1985  1.4837  0.3907
 4694SOL     OW25540   1.056   1.507   1.169 -0.2041 -0.2098 -1.0167
 4694SOL    HW125541   1.052   1.549   1.083  0.5179  0.7324 -0.5892
 4694SOL    HW225542   1.112   1.434   1.142  0.5577 -0.3033  0.7831
 4695SOL     OW25543   2.307   1.134  14.120  0.0022  0.5148 -0.4104
 4695SOL    HW125544   2.306   1.165  14.030  0.0594  1.6318 -0.0287
 4695SOL    HW225545   2.251   1.199  14.163 -1.7166 -0.4983 -1.1131
 4696SOL     OW25546   2.217   3.063   8.811  0.3477 -0.0480 -0.0564
 4696SOL    HW125547   2.168   3.029   8.886 -0.5607  0.2563 -0.5115
 4696SOL    HW225548   2.292   3.004   8.817  0.6151  0.1563 -1.3162
 4697SOL     OW25549   3.678   2.196   7.555  0.0675  0.5195 -0.7578
 4697SOL    HW125550   3.771   2.178   7.566 -0.0159  0.2283 -0.5315
 4697SOL    HW225551   3.641   2.130   7.614  0.3101  0.1978 -0.9705
 4698SOL     OW25552   2.355   1.509   3.705  0.2492 -0.2353  0.1193
 4698SOL    HW125553   2.374   1.423   3.744 -1.2675 -1.0922 -1.0171
 4698SOL    HW225554   2.259   1.505   3.705  0.2767 -0.8984  0.0266
 4699SOL     OW25555   1.968   0.541   9.197  0.3046 -0.2598 -0.2787
 4699SOL    HW125556   1.915   0.619   9.213 -1.5705 -1.6436  0.2667
 4699SOL    HW225557   1.910   0.492   9.139  0.2066 -0.1640 -0.2618
 4700SOL     OW25558   4.342   1.888   6.380 -0.1548 -0.0698 -0.0330
 4700SOL    HW125559   4.396   1.935   6.317  0.5448  0.0986  0.7056
 4700SOL    HW225560   4.272   1.844   6.329 -1.6164 -0.6430  2.4760
 4701SOL     OW25561   0.761   1.546  10.681 -0.7685 -0.2821 -0.3891
 4701SOL    HW125562   0.846   1.514  10.710 -1.7954 -1.7481  1.0605
 4701SOL    HW225563   0.789   1.566  10.592  0.5651  0.4460  0.1922
 4702SOL     OW25564   0.022   4.175   2.997  0.4784  0.3236  0.4907
 4702SOL    HW125565   0.054   4.205   2.912 -2.8986  0.2083 -0.8415
 4702SOL    HW225566   0.052   4.248   3.050  1.0133  0.1874  0.3798
 4703SOL     OW25567   3.814   1.387   6.789 -0.4363  0.7251 -0.3879
 4703SOL    HW125568   3.778   1.435   6.715  0.3683  1.6808 -0.1608
 4703SOL    HW225569   3.840   1.462   6.841  0.5026 -1.4954  2.3606
 4704SOL     OW25570   2.452   0.998   1.196 -0.7092 -0.0077 -0.4272
 4704SOL    HW125571   2.531   0.975   1.147 -2.5010 -0.7295 -2.9665
 4704SOL    HW225572   2.445   1.091   1.176  1.9184  0.1330 -0.7810
 4705SOL     OW25573   1.136   2.764   3.960  0.3314 -0.1874 -0.1562
 4705SOL    HW125574   1.159   2.671   3.962  2.9063  0.5334  2.4856
 4705SOL    HW225575   1.207   2.799   3.905  0.0996 -0.1766 -0.4496
 4706SOL     OW25576   1.560   1.389   7.494 -0.7529  0.3444 -0.6087
 4706SOL    HW125577   1.494   1.459   7.490  0.0398  1.0451 -1.3126
 4706SOL    HW225578   1.579   1.382   7.588 -1.1144  3.3812 -0.3190
 4707SOL     OW25579   3.915   3.811   5.551 -0.0517 -0.6730 -0.1729
 4707SOL    HW125580   3.989   3.813   5.490 -0.4572  0.8381 -0.6084
 4707SOL    HW225581   3.844   3.799   5.489  0.1004  1.6524 -0.7823
 4708SOL     OW25582   3.491   4.336   0.238 -0.3661 -0.2181  0.4431
 4708SOL    HW125583   3.562   4.273   0.229 -0.7247 -0.8328  1.8377
 4708SOL    HW225584   3.541   4.416   0.258 -2.4799  1.2890 -0.2424
 4709SOL     OW25585   0.519   2.629   7.145  0.0552 -0.1668  0.0925
 4709SOL    HW125586   0.605   2.588   7.133  0.2230  0.1456  0.2315
 4709SOL    HW225587   0.473   2.569   7.087  0.6398  1.5732 -2.2135
 4710SOL     OW25588   3.490   0.050   4.426 -0.5238  0.2086 -0.8126
 4710SOL    HW125589   3.408   0.071   4.470 -0.5689  1.8324 -1.6692
 4710SOL    HW225590   3.547   0.087   4.493 -1.1228 -2.8634  1.4073
 4711SOL     OW25591   2.546   2.122   1.826 -0.3013 -0.0738 -0.7032
 4711SOL    HW125592   2.487   2.187   1.866 -0.4273 -1.2088  0.9840
 4711SOL    HW225593   2.594   2.174   1.762 -0.3204 -1.7780 -2.0982
 4712SOL     OW25594   2.310   4.073   4.752 -0.0152  0.3805  0.1004
 4712SOL    HW125595   2.307   4.128   4.830  0.4938  1.5907 -0.7338
 4712SOL    HW225596   2.221   4.094   4.724  0.4227  2.0904 -0.0167
 4713SOL     OW25597   1.688   2.563  13.215  0.3896  0.3114  0.0772
 4713SOL    HW125598   1.777   2.546  13.186  0.3620  1.1436 -0.5077
 4713SOL    HW225599   1.640   2.494  13.170  2.0414 -1.0560  0.4501
 4714SOL     OW25600   1.502   4.337   4.646  0.3198 -0.3457  0.1432
 4714SOL    HW125601   1.451   4.262   4.616  0.9019 -1.4392  1.8388
 4714SOL    HW225602   1.499   4.397   4.572  3.2123 -0.6252 -0.2090
 4715SOL     OW25603   3.451   0.731  13.461 -0.0183  0.2802 -0.3690
 4715SOL    HW125604   3.500   0.737  13.378  2.3363 -0.5313  0.9458
 4715SOL    HW225605   3.524   0.702  13.516 -0.8441 -0.9540  0.0468
 4716SOL     OW25606   2.826   1.946  10.788  0.4837 -0.2373 -0.4791
 4716SOL    HW125607   2.920   1.929  10.790  0.5512  0.3084  1.2840
 4716SOL    HW225608   2.830   2.029  10.740 -1.3437  0.7769  1.1046
 4717SOL     OW25609   1.509   3.249   2.792 -0.0825 -0.1156 -0.0835
 4717SOL    HW125610   1.599   3.282   2.786  0.0013 -0.1883  0.7636
 4717SOL    HW225611   1.495   3.261   2.886 -1.0238 -0.3691 -0.1897
 4718SOL     OW25612   1.910   2.390  17.496  0.5519  0.0350  0.0842
 4718SOL    HW125613   1.875   2.337  17.567 -1.3328  1.0634 -0.0964
 4718SOL    HW225614   1.848   2.387  17.423  0.5126  2.6023  0.0135
 4719SOL     OW25615   1.921   4.313  15.525 -0.4619 -0.1463 -0.0006
 4719SOL    HW125616   1.904   4.407  15.532  0.2763 -0.1089  1.3859
 4719SOL    HW225617   2.013   4.305  15.554 -1.1619 -1.6278  1.8234
 4720SOL     OW25618   2.950   0.756  10.847  0.4377  0.1191 -0.4097
 4720SOL    HW125619   2.962   0.848  10.872 -0.3806  1.1931 -3.9292
 4720SOL    HW225620   2.855   0.744  10.857  0.5471 -1.6465 -1.4524
 4721SOL     OW25621   0.795   0.359   3.969 -0.4243  0.5191 -0.2091
 4721SOL    HW125622   0.737   0.301   3.920 -1.9420 -0.3476  2.6677
 4721SOL    HW225623   0.735   0.407   4.026 -3.2447 -1.9251 -1.1570
 4722SOL     OW25624   2.818   3.638   9.657  0.2551  0.0375 -0.2714
 4722SOL    HW125625   2.878   3.704   9.621 -0.4594 -0.3215 -2.1059
 4722SOL    HW225626   2.750   3.697   9.689 -1.2559 -0.7241 -2.0520
 4723SOL     OW25627   0.693   3.264   4.233 -0.5607  0.7192  0.1987
 4723SOL    HW125628   0.764   3.283   4.294  0.3831  1.8750 -1.2722
 4723SOL    HW225629   0.659   3.186   4.276  2.1089 -0.9110 -0.5824
 4724SOL     OW25630   2.488   4.626  16.133  0.3523  0.3796 -0.6170
 4724SOL    HW125631   2.425   4.574  16.084 -0.7983  1.4199 -0.2488
 4724SOL    HW225632   2.457   4.716  16.123 -0.0237  0.5076  1.7813
 4725SOL     OW25633   1.780   4.601  10.711 -0.1345 -0.2576 -0.0186
 4725SOL    HW125634   1.859   4.617  10.763 -0.3683  0.9287 -0.0158
 4725SOL    HW225635   1.817   4.534  10.654  1.2998 -0.1559  0.7918
 4726SOL     OW25636   2.135   2.900   9.429 -0.0798 -0.1554 -0.5185
 4726SOL    HW125637   2.222   2.918   9.465 -0.2051 -0.2393 -0.1745
 4726SOL    HW225638   2.089   2.983   9.431 -0.4712 -0.3969  0.2818
 4727SOL     OW25639   2.822   4.591   6.667 -0.3560  0.0288 -0.1984
 4727SOL    HW125640   2.759   4.533   6.625 -1.5314  0.9344  0.3005
 4727SOL    HW225641   2.898   4.568   6.615  0.8545 -0.0532  1.6250
 4728SOL     OW25642   4.255   4.170   0.493 -0.1574 -0.0199 -0.1579
 4728SOL    HW125643   4.217   4.107   0.432  0.2135 -0.1182 -0.2877
 4728SOL    HW225644   4.196   4.159   0.568  2.0381 -2.2644  1.2141
 4729SOL     OW25645   1.066   4.009   5.653  0.3283  0.4638  0.1900
 4729SOL    HW125646   1.037   4.100   5.659  1.0375  0.8113 -1.5990
 4729SOL    HW225647   0.981   3.976   5.624  0.8840  0.9178 -1.9123
 4730SOL     OW25648   0.942   4.695   8.227 -0.0028  0.3445  0.2690
 4730SOL    HW125649   0.989   4.646   8.159 -1.1624  0.2539 -0.4574
 4730SOL    HW225650   0.880   4.632   8.263  0.6385 -0.1561  0.4995
 4731SOL     OW25651   2.948   3.998   7.560  0.4755  0.2221 -0.1286
 4731SOL    HW125652   2.856   3.997   7.588  0.2966 -4.0473 -0.8573
 4731SOL    HW225653   2.939   4.071   7.499 -0.5240 -0.9497 -1.3811
 4732SOL     OW25654   4.642   3.597   0.222  0.1904 -0.6413  0.3953
 4732SOL    HW125655   4.721   3.594   0.276 -0.5979 -3.0588  1.3886
 4732SOL    HW225656   4.635   3.513   0.176 -0.8941 -0.2373 -0.1602
 4733SOL     OW25657   1.693   3.396  17.517  0.2236 -0.1763  0.1133
 4733SOL    HW125658   1.626   3.336  17.551 -1.2088  1.0026 -0.6113
 4733SOL    HW225659   1.630   3.456  17.478  2.2710  0.7090 -1.7718
 4734SOL     OW25660   2.124   2.716  12.799  0.1289  0.1370  0.2080
 4734SOL    HW125661   2.057   2.784  12.801  0.5346  0.5228  0.5431
 4734SOL    HW225662   2.197   2.763  12.760 -2.2589  3.1790 -0.5631
 4735SOL     OW25663   4.484   1.029   2.581 -0.0344 -0.1402 -0.1781
 4735SOL    HW125664   4.398   1.044   2.541 -0.1099  0.6731  0.2892
 4735SOL    HW225665   4.495   0.935   2.569 -0.8588 -0.1705 -0.7068
 4736SOL     OW25666   1.121   0.829  10.521  0.1426  0.0352 -0.0496
 4736SOL    HW125667   1.200   0.835  10.575 -0.0885 -2.8479  0.6522
 4736SOL    HW225668   1.138   0.765  10.452 -0.1438 -1.0502  0.8818
 4737SOL     OW25669   4.071   2.798   4.678  0.5424 -0.6282  0.4016
 4737SOL    HW125670   4.069   2.762   4.589  0.4601 -0.7844  0.4647
 4737SOL    HW225671   4.079   2.892   4.666 -1.3132 -0.5797 -0.5656
 4738SOL     OW25672   2.412   4.714   8.864 -0.4740  0.1580 -0.6207
 4738SOL    HW125673   2.316   4.720   8.864 -0.5183 -0.5498 -0.5678
 4738SOL    HW225674   2.434   0.032   8.781 -0.6259  1.4849  0.0420
 4739SOL     OW25675   1.549   0.271   2.870  0.1314  0.1302 -0.1925
 4739SOL    HW125676   1.491   0.296   2.943 -0.8417  0.0464 -0.9322
 4739SOL    HW225677   1.536   0.176   2.881  2.2690 -0.0423  0.8069
 4740SOL     OW25678   2.210   0.502   0.420  0.6524  0.4224 -0.7352
 4740SOL    HW125679   2.188   0.543   0.336 -0.5093  1.4930  0.1049
 4740SOL    HW225680   2.223   0.415   0.382  1.9989  0.3034 -0.0166
 4741SOL     OW25681   0.543   4.233   4.789  0.8180 -0.2741 -0.5289
 4741SOL    HW125682   0.569   4.318   4.753 -0.8477  0.7680  0.7096
 4741SOL    HW225683   0.450   4.253   4.791  0.9848  0.3743  1.2009
 4742SOL     OW25684   2.496   0.879  15.114 -0.0993  0.0241 -0.2926
 4742SOL    HW125685   2.560   0.850  15.050 -0.8598 -3.0018  0.3123
 4742SOL    HW225686   2.461   0.793  15.138  0.3646  0.0238  0.3712
 4743SOL     OW25687   0.070   1.795   5.935  0.4260  0.4665 -0.1035
 4743SOL    HW125688   0.109   1.876   5.903 -0.9269  1.3194  0.4284
 4743SOL    HW225689   0.086   1.797   6.029  0.6405  0.4140 -0.1384
 4744SOL     OW25690   1.489   4.480  11.465  0.1501  0.7662 -0.2052
 4744SOL    HW125691   1.509   4.420  11.393 -1.4469  1.1630 -0.9955
 4744SOL    HW225692   1.543   4.556  11.445  3.0792 -0.9551  1.1656
 4745SOL     OW25693   2.836   1.112   7.943 -0.3720  0.0338  0.3723
 4745SOL    HW125694   2.875   1.190   7.902  0.6577 -0.2640  0.7953
 4745SOL    HW225695   2.910   1.066   7.982 -0.7255 -0.6691  0.2036
 4746SOL     OW25696   0.246   4.105   5.593  0.0040 -0.1519 -0.1284
 4746SOL    HW125697   0.331   4.133   5.558 -1.0624  2.3647 -0.7782
 4746SOL    HW225698   0.255   4.122   5.687  1.4761  1.7316 -0.5891
 4747SOL     OW25699   1.473   1.815   4.376  0.5184  0.1938  0.8753
 4747SOL    HW125700   1.431   1.826   4.290  1.0784 -1.7515  0.3580
 4747SOL    HW225701   1.439   1.892   4.422 -0.6773 -0.1549  0.5807
 4748SOL     OW25702   2.486   3.658   1.370 -0.2728  0.3954 -0.1290
 4748SOL    HW125703   2.427   3.693   1.303 -0.8339  0.6557  0.4990
 4748SOL    HW225704   2.459   3.567   1.361 -2.0328  0.7614  1.4758
 4749SOL     OW25705   0.442   3.990   2.807  0.0286 -0.2637  0.0599
 4749SOL    HW125706   0.361   3.975   2.856 -0.8848 -0.0795 -1.3947
 4749SOL    HW225707   0.502   3.970   2.880 -0.3688 -2.3313 -0.1871
 4750SOL     OW25708   3.135   2.580   5.478 -0.1356 -0.6085  0.0979
 4750SOL    HW125709   3.222   2.620   5.485  0.4925 -1.8283 -0.7177
 4750SOL    HW225710   3.076   2.651   5.505  1.0891  0.0443  1.0931
 4751SOL     OW25711   4.460   1.828   5.732  0.2032  0.7477 -0.3864
 4751SOL    HW125712   4.455   1.874   5.816  0.0521  1.5706 -0.8422
 4751SOL    HW225713   4.397   1.878   5.680 -1.2607 -1.1983 -0.5241
 4752SOL     OW25714   2.771   1.762   2.624 -0.4999  0.1986  0.0518
 4752SOL    HW125715   2.858   1.766   2.663 -0.7127 -0.3220  0.5913
 4752SOL    HW225716   2.718   1.719   2.691 -1.5060  2.8834  0.9730
 4753SOL     OW25717   3.373   0.134  10.296  0.2249  0.7156 -0.8270
 4753SOL    HW125718   3.432   0.159  10.367 -0.3532  2.1474 -0.8303
 4753SOL    HW225719   3.375   0.039  10.308 -3.2366  0.6330 -0.8395
 4754SOL     OW25720   3.899   2.535   5.819  0.5975  0.6308  0.3445
 4754SOL    HW125721   3.887   2.548   5.913  1.7431 -1.2539  0.7663
 4754SOL    HW225722   3.861   2.619   5.793 -1.9713  0.1447  2.5706
 4755SOL     OW25723   1.179   1.638  14.855 -0.1351 -0.2109  0.3645
 4755SOL    HW125724   1.125   1.559  14.846 -0.5745  0.0363  0.8591
 4755SOL    HW225725   1.115   1.696  14.895  0.1045  0.0702  0.3358
 4756SOL     OW25726   0.088   3.647  12.986  0.0458  0.1779 -0.2998
 4756SOL    HW125727   0.020   3.677  12.925 -1.0959 -1.0872  0.3597
 4756SOL    HW225728   0.091   3.715  13.053 -0.2321  0.6860 -0.7980
 4757SOL     OW25729   2.966   3.151   6.220  0.0612  0.1671  0.1520
 4757SOL    HW125730   3.027   3.210   6.266 -0.6963  1.7102 -0.8044
 4757SOL    HW225731   2.927   3.107   6.296  0.8804  1.5588  1.3868
 4758SOL     OW25732   1.261   0.997   8.374  0.8459  0.5979 -0.1910
 4758SOL    HW125733   1.248   1.020   8.282  2.1600 -0.0813 -0.5526
 4758SOL    HW225734   1.327   0.928   8.368  2.3110  1.8530  1.5001
 4759SOL     OW25735   0.614   2.259  15.263 -0.0699 -0.7439  0.5459
 4759SOL    HW125736   0.692   2.226  15.308  0.9819 -1.4851 -1.8287
 4759SOL    HW225737   0.601   2.197  15.192  0.5255  1.0047 -1.0732
 4760SOL     OW25738   3.799   1.966  14.026 -0.2470  0.2175  0.2351
 4760SOL    HW125739   3.707   1.944  14.009 -0.0593  1.8966 -2.9765
 4760SOL    HW225740   3.787   2.055  14.057 -4.2568 -1.1493  2.6592
 4761SOL     OW25741   4.357   2.774   2.310 -0.1656  0.3991  0.2910
 4761SOL    HW125742   4.353   2.727   2.393 -1.7741 -0.5039 -0.3069
 4761SOL    HW225743   4.269   2.810   2.297  0.1986  1.7133  1.4609
 4762SOL     OW25744   3.560   3.814   2.168 -0.4752  0.2063  0.1482
 4762SOL    HW125745   3.626   3.750   2.195  1.3221  2.7855  1.8371
 4762SOL    HW225746   3.519   3.823   2.254  1.7588  1.3906  1.0631
 4763SOL     OW25747   0.519   0.900   2.736  0.1973 -0.1006 -0.1680
 4763SOL    HW125748   0.478   0.824   2.694 -0.1418  0.6466 -1.1605
 4763SOL    HW225749   0.444   0.941   2.778 -0.3511  0.7141 -1.9505
 4764SOL     OW25750   3.054   2.800   6.943 -0.8775 -0.4624  0.3951
 4764SOL    HW125751   2.961   2.795   6.965 -0.3350  0.7392  2.9316
 4764SOL    HW225752   3.052   2.747   6.863 -0.7244 -1.6337  1.1603
 4765SOL     OW25753   2.790   0.411   9.992  0.3415 -0.1962 -0.4782
 4765SOL    HW125754   2.715   0.383  10.044 -0.5173  0.0989 -1.5670
 4765SOL    HW225755   2.851   0.450  10.055 -0.1505  1.8778 -1.3038
 4766SOL     OW25756   1.649   4.190  16.545  0.8954  0.4191  0.0017
 4766SOL    HW125757   1.658   4.146  16.461 -1.4433  0.1190 -0.0879
 4766SOL    HW225758   1.649   4.282  16.521 -1.0017  1.1224  2.6267
 4767SOL     OW25759   1.552   4.003   4.840 -0.1374 -0.7873 -0.2574
 4767SOL    HW125760   1.529   3.917   4.805  1.8218 -1.5296  0.2657
 4767SOL    HW225761   1.473   4.039   4.880  2.2744  2.6655  1.4103
 4768SOL     OW25762   1.629   1.652   6.298 -0.0614  0.0499 -0.3743
 4768SOL    HW125763   1.630   1.738   6.257  3.1074  1.3345  2.3937
 4768SOL    HW225764   1.537   1.627   6.290 -0.1482  0.3320 -0.2198
 4769SOL     OW25765   3.108   0.095  12.330  0.7025  0.0807 -0.0282
 4769SOL    HW125766   3.017   0.121  12.344  0.9274  1.5058 -1.2440
 4769SOL    HW225767   3.102   0.022  12.392  0.5277  0.6381  0.6061
 4770SOL     OW25768   2.032   0.928   9.567  0.1539  0.1456 -0.1473
 4770SOL    HW125769   2.061   0.875   9.493 -0.0936 -0.4347  0.1714
 4770SOL    HW225770   1.988   0.861   9.620 -0.3096  0.8488  0.3770
 4771SOL     OW25771   0.102   3.669   6.466 -0.0839  0.4581 -0.2066
 4771SOL    HW125772   0.081   3.605   6.398 -1.5419  1.2956 -0.5555
 4771SOL    HW225773   0.057   3.628   6.540 -0.1213 -0.0145 -0.4877
 4772SOL     OW25774   2.995   0.363  11.627  0.5455  0.5976  0.7919
 4772SOL    HW125775   2.971   0.416  11.552  0.3347  0.5993  0.8620
 4772SOL    HW225776   2.915   0.378  11.677 -0.6322 -0.8731 -0.6733
 4773SOL     OW25777   3.232   4.632   9.396 -0.2345  0.1463 -0.3052
 4773SOL    HW125778   3.259   4.704   9.454  1.5763 -1.5215  0.9463
 4773SOL    HW225779   3.154   4.604   9.443 -0.0504  0.9292  0.4859
 4774SOL     OW25780   2.204   2.225  13.609  0.3759 -0.7357 -0.3392
 4774SOL    HW125781   2.137   2.293  13.610  1.5626  0.4394 -0.6357
 4774SOL    HW225782   2.154   2.153  13.570 -0.3060 -1.1531  1.2799
 4775SOL     OW25783   4.685   3.567   1.863 -0.3133  0.2136  0.2512
 4775SOL    HW125784   0.015   3.642   1.839 -1.6311  0.6414 -1.4838
 4775SOL    HW225785   4.612   3.580   1.802  2.5181 -0.8482 -3.3451
 4776SOL     OW25786   0.972   3.170   5.410  0.2248  0.4620 -0.0604
 4776SOL    HW125787   0.953   3.080   5.434  0.0968  0.5453  0.1454
 4776SOL    HW225788   0.889   3.214   5.428 -0.3323 -0.0107 -1.4264
 4777SOL     OW25789   4.299   3.162   1.704  0.0350 -0.0186  0.1446
 4777SOL    HW125790   4.304   3.066   1.702  1.1308  0.0125  1.4847
 4777SOL    HW225791   4.389   3.185   1.682  0.2394 -1.1575 -0.2225
 4778SOL     OW25792   1.378   0.392   8.083 -0.5125 -0.1768  0.5416
 4778SOL    HW125793   1.290   0.420   8.110 -1.9751 -3.2313 -0.9337
 4778SOL    HW225794   1.360   0.330   8.012  1.0346  0.7806 -0.6756
 4779SOL     OW25795   2.178   2.452  17.381  0.5168  0.6397  0.2930
 4779SOL    HW125796   2.239   2.462  17.454  2.7356  0.7293 -1.5871
 4779SOL    HW225797   2.093   2.430  17.419  0.6878 -0.4686  0.0459
 4780SOL     OW25798   3.544   4.547   2.462  0.1555  0.2057 -0.7986
 4780SOL    HW125799   3.631   4.587   2.467 -0.0671  0.6521 -0.4889
 4780SOL    HW225800   3.488   4.621   2.486  0.6561  0.8631 -1.6436
 4781SOL     OW25801   0.728   3.324   8.855 -0.0557  0.1051  0.6121
 4781SOL    HW125802   0.704   3.239   8.893  1.1430 -0.4257  0.1923
 4781SOL    HW225803   0.820   3.333   8.878  0.3149  2.0987 -1.6627
 4782SOL     OW25804   4.664   4.638   9.545 -0.4180  0.0599  0.2458
 4782SOL    HW125805   4.705   4.683   9.472  0.5385 -0.8787  0.2000
 4782SOL    HW225806   4.603   4.575   9.506  0.5447 -0.0459 -1.0864
 4783SOL     OW25807   1.111   0.911   4.663  0.2954 -0.0801  0.0265
 4783SOL    HW125808   1.170   0.835   4.672 -0.3261 -0.2870  2.2642
 4783SOL    HW225809   1.027   0.867   4.654 -0.3470  1.1001  0.3692
 4784SOL     OW25810   3.680   3.042   8.548 -0.0399 -0.0709  0.0974
 4784SOL    HW125811   3.663   3.133   8.573 -0.0276  0.8277 -3.2279
 4784SOL    HW225812   3.765   3.033   8.592 -0.3481  0.1751  0.7385
 4785SOL     OW25813   0.363   4.004   6.527 -0.2849 -0.0356  0.1429
 4785SOL    HW125814   0.396   4.083   6.571 -0.5882  0.8703 -1.2746
 4785SOL    HW225815   0.407   3.933   6.574 -1.8500 -0.6909  0.6553
 4786SOL     OW25816   2.644   0.563   3.501 -0.3091  0.4829 -0.0744
 4786SOL    HW125817   2.682   0.623   3.437  0.8407 -1.6443 -1.3818
 4786SOL    HW225818   2.638   0.481   3.453  0.1255 -0.3493  1.2922
 4787SOL     OW25819   0.384   2.406   5.725 -1.0571  0.2098 -0.1054
 4787SOL    HW125820   0.402   2.407   5.819 -2.0458  0.2848  0.0878
 4787SOL    HW225821   0.291   2.382   5.723 -0.3924 -2.4878  1.2345
 4788SOL     OW25822   2.351   4.523  14.208 -0.1568  0.4994 -0.7160
 4788SOL    HW125823   2.333   4.437  14.245  1.2806  0.3901 -0.2474
 4788SOL    HW225824   2.296   4.575  14.267  1.4541  1.5537 -0.1253
 4789SOL     OW25825   0.817   1.873  15.988 -0.4256  0.2001  0.7084
 4789SOL    HW125826   0.839   1.927  16.064  0.4196  0.2966  0.3984
 4789SOL    HW225827   0.799   1.944  15.926  0.5215 -0.8442 -0.7639
 4790SOL     OW25828   4.198   1.049   0.820 -0.2602 -0.1253  0.1710
 4790SOL    HW125829   4.185   0.960   0.855 -1.1519 -1.3366 -3.1765
 4790SOL    HW225830   4.203   1.097   0.902  0.9723  1.7947 -1.0231
 4791SOL     OW25831   1.119   1.382  13.830 -0.3075 -0.6320  1.4373
 4791SOL    HW125832   1.193   1.393  13.889  2.1467 -2.8638 -1.2505
 4791SOL    HW225833   1.083   1.301  13.867  0.5960 -1.8506 -0.3528
 4792SOL     OW25834   1.258   3.162   3.625  0.3524  0.2083 -0.6014
 4792SOL    HW125835   1.171   3.190   3.655 -0.9677 -4.4241 -0.1557
 4792SOL    HW225836   1.313   3.240   3.612 -1.8242  1.6658 -1.1534
 4793SOL     OW25837   2.381   3.021   9.188 -0.0743 -0.0626 -0.1719
 4793SOL    HW125838   2.389   3.019   9.284 -1.0460 -1.2035 -0.1222
 4793SOL    HW225839   2.310   2.960   9.168  0.8626 -0.6815 -1.5725
 4794SOL     OW25840   3.698   0.158   8.516 -0.3622 -0.3394 -0.3619
 4794SOL    HW125841   3.624   0.097   8.512  0.2790 -1.1163 -0.5327
 4794SOL    HW225842   3.770   0.100   8.543  0.7410  1.5362  0.6965
 4795SOL     OW25843   3.179   4.164   0.420 -0.4308  0.1373 -0.1918
 4795SOL    HW125844   3.120   4.138   0.350  0.7684 -2.4279 -0.2788
 4795SOL    HW225845   3.163   4.258   0.423 -0.8180  0.0123  1.7376
 4796SOL     OW25846   4.297   2.111   8.231  0.2473 -0.0098  0.2993
 4796SOL    HW125847   4.357   2.143   8.298 -0.8200  0.8471  0.8384
 4796SOL    HW225848   4.214   2.133   8.274 -0.7384 -0.6860 -1.2385
 4797SOL     OW25849   2.142   2.415   2.698  0.3937 -0.9207 -0.5327
 4797SOL    HW125850   2.214   2.464   2.737 -0.3977 -0.7008  0.6424
 4797SOL    HW225851   2.182   2.365   2.626  0.3679  1.7702 -2.4009
 4798SOL     OW25852   1.629   4.134  16.281  0.4038 -0.4927 -0.4312
 4798SOL    HW125853   1.684   4.073  16.233 -0.4668 -1.0185 -0.7464
 4798SOL    HW225854   1.571   4.158  16.209  1.5109  2.2105 -0.4332
 4799SOL     OW25855   1.301   0.688  12.278  0.1313 -0.6905 -0.6060
 4799SOL    HW125856   1.265   0.599  12.280  1.6815 -1.2842  1.7899
 4799SOL    HW225857   1.330   0.695  12.369  0.3515 -1.9278 -0.5866
 4800SOL     OW25858   0.540   0.269   6.071  0.7153  0.0133  0.3581
 4800SOL    HW125859   0.595   0.336   6.030 -1.2404  1.0108 -0.6409
 4800SOL    HW225860   0.610   0.206   6.085 -0.0656 -0.9662 -0.1348
 4801SOL     OW25861   1.682   1.625   9.613 -0.1930 -0.0019 -0.1148
 4801SOL    HW125862   1.697   1.534   9.586  0.4063 -0.4935  1.8506
 4801SOL    HW225863   1.698   1.666   9.528  2.2914  0.9884  0.8150
 4802SOL     OW25864   2.092   0.635   3.263 -0.2605 -0.1038  0.9233
 4802SOL    HW125865   2.057   0.637   3.174 -1.5328  2.1998  1.4834
 4802SOL    HW225866   2.053   0.714   3.301 -0.2592  0.2007  0.2864
 4803SOL     OW25867   1.534   2.412   2.462  0.3267  0.5475 -0.8576
 4803SOL    HW125868   1.549   2.338   2.403  1.3224  0.0221  0.0595
 4803SOL    HW225869   1.550   2.477   2.393  1.9718  1.3974  0.3189
 4804SOL     OW25870   3.756   2.677  10.181  0.4127  0.1251 -0.3135
 4804SOL    HW125871   3.738   2.726  10.260 -1.8529 -1.6234  0.2599
 4804SOL    HW225872   3.666   2.679  10.148  0.6632  1.1230 -0.9318
 4805SOL     OW25873   1.680   4.601   7.033 -0.1774 -0.1984 -0.6276
 4805SOL    HW125874   1.685   4.605   6.937 -1.5987  0.6138 -0.6623
 4805SOL    HW225875   1.608   4.538   7.037  0.8471 -1.3830 -0.6390
 4806SOL     OW25876   1.352   0.338   8.942 -0.0257 -0.3006 -0.2085
 4806SOL    HW125877   1.326   0.247   8.957  1.1495 -0.2347  2.2141
 4806SOL    HW225878   1.430   0.354   8.995 -0.9681 -0.2824  1.1538
 4807SOL     OW25879   1.634   2.798  13.688 -0.1898 -0.1462 -0.0286
 4807SOL    HW125880   1.642   2.730  13.621  0.1964 -0.1783  0.0515
 4807SOL    HW225881   1.541   2.784  13.707  0.0988 -0.8034  0.9181
 4808SOL     OW25882   1.903   2.086   0.656  0.3246  0.2065 -0.2398
 4808SOL    HW125883   1.956   2.022   0.609  1.8684  0.7669  0.7301
 4808SOL    HW225884   1.849   2.026   0.708  0.3354 -2.3814 -3.2476
 4809SOL     OW25885   1.837   3.306  14.956  1.1567  0.1484  0.5379
 4809SOL    HW125886   1.871   3.389  14.988  2.9866 -1.5561  2.9901
 4809SOL    HW225887   1.915   3.278  14.907 -1.8534 -1.4867 -3.3520
 4810SOL     OW25888   0.267   1.815   3.116 -0.1541  0.5703  0.2588
 4810SOL    HW125889   0.306   1.759   3.182 -1.9335 -0.4799  0.4179
 4810SOL    HW225890   0.232   1.754   3.051 -0.0316  0.3685  0.3861
 4811SOL     OW25891   1.172   4.656   4.927  0.0656 -0.2291  0.3062
 4811SOL    HW125892   1.084   4.620   4.925  0.8728 -2.2192  0.8787
 4811SOL    HW225893   1.219   4.582   4.890  1.8364  0.9933  0.0772
 4812SOL     OW25894   3.663   3.944   4.286 -0.6314 -0.5206 -0.2793
 4812SOL    HW125895   3.626   3.888   4.218 -1.4060 -0.2830 -0.0593
 4812SOL    HW225896   3.596   3.995   4.332  2.0788  1.3329  1.6178
 4813SOL     OW25897   1.946   4.643   7.830 -0.0543  0.0214  0.1156
 4813SOL    HW125898   2.034   4.646   7.867 -0.7981 -0.6864  1.9761
 4813SOL    HW225899   1.930   4.548   7.827  0.1928  0.0678 -2.3718
 4814SOL     OW25900   0.833   0.352   5.770  0.0462 -0.0776  0.5420
 4814SOL    HW125901   0.836   0.259   5.744 -0.1541 -0.1049  0.6209
 4814SOL    HW225902   0.883   0.358   5.851 -1.0355 -0.0947  1.2011
 4815SOL     OW25903   0.990   1.782   2.696 -0.2496  0.4140  0.0641
 4815SOL    HW125904   0.997   1.860   2.750 -2.3361  2.9167 -3.2902
 4815SOL    HW225905   0.995   1.818   2.608 -0.0435 -0.9352 -0.4698
 4816SOL     OW25906   0.363   2.241   7.401 -0.1298  0.6003 -0.3897
 4816SOL    HW125907   0.372   2.219   7.308 -0.0712 -2.1440  0.2668
 4816SOL    HW225908   0.309   2.320   7.401  0.4664  1.0155  0.9934
 4817SOL     OW25909   2.375   2.896   3.128 -0.4189 -0.2671  0.2561
 4817SOL    HW125910   2.420   2.838   3.189  1.4296  2.0913  1.1099
 4817SOL    HW225911   2.453   2.934   3.087  0.1245 -3.0320 -1.2559
 4818SOL     OW25912   4.450   3.592   5.025 -0.1536 -0.6057  0.2348
 4818SOL    HW125913   4.444   3.501   4.996  1.6520 -0.6145 -0.0743
 4818SOL    HW225914   4.394   3.638   4.961 -2.4466 -0.6044  2.2451
 4819SOL     OW25915   3.641   4.096   5.232  0.2043  0.3649  0.2733
 4819SOL    HW125916   3.582   4.027   5.202  0.8521  1.0571 -2.5470
 4819SOL    HW225917   3.718   4.085   5.177 -0.0226  0.8170 -0.1311
 4820SOL     OW25918   2.340   1.048  13.490  0.2038  0.4886  0.3017
 4820SOL    HW125919   2.312   0.957  13.496  0.7232  0.3258  0.2519
 4820SOL    HW225920   2.409   1.037  13.555  0.6580  2.9104  0.2306
 4821SOL     OW25921   2.443   0.662   1.881 -0.4653 -0.0351  0.1206
 4821SOL    HW125922   2.439   0.756   1.902 -2.2674 -0.4194  1.4452
 4821SOL    HW225923   2.355   0.637   1.907 -1.0344 -0.3849 -2.1244
 4822SOL     OW25924   0.868   0.104   9.964  0.0087 -0.2386 -0.0775
 4822SOL    HW125925   0.959   0.105   9.936 -0.1558  1.0906 -0.5735
 4822SOL    HW225926   0.822   0.112   9.880  1.2366  0.2597 -0.6919
 4823SOL     OW25927   0.506   2.380  17.261  0.1434 -0.3720 -0.0413
 4823SOL    HW125928   0.562   2.417  17.330 -1.0169 -0.0992  0.7568
 4823SOL    HW225929   0.418   2.407  17.286  0.5133 -1.2437  2.2677
 4824SOL     OW25930   0.912   1.983  13.189  0.1666  0.0547  0.0896
 4824SOL    HW125931   0.982   1.919  13.201 -0.6169 -1.0473 -1.1377
 4824SOL    HW225932   0.927   1.995  13.095  0.8679  1.4536  0.3841
 4825SOL     OW25933   4.545   1.903   4.101 -0.6610 -0.2655  0.5301
 4825SOL    HW125934   4.553   1.987   4.146  2.0556 -0.2038 -0.0666
 4825SOL    HW225935   4.547   1.928   4.008 -2.6842  0.7599  0.7559
 4826SOL     OW25936   4.723   3.185   4.881  0.0126  0.1736 -0.4091
 4826SOL    HW125937   4.711   3.109   4.937 -2.6163  0.3816 -0.6721
 4826SOL    HW225938   0.054   3.149   4.812  0.0796  1.3029 -0.9568
 4827SOL     OW25939   4.184   3.015  10.917 -0.4168 -0.0535 -0.2885
 4827SOL    HW125940   4.166   3.004  10.823  0.2780  0.6159 -0.4997
 4827SOL    HW225941   4.248   2.944  10.931  0.6319  1.4545  2.5421
 4828SOL     OW25942   4.331   4.156  14.286  0.0778 -0.1511 -0.1156
 4828SOL    HW125943   4.367   4.220  14.225 -1.6717 -0.2607 -1.2735
 4828SOL    HW225944   4.351   4.082  14.229 -1.5656 -1.5215  1.0835
 4829SOL     OW25945   3.688   3.544   7.563  0.1521  0.0372 -0.0107
 4829SOL    HW125946   3.678   3.451   7.543 -1.9140  0.0022  1.1261
 4829SOL    HW225947   3.768   3.551   7.615 -1.9282  0.2592  3.1892
 4830SOL     OW25948   2.776   4.357  10.397  0.0119  0.8619 -0.7581
 4830SOL    HW125949   2.713   4.285  10.400  1.1269 -0.1095 -0.7244
 4830SOL    HW225950   2.825   4.336  10.476  1.3460  0.8969 -1.5736
 4831SOL     OW25951   2.733   2.741   5.929  0.1426  0.4561 -0.0980
 4831SOL    HW125952   2.746   2.826   5.970  0.8127 -0.0500  0.7355
 4831SOL    HW225953   2.667   2.709   5.990 -0.8391  1.5299 -0.5871
 4832SOL     OW25954   3.137   4.209   2.602 -0.3801  0.1608  0.0522
 4832SOL    HW125955   3.216   4.193   2.550 -0.2188 -0.8632  0.6030
 4832SOL    HW225956   3.073   4.225   2.533 -0.9789 -0.2933  0.4981
 4833SOL     OW25957   1.295   3.007   7.427 -0.0405 -0.0368  0.6714
 4833SOL    HW125958   1.387   2.989   7.406 -1.1831 -3.0986 -1.7959
 4833SOL    HW225959   1.265   2.918   7.444  0.6972 -0.1756  1.2603
 4834SOL     OW25960   3.550   1.589   2.175  0.1182  0.0058  0.1546
 4834SOL    HW125961   3.462   1.616   2.152 -0.0816 -0.5786  0.2331
 4834SOL    HW225962   3.541   1.564   2.267  0.1363 -0.1503  0.1134
 4835SOL     OW25963   0.955   0.436  12.558  0.1557 -0.8399  0.0598
 4835SOL    HW125964   1.036   0.475  12.591 -0.2576  0.2924 -0.2877
 4835SOL    HW225965   0.951   0.353  12.606 -1.2308 -0.3759  0.7285
 4836SOL     OW25966   0.549   1.581   6.018 -0.1309 -0.0644 -0.0992
 4836SOL    HW125967   0.597   1.635   5.956 -0.0281 -0.4239 -0.3349
 4836SOL    HW225968   0.554   1.630   6.099 -1.2877  0.2328 -0.2026
 4837SOL     OW25969   1.532   0.717   1.964  0.6753 -0.8815 -0.1447
 4837SOL    HW125970   1.554   0.740   1.874 -0.3018  2.2036  0.3973
 4837SOL    HW225971   1.611   0.670   1.991 -0.4941 -1.8304  1.6345
 4838SOL     OW25972   2.892   3.696  14.799 -0.1894  0.0989 -0.2065
 4838SOL    HW125973   2.807   3.711  14.840 -0.3630 -2.7768  0.5272
 4838SOL    HW225974   2.873   3.695  14.705 -0.1444 -0.5560 -0.2116
 4839SOL     OW25975   2.070   0.146   6.105  0.0053  0.0250 -0.5705
 4839SOL    HW125976   2.141   0.204   6.132 -0.7850  0.6624  0.1779
 4839SOL    HW225977   2.124   0.069   6.087 -1.6703 -0.8235 -1.9590
 4840SOL     OW25978   0.023   3.182  17.630 -0.0550 -0.6058 -0.1814
 4840SOL    HW125979   0.041   3.101  17.677  0.2062 -0.4309  0.0214
 4840SOL    HW225980   0.009   3.235   0.007  1.9034  1.4707 -1.2574
 4841SOL     OW25981   3.189   2.788  16.569 -0.3318  0.2723  0.1531
 4841SOL    HW125982   3.176   2.696  16.590 -2.5611  0.1002 -1.9688
 4841SOL    HW225983   3.152   2.822  16.650 -1.3775 -1.3626  0.3757
 4842SOL     OW25984   1.489   0.218   5.345  0.0022  0.3726  0.5361
 4842SOL    HW125985   1.487   0.168   5.263  0.8162  1.1490  0.0435
 4842SOL    HW225986   1.435   0.294   5.323 -2.3797 -1.1930  0.9789
 4843SOL     OW25987   0.183   2.092   5.487  0.6045  0.3024  0.0825
 4843SOL    HW125988   0.163   2.151   5.414 -1.6246 -0.8914 -0.2935
 4843SOL    HW225989   0.172   2.011   5.437  2.5674  0.1106 -0.0360
 4844SOL     OW25990   2.567   0.137   1.700 -0.3427  0.9303 -0.3356
 4844SOL    HW125991   2.658   0.116   1.718  0.1562  3.0153 -0.4145
 4844SOL    HW225992   2.537   0.066   1.643 -0.7555  2.0392 -1.5140
 4845SOL     OW25993   0.839   1.630   8.190 -0.6729  0.4953  0.3203
 4845SOL    HW125994   0.841   1.719   8.156 -0.0468  0.8145  1.1945
 4845SOL    HW225995   0.747   1.612   8.168 -0.1470 -0.8036 -0.8295
 4846SOL     OW25996   1.963   0.178   4.084 -0.3234  0.5596  0.3962
 4846SOL    HW125997   1.999   0.256   4.128 -2.4143  1.5636  0.3435
 4846SOL    HW225998   1.876   0.217   4.076 -0.0869  0.6882 -1.4955
 4847SOL     OW25999   0.505   2.725   3.252  1.0231  0.4277  0.2870
 4847SOL    HW126000   0.530   2.806   3.209 -0.3410  1.5785  1.7044
 4847SOL    HW226001   0.462   2.768   3.325 -0.1479  1.5615 -1.0609
 4848SOL     OW26002   1.777   2.291  15.925  0.3619  0.1191 -0.0241
 4848SOL    HW126003   1.836   2.277  15.852 -0.0572  0.3000 -0.3969
 4848SOL    HW226004   1.836   2.296  16.000  1.5850  1.0715 -1.0616
 4849SOL     OW26005   1.774   1.389   4.358  0.1600 -0.1287 -0.7895
 4849SOL    HW126006   1.750   1.468   4.405  0.6247 -0.7633  0.5332
 4849SOL    HW226007   1.693   1.362   4.314 -1.6107  0.7858  1.9227
 4850SOL     OW26008   1.943   0.421  10.246  0.1612  0.8138 -0.1895
 4850SOL    HW126009   1.950   0.373  10.328 -0.9518 -0.5585 -0.9058
 4850SOL    HW226010   1.954   0.349  10.185 -2.4384  0.1859  0.0829
 4851SOL     OW26011   3.098   1.401   8.027  0.4857 -0.2644 -0.2274
 4851SOL    HW126012   3.120   1.313   7.997  2.4875  0.2709 -0.3359
 4851SOL    HW226013   3.059   1.447   7.952 -1.3394 -1.4346  0.0194
 4852SOL     OW26014   1.755   0.718  12.358  0.3578 -0.1631  0.7677
 4852SOL    HW126015   1.682   0.778  12.343  1.2988  0.4705 -1.2308
 4852SOL    HW226016   1.805   0.753  12.432  1.2282 -1.1637  0.6518
 4853SOL     OW26017   2.100   4.236   3.871  0.0489 -0.4325 -0.3328
 4853SOL    HW126018   2.067   4.294   3.802  1.1867 -0.7560 -1.1422
 4853SOL    HW226019   2.017   4.207   3.909  0.5035 -3.1523 -1.3996
 4854SOL     OW26020   0.769   2.178   7.514 -0.0491 -0.1686  0.2181
 4854SOL    HW126021   0.848   2.210   7.470  0.4780 -2.0070 -0.1530
 4854SOL    HW226022   0.790   2.089   7.543  0.2484  0.2471  1.2564
 4855SOL     OW26023   1.866   3.606   2.460 -0.0203 -0.1396  0.1303
 4855SOL    HW126024   1.829   3.609   2.372  0.9838 -0.9388 -0.3171
 4855SOL    HW226025   1.856   3.695   2.492  1.0815  0.0980 -0.1841
 4856SOL     OW26026   0.124   2.618  10.851  0.8590 -0.0690  0.4157
 4856SOL    HW126027   0.149   2.535  10.891  0.4165 -0.7628 -0.7319
 4856SOL    HW226028   0.041   2.637  10.895  0.0398  1.2635 -1.6997
 4857SOL     OW26029   1.073   4.700   3.744  0.0139  0.5714 -0.1523
 4857SOL    HW126030   1.005   4.663   3.800  0.9667 -0.6116  0.2229
 4857SOL    HW226031   1.087   0.062   3.782  0.2319  0.7693 -0.6881
 4858SOL     OW26032   1.303   4.412   4.333  0.5388 -0.1283 -0.0409
 4858SOL    HW126033   1.328   4.336   4.280  0.6669 -0.0635 -0.0730
 4858SOL    HW226034   1.389   4.439   4.366  0.4850 -0.8814  0.7141
 4859SOL     OW26035   3.717   2.263   3.028  0.0470  0.4723 -0.0489
 4859SOL    HW126036   3.670   2.319   3.089 -1.0188  0.7444 -1.1254
 4859SOL    HW226037   3.807   2.297   3.032  1.3416 -2.8424 -0.8376
 4860SOL     OW26038   3.990   2.487  10.342 -0.2278 -0.2599 -0.0357
 4860SOL    HW126039   4.010   2.511  10.252  1.2810  0.8552  0.5912
 4860SOL    HW226040   4.041   2.406  10.354 -1.8026 -0.9956  1.6243
 4861SOL     OW26041   1.947   4.426   4.169 -0.0025  0.1096  0.1456
 4861SOL    HW126042   2.036   4.441   4.138 -0.0167 -1.7441 -0.8006
 4861SOL    HW226043   1.973   4.403   4.258 -0.0296  0.9149  0.3687
 4862SOL     OW26044   3.050   2.244   9.587  0.8170 -0.0157  0.0159
 4862SOL    HW126045   3.030   2.322   9.639 -2.4384 -0.8383 -0.0418
 4862SOL    HW226046   3.140   2.263   9.560  0.6405  0.6692 -0.0924
 4863SOL     OW26047   3.668   2.290   6.419 -0.6794 -0.2050 -0.3080
 4863SOL    HW126048   3.721   2.235   6.477 -2.5020 -0.8066  0.7787
 4863SOL    HW226049   3.603   2.222   6.402  1.2129 -1.9837 -0.4107
 4864SOL     OW26050   4.551   3.636  15.976 -0.2127 -0.3334  0.2079
 4864SOL    HW126051   4.639   3.672  15.971 -0.0483 -0.3921  2.7039
 4864SOL    HW226052   4.570   3.543  15.992  1.2154  0.0322  0.6135
 4865SOL     OW26053   4.672   1.217   5.318  0.0894 -0.0572  0.3842
 4865SOL    HW126054   4.719   1.285   5.271 -0.7438  0.0119 -0.3322
 4865SOL    HW226055   4.581   1.245   5.326 -0.1691 -1.0597  1.0485
 4866SOL     OW26056   2.749   2.528   4.763 -0.2032  0.3897  0.4898
 4866SOL    HW126057   2.834   2.525   4.719 -0.8486 -1.5476 -0.6115
 4866SOL    HW226058   2.700   2.452   4.732  0.3126  0.4604 -0.4905
 4867SOL     OW26059   0.291   0.445  13.429  0.7970 -0.1280  0.7506
 4867SOL    HW126060   0.307   0.530  13.388  0.5765 -0.1868  0.5374
 4867SOL    HW226061   0.255   0.402  13.351  1.6246  0.4622  0.0338
 4868SOL     OW26062   3.483   4.554   0.003 -0.1470 -0.4375  0.5186
 4868SOL    HW126063   3.488   4.541  17.609 -2.1408  0.4855  0.3020
 4868SOL    HW226064   3.449   4.470   0.034  0.4198 -1.1922 -0.8793
 4869SOL     OW26065   3.504   3.043   6.159 -0.1464  0.5631 -0.3258
 4869SOL    HW126066   3.439   2.973   6.161  2.5358 -1.8868  1.2541
 4869SOL    HW226067   3.585   2.993   6.173 -0.6212 -0.4321 -1.1169
 4870SOL     OW26068   2.123   3.844  16.614 -0.1523  0.1692  0.1911
 4870SOL    HW126069   2.153   3.932  16.636  1.7292 -0.3787 -0.2144
 4870SOL    HW226070   2.110   3.853  16.519 -1.6296  1.7369  0.5361
 4871SOL     OW26071   1.315   3.929   5.750 -0.2186  0.4947 -0.2227
 4871SOL    HW126072   1.362   3.972   5.822  0.8001 -1.6242  0.3782
 4871SOL    HW226073   1.234   3.980   5.744 -1.3778 -1.4336 -0.9376
 4872SOL     OW26074   0.450   0.449   9.315  0.0808 -0.3311  0.1962
 4872SOL    HW126075   0.486   0.519   9.260 -2.1908  0.4288 -0.3040
 4872SOL    HW226076   0.495   0.470   9.397 -1.5416 -2.2141  1.5573
 4873SOL     OW26077   2.046   3.231   4.259 -0.0213 -0.2505 -0.3937
 4873SOL    HW126078   1.963   3.246   4.304  1.0515 -3.9295  2.7919
 4873SOL    HW226079   2.090   3.315   4.272 -1.0468  0.2888 -0.4539
 4874SOL     OW26080   3.820   0.908   6.379  0.0858 -0.2017 -0.1168
 4874SOL    HW126081   3.906   0.932   6.414 -1.0765 -1.4089  3.6008
 4874SOL    HW226082   3.856   0.835   6.328 -0.0174  1.0594 -1.9801
 4875SOL     OW26083   1.227   3.736   4.412 -0.1184  0.2137  0.1148
 4875SOL    HW126084   1.240   3.641   4.408 -0.3090  0.2393 -1.1255
 4875SOL    HW226085   1.180   3.729   4.495  1.4764  0.4701  1.0291
 4876SOL     OW26086   1.652   1.885   9.429  0.0138 -0.9976  0.3116
 4876SOL    HW126087   1.690   1.833   9.357 -0.9294  1.4027 -1.9119
 4876SOL    HW226088   1.612   1.948   9.370 -1.6309 -0.0653  2.4398
 4877SOL     OW26089   3.904   1.152   4.242  0.4001 -0.8497  0.5338
 4877SOL    HW126090   3.861   1.121   4.163  0.1095  1.0359 -0.0502
 4877SOL    HW226091   3.989   1.189   4.218  0.5279 -0.8396  0.9959
 4878SOL     OW26092   2.170   2.502   4.300 -0.0867  0.1338 -0.3921
 4878SOL    HW126093   2.123   2.419   4.290 -0.0565 -0.0856  1.2480
 4878SOL    HW226094   2.106   2.561   4.339  1.4480 -0.0903  2.4867
 4879SOL     OW26095   4.171   0.372  13.827  0.0731 -0.3137  0.1012
 4879SOL    HW126096   4.133   0.285  13.818  2.0194 -1.2957  1.2063
 4879SOL    HW226097   4.118   0.409  13.897 -0.7258  0.0326 -0.6907
 4880SOL     OW26098   2.169   4.181   3.511  0.5305 -0.1026  0.1251
 4880SOL    HW126099   2.166   4.272   3.482 -0.5899  0.2474  1.3566
 4880SOL    HW226100   2.140   4.139   3.430  0.6089 -0.8004  0.4591
 4881SOL     OW26101   1.516   1.138   2.983 -0.0993  0.0062 -0.1511
 4881SOL    HW126102   1.554   1.051   2.985  0.1068  0.0540 -2.3422
 4881SOL    HW226103   1.453   1.128   3.055 -1.0367 -2.3088 -1.3066
 4882SOL     OW26104   2.244   3.558   1.145 -0.7759  0.0082  0.1910
 4882SOL    HW126105   2.177   3.555   1.213 -0.4948  0.0729  0.4708
 4882SOL    HW226106   2.276   3.647   1.159 -3.8779  1.2557 -0.6761
 4883SOL     OW26107   2.750   3.967   4.013 -0.0399  0.0633 -0.0200
 4883SOL    HW126108   2.746   3.937   4.103  0.5237  1.7232  0.5677
 4883SOL    HW226109   2.762   4.062   4.023 -1.9027  0.1184  1.6445
 4884SOL     OW26110   3.373   3.222   4.627  0.2432 -0.0231 -0.1254
 4884SOL    HW126111   3.296   3.239   4.681  1.3495  2.5454  0.6700
 4884SOL    HW226112   3.372   3.304   4.578  0.7875 -0.0510 -0.1745
 4885SOL     OW26113   4.318   3.615  15.470 -0.0858  0.5519  0.3258
 4885SOL    HW126114   4.356   3.639  15.386 -0.2931  1.3743  0.4643
 4885SOL    HW226115   4.248   3.556  15.441  1.2452 -1.7481  1.8543
 4886SOL     OW26116   1.904   1.286  15.507  0.8201 -0.3669  0.2877
 4886SOL    HW126117   1.848   1.258  15.580 -1.0377 -3.0494 -2.1606
 4886SOL    HW226118   1.882   1.214  15.448  0.4175  0.4158 -0.5049
 4887SOL     OW26119   2.362   3.034   6.841  0.5583 -0.6988 -0.1683
 4887SOL    HW126120   2.305   2.990   6.904 -0.5274  1.5692  0.4139
 4887SOL    HW226121   2.288   3.078   6.799  0.3407  0.4024  1.4133
 4888SOL     OW26122   1.822   2.576   5.539  0.5563 -0.2009  0.4296
 4888SOL    HW126123   1.859   2.543   5.457 -3.5596 -0.2768 -1.3585
 4888SOL    HW226124   1.879   2.653   5.542  1.4196 -0.9071  2.3793
 4889SOL     OW26125   2.083   1.210   9.598  0.0738 -0.3186 -0.3888
 4889SOL    HW126126   2.056   1.118   9.596  0.8686 -0.5670  0.1842
 4889SOL    HW226127   2.000   1.249   9.623  0.9069  0.2634  1.4355
 4890SOL     OW26128   4.186   4.623   5.410 -0.4728  0.3202  0.9348
 4890SOL    HW126129   4.122   4.679   5.366  1.6155  0.3696 -2.0030
 4890SOL    HW226130   4.148   4.535   5.405 -4.0909  2.0154 -0.8517
 4891SOL     OW26131   1.248   3.706  14.430 -0.0628  0.7023 -0.0170
 4891SOL    HW126132   1.339   3.677  14.420 -0.0425  0.5399  0.5980
 4891SOL    HW226133   1.218   3.665  14.511  1.9281  0.5413  0.6477
 4892SOL     OW26134   3.761   1.927   4.785 -0.2967 -0.5601 -0.5467
 4892SOL    HW126135   3.667   1.912   4.781 -0.6392  1.3213  0.4787
 4892SOL    HW226136   3.753   2.019   4.812  2.8446 -0.4402 -0.0458
 4893SOL     OW26137   3.700   0.306   7.640  0.2652  0.0826 -1.0651
 4893SOL    HW126138   3.740   0.367   7.701 -2.2787  0.9976 -0.3110
 4893SOL    HW226139   3.758   0.230   7.644 -1.3466 -0.8865  4.1244
 4894SOL     OW26140   4.228   1.689   6.174  0.8363 -0.4527 -0.3389
 4894SOL    HW126141   4.265   1.712   6.089  1.0771  0.1509 -0.0738
 4894SOL    HW226142   4.228   1.595   6.157  0.4287 -1.2301  3.8599
 4895SOL     OW26143   2.070   2.353  16.414 -1.1608  0.1250  0.7067
 4895SOL    HW126144   2.143   2.408  16.386 -0.4584 -0.5078  1.2837
 4895SOL    HW226145   2.073   2.379  16.506  1.8370 -1.0432  0.9556
 4896SOL     OW26146   0.795   4.650  11.659  0.3502  0.4874  0.1513
 4896SOL    HW126147   0.707   4.613  11.652  0.4159  0.2802  0.4295
 4896SOL    HW226148   0.793   4.723  11.721 -0.8231  0.5401  0.0531
 4897SOL     OW26149   2.607   0.621   5.221 -0.3277 -0.4858  0.3751
 4897SOL    HW126150   2.575   0.531   5.222 -0.4735 -0.4641 -2.2123
 4897SOL    HW226151   2.700   0.604   5.204 -0.1878 -1.1890  1.8755
 4898SOL     OW26152   3.989   4.717   1.264  0.5061  0.6329  0.3604
 4898SOL    HW126153   3.970   4.661   1.340  1.3609  0.9099  0.7697
 4898SOL    HW226154   3.930   4.702   1.190  1.2245 -0.3907 -0.0065
 4899SOL     OW26155   1.335   2.492   1.712 -0.5914  0.1089 -0.0849
 4899SOL    HW126156   1.258   2.549   1.707 -0.8426 -0.2663 -0.4718
 4899SOL    HW226157   1.296   2.425   1.768 -1.1686 -0.7863 -1.5601
 4900SOL     OW26158   0.619   2.323   8.848  0.0486  0.0441  0.0215
 4900SOL    HW126159   0.537   2.332   8.799  0.9834  0.7125 -1.4175
 4900SOL    HW226160   0.657   2.408   8.826  2.0846 -0.2387  2.4620
 4901SOL     OW26161   3.462   1.375  13.971 -0.4911 -0.5771 -0.0893
 4901SOL    HW126162   3.436   1.463  13.997 -2.9846 -0.9933 -1.1550
 4901SOL    HW226163   3.455   1.387  13.876  0.0716  3.2422  0.3701
 4902SOL     OW26164   0.006   1.442   8.057 -0.6892 -0.0172 -0.0328
 4902SOL    HW126165   4.680   1.421   8.135  0.4586  0.9009  0.9610
 4902SOL    HW226166   0.045   1.527   8.080 -1.1358  0.8184 -2.3793
 4903SOL     OW26167   3.526   4.584   1.713  0.0845  0.1818  0.2171
 4903SOL    HW126168   3.500   4.514   1.774  1.9063 -1.6548 -1.1161
 4903SOL    HW226169   3.621   4.573   1.709  0.0196 -0.0458 -0.6590
 4904SOL     OW26170   0.525   4.199  17.475 -0.0360  0.5825  0.2038
 4904SOL    HW126171   0.466   4.264  17.438 -0.3316 -0.9691 -2.0573
 4904SOL    HW226172   0.530   4.244  17.559  0.8450 -0.5754  0.7716
 4905SOL     OW26173   0.337   2.825  11.398  0.6226 -0.2981 -0.0775
 4905SOL    HW126174   0.319   2.763  11.327 -1.5179 -0.4031  0.5642
 4905SOL    HW226175   0.250   2.859  11.417  0.6724  0.5404 -1.3464
 4906SOL     OW26176   2.403   3.581  10.801 -0.0576  0.3332 -0.0556
 4906SOL    HW126177   2.418   3.639  10.727  0.9012 -0.4976 -0.5121
 4906SOL    HW226178   2.366   3.507  10.751 -0.1399  0.9392 -0.8871
 4907SOL     OW26179   4.101   0.985   8.362 -0.8867 -0.4533 -0.0976
 4907SOL    HW126180   4.075   0.901   8.323  1.0064 -0.9031 -0.4363
 4907SOL    HW226181   4.160   1.017   8.293 -1.2486 -1.2018 -0.7633
 4908SOL     OW26182   4.121   3.764   6.143 -0.3280 -0.3330  0.0780
 4908SOL    HW126183   4.156   3.762   6.053  0.7447  1.3870  0.4633
 4908SOL    HW226184   4.112   3.670   6.158  0.3090 -0.1084  1.8424
 4909SOL     OW26185   4.673   2.043   2.895  0.3691  0.3748 -0.1558
 4909SOL    HW126186   4.722   1.988   2.834 -0.3200 -2.1813  1.5996
 4909SOL    HW226187   4.649   1.971   2.954  1.0217  0.2355 -0.0655
 4910SOL     OW26188   1.971   1.369  17.578 -0.2403 -0.1847 -0.4495
 4910SOL    HW126189   1.963   1.280  17.543  0.4109  0.1538 -1.4548
 4910SOL    HW226190   1.962   1.352  17.672 -1.9203  0.2119 -0.5399
 4911SOL     OW26191   2.230   1.381   7.211  0.1626 -0.8522 -0.1582
 4911SOL    HW126192   2.191   1.417   7.290 -0.1586 -2.3854  0.3789
 4911SOL    HW226193   2.321   1.406   7.223  0.3667 -1.6973  0.0651
 4912SOL     OW26194   0.551   1.773   4.418 -0.1784  0.0646  0.1016
 4912SOL    HW126195   0.518   1.708   4.355 -2.0138  1.8017 -0.7416
 4912SOL    HW226196   0.526   1.848   4.364 -0.3825  0.1410  0.2974
 4913SOL     OW26197   3.722   0.558  11.731  0.1009 -0.5159 -0.1083
 4913SOL    HW126198   3.684   0.495  11.670  0.0396 -1.5818  1.0390
 4913SOL    HW226199   3.786   0.499  11.772  1.5586  1.7626  0.8796
 4914SOL     OW26200   2.724   1.824   7.804 -0.5400  0.3820 -0.2909
 4914SOL    HW126201   2.678   1.907   7.791 -1.2720  0.5638  3.5694
 4914SOL    HW226202   2.656   1.789   7.861  0.2728 -1.6503 -0.5728
 4915SOL     OW26203   3.959   0.178   1.474  0.3007  0.2544 -0.8874
 4915SOL    HW126204   4.044   0.213   1.498 -0.6456  0.9634  1.4287
 4915SOL    HW226205   3.989   0.120   1.404 -1.6872 -1.2526 -0.5020
 4916SOL     OW26206   3.639   4.245   5.964 -0.2656 -0.0341 -0.0779
 4916SOL    HW126207   3.692   4.252   6.044 -0.1642 -2.7289  0.0784
 4916SOL    HW226208   3.583   4.172   5.991  0.6171 -0.5183  0.4830
 4917SOL     OW26209   2.031   0.302  11.233 -0.1193 -0.3670 -0.3868
 4917SOL    HW126210   2.114   0.300  11.280  0.4611  0.7348 -1.3785
 4917SOL    HW226211   1.973   0.295  11.309 -1.0175 -0.7100 -1.1002
 4918SOL     OW26212   2.869   2.973   6.433 -0.2684 -0.2175  0.1723
 4918SOL    HW126213   2.792   2.951   6.486  0.6240  1.2680  2.0824
 4918SOL    HW226214   2.895   2.889   6.395  0.2120 -0.6471  1.4366
 4919SOL     OW26215   3.100   3.806  14.256 -0.2497  0.4651 -0.1896
 4919SOL    HW126216   3.113   3.823  14.163 -3.9805  1.4728 -0.5327
 4919SOL    HW226217   3.097   3.711  14.266  3.9361  0.3314 -0.6316
 4920SOL     OW26218   2.617   1.995  10.996 -0.2085  0.5957  0.2807
 4920SOL    HW126219   2.674   1.985  10.920  0.6839  0.5443  0.9639
 4920SOL    HW226220   2.677   1.961  11.062  0.1284 -0.8437 -0.7646
 4921SOL     OW26221   0.192   3.452  14.656 -0.2515 -0.2692 -0.5686
 4921SOL    HW126222   0.208   3.396  14.733 -1.2374  0.7786  0.4032
 4921SOL    HW226223   0.136   3.518  14.697 -2.2576 -1.3133 -1.6059
 4922SOL     OW26224   0.535   0.124   5.777  0.2080 -0.1436  0.3537
 4922SOL    HW126225   0.492   0.161   5.855 -1.1679  0.3487 -0.6531
 4922SOL    HW226226   0.627   0.126   5.806 -1.0044  0.9238  4.1538
 4923SOL     OW26227   2.468   0.398  15.635 -0.1259  0.7601  0.2710
 4923SOL    HW126228   2.500   0.444  15.713 -0.9809 -1.3317  1.8695
 4923SOL    HW226229   2.410   0.462  15.595 -1.0051 -0.3588 -0.2144
 4924SOL     OW26230   4.069   3.326   3.170 -0.4812 -0.3630  0.0442
 4924SOL    HW126231   4.069   3.235   3.140  0.1018 -0.7661  1.2401
 4924SOL    HW226232   4.149   3.356   3.125 -0.4902 -0.1798  0.1510
 4925SOL     OW26233   4.619   0.030  11.446  0.0374  0.0145  0.3480
 4925SOL    HW126234   4.572   4.680  11.482 -0.6207 -0.3618 -1.3198
 4925SOL    HW226235   4.648   4.723  11.360 -1.5547 -2.5938  0.7855
 4926SOL     OW26236   2.226   2.878   5.670  0.2256  0.0640 -0.3163
 4926SOL    HW126237   2.220   2.932   5.748 -1.1931  0.3670 -0.6287
 4926SOL    HW226238   2.294   2.816   5.697 -0.7406 -1.2572 -0.9059
 4927SOL     OW26239   3.049   4.072   0.210 -0.3440  0.2246  0.1820
 4927SOL    HW126240   3.127   4.025   0.182 -0.6026 -0.0355 -0.1031
 4927SOL    HW226241   2.993   3.998   0.237 -0.0783 -0.2906 -0.6883
 4928SOL     OW26242   2.273   3.622   8.122 -0.3038  0.5234  0.4725
 4928SOL    HW126243   2.212   3.550   8.138 -0.4023  0.4029 -0.4924
 4928SOL    HW226244   2.299   3.646   8.211 -1.0048  3.3171 -0.0879
 4929SOL     OW26245   2.355   3.100  13.033  0.6160  0.5225  0.1664
 4929SOL    HW126246   2.379   3.016  12.995 -1.2492 -0.1478  0.4702
 4929SOL    HW226247   2.268   3.127  13.004  0.7748  2.6817  1.6180
 4930SOL     OW26248   2.706   3.239   6.709 -0.1620  0.3251 -0.4098
 4930SOL    HW126249   2.792   3.228   6.670 -0.1788  0.8426 -0.6026
 4930SOL    HW226250   2.721   3.324   6.752 -1.2839  0.1979  0.2415
 4931SOL     OW26251   2.584   1.812   8.933 -0.0253  0.2431 -0.0143
 4931SOL    HW126252   2.531   1.817   9.012 -0.2934 -1.7368 -0.0509
 4931SOL    HW226253   2.649   1.744   8.953  0.8387  0.6891 -1.3341
 4932SOL     OW26254   0.043   1.163   6.318 -0.1272 -0.7209  0.2045
 4932SOL    HW126255   4.714   1.241   6.332 -0.2101 -0.7025 -0.2199
 4932SOL    HW226256   4.704   1.096   6.343 -0.6154 -0.1032  0.5975
 4933SOL     OW26257   3.790   2.796   5.763  0.2792  0.0417 -0.2237
 4933SOL    HW126258   3.759   2.882   5.792 -3.0061 -1.1584 -0.2218
 4933SOL    HW226259   3.792   2.806   5.668  3.3814 -1.6593 -0.3288
 4934SOL     OW26260   2.252   4.645   9.933  0.4455  0.1478 -0.5769
 4934SOL    HW126261   2.219   4.659  10.022 -0.6969  0.5889 -1.0702
 4934SOL    HW226262   2.311   4.570   9.934 -0.1792 -0.3005  1.9383
 4935SOL     OW26263   1.630   3.358  11.213  0.4264  0.0120 -0.0542
 4935SOL    HW126264   1.549   3.327  11.254 -0.1921  0.1605 -1.1718
 4935SOL    HW226265   1.689   3.301  11.263  0.4524 -1.6585 -1.9886
 4936SOL     OW26266   2.223   1.672   8.855 -0.1028  0.0338 -0.1916
 4936SOL    HW126267   2.245   1.597   8.910 -1.0649 -0.3979 -0.3944
 4936SOL    HW226268   2.130   1.673   8.833 -0.4492  0.2905  1.2603
 4937SOL     OW26269   0.225   3.642  10.059  0.2726 -0.3302 -0.2360
 4937SOL    HW126270   0.306   3.622  10.107 -0.5238  0.4028  1.4010
 4937SOL    HW226271   0.240   3.732  10.029  0.0637 -0.2950 -0.2318
 4938SOL     OW26272   2.112   3.491   5.467  0.1377 -0.6229 -0.0132
 4938SOL    HW126273   2.040   3.551   5.444  0.4997 -0.5260 -0.8821
 4938SOL    HW226274   2.063   3.439   5.530  0.4416 -2.1074 -1.0107
 4939SOL     OW26275   1.702   2.478   6.177  0.0238  0.6286  0.5214
 4939SOL    HW126276   1.619   2.523   6.193  0.1423  1.0576 -0.0455
 4939SOL    HW226277   1.731   2.520   6.095 -1.9724 -2.3325 -1.6919
 4940SOL     OW26278   0.461   4.600   1.463 -0.0287 -0.0038  1.1072
 4940SOL    HW126279   0.425   4.636   1.544 -1.1375  0.5113  0.3918
 4940SOL    HW226280   0.401   4.527   1.449 -0.6546  0.4482  1.4584
 4941SOL     OW26281   3.791   2.492   5.390 -0.6175  0.2650  0.2448
 4941SOL    HW126282   3.843   2.428   5.439 -1.8974 -1.0171 -0.0705
 4941SOL    HW226283   3.752   2.426   5.333 -1.2206  0.3393  0.5831
 4942SOL     OW26284   2.898   4.626   5.554 -0.4372 -0.5377 -0.1167
 4942SOL    HW126285   2.916   4.558   5.619 -2.6921 -0.0635  1.0344
 4942SOL    HW226286   2.970   4.679   5.589  0.1337 -0.9646 -0.6587
 4943SOL     OW26287   3.998   1.193   5.919  0.2029  0.0530  0.0209
 4943SOL    HW126288   4.082   1.152   5.898  0.9216  0.0995  2.7063
 4943SOL    HW226289   3.965   1.195   5.830  0.5999 -0.8080 -0.1471
 4944SOL     OW26290   2.801   3.644   5.208  0.1503  0.6316  0.2749
 4944SOL    HW126291   2.725   3.614   5.258 -0.5401 -0.4254 -1.4083
 4944SOL    HW226292   2.754   3.675   5.130 -2.5159 -2.0395  0.8169
 4945SOL     OW26293   3.287   0.676  13.675 -0.5080  0.4660 -0.3005
 4945SOL    HW126294   3.348   0.603  13.682 -0.9042  0.1331 -0.3355
 4945SOL    HW226295   3.327   0.720  13.600  0.2832 -0.5832 -0.4846
 4946SOL     OW26296   2.578   0.015   5.703 -0.0217  0.7980  0.2343
 4946SOL    HW126297   2.617   0.098   5.675  0.5376  0.0990 -1.0336
 4946SOL    HW226298   2.594   4.704   5.616 -0.5872 -0.5387  0.6894
 4947SOL     OW26299   1.232   1.588   4.352  0.1560 -0.5607 -0.3322
 4947SOL    HW126300   1.320   1.626   4.349 -0.0997  0.0711  0.2484
 4947SOL    HW226301   1.251   1.498   4.378  1.7182 -0.7896 -2.2847
 4948SOL     OW26302   3.198   3.919   7.736 -0.1300 -0.1010  0.2684
 4948SOL    HW126303   3.188   3.928   7.831 -1.1303 -1.2486  0.2836
 4948SOL    HW226304   3.114   3.954   7.708 -0.1684  0.7617  1.4360
 4949SOL     OW26305   2.588   4.400   5.816  0.2432 -0.5571  0.0687
 4949SOL    HW126306   2.563   4.334   5.880 -1.6591 -1.5996 -1.7342
 4949SOL    HW226307   2.684   4.398   5.821  0.2387 -0.4029  0.2048
 4950SOL     OW26308   2.238   0.817   1.244  0.5679  0.3350 -0.2712
 4950SOL    HW126309   2.317   0.865   1.270  0.7773  0.8131 -1.7538
 4950SOL    HW226310   2.259   0.792   1.154  3.9280  0.9817  0.3396
 4951SOL     OW26311   0.607   0.089   0.938 -0.1016 -0.2680 -0.6699
 4951SOL    HW126312   0.691   0.063   0.975 -1.3620 -2.2128  0.8517
 4951SOL    HW226313   0.639   0.140   0.864  1.2418 -0.5528 -0.2819
 4952SOL     OW26314   1.573   0.858  11.215  0.2334 -0.2381  0.0416
 4952SOL    HW126315   1.623   0.865  11.134  1.0404 -0.0910  0.5546
 4952SOL    HW226316   1.515   0.934  11.212  0.0914 -0.3416  0.2153
 4953SOL     OW26317   4.651   3.358  15.320 -0.0947 -0.0190 -0.1536
 4953SOL    HW126318   4.634   3.289  15.256  1.9425 -1.2107  0.5975
 4953SOL    HW226319   4.579   3.347  15.382 -0.6180 -0.8929 -0.9130
 4954SOL     OW26320   4.354   3.917  14.177  0.3365 -0.6409  0.0993
 4954SOL    HW126321   4.334   3.829  14.208 -0.6560 -0.5147 -0.1678
 4954SOL    HW226322   4.448   3.910  14.164  0.7234  1.0328  2.0970
 4955SOL     OW26323   4.043   3.394  16.631 -0.3624 -0.2569 -0.6356
 4955SOL    HW126324   4.114   3.447  16.668 -1.0759 -0.4712  1.0184
 4955SOL    HW226325   3.979   3.389  16.702  0.2557 -1.9359 -0.1672
 4956SOL     OW26326   3.757   1.320   8.208 -0.3684  0.4169 -0.0909
 4956SOL    HW126327   3.680   1.295   8.260 -3.1421 -0.6913 -4.7490
 4956SOL    HW226328   3.777   1.408   8.239 -0.9933  0.8723 -0.9765
 4957SOL     OW26329   3.067   1.749  12.437 -0.2589  0.0039 -0.3790
 4957SOL    HW126330   3.014   1.809  12.385  0.7539  1.3209  0.0883
 4957SOL    HW226331   3.063   1.796  12.521 -0.6041  1.8745 -1.4459
 4958SOL     OW26332   2.516   3.997  10.912 -0.5449 -0.5073  0.5320
 4958SOL    HW126333   2.452   3.932  10.939 -0.8215 -1.0684 -1.4227
 4958SOL    HW226334   2.561   3.948  10.843  1.5425  1.3997  0.5586
 4959SOL     OW26335   4.339   2.238   3.274  0.3252 -0.6382  0.0066
 4959SOL    HW126336   4.327   2.150   3.309 -3.2817 -1.6642 -3.8279
 4959SOL    HW226337   4.425   2.233   3.233  0.5371 -1.3954  0.5435
 4960SOL     OW26338   3.774   1.775   2.217  0.0876 -0.0462  0.4847
 4960SOL    HW126339   3.755   1.861   2.180 -2.2178 -1.3429 -1.2812
 4960SOL    HW226340   3.693   1.727   2.207  0.0871  0.4231 -1.7327
 4961SOL     OW26341   2.567   2.013   6.388 -0.4293  0.3081  0.0011
 4961SOL    HW126342   2.595   2.040   6.300 -0.5994  1.6921  0.3706
 4961SOL    HW226343   2.592   1.921   6.395  1.0724  0.6355 -1.1436
 4962SOL     OW26344   2.199   2.479  13.946  0.0144 -0.4400 -0.0455
 4962SOL    HW126345   2.153   2.550  13.900  1.8639  1.0165  0.3920
 4962SOL    HW226346   2.126   2.441  13.995 -1.8627  0.8266 -1.8645
 4963SOL     OW26347   1.682   3.671   5.041 -0.0957 -0.6256  0.4301
 4963SOL    HW126348   1.663   3.755   5.000  0.3905  0.0348  1.5686
 4963SOL    HW226349   1.775   3.655   5.022 -0.3412 -0.9262 -0.5263
 4964SOL     OW26350   2.811   1.529   3.256  0.5077  0.2081  0.3266
 4964SOL    HW126351   2.788   1.443   3.290 -1.5172  1.2688  1.6446
 4964SOL    HW226352   2.777   1.580   3.329  0.8453  0.5840  0.2255
 4965SOL     OW26353   3.892   0.928   1.955  0.3874  0.0946  0.3652
 4965SOL    HW126354   3.830   0.862   1.921  1.2090 -0.3025 -0.3536
 4965SOL    HW226355   3.832   1.000   1.977 -1.1617 -1.0618 -0.0295
 4966SOL     OW26356   0.862   4.412   5.501  0.1859  0.2154 -0.0376
 4966SOL    HW126357   0.908   4.444   5.423 -0.3719  1.4141  0.1354
 4966SOL    HW226358   0.822   4.337   5.457 -1.6814  0.6042  1.0393
 4967SOL     OW26359   2.384   1.982  15.589 -0.3164  0.1673  0.1081
 4967SOL    HW126360   2.430   1.898  15.589 -0.0334  0.3222  0.8648
 4967SOL    HW226361   2.307   1.955  15.539 -0.6273 -1.4540  1.4598
 4968SOL     OW26362   3.602   0.992   1.332 -0.1217 -0.0547 -0.8178
 4968SOL    HW126363   3.581   1.062   1.394 -0.3656  0.7123 -1.7668
 4968SOL    HW226364   3.512   0.964   1.318 -0.8582  1.8920  0.0199
 4969SOL     OW26365   1.622   0.770   2.430 -0.0931 -0.1950 -0.2950
 4969SOL    HW126366   1.579   0.829   2.368 -1.4540 -0.7718  0.0912
 4969SOL    HW226367   1.697   0.744   2.377  0.2639  1.4503 -0.5728
 4970SOL     OW26368   2.188   0.064   4.203  0.7248  0.0878  0.0350
 4970SOL    HW126369   2.153   0.079   4.290  1.6052  0.2707  0.3609
 4970SOL    HW226370   2.108   0.085   4.155  1.1712  2.1082  0.1663
 4971SOL     OW26371   1.958   2.506   2.896 -0.6103  0.4003  0.3358
 4971SOL    HW126372   2.022   2.473   2.833  1.0555 -0.8409  2.7165
 4971SOL    HW226373   1.908   2.562   2.836  1.0996  2.9927  1.3382
 4972SOL     OW26374   1.378   1.185  16.756  0.4606 -0.0808 -0.1115
 4972SOL    HW126375   1.425   1.129  16.818  1.2527  0.0973 -0.5667
 4972SOL    HW226376   1.442   1.247  16.722 -0.3025 -0.0174 -1.4189
 4973SOL     OW26377   1.526   2.877   0.717 -0.4014  0.0849  0.3897
 4973SOL    HW126378   1.579   2.926   0.780  0.9503 -0.4705 -0.3171
 4973SOL    HW226379   1.584   2.805   0.692 -2.0272 -0.6949 -1.1649
 4974SOL     OW26380   1.926   3.541  15.152 -0.3751 -0.2063  0.1561
 4974SOL    HW126381   2.010   3.510  15.183 -0.5914  1.5398  2.5343
 4974SOL    HW226382   1.929   3.627  15.195 -1.0441  1.5304 -3.3298
 4975SOL     OW26383   4.700   3.840   2.253  0.3437 -0.1624 -0.1405
 4975SOL    HW126384   4.636   3.872   2.317  0.9281  1.6857 -0.4600
 4975SOL    HW226385   4.695   3.916   2.194  1.4620 -0.7676 -1.0158
 4976SOL     OW26386   3.778   3.826   2.511 -0.3713 -0.6120 -0.0008
 4976SOL    HW126387   3.787   3.742   2.556 -0.3043 -1.3586 -1.4065
 4976SOL    HW226388   3.686   3.838   2.487 -0.3772 -0.6257  0.0155
 4977SOL     OW26389   3.708   3.418   8.318  0.3169  0.4388 -0.8049
 4977SOL    HW126390   3.723   3.368   8.238  2.1862 -0.1534 -0.0802
 4977SOL    HW226391   3.771   3.489   8.309 -0.4424  1.4364  1.6629
 4978SOL     OW26392   3.091   0.428   0.408 -0.0458  0.4305  0.6807
 4978SOL    HW126393   3.138   0.345   0.402 -0.4670  0.2170  0.3718
 4978SOL    HW226394   3.164   0.488   0.390 -0.1091  0.2696 -0.1197
 4979SOL     OW26395   0.744   4.358   4.104 -0.1350  0.2154  0.3345
 4979SOL    HW126396   0.835   4.378   4.128  0.0772  0.4797 -0.6992
 4979SOL    HW226397   0.733   4.287   4.166 -0.9783 -2.5639 -2.9997
 4980SOL     OW26398   4.526   2.354  13.907  0.1905 -0.2420  0.3344
 4980SOL    HW126399   4.468   2.406  13.852  1.1721 -1.0311 -1.4275
 4980SOL    HW226400   4.584   2.423  13.936 -1.4445  0.8574  0.9856
 4981SOL     OW26401   2.684   2.065   8.869 -0.5251 -0.0687 -0.2284
 4981SOL    HW126402   2.664   2.055   8.776 -3.6137  0.8741  0.3346
 4981SOL    HW226403   2.651   1.976   8.884 -3.1220  0.8654 -0.4367
 4982SOL     OW26404   0.750   3.871   0.104 -0.1100 -0.1006  0.6862
 4982SOL    HW126405   0.700   3.818   0.042  1.4266 -1.1800  0.3600
 4982SOL    HW226406   0.839   3.868   0.067 -0.5843  1.9466 -0.6457
 4983SOL     OW26407   4.182   0.519   6.714  0.5260 -0.1453  0.0841
 4983SOL    HW126408   4.156   0.587   6.651  0.8045  0.0558  0.1844
 4983SOL    HW226409   4.162   0.439   6.665 -0.5944  0.7261 -0.8955
 4984SOL     OW26410   3.901   0.248  10.652  0.1530 -0.1124 -0.2778
 4984SOL    HW126411   3.936   0.210  10.571  0.7186 -0.5081  0.1459
 4984SOL    HW226412   3.840   0.178  10.676  0.2050 -0.6255 -1.6414
 4985SOL     OW26413   1.333   3.001   4.867 -0.3999  0.2748 -0.0896
 4985SOL    HW126414   1.298   3.088   4.882  1.2246  0.5349  2.2682
 4985SOL    HW226415   1.249   2.955   4.862 -0.2491 -0.0040 -0.0580
 4986SOL     OW26416   1.306   3.616  14.717 -0.3045  0.3900 -0.4688
 4986SOL    HW126417   1.366   3.542  14.727 -1.0717 -0.5022 -2.3482
 4986SOL    HW226418   1.369   3.688  14.723 -0.6126  0.5101  1.4695
 4987SOL     OW26419   0.581   2.307   4.010  0.2818 -0.5264  0.6815
 4987SOL    HW126420   0.514   2.330   3.946  0.8013  0.5021  0.5073
 4987SOL    HW226421   0.652   2.362   3.976 -0.1663  0.8122  1.9172
 4988SOL     OW26422   1.561   2.919   3.348 -0.4313 -0.2669 -0.1424
 4988SOL    HW126423   1.555   2.838   3.298 -0.1724  0.9362 -2.1069
 4988SOL    HW226424   1.477   2.919   3.395 -1.3615 -1.0623 -1.8325
 4989SOL     OW26425   4.617   1.635  13.698  0.2384  0.1717  0.2201
 4989SOL    HW126426   4.539   1.668  13.745  0.8577 -1.4858  2.4004
 4989SOL    HW226427   4.581   1.620  13.611  0.3466  2.6096 -0.2403
 4990SOL     OW26428   1.290   2.266   4.777 -0.5879 -0.1930 -0.7379
 4990SOL    HW126429   1.257   2.210   4.847 -1.1216  0.1620 -0.7028
 4990SOL    HW226430   1.312   2.198   4.714 -2.5104 -2.7080  1.3334
 4991SOL     OW26431   0.310   3.256  13.744 -0.5504  0.2433  0.1178
 4991SOL    HW126432   0.364   3.335  13.744 -1.5815  0.9311  3.5898
 4991SOL    HW226433   0.377   3.188  13.752 -0.7301  0.1125  0.5074
 4992SOL     OW26434   2.569   2.659   6.133 -0.2925 -0.3357 -0.2025
 4992SOL    HW126435   2.616   2.627   6.211 -0.9940 -1.4035 -0.2094
 4992SOL    HW226436   2.483   2.617   6.140 -0.2050 -0.2875  1.2753
 4993SOL     OW26437   3.511   0.565  11.133  0.4178  1.0071  0.0326
 4993SOL    HW126438   3.606   0.562  11.128  0.4377  3.8350 -1.4523
 4993SOL    HW226439   3.507   0.582  11.227  0.4749 -1.6172  0.4880
 4994SOL     OW26440   3.765   2.232  14.097 -0.1269  0.4536 -0.4781
 4994SOL    HW126441   3.819   2.310  14.085 -1.9100  1.8915  0.8323
 4994SOL    HW226442   3.684   2.273  14.067 -1.0685 -1.4050 -0.5010
 4995SOL     OW26443   4.183   3.139   6.918 -0.1622 -0.3763 -0.0612
 4995SOL    HW126444   4.161   3.107   7.006 -1.8315  0.7787 -0.0646
 4995SOL    HW226445   4.126   3.079   6.870  1.0821  0.2382 -2.2990
 4996SOL     OW26446   3.531   3.450   5.185 -0.0280 -0.1195  0.3957
 4996SOL    HW126447   3.573   3.365   5.169 -0.0280 -0.2590  1.1077
 4996SOL    HW226448   3.539   3.482   5.096  1.2001  0.8926  0.8759
 4997SOL     OW26449   1.140   1.979   4.296  0.0355  0.7878 -0.2051
 4997SOL    HW126450   1.125   2.032   4.218 -2.9128  1.5770  0.9128
 4997SOL    HW226451   1.220   2.021   4.329 -0.2363  0.9007  0.3139
 4998SOL     OW26452   3.107   3.101  13.233 -0.2711  0.2644 -0.0463
 4998SOL    HW126453   3.201   3.097  13.217 -0.2802  1.7476 -0.4852
 4998SOL    HW226454   3.100   3.150  13.314 -0.7760 -0.7308  0.5111
 4999SOL     OW26455   1.649   0.834   7.242 -1.0294  0.7549  0.3415
 4999SOL    HW126456   1.636   0.917   7.287  0.4438  2.5888 -2.5631
 4999SOL    HW226457   1.635   0.775   7.316 -3.0368 -2.6248 -2.7454
 5000SOL     OW26458   1.253   0.823   5.029 -0.1795  0.2697 -0.8066
 5000SOL    HW126459   1.267   0.918   5.036  0.2168  0.1290  0.3817
 5000SOL    HW226460   1.326   0.801   4.971  1.4263  1.3021  0.8176
 5001SOL     OW26461   2.526   3.648   3.462  0.0309 -0.2418 -0.4417
 5001SOL    HW126462   2.483   3.594   3.527 -0.2639  0.7289  0.1693
 5001SOL    HW226463   2.561   3.573   3.413  1.4214  0.1930 -0.1281
 5002SOL     OW26464   2.496   4.071   0.897 -0.5831 -0.0040 -0.2875
 5002SOL    HW126465   2.457   3.997   0.943  1.7418 -0.4400  1.0076
 5002SOL    HW226466   2.586   4.068   0.930 -0.9300 -1.5221  0.5072
 5003SOL     OW26467   4.664   3.915   2.879  0.0195 -0.0069  0.2858
 5003SOL    HW126468   4.680   3.987   2.940 -0.4386 -0.0964  0.5089
 5003SOL    HW226469   4.579   3.944   2.847  0.8450  0.9263 -1.0367
 5004SOL     OW26470   3.902   4.389   4.065 -0.9182  0.0289  0.1831
 5004SOL    HW126471   3.965   4.362   3.998 -1.9159  2.0376 -1.5836
 5004SOL    HW226472   3.883   4.305   4.107  1.8216 -0.9732 -0.5609
 5005SOL     OW26473   4.340   2.945   6.751  0.2450  0.5329 -0.2333
 5005SOL    HW126474   4.399   2.969   6.680 -0.1161  0.2762 -0.6216
 5005SOL    HW226475   4.321   3.034   6.780 -2.1391  0.9990 -3.3005
 5006SOL     OW26476   3.587   3.956   1.678  0.6844  0.0946  0.8283
 5006SOL    HW126477   3.583   4.049   1.656 -0.4097 -0.4997 -1.4475
 5006SOL    HW226478   3.625   3.914   1.600  0.5993 -1.1250  1.4419
 5007SOL     OW26479   4.157   1.228   4.144 -0.3603  0.0328  0.2769
 5007SOL    HW126480   4.167   1.324   4.149 -0.3819  0.0852 -0.7759
 5007SOL    HW226481   4.236   1.201   4.190  0.0579 -0.0768 -0.5064
 5008SOL     OW26482   3.931   3.776   1.030 -0.3495  0.5116  0.9153
 5008SOL    HW126483   3.852   3.825   1.052 -1.8961 -1.3891 -0.3612
 5008SOL    HW226484   3.948   3.734   1.114 -2.0243 -2.1473 -0.1015
 5009SOL     OW26485   1.515   1.019   5.057  0.2098 -0.1483  0.4376
 5009SOL    HW126486   1.435   1.071   5.067  0.1372  0.0997 -1.5549
 5009SOL    HW226487   1.542   1.010   5.149 -0.5911 -0.8756  0.6065
 5010SOL     OW26488   1.564   4.468   7.691  0.3920 -0.1608 -0.6568
 5010SOL    HW126489   1.542   4.380   7.723 -0.9726  0.7783  1.0234
 5010SOL    HW226490   1.649   4.450   7.651  0.2403 -1.1602 -0.5387
 5011SOL     OW26491   4.607   1.857   8.179  0.1198 -1.0369  0.1564
 5011SOL    HW126492   4.664   1.830   8.251 -1.7246 -0.6563  1.7579
 5011SOL    HW226493   4.523   1.820   8.206  0.2023 -0.0586  1.7035
 5012SOL     OW26494   2.326   2.912   3.778 -0.6269 -0.3338 -0.1469
 5012SOL    HW126495   2.419   2.929   3.762 -0.0945 -0.2344  2.9946
 5012SOL    HW226496   2.281   2.997   3.778 -0.6027 -0.3177 -0.9394
 5013SOL     OW26497   1.939   2.853  14.475 -0.2279 -0.4759 -0.1003
 5013SOL    HW126498   2.018   2.876  14.427  0.3994  0.0288  1.1756
 5013SOL    HW226499   1.903   2.940  14.493  2.1641  0.5793 -0.4274
 5014SOL     OW26500   4.079   2.318   6.706  0.3312  0.0702 -0.0799
 5014SOL    HW126501   4.148   2.315   6.639 -1.2222 -0.4358 -1.6658
 5014SOL    HW226502   4.132   2.320   6.786 -0.2231  0.8776  0.2674
 5015SOL     OW26503   0.976   2.333   7.406 -0.0723 -0.3498 -0.3968
 5015SOL    HW126504   1.006   2.345   7.316 -1.4157  1.2707 -0.6185
 5015SOL    HW226505   0.979   2.422   7.439 -0.4254 -0.2893 -0.5255
 5016SOL     OW26506   3.896   4.083   6.062  0.2340  0.5698 -0.1877
 5016SOL    HW126507   3.876   4.051   5.973 -2.3659  2.2510 -0.2187
 5016SOL    HW226508   3.855   4.014   6.114 -1.4607 -0.2448 -2.5970
 5017SOL     OW26509   3.413   0.375   6.718  0.2170 -0.0145  0.0793
 5017SOL    HW126510   3.481   0.389   6.784  1.3806 -0.5522 -1.0044
 5017SOL    HW226511   3.359   0.318   6.773 -1.3396  0.9151 -0.4662
 5018SOL     OW26512   4.566   4.627  14.445 -0.4436 -0.3638 -0.0922
 5018SOL    HW126513   4.517   4.641  14.364 -1.6608  2.8497  1.2293
 5018SOL    HW226514   4.608   4.713  14.443 -0.0054 -0.6305 -2.6247
 5019SOL     OW26515   0.129   0.628  17.481 -0.7408  0.2737  0.0017
 5019SOL    HW126516   0.203   0.584  17.521  0.5632  0.9754 -1.6112
 5019SOL    HW226517   0.061   0.610  17.546  0.2305 -0.7849  0.7170
 5020SOL     OW26518   0.381   3.025  17.208  0.1544  0.2228 -0.3563
 5020SOL    HW126519   0.336   3.076  17.141 -0.4500 -1.2109 -1.0365
 5020SOL    HW226520   0.335   3.042  17.290 -1.6996 -0.6058 -1.2438
 5021SOL     OW26521   4.482   1.391   0.987  0.3773 -0.4553  0.2134
 5021SOL    HW126522   4.561   1.365   1.035 -1.1235 -2.3210  1.7085
 5021SOL    HW226523   4.508   1.401   0.896 -0.6566  0.7192  0.0510
 5022SOL     OW26524   0.907   3.303   3.305  0.0207  0.4042 -0.6811
 5022SOL    HW126525   0.960   3.240   3.354  0.1197 -0.5903 -2.0567
 5022SOL    HW226526   0.827   3.253   3.323  0.5467 -0.7832 -1.6048
 5023SOL     OW26527   0.117   3.511   0.451  0.6162 -0.0436  0.1163
 5023SOL    HW126528   0.125   3.492   0.544 -4.6759  0.0099  0.6106
 5023SOL    HW226529   0.060   3.437   0.427  0.0450  0.6359 -0.6287
 5024SOL     OW26530   0.183   1.368   1.934 -0.2857  0.0029  0.1890
 5024SOL    HW126531   0.163   1.317   1.855  0.3148  1.1073 -0.6757
 5024SOL    HW226532   0.105   1.423   1.921  0.4273  0.6479 -1.3603
 5025SOL     OW26533   1.772   1.035  15.367  0.6911  0.0174  0.9579
 5025SOL    HW126534   1.699   1.011  15.425 -0.5568 -1.8168 -1.3373
 5025SOL    HW226535   1.808   0.952  15.337 -1.2190 -0.4461 -0.0565
 5026SOL     OW26536   1.230   3.250   4.698 -0.3190 -0.6209 -0.4882
 5026SOL    HW126537   1.297   3.298   4.746 -0.0788 -3.0928  1.6196
 5026SOL    HW226538   1.158   3.220   4.754  0.2315 -1.3124 -0.1615
 5027SOL     OW26539   3.313   4.157   7.082 -0.2064 -0.2558  0.0883
 5027SOL    HW126540   3.304   4.173   7.176 -0.1818  2.9546 -0.4600
 5027SOL    HW226541   3.336   4.244   7.051 -0.3964 -0.2345  0.0090
 5028SOL     OW26542   0.933   3.561  13.136 -0.2913 -0.4001 -0.1444
 5028SOL    HW126543   1.021   3.565  13.172  0.0964 -2.0446 -0.9026
 5028SOL    HW226544   0.885   3.611  13.202  0.0817  0.6420 -0.6582
 5029SOL     OW26545   1.925   2.764  11.814 -0.2912  0.1316  0.8314
 5029SOL    HW126546   1.923   2.756  11.719 -0.1600  1.8617  0.6860
 5029SOL    HW226547   1.839   2.804  11.826 -1.4891 -3.4106  3.9699
 5030SOL     OW26548   3.412   3.987   8.067  0.5591  0.1137 -0.3737
 5030SOL    HW126549   3.430   3.894   8.055 -1.1630 -0.1504 -0.8896
 5030SOL    HW226550   3.490   4.023   8.110  0.9059  1.0509 -1.8070
 5031SOL     OW26551   1.033   1.763   7.087  0.6835  0.2355  0.6663
 5031SOL    HW126552   1.103   1.698   7.094 -1.6023 -1.9777  2.6749
 5031SOL    HW226553   1.077   1.826   7.030  3.1516 -1.8268  0.2765
 5032SOL     OW26554   3.928   1.138   5.670 -0.1022 -0.4923  0.6571
 5032SOL    HW126555   3.938   1.168   5.580 -0.4131 -2.0085  0.1122
 5032SOL    HW226556   3.894   1.049   5.661 -0.2446 -0.1861 -1.8888
 5033SOL     OW26557   2.958   4.343   3.189 -0.0511  0.9216 -0.4595
 5033SOL    HW126558   2.976   4.287   3.265 -1.2244 -2.5381 -2.7588
 5033SOL    HW226559   2.995   4.429   3.212  1.2739  0.4338 -0.7327
 5034SOL     OW26560   0.156   4.644  14.086  0.3937  0.3052  0.4497
 5034SOL    HW126561   0.190   4.673  14.001 -0.5972 -2.1141 -0.7970
 5034SOL    HW226562   0.227   4.586  14.115  0.1579 -0.4640 -0.4992
 5035SOL     OW26563   4.644   1.139  16.232 -0.1476 -0.1004 -0.0663
 5035SOL    HW126564   4.612   1.150  16.143  0.5373  2.1326 -0.0463
 5035SOL    HW226565   4.630   1.223  16.275  0.0928 -0.8402  1.4766
 5036SOL     OW26566   3.076   3.778   5.899 -0.1687  0.2882  0.2494
 5036SOL    HW126567   3.014   3.724   5.948 -1.3996  1.1394 -0.3688
 5036SOL    HW226568   3.058   3.765   5.806 -0.7879 -1.4774  0.6146
 5037SOL     OW26569   0.703   3.607   7.691  0.7005 -0.6056  0.1989
 5037SOL    HW126570   0.628   3.631   7.744 -0.3261 -0.2536 -1.4139
 5037SOL    HW226571   0.661   3.596   7.606 -0.5588  0.3041  0.7107
 5038SOL     OW26572   3.780   1.125  12.826 -0.1450 -0.3603  0.0479
 5038SOL    HW126573   3.792   1.220  12.824  2.0057 -0.6833 -3.8774
 5038SOL    HW226574   3.786   1.119  12.921  0.5955 -0.5348 -0.0072
 5039SOL     OW26575   4.381   3.838   9.285 -0.1439 -0.0588 -0.1856
 5039SOL    HW126576   4.316   3.778   9.322 -1.6167  1.2193 -0.7088
 5039SOL    HW226577   4.323   3.896   9.236 -0.6645 -0.5734 -0.1798
 5040SOL     OW26578   0.832   1.075   2.969  0.4410  0.4340  0.2198
 5040SOL    HW126579   0.877   1.123   2.899 -0.3004  0.9160  0.0727
 5040SOL    HW226580   0.905   1.081   3.030  1.8526 -1.5943 -1.2521
 5041SOL     OW26581   1.037   4.226   7.819  0.6559 -0.3009  0.5137
 5041SOL    HW126582   1.100   4.155   7.832  0.6161  0.0608  2.5513
 5041SOL    HW226583   1.090   4.305   7.829  2.1410 -1.0009 -1.6362
 5042SOL     OW26584   2.022   1.903  10.817 -0.8407  0.4729  0.3605
 5042SOL    HW126585   1.926   1.902  10.817 -0.8084 -1.7527  0.2536
 5042SOL    HW226586   2.032   1.812  10.789  0.2859  0.7540 -0.1159
 5043SOL     OW26587   0.507   4.048  15.470  0.7797 -0.0721  0.0182
 5043SOL    HW126588   0.502   4.140  15.499 -2.6038 -0.1241 -0.3628
 5043SOL    HW226589   0.585   4.013  15.513  0.8843  0.4713  0.2751
 5044SOL     OW26590   2.704   2.915  16.625 -0.0278 -0.7692  0.0837
 5044SOL    HW126591   2.674   3.003  16.647 -0.2880 -0.3052 -2.0962
 5044SOL    HW226592   2.749   2.888  16.705 -1.3593 -1.0095  0.7488
 5045SOL     OW26593   3.391   1.061  15.689 -0.1786  0.1735  0.3381
 5045SOL    HW126594   3.372   1.032  15.778  0.4023  1.0824  0.7569
 5045SOL    HW226595   3.466   1.007  15.665  1.0892  1.6853  0.9033
 5046SOL     OW26596   3.220   1.507  11.124  0.0667 -0.0116 -0.1533
 5046SOL    HW126597   3.141   1.550  11.093  0.0521  0.0091 -0.0862
 5046SOL    HW226598   3.250   1.447  11.055 -0.6160 -2.1256  1.3667
 5047SOL     OW26599   4.682   1.554   5.890  0.3267  0.1298  0.2704
 5047SOL    HW126600   0.049   1.580   5.903  0.7731 -1.7042  0.8934
 5047SOL    HW226601   4.650   1.644   5.893  1.6714  0.7050 -2.1682
 5048SOL     OW26602   3.516   1.936   4.254  0.0708  0.2324 -0.0418
 5048SOL    HW126603   3.506   1.988   4.174 -1.6873 -0.9772 -0.6052
 5048SOL    HW226604   3.598   1.896   4.226  0.0803 -0.3518  0.8352
 5049SOL     OW26605   1.864   0.631   4.063  0.5058  0.4508  0.2383
 5049SOL    HW126606   1.934   0.577   4.100  0.0609  1.5931  2.7423
 5049SOL    HW226607   1.872   0.705   4.124 -0.7331  0.1643  0.7394
 5050SOL     OW26608   0.791   1.512   7.480 -0.4148  0.2600  0.3635
 5050SOL    HW126609   0.849   1.579   7.516  0.6691  0.9330 -2.6531
 5050SOL    HW226610   0.852   1.441   7.501 -0.1186 -0.3683 -2.5714
 5051SOL     OW26611   3.712   2.659   3.443  0.4693  0.4516 -0.4196
 5051SOL    HW126612   3.724   2.711   3.523  1.8402 -0.3493 -0.1122
 5051SOL    HW226613   3.796   2.614   3.453  0.5790  0.6831 -0.2966
 5052SOL     OW26614   0.219   3.973   3.948  0.2481  0.0206 -0.4844
 5052SOL    HW126615   0.209   3.924   3.867 -1.9889  0.6174 -0.5737
 5052SOL    HW226616   0.313   3.980   3.964  0.2542 -0.4622 -0.3069
 5053SOL     OW26617   4.484   3.952   2.425  0.3768  0.3215 -0.4743
 5053SOL    HW126618   4.447   3.902   2.497 -0.5203  0.1378 -1.0685
 5053SOL    HW226619   4.449   4.039   2.445  0.0561 -0.4080  2.1438
 5054SOL     OW26620   4.260   2.044   6.812 -0.0804  0.0581 -0.1578
 5054SOL    HW126621   4.207   2.027   6.734 -1.1502 -2.0064  1.0125
 5054SOL    HW226622   4.346   2.030   6.771 -0.1106 -0.1716 -0.1456
 5055SOL     OW26623   0.378   4.183   7.826  0.6027 -0.3036 -0.2188
 5055SOL    HW126624   0.354   4.161   7.916  1.5876  1.1686  0.4185
 5055SOL    HW226625   0.473   4.178   7.839  0.3697  0.6186  1.9327
 5056SOL     OW26626   1.595   2.165   9.778 -0.6945  0.0525  0.0801
 5056SOL    HW126627   1.505   2.132   9.780 -0.6500 -0.1038 -0.4795
 5056SOL    HW226628   1.649   2.086   9.779 -1.4254 -0.4416  0.0218
 5057SOL     OW26629   3.314   1.568  12.293  0.1687  0.4771  0.1219
 5057SOL    HW126630   3.246   1.636  12.296 -0.0305  0.3015 -0.4157
 5057SOL    HW226631   3.298   1.509  12.367  1.8316  1.3224  1.1461
 5058SOL     OW26632   1.690   2.555   1.798 -0.0532  0.8514 -0.5016
 5058SOL    HW126633   1.689   2.474   1.748  0.5058 -0.4514  1.6057
 5058SOL    HW226634   1.782   2.562   1.825 -0.3628 -1.6593  1.2792
 5059SOL     OW26635   3.143   2.584   2.256  0.1168 -0.0693 -0.2867
 5059SOL    HW126636   3.134   2.678   2.275  1.7175 -0.1999  1.0834
 5059SOL    HW226637   3.219   2.563   2.310  0.7804  1.9179 -0.4218
 5060SOL     OW26638   3.971   3.331   1.982  0.1905  0.3730  0.0825
 5060SOL    HW126639   4.042   3.344   1.920  0.5305 -0.4818  0.2880
 5060SOL    HW226640   3.968   3.419   2.019 -1.6589 -0.1968  1.3160
 5061SOL     OW26641   3.353   0.115   7.063 -0.4875 -0.1366  0.2215
 5061SOL    HW126642   3.293   0.189   7.058  1.9977  1.8001 -0.9855
 5061SOL    HW226643   3.363   0.094   6.970 -3.2087  1.8709 -0.5353
 5062SOL     OW26644   3.774   3.759   2.932 -0.4439  0.2715  0.1764
 5062SOL    HW126645   3.858   3.760   2.885  1.0757  1.8971  2.9043
 5062SOL    HW226646   3.810   3.737   3.018 -1.7177 -0.2381  0.5724
 5063SOL     OW26647   0.940   3.873   8.678  0.2429  0.0187 -0.1680
 5063SOL    HW126648   0.863   3.900   8.729  0.6230  1.5362 -0.3770
 5063SOL    HW226649   0.900   3.829   8.603 -1.0605 -2.1624  1.8278
 5064SOL     OW26650   4.193   2.894   1.741 -0.1538 -0.4123 -0.0408
 5064SOL    HW126651   4.252   2.915   1.813 -0.0769 -3.4550  0.7712
 5064SOL    HW226652   4.207   2.800   1.743  2.5139 -0.0328 -0.0307
 5065SOL     OW26653   0.956   3.659   7.190 -0.0117 -0.1025 -0.1658
 5065SOL    HW126654   0.999   3.744   7.197  3.3454 -1.8756  0.5194
 5065SOL    HW226655   0.874   3.682   7.235  0.2245 -1.0046  0.7419
 5066SOL     OW26656   1.041   1.237  15.036  0.0183  0.0560 -0.0225
 5066SOL    HW126657   1.117   1.267  15.086 -0.8742  0.9747  0.7719
 5066SOL    HW226658   1.041   1.299  14.963  4.0217  1.7484  1.4496
 5067SOL     OW26659   2.159   1.950   1.220 -0.4830  0.3228 -0.5328
 5067SOL    HW126660   2.159   2.040   1.254  2.1297  0.4840 -0.9972
 5067SOL    HW226661   2.066   1.928   1.222 -0.5419  0.4962 -1.2763
 5068SOL     OW26662   0.953   2.077  14.430 -0.4892 -0.0921 -0.1426
 5068SOL    HW126663   0.878   2.018  14.436  0.3349 -1.2951 -1.5215
 5068SOL    HW226664   0.954   2.111  14.340 -0.6347 -2.5753 -1.0629
 5069SOL     OW26665   0.211   0.268   4.999  0.1403 -0.1842  0.4056
 5069SOL    HW126666   0.127   0.257   4.956  0.0680 -0.2530  0.5642
 5069SOL    HW226667   0.192   0.324   5.075  0.8570 -0.3990  0.7505
 5070SOL     OW26668   0.650   1.046   4.837  0.1042  0.5053 -0.3658
 5070SOL    HW126669   0.625   0.979   4.773  2.3981 -0.9692  0.2617
 5070SOL    HW226670   0.719   1.097   4.795 -1.0984  0.4571 -2.3976
 5071SOL     OW26671   1.027   2.008   5.704  0.6895 -0.7317 -0.0383
 5071SOL    HW126672   0.982   2.070   5.648  2.6627 -0.6006 -1.4783
 5071SOL    HW226673   0.981   2.025   5.787 -1.2542  1.5958 -1.5877
 5072SOL     OW26674   0.249   1.540   8.633  0.1871 -0.4926  0.2430
 5072SOL    HW126675   0.275   1.613   8.577  0.1019 -0.6715 -0.0248
 5072SOL    HW226676   0.334   1.511   8.667 -0.1930 -0.8999  0.8489
 5073SOL     OW26677   3.065   1.251   2.384 -0.8244 -0.4468 -0.0982
 5073SOL    HW126678   3.156   1.223   2.376 -0.3243  0.6393  1.7468
 5073SOL    HW226679   3.019   1.172   2.357 -2.9512  1.6382 -2.6275
 5074SOL     OW26680   2.256   3.567   8.669 -0.0156 -0.1526  0.3358
 5074SOL    HW126681   2.227   3.576   8.759 -0.6058  1.6171 -0.0189
 5074SOL    HW226682   2.276   3.474   8.677 -1.4280 -0.6537 -1.6945
 5075SOL     OW26683   1.375   2.267   3.289 -0.2851  0.5614  0.5638
 5075SOL    HW126684   1.284   2.296   3.298 -0.3696  0.1015  1.2243
 5075SOL    HW226685   1.373   2.274   3.194 -0.0074  0.8871  0.5843
 5076SOL     OW26686   0.825   0.685   8.637 -0.4644 -0.1236  0.4236
 5076SOL    HW126687   0.891   0.652   8.698  2.6329  3.7233 -0.8680
 5076SOL    HW226688   0.815   0.776   8.665  1.3195 -0.0112  0.6805
 5077SOL     OW26689   2.256   4.692  11.603  0.1011  0.5149 -0.0996
 5077SOL    HW126690   2.210   4.725  11.526  0.7208  1.8901  0.1201
 5077SOL    HW226691   2.298   4.619  11.557  0.8980  0.3126  0.9389
 5078SOL     OW26692   2.488   3.409   1.201 -0.2082 -0.2903  0.0740
 5078SOL    HW126693   2.509   3.377   1.113 -0.5975  0.0992 -0.1596
 5078SOL    HW226694   2.395   3.427   1.189  0.0154 -0.5350 -1.9667
 5079SOL     OW26695   0.863   4.579   3.861  0.0283  0.3128  0.1327
 5079SOL    HW126696   0.789   4.609   3.914 -0.7771 -2.1681  0.4213
 5079SOL    HW226697   0.924   4.524   3.911 -0.8346  0.0347  0.8901
 5080SOL     OW26698   0.134   0.345   2.706  0.1898  0.2963 -0.2039
 5080SOL    HW126699   0.195   0.410   2.670  0.2755  0.2199 -0.1961
 5080SOL    HW226700   0.061   0.365   2.648  0.9694 -0.4906 -1.4577
 5081SOL     OW26701   0.400   4.662   6.812  0.0172 -0.1133  0.1548
 5081SOL    HW126702   0.352   4.635   6.891  2.3449 -0.2556  1.5297
 5081SOL    HW226703   0.352   4.616   6.744  1.0532 -2.5129  1.0599
 5082SOL     OW26704   2.595   2.683  16.252 -0.7472  0.5571 -0.0476
 5082SOL    HW126705   2.516   2.736  16.245  0.6007  2.4549 -0.6719
 5082SOL    HW226706   2.590   2.638  16.336 -0.8371  0.2115 -0.2335
 5083SOL     OW26707   1.844   0.600  13.510 -0.3244 -0.1313  0.5482
 5083SOL    HW126708   1.787   0.541  13.560  0.2502 -1.3934 -0.3003
 5083SOL    HW226709   1.775   0.661  13.484  0.3455  1.3048  2.1453
 5084SOL     OW26710   2.510   0.926   1.493 -0.0245  0.2762  0.0152
 5084SOL    HW126711   2.523   0.831   1.486 -0.0829  0.2995 -0.4184
 5084SOL    HW226712   2.487   0.943   1.402  1.2340 -0.4649 -0.4492
 5085SOL     OW26713   0.201   1.319   8.859 -0.6133 -0.2252  0.2885
 5085SOL    HW126714   0.138   1.386   8.831  1.4442 -0.2718 -4.4320
 5085SOL    HW226715   0.213   1.273   8.776  2.5721  0.1677  0.5171
 5086SOL     OW26716   0.723   1.666  16.988  0.3037  0.2359  0.0420
 5086SOL    HW126717   0.802   1.662  17.042 -2.3624 -3.0360  3.7720
 5086SOL    HW226718   0.683   1.600  17.045  0.3080 -0.7203 -1.0696
 5087SOL     OW26719   1.542   1.605   2.096  0.2942  0.1692 -0.1936
 5087SOL    HW126720   1.621   1.615   2.043  1.9260 -0.5833  2.0949
 5087SOL    HW226721   1.573   1.553   2.170  1.2315 -0.1712 -0.8367
 5088SOL     OW26722   3.001   3.840   5.647  0.6246  0.4325  0.0108
 5088SOL    HW126723   3.016   3.934   5.661  0.6946  0.5557 -0.8791
 5088SOL    HW226724   3.008   3.817   5.555  0.6183 -0.5893  0.2737
 5089SOL     OW26725   2.390   4.251  14.292  0.4192 -0.6082 -0.0045
 5089SOL    HW126726   2.461   4.196  14.259  0.5005  0.7465 -2.0900
 5089SOL    HW226727   2.316   4.192  14.306 -0.8123  0.1725 -3.1956
 5090SOL     OW26728   0.453   0.254  17.045 -0.4933 -0.2237  0.1300
 5090SOL    HW126729   0.395   0.311  17.095  1.2798  1.2964  0.4739
 5090SOL    HW226730   0.441   0.284  16.955  0.0621 -0.6174 -0.0820
 5091SOL     OW26731   1.278   1.135   5.047 -0.0038 -0.3002  0.2754
 5091SOL    HW126732   1.185   1.133   5.022  0.1739 -2.6837 -0.2062
 5091SOL    HW226733   1.276   1.230   5.056 -0.0918 -0.2241 -0.5204
 5092SOL     OW26734   2.701   1.497   7.991 -0.1359 -0.0471  0.0613
 5092SOL    HW126735   2.637   1.551   8.038 -0.1723 -0.1452  0.1262
 5092SOL    HW226736   2.749   1.465   8.068 -3.8080 -0.6000  2.1263
 5093SOL     OW26737   0.940   2.540   5.473  0.0843 -0.7175 -0.6838
 5093SOL    HW126738   0.942   2.520   5.379  1.8390  1.9485 -1.1845
 5093SOL    HW226739   0.996   2.617   5.473  0.5894 -1.0617 -3.0522
 5094SOL     OW26740   1.033   3.510   8.448 -0.6454  0.5169 -0.7876
 5094SOL    HW126741   0.971   3.472   8.510  1.1158 -1.1395 -0.0129
 5094SOL    HW226742   0.977   3.553   8.384  1.0272  0.7896 -2.0724
 5095SOL     OW26743   3.560   3.409   2.657 -0.7002 -0.1331 -0.3605
 5095SOL    HW126744   3.473   3.450   2.655 -0.3040  0.9253  3.1497
 5095SOL    HW226745   3.543   3.358   2.737 -1.0869 -0.3870 -0.6052
 5096SOL     OW26746   3.081   1.543   2.681  0.2669 -0.4796 -0.3766
 5096SOL    HW126747   3.089   1.638   2.678  1.4166 -0.5222  2.0599
 5096SOL    HW226748   3.095   1.525   2.588 -2.1186  0.9711 -1.0181
 5097SOL     OW26749   4.226   0.158   4.497  0.0724  0.4822  0.1225
 5097SOL    HW126750   4.279   0.085   4.464  0.8469  1.2425 -0.2942
 5097SOL    HW226751   4.139   0.137   4.461  0.0010  1.0291 -0.0230
 5098SOL     OW26752   0.839   4.657   2.799  0.0696  0.3302 -0.1732
 5098SOL    HW126753   0.798   4.710   2.731  2.4155  2.4864  0.0667
 5098SOL    HW226754   0.822   4.701   2.883  1.7159 -0.8504  0.7893
 5099SOL     OW26755   0.202   0.665   6.796  0.0297 -0.0731  0.2868
 5099SOL    HW126756   0.211   0.700   6.708 -0.8272 -0.1602  0.1704
 5099SOL    HW226757   0.251   0.582   6.791 -0.7489 -0.4614 -0.6803
 5100SOL     OW26758   2.778   2.692   9.019 -0.1205  0.3226  0.4592
 5100SOL    HW126759   2.702   2.721   8.969 -0.5178 -1.4640  0.0291
 5100SOL    HW226760   2.741   2.699   9.107  0.1488 -1.4291  0.6992
 5101SOL     OW26761   3.818   2.883   7.450  0.5272  0.3600 -0.2459
 5101SOL    HW126762   3.825   2.792   7.422  1.3874  0.1629  0.5930
 5101SOL    HW226763   3.806   2.932   7.368  3.1718  1.7562  0.1926
 5102SOL     OW26764   2.952   1.721   9.280 -0.3429  0.5070  0.0248
 5102SOL    HW126765   3.035   1.729   9.328 -0.0784  2.0563 -0.6999
 5102SOL    HW226766   2.944   1.816   9.279  0.7816  0.6020 -0.3527
 5103SOL     OW26767   3.896   1.641  13.271 -0.9123 -0.2575  0.3707
 5103SOL    HW126768   3.815   1.647  13.220  0.0658  1.1868 -0.9982
 5103SOL    HW226769   3.867   1.615  13.358 -0.8508  0.6386  0.6479
 5104SOL     OW26770   0.180   1.008   9.713  0.2116  0.1225  0.0159
 5104SOL    HW126771   0.224   1.005   9.799 -0.9069 -1.5423  0.5399
 5104SOL    HW226772   0.086   1.001   9.730 -0.1483 -0.0803 -2.0933
 5105SOL     OW26773   3.386   4.491   9.223  0.1899 -0.1967 -0.3748
 5105SOL    HW126774   3.362   4.521   9.310 -2.0083 -1.3962 -0.5604
 5105SOL    HW226775   3.396   4.579   9.187 -0.7629 -1.0346 -2.7280
 5106SOL     OW26776   3.071   0.577   7.096  0.1102  0.3540 -0.0197
 5106SOL    HW126777   2.990   0.527   7.106  0.4445 -0.3364 -0.7052
 5106SOL    HW226778   3.064   0.637   7.170  0.6149  1.3713 -0.8067
 5107SOL     OW26779   2.808   3.779   0.508  0.1073 -0.1072 -0.4802
 5107SOL    HW126780   2.863   3.801   0.583  1.2737 -2.5317 -0.6373
 5107SOL    HW226781   2.733   3.745   0.558  0.7964 -1.6074 -0.4853
 5108SOL     OW26782   2.066   2.872   3.500 -0.1519  0.1446 -0.2335
 5108SOL    HW126783   2.125   2.936   3.461  0.1572 -0.0053 -0.0147
 5108SOL    HW226784   2.123   2.795   3.501 -1.2987 -0.7459 -2.9536
 5109SOL     OW26785   4.178   1.165  12.012  0.3649 -0.0370 -0.4145
 5109SOL    HW126786   4.153   1.210  11.931  1.9095  1.6284  0.0363
 5109SOL    HW226787   4.092   1.151  12.051 -0.8336 -0.4667 -3.2026
 5110SOL     OW26788   4.079   0.547   4.624 -0.2544 -0.2332  0.1139
 5110SOL    HW126789   4.090   0.466   4.574 -0.3834 -0.4145  0.3777
 5110SOL    HW226790   4.164   0.566   4.663 -0.2613  1.1092 -0.5189
 5111SOL     OW26791   1.374   4.289  13.580 -0.5713  0.2600  0.1187
 5111SOL    HW126792   1.448   4.245  13.539 -0.9853 -0.5878  0.2757
 5111SOL    HW226793   1.395   4.375  13.544 -0.8907  0.8956  1.4413
 5112SOL     OW26794   0.144   1.892   6.204 -0.3300 -0.3719  0.5003
 5112SOL    HW126795   0.069   1.874   6.262 -1.6800  0.3122 -1.0292
 5112SOL    HW226796   0.199   1.820   6.235 -0.1411 -1.1643 -1.6749
 5113SOL     OW26797   1.945   0.284  12.169 -0.4210  0.3073  0.0386
 5113SOL    HW126798   1.868   0.231  12.149  1.0700 -1.4477 -0.9625
 5113SOL    HW226799   2.005   0.219  12.203  0.3754  1.5480  1.0067
 5114SOL     OW26800   3.988   0.625   4.162 -0.5513  0.0832 -0.0158
 5114SOL    HW126801   3.926   0.693   4.191 -0.2354  0.1520  0.5057
 5114SOL    HW226802   3.950   0.544   4.196 -1.8977 -0.0593 -1.8526
 5115SOL     OW26803   4.285   2.807  17.508 -0.2415 -0.2984  0.4897
 5115SOL    HW126804   4.326   2.762  17.582  1.5616 -0.1738 -0.4468
 5115SOL    HW226805   4.200   2.830  17.546 -0.0743 -1.0452  1.3297
 5116SOL     OW26806   3.435   1.398   6.517  0.2410  0.2184  0.3904
 5116SOL    HW126807   3.367   1.438   6.462  1.1799  0.6536 -0.4570
 5116SOL    HW226808   3.408   1.308   6.533  2.9462 -0.3529  1.6288
 5117SOL     OW26809   1.437   1.899   8.284 -0.1490 -0.3646 -0.1194
 5117SOL    HW126810   1.533   1.895   8.291 -0.1193 -0.6096 -0.6934
 5117SOL    HW226811   1.409   1.941   8.365 -0.2924 -0.6294 -0.0331
 5118SOL     OW26812   1.289   3.434   4.007  0.0113  0.0580  0.0338
 5118SOL    HW126813   1.213   3.490   3.988  0.5320  0.0851 -2.0463
 5118SOL    HW226814   1.261   3.390   4.087  1.6876 -0.0546  0.5459
 5119SOL     OW26815   4.506   4.002   5.634 -0.1250  0.3109  0.0117
 5119SOL    HW126816   4.587   4.041   5.669  0.4388 -3.0361  2.3652
 5119SOL    HW226817   4.533   3.967   5.549 -1.9198 -2.0973  0.4510
 5120SOL     OW26818   4.533   1.217  11.075  0.1371 -0.8503  0.0434
 5120SOL    HW126819   4.447   1.257  11.066  0.4269 -0.2182  0.1044
 5120SOL    HW226820   4.564   1.269  11.149  1.9746  2.0672 -2.7441
 5121SOL     OW26821   3.146   2.656   4.820 -0.0559  0.0942  0.1607
 5121SOL    HW126822   3.134   2.577   4.873  2.2004 -0.2245  0.2093
 5121SOL    HW226823   3.183   2.717   4.883 -0.6278  0.9607 -0.3316
 5122SOL     OW26824   2.047   0.316   3.686 -0.1414  0.3870 -1.0897
 5122SOL    HW126825   1.982   0.381   3.711  1.1395  0.9202  0.8271
 5122SOL    HW226826   1.992   0.278   3.617  1.6655  0.0378 -2.3389
 5123SOL     OW26827   0.853   2.501  17.292 -0.1089 -0.3488 -0.2082
 5123SOL    HW126828   0.765   2.507  17.254 -0.0164 -1.3409 -0.5878
 5123SOL    HW226829   0.900   2.583  17.280 -0.6878  0.0723  0.3899
 5124SOL     OW26830   3.055   0.341   5.391  0.0854  0.0578  0.3796
 5124SOL    HW126831   3.131   0.386   5.355  0.8872 -0.4783  1.4042
 5124SOL    HW226832   3.062   0.260   5.340  0.0373  1.6154 -2.0858
 5125SOL     OW26833   1.538   1.936  16.849  0.1554  0.2656 -0.0604
 5125SOL    HW126834   1.473   1.945  16.779 -1.9150  0.0646  1.8385
 5125SOL    HW226835   1.611   1.894  16.803 -1.1521 -1.4319 -0.5966
 5126SOL     OW26836   3.050   1.707   7.477  0.2653 -0.2789  0.0615
 5126SOL    HW126837   3.137   1.680   7.508  0.5925  0.3842 -0.2757
 5126SOL    HW226838   3.071   1.781   7.420  1.6655 -0.5470  0.2300
 5127SOL     OW26839   0.176   1.638   2.927 -0.3267 -0.3642  0.6079
 5127SOL    HW126840   0.213   1.556   2.894  0.4790  0.0432  0.4954
 5127SOL    HW226841   0.127   1.602   3.001 -1.4928 -1.5620 -0.7431
 5128SOL     OW26842   0.765   1.327   1.674 -0.1764 -0.3582 -0.0097
 5128SOL    HW126843   0.714   1.276   1.612  0.5007  1.1615 -1.8249
 5128SOL    HW226844   0.741   1.412   1.635 -0.3250 -0.8006 -0.8770
 5129SOL     OW26845   1.463   4.426  13.360 -0.1064  0.0209 -0.3473
 5129SOL    HW126846   1.438   4.506  13.314  0.5612 -0.6787 -1.9109
 5129SOL    HW226847   1.558   4.437  13.355 -0.4122  2.1927 -1.1591
 5130SOL     OW26848   1.356   1.257   7.959 -0.5835  0.0936 -0.6887
 5130SOL    HW126849   1.342   1.351   7.944  0.4939  0.5304  1.1156
 5130SOL    HW226850   1.410   1.237   7.882 -1.1063  1.5896 -1.4647
 5131SOL     OW26851   4.653   0.618   7.445 -0.1610  0.1367  0.0058
 5131SOL    HW126852   4.691   0.535   7.418 -0.3433  0.1777 -0.3854
 5131SOL    HW226853   4.587   0.590   7.508  1.3230 -1.5962  0.8013
 5132SOL     OW26854   1.982   3.529   4.558 -0.0736  0.0453 -0.3946
 5132SOL    HW126855   2.062   3.476   4.560 -0.1495 -0.0996 -1.1385
 5132SOL    HW226856   1.991   3.555   4.466  4.5458  1.9619  0.5943
 5133SOL     OW26857   2.406   1.193   8.919  0.1928  0.1305  0.1012
 5133SOL    HW126858   2.415   1.142   8.839 -1.3036 -1.1598  0.7749
 5133SOL    HW226859   2.499   1.205   8.941 -0.2924 -1.6838  3.0416
 5134SOL     OW26860   4.338   4.324   1.043  0.3933  0.0138 -0.0279
 5134SOL    HW126861   4.350   4.336   0.948  0.0785  1.6040  0.1283
 5134SOL    HW226862   4.353   4.415   1.069  3.2366  0.3678 -2.8858
 5135SOL     OW26863   0.435   0.555   1.863 -0.4908 -0.3533 -0.2312
 5135SOL    HW126864   0.482   0.590   1.939  0.8313  1.1801 -1.7481
 5135SOL    HW226865   0.423   0.466   1.896 -1.6277  0.3260  1.1562
 5136SOL     OW26866   3.849   2.649  12.877  0.2738 -0.2734 -0.0680
 5136SOL    HW126867   3.895   2.723  12.915  0.8112 -0.4669 -0.3385
 5136SOL    HW226868   3.901   2.634  12.797  2.0426 -0.2359  1.0655
 5137SOL     OW26869   1.251   3.054   2.544 -0.6003  0.5228  0.2925
 5137SOL    HW126870   1.217   3.142   2.562 -2.3589 -0.6953  2.8548
 5137SOL    HW226871   1.216   3.038   2.456 -0.1794 -3.4081  0.8339
 5138SOL     OW26872   1.494   3.236   3.381  0.1937  0.3397 -0.4071
 5138SOL    HW126873   1.454   3.150   3.373  1.1002 -0.0557 -0.6938
 5138SOL    HW226874   1.422   3.298   3.371 -0.3689 -0.3342 -0.5054
 5139SOL     OW26875   1.135   3.265   6.127  0.5819  0.2284 -0.1395
 5139SOL    HW126876   1.048   3.228   6.109  0.7401 -0.8585  1.3712
 5139SOL    HW226877   1.112   3.352   6.161 -0.1043 -0.3592  0.8799
 5140SOL     OW26878   0.222   3.612   8.473  0.0866 -0.0734  0.0981
 5140SOL    HW126879   0.156   3.614   8.542 -0.8738  0.6325 -0.8219
 5140SOL    HW226880   0.219   3.523   8.437 -0.4414 -0.1662  0.3680
 5141SOL     OW26881   3.919   3.824   5.207 -0.6572  0.1232 -0.3113
 5141SOL    HW126882   3.979   3.766   5.160 -1.5020 -0.2344 -0.9322
 5141SOL    HW226883   3.962   3.909   5.195 -1.7156  0.6313 -0.5362
 5142SOL     OW26884   3.324   3.433   6.298 -0.2046 -0.1578  0.4737
 5142SOL    HW126885   3.420   3.436   6.302 -0.2267  1.6846 -0.5708
 5142SOL    HW226886   3.309   3.383   6.378 -0.2995  2.2713  1.9665
 5143SOL     OW26887   1.128   1.873   5.053 -0.5476 -0.9602  0.3861
 5143SOL    HW126888   1.220   1.859   5.033 -0.8923  0.0982 -1.8924
 5143SOL    HW226889   1.119   1.821   5.133 -2.8747  1.6824  1.8493
 5144SOL     OW26890   0.113   3.968   5.397  0.4298 -0.3947  0.0903
 5144SOL    HW126891   0.025   3.996   5.372  0.6874  1.0293  0.7342
 5144SOL    HW226892   0.129   4.011   5.481  2.8651  0.2889 -0.7233
 5145SOL     OW26893   3.996   3.011   7.653  0.9309 -0.5488  0.2368
 5145SOL    HW126894   3.946   3.036   7.731 -1.1706 -1.3406 -0.8667
 5145SOL    HW226895   3.935   2.962   7.598 -1.0368 -0.2760  2.2001
 5146SOL     OW26896   3.135   4.580   0.130  0.5688  0.4644  0.1095
 5146SOL    HW126897   3.093   4.643   0.188 -1.6132 -1.7817  0.9601
 5146SOL    HW226898   3.159   4.641   0.061 -0.8303 -1.9532 -2.5108
 5147SOL     OW26899   0.257   2.028   9.800 -0.1589  0.7777 -0.3054
 5147SOL    HW126900   0.191   1.986   9.745  0.4960  1.2082 -1.4061
 5147SOL    HW226901   0.277   1.956   9.860 -0.3416 -0.8664 -2.2188
 5148SOL     OW26902   0.661   2.521   7.647 -0.1819  0.5217 -0.1069
 5148SOL    HW126903   0.734   2.499   7.705  1.2902 -1.1597 -2.6132
 5148SOL    HW226904   0.590   2.488   7.701  0.3762 -0.0517  0.2759
 5149SOL     OW26905   3.639   2.387  16.412  0.1485 -0.1372 -0.4313
 5149SOL    HW126906   3.597   2.431  16.337  1.8934  0.4807 -1.0441
 5149SOL    HW226907   3.618   2.457  16.474 -0.6050  0.5087 -1.3990
 5150SOL     OW26908   2.419   1.936  12.218 -0.3805 -0.1989 -0.4004
 5150SOL    HW126909   2.343   1.968  12.170 -0.5656  1.2967  0.9101
 5150SOL    HW226910   2.410   1.965  12.309 -0.6661 -1.6254  0.0335
 5151SOL     OW26911   2.464   4.641   8.182  0.8110 -0.3228 -0.3434
 5151SOL    HW126912   2.416   4.627   8.101  1.8473  1.2947 -1.2365
 5151SOL    HW226913   2.422   4.578   8.241  1.4575 -1.3604 -0.9968
 5152SOL     OW26914   3.834   0.004  12.461  0.3156  0.2555 -0.5044
 5152SOL    HW126915   3.809   0.095  12.474  0.2305  0.7480 -3.9103
 5152SOL    HW226916   3.785   4.701  12.383 -0.9108 -0.2519  0.4482
 5153SOL     OW26917   4.065   1.134   8.610  0.5493  0.2316  0.6041
 5153SOL    HW126918   4.076   1.098   8.521 -0.9990  0.1983  0.4356
 5153SOL    HW226919   3.985   1.184   8.595 -0.2082 -0.9252  0.8294
 5154SOL     OW26920   1.140   2.578   2.391  0.0793 -0.2617  0.1280
 5154SOL    HW126921   1.071   2.527   2.348  1.5802 -1.7378 -0.5106
 5154SOL    HW226922   1.157   2.506   2.451 -0.4758 -2.4141 -2.3477
 5155SOL     OW26923   0.276   3.590  15.253 -0.6963  0.2158  0.1576
 5155SOL    HW126924   0.296   3.500  15.230  2.5725  0.9147  0.2476
 5155SOL    HW226925   0.326   3.638  15.187  0.3640  0.5551  1.2107
 5156SOL     OW26926   4.344   3.876  15.686 -0.2422  0.2563  0.2851
 5156SOL    HW126927   4.298   3.941  15.632 -2.0812 -0.5357  0.9231
 5156SOL    HW226928   4.405   3.841  15.620 -0.0729  1.1174 -0.0219
 5157SOL     OW26929   1.780   0.291   8.214 -0.7835 -0.0282 -0.1034
 5157SOL    HW126930   1.741   0.293   8.301  0.9325  3.5408  0.5655
 5157SOL    HW226931   1.712   0.337   8.164  1.3961 -0.1242 -3.2093
 5158SOL     OW26932   1.228   0.245   3.824  0.3793 -0.0500 -0.1792
 5158SOL    HW126933   1.304   0.220   3.877 -0.6042 -0.9508  0.8134
 5158SOL    HW226934   1.188   0.309   3.882 -1.0138  0.6472 -1.9055
 5159SOL     OW26935   4.407   2.890   4.093 -0.3988  0.1105 -0.0025
 5159SOL    HW126936   4.449   2.970   4.122 -1.4851  0.9029 -0.6221
 5159SOL    HW226937   4.425   2.884   3.999  0.4027  0.2254  0.1508
 5160SOL     OW26938   0.057   0.074   2.808 -0.6043  0.0291 -0.1959
 5160SOL    HW126939   0.066   0.160   2.849  0.9019 -0.0754 -0.3164
 5160SOL    HW226940   4.691   0.089   2.779 -0.5038  0.5949 -0.2214
 5161SOL     OW26941   3.122   2.365   3.712  0.0657 -0.5566 -0.2935
 5161SOL    HW126942   3.092   2.322   3.632  1.4501 -0.2740 -0.9736
 5161SOL    HW226943   3.047   2.417   3.739 -1.3128 -0.7092 -3.8727
 5162SOL     OW26944   0.782   1.255   7.609  0.9001  0.3783  0.0952
 5162SOL    HW126945   0.844   1.267   7.681  0.1335  0.2088  0.7827
 5162SOL    HW226946   0.813   1.171   7.577  1.6394  0.2627  1.1330
 5163SOL     OW26947   0.663   2.048   8.898 -0.1032  0.8802 -0.0149
 5163SOL    HW126948   0.682   2.142   8.892  1.4735  0.6666  1.7941
 5163SOL    HW226949   0.578   2.053   8.940 -0.9869  0.7088 -1.7626
 5164SOL     OW26950   4.669   2.687   4.252 -0.5273 -0.0696 -0.2677
 5164SOL    HW126951   4.618   2.730   4.183 -0.3232  1.7634  0.7293
 5164SOL    HW226952   0.020   2.745   4.259 -0.3474 -0.2043 -1.0088
 5165SOL     OW26953   0.003   2.157   0.866  0.6903  0.1141  0.0913
 5165SOL    HW126954   0.085   2.123   0.899  1.6637  2.0306 -0.3544
 5165SOL    HW226955   4.687   2.075   0.836  1.5369 -1.1310  2.4293
 5166SOL     OW26956   3.566   2.389  12.173  0.1082 -0.3567  0.1897
 5166SOL    HW126957   3.642   2.393  12.115  0.5061  3.4246  0.9584
 5166SOL    HW226958   3.520   2.317  12.129 -3.2490  1.6735  0.3516
 5167SOL     OW26959   3.438   0.406   2.432 -0.2767  0.8672 -0.2475
 5167SOL    HW126960   3.468   0.390   2.343  0.8493 -3.1467  0.8803
 5167SOL    HW226961   3.485   0.485   2.457  0.8621 -0.1055  0.6274
 5168SOL     OW26962   3.966   2.096   6.973 -0.4737  0.6672 -0.5642
 5168SOL    HW126963   3.991   2.031   6.907  0.1728 -0.7533  1.0614
 5168SOL    HW226964   3.896   2.050   7.020  0.1626  0.5681  0.2997
 5169SOL     OW26965   1.475   2.808   4.435 -0.0339 -0.6655  0.2717
 5169SOL    HW126966   1.543   2.818   4.368 -0.3020  2.0230  0.3780
 5169SOL    HW226967   1.451   2.717   4.421  0.9753 -0.7083 -1.1809
 5170SOL     OW26968   1.671   1.906   6.161 -0.1337  0.0919 -0.0239
 5170SOL    HW126969   1.590   1.906   6.111  0.2948 -3.5790 -0.7524
 5170SOL    HW226970   1.668   1.998   6.185  0.6718  0.3522 -0.8962
 5171SOL     OW26971   3.538   1.624   4.820 -0.9807  0.0653  0.4653
 5171SOL    HW126972   3.586   1.601   4.741 -0.8807 -1.0478  0.8365
 5171SOL    HW226973   3.469   1.560   4.801 -0.6068 -0.4401  0.8136
 5172SOL     OW26974   0.235   2.307   7.102  0.0001  0.2786  0.0131
 5172SOL    HW126975   0.145   2.288   7.077 -0.1193  1.9012 -0.8111
 5172SOL    HW226976   0.273   2.376   7.047  0.5550  0.4231  0.5811
 5173SOL     OW26977   1.995   1.226   4.944 -0.1393  0.5651 -0.2164
 5173SOL    HW126978   1.952   1.288   5.003  0.0423  0.1383  0.3578
 5173SOL    HW226979   1.999   1.150   5.001 -2.2462 -0.6500 -1.6886
 5174SOL     OW26980   1.359   2.670  12.104 -0.0697 -0.1671 -0.2792
 5174SOL    HW126981   1.277   2.629  12.132 -1.2496  2.0419 -0.5317
 5174SOL    HW226982   1.417   2.594  12.094 -0.7736 -0.2187 -4.0129
 5175SOL     OW26983   4.693   2.903  12.594  0.6098 -0.6394  0.0977
 5175SOL    HW126984   0.024   2.906  12.517 -0.4079  0.2020 -0.6119
 5175SOL    HW226985   0.001   2.824  12.637 -1.3913 -0.8223  1.3085
 5176SOL     OW26986   3.587   0.891   5.724 -0.2172 -0.6452  0.2281
 5176SOL    HW126987   3.609   0.925   5.810 -0.4007  0.2972 -0.1023
 5176SOL    HW226988   3.582   0.795   5.732  1.7694 -0.6055  1.7748
 5177SOL     OW26989   2.986   2.321   5.912 -0.9765  0.6896 -0.3566
 5177SOL    HW126990   2.948   2.403   5.945 -1.4231  0.2662  0.1865
 5177SOL    HW226991   3.045   2.353   5.843 -0.7356 -0.0504 -0.4880
 5178SOL     OW26992   1.385   1.950   6.071 -0.1379  0.2098 -0.0340
 5178SOL    HW126993   1.292   1.967   6.088  0.6258  3.0033  1.4922
 5178SOL    HW226994   1.380   1.965   5.977 -1.2312  1.0732  0.1483
 5179SOL     OW26995   4.072   1.970  14.580  0.0494  0.1861 -0.0522
 5179SOL    HW126996   4.019   2.049  14.570 -0.0976  0.4430  2.8449
 5179SOL    HW226997   4.161   2.003  14.566  0.4077 -0.4449  0.7060
 5180SOL     OW26998   3.174   3.433   1.635  0.6025 -0.3556 -0.1564
 5180SOL    HW126999   3.224   3.450   1.556  0.6764 -0.5964 -0.1611
 5180SOL    HW227000   3.107   3.372   1.603  0.6269 -0.3941 -0.1338
 5181SOL     OW27001   3.697   1.276   4.672 -0.0713 -0.1399 -0.1946
 5181SOL    HW127002   3.670   1.198   4.720 -1.2623 -0.5491 -1.5539
 5181SOL    HW227003   3.696   1.244   4.582 -0.9806 -1.4480  0.2880
 5182SOL     OW27004   2.629   0.209   6.684 -0.0976 -0.1021 -0.1255
 5182SOL    HW127005   2.543   0.167   6.683 -0.4270  0.6602 -2.9086
 5182SOL    HW227006   2.613   0.300   6.708  1.1169  0.0723 -0.0123
 5183SOL     OW27007   0.134   2.299   5.661  0.3829 -0.1976 -0.4469
 5183SOL    HW127008   0.150   2.225   5.603  3.0618 -0.5223  0.7217
 5183SOL    HW227009   0.123   2.366   5.593 -1.5770  1.7031  1.7480
 5184SOL     OW27010   0.334   0.122   4.818  0.0449  0.2708 -0.2658
 5184SOL    HW127011   0.289   0.180   4.757 -0.5528  0.9924  0.8765
 5184SOL    HW227012   0.304   0.155   4.902  0.4735 -0.4800  0.1794
 5185SOL     OW27013   2.189   4.369   3.309  0.7424 -0.1853  0.5687
 5185SOL    HW127014   2.132   4.390   3.235  1.7584  1.8295  0.3684
 5185SOL    HW227015   2.278   4.375   3.275  0.9942 -0.9522  1.1028
 5186SOL     OW27016   3.755   1.150  16.324 -0.6118  0.1072 -0.2295
 5186SOL    HW127017   3.795   1.065  16.343 -0.6145  0.1623  0.0122
 5186SOL    HW227018   3.749   1.144  16.228 -0.3154  1.1825 -0.3247
 5187SOL     OW27019   3.384   1.938   6.943 -0.3349  0.0583 -0.0846
 5187SOL    HW127020   3.431   1.975   7.018 -1.8386  1.9720 -0.0718
 5187SOL    HW227021   3.294   1.968   6.956  0.5964  3.9771 -2.8488
 5188SOL     OW27022   1.279   4.436   9.173 -0.1319 -0.1867 -0.0330
 5188SOL    HW127023   1.299   4.487   9.094  0.5253  0.5907  0.6394
 5188SOL    HW227024   1.328   4.483   9.239  1.8826 -1.3532 -0.6933
 5189SOL     OW27025   4.393   1.968   3.098  0.1071  0.2601  0.0143
 5189SOL    HW127026   4.332   1.993   3.029  0.9748  2.4370  0.0394
 5189SOL    HW227027   4.418   1.876   3.082  1.2807  0.3274  1.5211
 5190SOL     OW27028   2.926   3.441   3.989  0.0836 -0.3026  0.2315
 5190SOL    HW127029   2.913   3.535   4.000  2.4150  0.0615 -0.1235
 5190SOL    HW227030   2.858   3.421   3.925 -0.0424  1.8060 -0.2807
 5191SOL     OW27031   2.296   2.914  16.285 -0.1840  0.7399  0.4441
 5191SOL    HW127032   2.327   2.997  16.250  0.7746 -0.3459 -1.2745
 5191SOL    HW227033   2.321   2.905  16.377 -1.3074 -0.0631  0.6793
 5192SOL     OW27034   2.242   0.697   5.537 -0.0905 -0.0313 -0.1265
 5192SOL    HW127035   2.318   0.754   5.534  1.0146 -1.5031 -0.0323
 5192SOL    HW227036   2.216   0.692   5.445 -0.1971  5.2401 -0.3858
 5193SOL     OW27037   1.931   4.636   3.480  0.3719 -0.1056  0.4966
 5193SOL    HW127038   1.980   4.716   3.460 -1.3639  0.7036 -0.4338
 5193SOL    HW227039   1.849   4.655   3.436 -0.0221 -0.1056  1.2297
 5194SOL     OW27040   4.083   3.299   6.334  0.6414 -0.0149 -0.2443
 5194SOL    HW127041   4.119   3.384   6.308  0.8987 -0.9837 -3.0296
 5194SOL    HW227042   4.065   3.261   6.248 -0.5466  1.2058 -0.5423
 5195SOL     OW27043   3.403   1.367   3.319 -0.1076  0.6524 -0.4281
 5195SOL    HW127044   3.452   1.422   3.257 -2.9371  1.0487 -2.2939
 5195SOL    HW227045   3.475   1.355   3.382 -0.7195 -0.0193  0.1471
 5196SOL     OW27046   2.189   4.678  10.186  0.5661  0.2729 -0.6726
 5196SOL    HW127047   2.240   4.723  10.254 -0.3077 -0.6858  0.6215
 5196SOL    HW227048   2.132   4.616  10.232  0.8951  0.3400 -0.1753
 5197SOL     OW27049   3.970   2.267   3.124  0.3301  0.4085  0.6461
 5197SOL    HW127050   3.990   2.270   3.218  0.9145  2.6467  0.4467
 5197SOL    HW227051   4.055   2.300   3.095 -0.1614  0.1128 -1.1544
 5198SOL     OW27052   1.550   2.743   6.114 -0.0191  0.2172 -0.2538
 5198SOL    HW127053   1.585   2.783   6.194  0.9588 -1.8881  0.3621
 5198SOL    HW227054   1.495   2.676   6.153  0.8441 -0.3248  0.0263
 5199SOL     OW27055   0.277   0.147   3.873  0.0783  0.0497  0.2177
 5199SOL    HW127056   0.357   0.190   3.844 -1.0538  1.3018 -1.0153
 5199SOL    HW227057   0.288   0.053   3.858 -0.4699  0.5760 -3.5888
 5200SOL     OW27058   0.997   0.243  10.774  0.4132  0.3464 -0.1348
 5200SOL    HW127059   0.974   0.152  10.756 -2.4836  0.9908  0.3415
 5200SOL    HW227060   1.018   0.226  10.866 -1.7826 -2.5297 -0.1563
 5201SOL     OW27061   0.147   0.175   9.010  0.4978 -0.1929  0.2296
 5201SOL    HW127062   0.179   0.203   8.924 -0.3885 -1.4917 -0.5221
 5201SOL    HW227063   0.114   0.256   9.050 -1.3235 -0.7589 -0.1280
 5202SOL     OW27064   0.939   2.634   3.552  0.0359  0.7724  0.0109
 5202SOL    HW127065   0.874   2.563   3.549 -0.0056  0.8727 -1.4290
 5202SOL    HW227066   0.990   2.599   3.625 -0.3581  0.2656  0.0451
 5203SOL     OW27067   2.805   0.115   7.564 -0.1703  0.4809 -0.4083
 5203SOL    HW127068   2.875   0.075   7.512  0.2285  0.7034 -0.0437
 5203SOL    HW227069   2.731   0.058   7.542 -0.2081  0.3670  0.0135
 5204SOL     OW27070   1.417   1.630   7.478 -0.4696  0.0882  0.2842
 5204SOL    HW127071   1.503   1.660   7.507 -0.7496  1.9188 -0.7613
 5204SOL    HW227072   1.392   1.702   7.420 -0.8913  1.7920  2.6061
 5205SOL     OW27073   3.473   3.591   8.813  0.3455  0.3426  0.5864
 5205SOL    HW127074   3.566   3.606   8.797  0.7866 -0.1931  2.5882
 5205SOL    HW227075   3.466   3.653   8.886 -0.4519 -0.4894  1.2069
 5206SOL     OW27076   0.648   3.075   8.915  0.2447 -0.1621  0.4450
 5206SOL    HW127077   0.673   2.994   8.959  1.4684 -0.5458 -0.9588
 5206SOL    HW227078   0.574   3.094   8.972  1.6579 -1.1109  2.5746
 5207SOL     OW27079   3.428   3.526   1.721  0.3230 -0.3891  0.1609
 5207SOL    HW127080   3.341   3.485   1.723  0.5751 -0.9328 -0.2628
 5207SOL    HW227081   3.408   3.618   1.740  0.1211 -0.9601  2.7646
 5208SOL     OW27082   0.320   4.486  15.742 -0.0826 -0.0502  0.2427
 5208SOL    HW127083   0.233   4.478  15.705 -0.5798 -1.3119  1.6937
 5208SOL    HW227084   0.309   4.476  15.837  1.6552  1.6727  0.6289
 5209SOL     OW27085   1.253   3.976  14.340  1.2309 -0.0960  0.5935
 5209SOL    HW127086   1.222   3.902  14.392 -2.7962  1.6544  0.6820
 5209SOL    HW227087   1.168   4.010  14.314  1.1932  0.0659  0.9264
 5210SOL     OW27088   1.580   2.828   3.645 -0.0122  0.0539  0.5532
 5210SOL    HW127089   1.595   2.740   3.609 -1.1082  1.0895 -2.4174
 5210SOL    HW227090   1.617   2.879   3.573  1.1884 -0.6989  0.6434
 5211SOL     OW27091   4.590   4.618   0.519  0.0668 -0.1655  0.6844
 5211SOL    HW127092   4.575   4.528   0.490  0.4489 -0.0345  0.0758
 5211SOL    HW227093   4.567   4.671   0.442  0.5534  0.8262  1.2256
 5212SOL     OW27094   3.850   2.149   6.057  0.3144 -0.1026 -0.3006
 5212SOL    HW127095   3.935   2.192   6.046 -1.0557  2.4323 -0.9472
 5212SOL    HW227096   3.816   2.192   6.136  1.3799  0.8538 -0.3593
 5213SOL     OW27097   4.033   1.142   8.877  0.0257  0.4137 -0.4780
 5213SOL    HW127098   4.054   1.126   8.785 -1.4251 -0.3569 -0.6735
 5213SOL    HW227099   4.055   1.236   8.880  0.7260  0.2056  0.7262
 5214SOL     OW27100   2.882   0.131   6.746  0.3862 -0.2682  0.0582
 5214SOL    HW127101   2.805   0.145   6.691  0.1660  1.6051  0.8358
 5214SOL    HW227102   2.884   0.035   6.741  0.9844 -0.1797 -1.3605
 5215SOL     OW27103   3.102   3.084   3.555  0.4779 -0.3816  0.4707
 5215SOL    HW127104   3.175   3.050   3.503 -0.4627 -2.8678  0.7479
 5215SOL    HW227105   3.089   3.021   3.626  0.7848  0.1662  1.0097
 5216SOL     OW27106   0.749   4.417   1.120  0.0927 -0.9879 -0.0874
 5216SOL    HW127107   0.730   4.422   1.214 -1.4764 -0.6146 -0.4349
 5216SOL    HW227108   0.684   4.354   1.091 -1.1935 -0.2464  1.2009
 5217SOL     OW27109   2.320   4.096  13.808 -0.0436 -0.4095  0.1035
 5217SOL    HW127110   2.283   4.036  13.873 -0.8998 -0.1926 -0.1918
 5217SOL    HW227111   2.411   4.110  13.835 -0.6664 -0.1077  2.0589
 5218SOL     OW27112   4.553   1.599   4.375  0.2613  0.2326  0.2372
 5218SOL    HW127113   4.646   1.576   4.384  0.4458  0.4574 -1.1685
 5218SOL    HW227114   4.512   1.555   4.450 -1.6320 -1.2303 -1.6416
 5219SOL     OW27115   2.428   1.715   4.840 -0.2293  0.0231  0.2240
 5219SOL    HW127116   2.519   1.712   4.812  0.0545 -0.2302  1.2027
 5219SOL    HW227117   2.384   1.716   4.754  1.0269  0.8875 -0.4134
 5220SOL     OW27118   3.200   2.818   1.741  0.0138 -0.3398 -0.1454
 5220SOL    HW127119   3.191   2.724   1.723  0.4973 -0.8045  2.1255
 5220SOL    HW227120   3.112   2.832   1.776 -0.8484 -2.1409 -1.5426
 5221SOL     OW27121   1.555   0.780  17.660 -0.5094  0.2128 -0.4784
 5221SOL    HW127122   1.601   0.852   0.001 -2.4106  1.7774 -1.0618
 5221SOL    HW227123   1.536   0.819  17.574  2.5501  1.3697 -0.6161
 5222SOL     OW27124   3.446   2.402   5.443 -0.4517 -0.0270 -0.5609
 5222SOL    HW127125   3.433   2.371   5.353  0.3924  0.7233 -0.9455
 5222SOL    HW227126   3.368   2.359   5.478 -1.3121  0.5579 -1.7413
 5223SOL     OW27127   2.678   2.756   3.875  0.3372  0.0768 -0.4896
 5223SOL    HW127128   2.726   2.805   3.941 -1.7225  0.7777  0.4832
 5223SOL    HW227129   2.631   2.695   3.932  1.8108  0.4489  1.1020
 5224SOL     OW27130   0.821   0.647   5.307  0.4550  0.0080 -0.4926
 5224SOL    HW127131   0.850   0.678   5.393 -0.7542 -0.7238  0.1740
 5224SOL    HW227132   0.893   0.662   5.246  1.6466  0.8836  1.1211
 5225SOL     OW27133   1.504   2.401  10.765 -0.0430 -0.7676 -0.3483
 5225SOL    HW127134   1.444   2.446  10.824 -0.4825 -1.7936 -0.0132
 5225SOL    HW227135   1.547   2.340  10.826  1.1635 -0.0423 -0.4625
 5226SOL     OW27136   2.452   4.466   2.844  0.7734 -0.4079  0.4559
 5226SOL    HW127137   2.465   4.469   2.749 -2.3089  0.6980  0.0650
 5226SOL    HW227138   2.390   4.538   2.856 -1.0437 -1.7610 -0.7946
 5227SOL     OW27139   3.845   1.635   7.625  0.4301 -0.2845  0.2300
 5227SOL    HW127140   3.899   1.700   7.581  2.3838 -0.4053  2.4594
 5227SOL    HW227141   3.874   1.555   7.581  0.2639  0.5761 -1.4575
 5228SOL     OW27142   2.093   1.891  11.136  0.2660 -0.3461  0.0413
 5228SOL    HW127143   2.163   1.947  11.170  1.2829 -1.8444  0.3858
 5228SOL    HW227144   2.127   1.861  11.052 -2.4319  0.0565 -1.2063
 5229SOL     OW27145   0.819   4.686   5.294 -0.0767 -0.2915 -0.0968
 5229SOL    HW127146   0.771   0.037   5.326  1.1067  0.1147  0.6827
 5229SOL    HW227147   0.752   4.617   5.287 -0.8801  0.4752 -0.0004
 5230SOL     OW27148   0.133   3.684   1.180 -0.1070  0.2401 -0.0586
 5230SOL    HW127149   0.213   3.681   1.233 -1.7139 -0.5061  2.3779
 5230SOL    HW227150   0.095   3.596   1.185  0.4948 -0.1278 -2.2973
 5231SOL     OW27151   2.288   0.617   2.468 -0.2757 -0.4000 -0.1871
 5231SOL    HW127152   2.230   0.590   2.397  0.3693 -0.1168 -0.8244
 5231SOL    HW227153   2.357   0.651   2.412 -0.7527 -0.8386 -1.0380
 5232SOL     OW27154   1.968   1.009   3.884 -0.4242  0.2999  0.4366
 5232SOL    HW127155   2.003   0.993   3.971  1.5777  0.3390 -0.3667
 5232SOL    HW227156   2.022   0.957   3.825  0.9668  0.6886  1.3734
 5233SOL     OW27157   0.572   2.222   5.657  0.3815  0.6720  0.6112
 5233SOL    HW127158   0.507   2.278   5.698 -0.8541  0.9516 -1.7065
 5233SOL    HW227159   0.522   2.141   5.667  0.5680  0.4043 -0.5667
 5234SOL     OW27160   4.686   4.639   6.746 -0.4395  0.5178 -0.5492
 5234SOL    HW127161   4.723   4.659   6.832  0.4222  0.5510 -0.9341
 5234SOL    HW227162   4.622   4.573   6.776 -0.5492 -0.0651 -2.0951
 5235SOL     OW27163   2.092   4.292   7.388 -0.5349 -0.2005 -0.3527
 5235SOL    HW127164   2.032   4.303   7.314  0.7503  0.8475 -1.2195
 5235SOL    HW227165   2.053   4.212   7.423 -0.9215 -0.2494 -0.8923
 5236SOL     OW27166   4.686   1.954  12.614 -0.0784  0.0554 -0.0846
 5236SOL    HW127167   0.025   2.011  12.657  0.2450  0.8121 -1.5762
 5236SOL    HW227168   4.641   1.925  12.693  2.8147  0.5491  1.7302
 5237SOL     OW27169   0.686   3.524   9.101 -0.4016 -0.2563  0.5809
 5237SOL    HW127170   0.613   3.577   9.069  0.5634 -0.3305 -1.7218
 5237SOL    HW227171   0.693   3.453   9.038 -1.3554 -0.1779  0.3945
 5238SOL     OW27172   2.012   1.010   3.071  0.1971 -0.8315 -0.7870
 5238SOL    HW127173   2.094   1.059   3.064 -0.6492  0.9944  2.0222
 5238SOL    HW227174   1.949   1.077   3.098 -0.8552 -1.9416 -0.4850
 5239SOL     OW27175   2.970   2.522   7.793  0.2655  0.2954 -0.7414
 5239SOL    HW127176   3.064   2.505   7.800  0.3315 -0.1412 -2.8106
 5239SOL    HW227177   2.958   2.582   7.867  0.6037 -1.1183  0.4700
 5240SOL     OW27178   2.380   3.482  11.385  0.3315 -0.4491 -0.5673
 5240SOL    HW127179   2.304   3.436  11.421  1.2955 -0.7434  1.1269
 5240SOL    HW227180   2.341   3.544  11.324  0.0073  1.6231  1.7660
 5241SOL     OW27181   2.784   3.106   7.917 -0.3080  0.0529 -0.0141
 5241SOL    HW127182   2.871   3.073   7.937  0.1258  0.2412 -1.5667
 5241SOL    HW227183   2.798   3.199   7.929  1.1574 -0.3213  1.1584
 5242SOL     OW27184   1.065   3.632   8.728  0.1448  0.1301  0.5548
 5242SOL    HW127185   1.068   3.719   8.768  0.1524 -0.1339  1.1248
 5242SOL    HW227186   1.011   3.658   8.653  0.7183 -1.7026 -0.4909
 5243SOL     OW27187   3.098   3.487  12.452  0.1538  0.5562  0.0829
 5243SOL    HW127188   3.125   3.537  12.529  1.3620 -0.2191  0.1536
 5243SOL    HW227189   3.175   3.431  12.446 -0.3543 -0.0523 -0.8324
 5244SOL     OW27190   3.481   4.052  16.068 -0.0398  0.3767  0.4111
 5244SOL    HW127191   3.442   3.968  16.094 -0.4280  0.1569 -0.8849
 5244SOL    HW227192   3.527   4.075  16.149  0.1045  1.8737 -0.1064
 5245SOL     OW27193   4.304   0.041   9.616  0.3323 -0.0676  0.1674
 5245SOL    HW127194   4.295   0.121   9.565 -2.8165 -1.7955 -1.9963
 5245SOL    HW227195   4.337   4.703   9.552  0.9986  2.2255 -1.7359
 5246SOL     OW27196   2.074   3.216   0.980  0.4860 -0.3232 -0.4006
 5246SOL    HW127197   2.046   3.259   0.899 -0.7729  0.5192  0.4726
 5246SOL    HW227198   2.018   3.257   1.047  1.8258  1.0012 -0.0967
 5247SOL     OW27199   4.645   0.866   5.108  0.0562  0.3096 -0.0129
 5247SOL    HW127200   4.602   0.939   5.063  0.7102  1.7890  1.7582
 5247SOL    HW227201   4.571   0.845   5.166 -0.3072 -0.7147 -0.8453
 5248SOL     OW27202   0.383   2.307   3.462 -0.1539 -0.3352 -0.3791
 5248SOL    HW127203   0.400   2.244   3.532  2.6291  0.5398 -0.2686
 5248SOL    HW227204   0.366   2.253   3.385  1.6095 -1.9885  0.3809
 5249SOL     OW27205   0.371   0.386   3.065  0.4245 -0.1125 -1.1010
 5249SOL    HW127206   0.373   0.475   3.031 -0.2920  0.6250  0.7691
 5249SOL    HW227207   0.325   0.407   3.147  1.3551 -0.0065 -0.5999
 5250SOL     OW27208   2.618   4.192  14.965  0.0145  0.0628 -0.2080
 5250SOL    HW127209   2.701   4.149  14.943 -0.4502 -1.1323  0.4037
 5250SOL    HW227210   2.608   4.184  15.060  1.4106 -1.5392 -0.2057
 5251SOL     OW27211   0.569   3.154   2.670 -0.7801 -0.1235  0.1293
 5251SOL    HW127212   0.606   3.215   2.607  0.1578 -1.0368 -0.2128
 5251SOL    HW227213   0.481   3.189   2.680 -1.4265 -1.8437  0.5727
 5252SOL     OW27214   3.140   1.599   5.274 -0.2647 -0.2380 -0.7494
 5252SOL    HW127215   3.099   1.678   5.309 -1.3382 -0.5497 -1.2949
 5252SOL    HW227216   3.158   1.622   5.183 -0.5167 -0.7407 -0.9318
 5253SOL     OW27217   4.423   3.758  15.199 -0.1629  0.3187  0.4445
 5253SOL    HW127218   4.344   3.806  15.223 -1.0651 -1.6538  1.4579
 5253SOL    HW227219   4.393   3.727  15.113 -1.2519  0.6608  0.6965
 5254SOL     OW27220   3.254   0.030   4.742 -0.1020 -0.3600  0.9566
 5254SOL    HW127221   3.337   0.054   4.782 -0.3480 -0.9213  1.7948
 5254SOL    HW227222   3.184   0.050   4.804 -0.2825  0.1756  0.5837
 5255SOL     OW27223   4.120   1.417   8.873 -0.5427  0.0041  0.2078
 5255SOL    HW127224   4.186   1.484   8.859  1.2133 -1.8437 -0.2417
 5255SOL    HW227225   4.087   1.435   8.961 -1.1745  1.0579 -0.2414
 5256SOL     OW27226   0.291   2.318   1.987 -0.4091 -0.2365 -0.1207
 5256SOL    HW127227   0.284   2.392   1.927 -0.9627  0.8866  1.3274
 5256SOL    HW227228   0.215   2.273   1.948 -0.4676 -0.5442  0.3529
 5257SOL     OW27229   1.502   2.133   2.013  0.1912 -0.3848 -0.1639
 5257SOL    HW127230   1.506   2.088   2.097  1.1078 -0.4165 -0.2225
 5257SOL    HW227231   1.584   2.112   1.969  1.5341  2.8661  0.7821
 5258SOL     OW27232   4.338   3.692   1.417  0.1054 -0.1700  0.6082
 5258SOL    HW127233   4.310   3.679   1.326 -3.2055 -1.0483  1.7511
 5258SOL    HW227234   4.257   3.732   1.449  0.2629  1.0065 -0.4571
 5259SOL     OW27235   4.581   4.346  14.152  0.2085  0.0370 -0.2032
 5259SOL    HW127236   4.498   4.370  14.110 -0.4785 -4.4168 -1.3568
 5259SOL    HW227237   4.644   4.333  14.081 -0.0004 -1.3061 -0.1394
 5260SOL     OW27238   4.383   2.302  15.343 -0.5869  0.2298  0.5907
 5260SOL    HW127239   4.417   2.248  15.414 -1.0101 -0.4463  0.2876
 5260SOL    HW227240   4.456   2.363  15.343 -1.1296  0.8960 -2.0024
 5261SOL     OW27241   0.195   4.680   3.278 -0.2811  0.1060 -0.4293
 5261SOL    HW127242   0.188   0.049   3.260 -0.6076  0.2031  0.2291
 5261SOL    HW227243   0.184   4.650   3.188 -0.4768 -1.0143 -0.0274
 5262SOL     OW27244   0.479   4.122   2.531 -0.8255 -0.5593  0.4140
 5262SOL    HW127245   0.550   4.182   2.512 -1.5950  0.6626  1.4076
 5262SOL    HW227246   0.488   4.113   2.626 -1.6467 -3.8960  0.1761
 5263SOL     OW27247   4.199   4.280   4.999  0.2701 -1.0169 -0.3938
 5263SOL    HW127248   4.154   4.243   4.923  0.8673 -1.5065 -0.4997
 5263SOL    HW227249   4.158   4.231   5.070  0.5292 -0.3571  0.2145
 5264SOL     OW27250   3.175   1.872   8.804 -0.2215 -0.4252  0.4387
 5264SOL    HW127251   3.245   1.902   8.746  0.8995 -0.8191  1.5978
 5264SOL    HW227252   3.135   1.954   8.834 -2.3613 -1.1100 -0.5758
 5265SOL     OW27253   3.103   0.359   3.859 -0.3659 -0.5742 -0.1874
 5265SOL    HW127254   3.118   0.264   3.862  0.0140 -0.4873  0.6478
 5265SOL    HW227255   3.062   0.376   3.944  0.3823 -1.0486  0.2671
 5266SOL     OW27256   0.734   3.927  10.880 -0.7681 -0.1632  0.4719
 5266SOL    HW127257   0.750   4.014  10.916 -0.1453  0.4667 -1.3261
 5266SOL    HW227258   0.751   3.934  10.786 -0.3653  0.5968  0.6092
 5267SOL     OW27259   3.250   2.128   2.970 -0.1277 -0.3026  0.1736
 5267SOL    HW127260   3.227   2.220   2.953 -0.7493 -0.6691 -0.9637
 5267SOL    HW227261   3.273   2.088   2.887  1.0273  1.8607 -0.5418
 5268SOL     OW27262   0.033   4.395   0.087 -0.2147 -0.0870  0.4431
 5268SOL    HW127263   4.698   4.463   0.117 -0.7297 -0.6857  0.7669
 5268SOL    HW227264   0.069   4.446   0.015  0.8627 -0.2390  0.8748
 5269SOL     OW27265   3.123   0.160   3.310 -0.5002 -0.3205 -0.2341
 5269SOL    HW127266   3.074   0.145   3.391 -0.5249 -3.9801 -0.9251
 5269SOL    HW227267   3.152   0.250   3.326 -3.1017  0.2332  1.2918
 5270SOL     OW27268   2.108   2.640  16.213  0.2562 -0.7667 -0.6458
 5270SOL    HW127269   2.160   2.684  16.147  1.5625 -0.1400  0.8032
 5270SOL    HW227270   2.042   2.708  16.224  1.9031  0.8710 -0.9449
 5271SOL     OW27271   3.201   4.354   4.500 -0.5637  0.4157 -0.1707
 5271SOL    HW127272   3.199   4.434   4.552 -0.1736 -0.0821  0.6088
 5271SOL    HW227273   3.288   4.347   4.459  0.2672  0.7200  1.5261
 5272SOL     OW27274   2.605   4.250  12.302 -0.0429 -0.0199  0.4479
 5272SOL    HW127275   2.564   4.213  12.224  0.3756  0.2870  0.0808
 5272SOL    HW227276   2.681   4.191  12.302 -0.7354 -0.9176 -0.5645
 5273SOL     OW27277   2.108   2.606   4.731  0.0780 -0.2276  0.2163
 5273SOL    HW127278   2.041   2.628   4.667  1.0244 -1.5614 -1.2205
 5273SOL    HW227279   2.180   2.654   4.690 -0.2407  0.2885  0.2658
 5274SOL     OW27280   3.415   0.470   4.748  0.1582 -0.3333 -0.3028
 5274SOL    HW127281   3.349   0.412   4.711 -0.2802 -1.0453  1.5648
 5274SOL    HW227282   3.414   0.442   4.840 -0.0609  2.1080  0.4476
 5275SOL     OW27283   2.097   2.242   4.337  0.5171 -0.0908  0.5467
 5275SOL    HW127284   2.143   2.205   4.261 -0.0747  0.8244 -0.2437
 5275SOL    HW227285   2.138   2.200   4.413  2.4713  1.0175  0.1182
 5276SOL     OW27286   1.438   4.553   9.357 -0.0049 -0.0570  0.0773
 5276SOL    HW127287   1.384   4.592   9.425 -0.1986  0.3152 -0.2893
 5276SOL    HW227288   1.491   4.626   9.325  0.4817 -1.0861 -1.5074
 5277SOL     OW27289   2.431   2.251   1.498 -0.1636  0.0378 -0.7563
 5277SOL    HW127290   2.514   2.221   1.535  0.7042  0.9063 -1.9642
 5277SOL    HW227291   2.416   2.330   1.550 -1.5640 -1.2745  0.8161
 5278SOL     OW27292   2.943   1.045   2.252 -0.1812  0.3178  0.6107
 5278SOL    HW127293   2.956   0.992   2.173 -0.9222  1.6027 -0.3781
 5278SOL    HW227294   2.904   1.122   2.210  0.2685  1.5790  2.5498
 5279SOL     OW27295   3.702   4.043  12.069 -0.3305 -0.4393  0.2506
 5279SOL    HW127296   3.747   3.963  12.096 -0.9492 -1.1297 -0.7752
 5279SOL    HW227297   3.771   4.109  12.062  1.1105 -1.8483  1.2243
 5280SOL     OW27298   1.438   2.480   5.765  0.0884 -0.5378 -0.2840
 5280SOL    HW127299   1.417   2.430   5.844 -0.0898  1.0547  0.6633
 5280SOL    HW227300   1.531   2.497   5.781 -0.0810  0.6312 -0.5536
 5281SOL     OW27301   1.262   4.269   2.197  0.6004 -0.1895 -0.2216
 5281SOL    HW127302   1.321   4.334   2.159 -0.2427  1.1861  0.8332
 5281SOL    HW227303   1.316   4.234   2.268 -1.5175 -3.2083 -0.1249
 5282SOL     OW27304   0.813   2.673  11.533 -0.1075  0.5252  0.0958
 5282SOL    HW127305   0.723   2.698  11.555 -1.2691 -1.7610 -2.1107
 5282SOL    HW227306   0.798   2.649  11.442 -0.6832  2.6589 -0.3745
 5283SOL     OW27307   3.409   0.608   8.388  0.3737  0.3357 -0.0598
 5283SOL    HW127308   3.412   0.611   8.293 -0.3798 -2.0478 -0.1692
 5283SOL    HW227309   3.372   0.691   8.420 -0.0928 -0.1460  0.6719
 5284SOL     OW27310   2.872   3.038   2.165 -0.1464 -0.2685  0.4646
 5284SOL    HW127311   2.813   3.062   2.094  0.1792  0.6598  0.5154
 5284SOL    HW227312   2.882   2.946   2.140 -0.6381 -0.2933  0.3544
 5285SOL     OW27313   1.716   2.432   7.115  0.0812 -0.0469 -0.6303
 5285SOL    HW127314   1.806   2.407   7.136  0.0043 -1.3214 -1.8539
 5285SOL    HW227315   1.688   2.468   7.199  2.1185  1.6561 -0.6844
 5286SOL     OW27316   3.445   4.137  15.824  0.0034  0.4424 -0.1398
 5286SOL    HW127317   3.524   4.101  15.782 -1.0157 -1.7014 -0.2418
 5286SOL    HW227318   3.452   4.095  15.910  0.9255 -0.1157 -0.4770
 5287SOL     OW27319   4.351   4.117  12.477 -0.4442  0.6129 -0.6957
 5287SOL    HW127320   4.313   4.095  12.392  1.6775 -0.9056 -1.2420
 5287SOL    HW227321   4.391   4.034  12.502 -2.2078  0.1816  0.7098
 5288SOL     OW27322   0.776   0.607   4.869  0.3929  0.3230  0.1550
 5288SOL    HW127323   0.709   0.631   4.933  1.2256  2.3906  0.2426
 5288SOL    HW227324   0.835   0.563   4.930  0.1073  0.2268  0.3643
 5289SOL     OW27325   2.122   3.091   3.808 -0.1876 -0.2022  0.4556
 5289SOL    HW127326   2.053   3.152   3.784  0.9579  0.1081 -2.0643
 5289SOL    HW227327   2.162   3.140   3.880  0.7754  1.1219 -1.0013
 5290SOL     OW27328   1.020   4.467   5.276  0.4595 -0.5401  0.4816
 5290SOL    HW127329   1.106   4.472   5.317  0.8345  1.8327 -0.6018
 5290SOL    HW227330   1.000   4.558   5.255 -1.7140 -1.1690 -0.2326
 5291SOL     OW27331   4.300   1.825   4.530 -0.5516 -0.2851  0.0498
 5291SOL    HW127332   4.350   1.758   4.484 -0.1565  1.5657 -2.1679
 5291SOL    HW227333   4.261   1.786   4.608  0.2971 -0.5774  0.3256
 5292SOL     OW27334   0.060   3.136  12.339  0.6504  0.3819  0.1037
 5292SOL    HW127335   4.710   3.153  12.281  0.8785 -0.7175 -0.5174
 5292SOL    HW227336   0.106   3.218  12.319 -0.1570  1.2584  1.8481
 5293SOL     OW27337   3.858   3.146   5.295 -0.4495  0.2754 -0.7057
 5293SOL    HW127338   3.920   3.139   5.368 -1.5578 -1.2370  0.0871
 5293SOL    HW227339   3.786   3.197   5.332  0.2552 -0.0767  1.1515
 5294SOL     OW27340   1.089   2.856   0.807 -0.6494  0.0380  0.3121
 5294SOL    HW127341   1.117   2.770   0.836 -0.4649 -1.0541 -3.0825
 5294SOL    HW227342   1.045   2.894   0.883 -1.2877  0.3909 -0.2357
 5295SOL     OW27343   3.452   4.066   4.398 -0.6840 -0.2990 -0.4104
 5295SOL    HW127344   3.417   4.141   4.349 -1.5751 -0.2593  0.2893
 5295SOL    HW227345   3.430   4.086   4.489 -0.0264  0.2295 -0.3681
 5296SOL     OW27346   4.193   1.656  13.519  0.2031 -0.4005 -0.0090
 5296SOL    HW127347   4.283   1.677  13.494 -0.7408  1.4166 -1.8473
 5296SOL    HW227348   4.196   1.560  13.520 -3.4982 -0.5101  1.7120
 5297SOL     OW27349   0.532   0.904   6.533  0.7428 -0.2088 -0.2056
 5297SOL    HW127350   0.567   0.894   6.445 -1.2840  0.2920 -1.0745
 5297SOL    HW227351   0.617   0.919   6.574  0.9811  0.6945 -1.0255
 5298SOL     OW27352   1.258   2.249  17.105  0.1456  0.8107  0.0067
 5298SOL    HW127353   1.165   2.268  17.121 -0.3357 -0.8386 -0.8324
 5298SOL    HW227354   1.248   2.157  17.080 -0.3504  0.2305  2.3375
 5299SOL     OW27355   3.233   1.545   8.246 -0.4120 -0.5360 -0.1698
 5299SOL    HW127356   3.191   1.517   8.165 -0.9303 -0.8358  0.2072
 5299SOL    HW227357   3.324   1.536   8.216 -1.1870 -0.8189 -2.4269
 5300SOL     OW27358   0.671   4.677   6.730  0.2839 -0.0263 -0.6948
 5300SOL    HW127359   0.577   4.682   6.745 -0.0107  2.2765 -3.2848
 5300SOL    HW227360   0.701   4.636   6.811  0.2760  0.5314 -0.4090
 5301SOL     OW27361   3.942   3.552  15.889 -0.3196  0.0031  0.2161
 5301SOL    HW127362   3.980   3.546  15.977 -0.5537  1.3055  0.4034
 5301SOL    HW227363   4.020   3.523  15.843 -1.2899 -2.8532  0.3806
 5302SOL     OW27364   0.621   1.078   6.778 -0.2141 -0.3982  0.3002
 5302SOL    HW127365   0.705   1.056   6.737  0.3399  1.3210  0.5041
 5302SOL    HW227366   0.621   1.173   6.762 -0.3512 -0.7868 -1.9840
 5303SOL     OW27367   4.628   3.302  13.187  0.4851  0.6399 -0.1347
 5303SOL    HW127368   4.621   3.244  13.263 -0.3358  1.1515  0.1803
 5303SOL    HW227369   4.720   3.325  13.195  1.2143 -2.0853 -0.5820
 5304SOL     OW27370   4.204   1.239  14.166  0.1602  0.0248 -0.3716
 5304SOL    HW127371   4.200   1.176  14.095  1.7277  1.2752 -1.5771
 5304SOL    HW227372   4.295   1.266  14.172 -0.0999  0.4015  2.1692
 5305SOL     OW27373   1.084   0.485   5.661  0.0849 -1.0299 -0.0672
 5305SOL    HW127374   1.014   0.461   5.723 -1.1908  1.6177 -0.4866
 5305SOL    HW227375   1.080   0.415   5.595  0.1620 -2.0043  0.9579
 5306SOL     OW27376   2.469   3.727   4.160  0.9742  0.1772 -0.4457
 5306SOL    HW127377   2.425   3.808   4.132 -0.6489 -0.0892  1.3079
 5306SOL    HW227378   2.496   3.695   4.074  2.1695 -1.5151  0.5658
 5307SOL     OW27379   0.044   4.066   6.613  0.5077 -0.3812 -0.1316
 5307SOL    HW127380   0.110   4.013   6.570 -0.3712 -3.4566  2.2692
 5307SOL    HW227381   0.084   4.089   6.697  1.4200 -0.3949 -0.5706
 5308SOL     OW27382   1.984   0.084   9.443  0.5304 -0.6756  0.2575
 5308SOL    HW127383   2.023   0.162   9.404 -0.5885  0.2176  0.9473
 5308SOL    HW227384   2.051   0.016   9.429  1.0632  0.3212 -2.0413
 5309SOL     OW27385   3.072   2.951   6.640 -0.1440  0.4332  0.0460
 5309SOL    HW127386   3.085   3.001   6.721  0.8471 -2.2563  1.5494
 5309SOL    HW227387   2.981   2.967   6.615  0.0857  0.2000 -0.9249
 5310SOL     OW27388   2.128   3.648   6.611 -0.1343 -0.8949  0.5701
 5310SOL    HW127389   2.202   3.620   6.557  0.2158  1.2604 -0.0504
 5310SOL    HW227390   2.055   3.600   6.571 -0.7056 -0.8288  1.5115
 5311SOL     OW27391   0.526   3.947   3.244 -0.2945 -0.3780 -0.0090
 5311SOL    HW127392   0.558   3.912   3.327 -1.1424 -4.1412 -1.2883
 5311SOL    HW227393   0.438   3.979   3.264 -0.6141 -0.8294 -0.7225
 5312SOL     OW27394   0.243   0.109   8.529  0.1452  0.0682 -0.0934
 5312SOL    HW127395   0.273   0.131   8.617 -0.9470 -0.7487  0.4961
 5312SOL    HW227396   0.162   0.159   8.522 -0.4034 -1.1336 -2.4675
 5313SOL     OW27397   0.504   3.800  12.895 -0.2464 -0.2488  0.0238
 5313SOL    HW127398   0.471   3.710  12.889  0.0823 -0.3701  0.0552
 5313SOL    HW227399   0.581   3.793  12.839  0.3544 -2.1076  1.0904
 5314SOL     OW27400   3.073   2.013  10.545  0.3547 -0.3690 -0.2126
 5314SOL    HW127401   3.043   2.092  10.590  1.5255  0.5201 -0.9989
 5314SOL    HW227402   3.019   2.018  10.466  0.5393  0.0890 -0.3079
 5315SOL     OW27403   4.380   4.210  13.915  0.3195 -0.4546 -0.3546
 5315SOL    HW127404   4.462   4.202  13.865  0.3169  0.7327 -0.5583
 5315SOL    HW227405   4.350   4.120  13.906  1.0678 -0.8168  0.7643
 5316SOL     OW27406   4.317   2.261   9.207  0.1839 -0.1401  0.6995
 5316SOL    HW127407   4.313   2.356   9.195  2.1628 -0.2144 -0.5856
 5316SOL    HW227408   4.344   2.242   9.297  0.9763 -0.1830  0.4494
 5317SOL     OW27409   4.510   3.232   8.419 -0.8229 -0.5158 -0.0368
 5317SOL    HW127410   4.540   3.142   8.414 -0.1131 -0.2941  0.2255
 5317SOL    HW227411   4.593   3.279   8.427 -0.6022 -1.0797  1.0739
 5318SOL     OW27412   1.152   2.457   5.879 -0.2086 -0.7110 -0.0851
 5318SOL    HW127413   1.140   2.388   5.944  1.1296 -0.7594  0.1021
 5318SOL    HW227414   1.115   2.401   5.810 -2.3527  1.2750 -0.5685
 5319SOL     OW27415   2.750   0.305  10.686 -0.1189  0.1976 -0.5726
 5319SOL    HW127416   2.774   0.213  10.670  0.3917  0.3493 -0.6832
 5319SOL    HW227417   2.784   0.332  10.600 -0.9634 -1.3357 -1.3979
 5320SOL     OW27418   3.311   0.257   4.208  0.0112 -0.5050  0.4263
 5320SOL    HW127419   3.281   0.283   4.295  0.7505  0.6510  0.3376
 5320SOL    HW227420   3.226   0.261   4.164  0.1842 -1.0533  0.0396
 5321SOL     OW27421   1.635   4.703   2.698  0.7462  0.4560  0.8495
 5321SOL    HW127422   1.599   4.715   2.787  0.6841 -1.1610  1.0453
 5321SOL    HW227423   1.610   4.612   2.682  0.7583  0.3844  1.2401
 5322SOL     OW27424   1.956   0.576  11.430 -0.3683 -0.3095 -0.2803
 5322SOL    HW127425   1.920   0.569  11.518 -0.5427  0.2052 -0.3175
 5322SOL    HW227426   1.896   0.520  11.380 -0.3297  0.4252 -1.1497
 5323SOL     OW27427   2.132   3.521   3.591  0.0548 -0.3699 -0.1397
 5323SOL    HW127428   2.214   3.473   3.589  0.2489 -0.0050 -0.8302
 5323SOL    HW227429   2.151   3.594   3.532  1.4142  0.0882  0.8660
 5324SOL     OW27430   0.681   3.950   6.705  0.5019 -0.1943  0.9697
 5324SOL    HW127431   0.629   3.996   6.771 -2.1697 -0.9104 -0.6273
 5324SOL    HW227432   0.646   3.864   6.723 -1.8026  0.9632  1.9677
 5325SOL     OW27433   1.972   4.396   6.383  0.0802  0.1985  0.3753
 5325SOL    HW127434   2.006   4.380   6.296  1.7933  0.5729  0.9791
 5325SOL    HW227435   1.926   4.315   6.402 -0.1939  0.1665 -0.4145
 5326SOL     OW27436   3.817   0.701  14.511 -0.1399  0.0840  0.1176
 5326SOL    HW127437   3.818   0.754  14.431  2.0105  1.0788  0.7944
 5326SOL    HW227438   3.846   0.764  14.577 -0.3160  0.7180 -0.3995
 5327SOL     OW27439   1.826   3.939  10.919  0.2621  0.3446 -0.0687
 5327SOL    HW127440   1.778   4.018  10.942 -0.7238 -1.3208  3.6104
 5327SOL    HW227441   1.883   3.918  10.994  1.0951  1.1922 -0.4625
 5328SOL     OW27442   2.766   3.487  13.189  0.0959 -1.0244  0.3502
 5328SOL    HW127443   2.785   3.434  13.112 -3.6427 -0.0751 -1.2195
 5328SOL    HW227444   2.832   3.456  13.251 -0.0955 -0.5855  0.7710
 5329SOL     OW27445   3.792   1.630  14.293 -0.1600  0.0142  0.1569
 5329SOL    HW127446   3.739   1.661  14.367  0.4991 -2.4534  1.6644
 5329SOL    HW227447   3.738   1.557  14.265  0.1459  0.5053 -1.7159
 5330SOL     OW27448   2.951   3.364   6.562  0.2472  0.3705  0.2876
 5330SOL    HW127449   2.888   3.429   6.531  1.2660  0.9697 -0.4988
 5330SOL    HW227450   3.021   3.409   6.608 -0.2132  0.7322  0.6273
 5331SOL     OW27451   4.438   3.550   8.384 -0.3734  0.1735 -0.3867
 5331SOL    HW127452   4.463   3.496   8.459  0.2165  0.2155 -0.5533
 5331SOL    HW227453   4.520   3.599   8.377 -0.8269  0.7798 -1.5350
 5332SOL     OW27454   2.296   1.160   3.020 -0.9554 -0.3071 -0.3491
 5332SOL    HW127455   2.365   1.224   3.039 -0.3207 -1.1751  0.3101
 5332SOL    HW227456   2.264   1.200   2.939  0.0945 -0.0562 -0.6403
 5333SOL     OW27457   3.723   0.045  13.882 -0.0491  0.4409 -0.3655
 5333SOL    HW127458   3.773   0.061  13.802  0.0719  0.8907 -0.1987
 5333SOL    HW227459   3.785   0.089  13.939  1.2797 -1.8718 -0.0417
 5334SOL     OW27460   1.301   1.012   6.782 -0.4123  0.3496  0.2203
 5334SOL    HW127461   1.357   0.947   6.740 -1.6127 -1.0744  0.7962
 5334SOL    HW227462   1.216   0.982   6.750 -0.4947  2.1806 -1.2535
 5335SOL     OW27463   1.920   0.177   9.157 -0.0955 -0.9365 -0.1155
 5335SOL    HW127464   1.955   0.092   9.185  1.7839  0.0202  0.4161
 5335SOL    HW227465   1.921   0.234   9.234  1.7877  0.5121 -1.1968
 5336SOL     OW27466   2.407   2.440   2.887 -0.0045 -0.2227  0.2342
 5336SOL    HW127467   2.409   2.388   2.968 -1.2169 -0.5310  0.0719
 5336SOL    HW227468   2.382   2.525   2.924 -3.4414 -0.1818 -2.1745
 5337SOL     OW27469   3.122   3.233  11.547  0.1583  0.5489 -0.8600
 5337SOL    HW127470   3.208   3.223  11.507  0.7033  1.3414  0.1164
 5337SOL    HW227471   3.117   3.148  11.589  1.2313  0.5981 -0.6254
 5338SOL     OW27472   3.086   4.506   3.683  0.0709  0.7427 -0.0422
 5338SOL    HW127473   3.015   4.519   3.746  1.0245  0.4701  1.0921
 5338SOL    HW227474   3.150   4.466   3.742 -1.2653  1.3872  1.8452
 5339SOL     OW27475   3.769   2.994  11.298 -0.5056  0.7478 -0.8027
 5339SOL    HW127476   3.790   2.901  11.303  1.7775  1.3187  0.3477
 5339SOL    HW227477   3.827   3.014  11.224  0.0896  1.7932 -0.0637
 5340SOL     OW27478   3.100   1.057   5.847 -0.0826  0.2217  0.1952
 5340SOL    HW127479   3.108   1.105   5.764  1.1289 -2.3638 -1.1823
 5340SOL    HW227480   3.183   1.013   5.865 -0.9350 -0.7362  1.7985
 5341SOL     OW27481   4.294   2.894  13.729 -0.2293 -0.2085  0.7838
 5341SOL    HW127482   4.290   2.972  13.784  4.1887  1.0130 -0.6592
 5341SOL    HW227483   4.283   2.832  13.801  1.1688 -0.3047  0.9102
 5342SOL     OW27484   0.409   2.091   9.346  0.4773 -0.1243 -0.1172
 5342SOL    HW127485   0.383   2.151   9.416  2.1947 -1.8826  2.0361
 5342SOL    HW227486   0.418   2.157   9.277 -0.8934 -1.2292 -1.3679
 5343SOL     OW27487   1.859   0.028   4.931 -0.0174 -0.5256 -0.1124
 5343SOL    HW127488   1.808   4.673   4.920  0.4440 -0.6426 -1.3269
 5343SOL    HW227489   1.789   0.091   4.922  0.4840  0.3505  1.9576
 5344SOL     OW27490   1.398   4.129  16.620 -0.0805 -0.2853  0.5431
 5344SOL    HW127491   1.375   4.221  16.624  0.0255 -0.3474  2.5962
 5344SOL    HW227492   1.494   4.136  16.619 -0.0667 -0.3339  1.2290
 5345SOL     OW27493   3.549   2.450  10.333  0.2926 -0.2075  0.3878
 5345SOL    HW127494   3.539   2.426  10.425  1.1151 -0.3031  0.4523
 5345SOL    HW227495   3.629   2.402  10.311  1.0862  2.5103 -2.6024
 5346SOL     OW27496   0.847   0.955  16.718  0.5754  0.0564  0.0884
 5346SOL    HW127497   0.804   0.989  16.797 -0.6663 -0.4511 -0.3589
 5346SOL    HW227498   0.926   0.919  16.758 -0.2016  0.9623  2.4050
 5347SOL     OW27499   3.586   3.482   1.488 -0.1250  0.1879 -0.4650
 5347SOL    HW127500   3.614   3.573   1.499  0.8579 -0.1788  0.0697
 5347SOL    HW227501   3.590   3.453   1.579 -1.6851  0.0936 -0.4303
 5348SOL     OW27502   3.036   2.293   3.449  0.4498  0.4804 -0.4385
 5348SOL    HW127503   3.003   2.372   3.406  0.3377  1.8458  2.1682
 5348SOL    HW227504   3.113   2.277   3.395 -0.1618 -3.4305 -0.1763
 5349SOL     OW27505   4.474   3.354   4.863 -0.3052  0.1431  0.1450
 5349SOL    HW127506   4.559   3.315   4.882 -0.5116 -0.5230 -0.2911
 5349SOL    HW227507   4.445   3.313   4.782  1.8188 -0.9383 -0.0538
 5350SOL     OW27508   0.338   2.428  12.292 -0.1384 -0.4168  0.1804
 5350SOL    HW127509   0.314   2.385  12.210 -0.4799  2.0339 -1.0039
 5350SOL    HW227510   0.281   2.505  12.296  1.2807  0.5415  2.0376
 5351SOL     OW27511   3.436   1.186  11.883 -0.3780  0.4418 -0.0656
 5351SOL    HW127512   3.416   1.262  11.938  1.1000  0.8016 -0.0169
 5351SOL    HW227513   3.529   1.205  11.877  0.0171 -1.4030  0.2654
 5352SOL     OW27514   0.329   0.137   7.153 -0.1199 -0.9438 -0.1787
 5352SOL    HW127515   0.323   0.048   7.189 -0.4248 -0.2767  1.4121
 5352SOL    HW227516   0.425   0.141   7.156 -0.2040  1.9752 -1.3950
 5353SOL     OW27517   2.464   4.181  11.998 -0.1494  0.2103 -0.0892
 5353SOL    HW127518   2.454   4.267  11.957 -0.4106 -0.1617 -0.8065
 5353SOL    HW227519   2.451   4.123  11.923  1.6809 -0.8125  0.3906
 5354SOL     OW27520   4.653   1.728  16.609  0.2018  0.3800  0.4587
 5354SOL    HW127521   4.683   1.641  16.583 -0.8704  0.9267 -2.5846
 5354SOL    HW227522   4.633   1.763  16.522  1.5244 -1.1526 -0.4684
 5355SOL     OW27523   0.224   2.601   6.417  0.4476  0.1423  0.0726
 5355SOL    HW127524   0.179   2.611   6.500  0.9214 -0.9715  0.4628
 5355SOL    HW227525   0.234   2.693   6.392  1.9595 -0.0165  0.0770
 5356SOL     OW27526   3.323   0.081   7.504 -0.1488  0.5513  0.1961
 5356SOL    HW127527   3.300   0.164   7.462 -0.1333 -0.8769 -2.6485
 5356SOL    HW227528   3.350   0.038   7.423  3.1334  1.4018  0.8449
 5357SOL     OW27529   1.143   0.501   6.633 -0.2804 -0.1179  0.2603
 5357SOL    HW127530   1.118   0.414   6.601  3.1507 -0.6711 -0.9525
 5357SOL    HW227531   1.228   0.505   6.589 -0.2536  1.2805  0.4329
 5358SOL     OW27532   3.361   1.113   2.359 -0.3494  0.2621 -0.2791
 5358SOL    HW127533   3.335   1.111   2.267  2.0341 -0.2728 -0.9544
 5358SOL    HW227534   3.456   1.125   2.354 -0.5594  2.5468  1.0479
 5359SOL     OW27535   1.450   3.306  14.405 -0.2391 -0.0361 -0.2315
 5359SOL    HW127536   1.430   3.286  14.313  0.8616  2.7057 -1.0419
 5359SOL    HW227537   1.473   3.398  14.395 -2.3444  0.6450  1.2983
 5360SOL     OW27538   3.104   1.543   3.302  0.0251  0.0339  0.3732
 5360SOL    HW127539   3.121   1.453   3.331  3.4860  1.7258  3.5938
 5360SOL    HW227540   3.030   1.528   3.244  0.1180 -0.8077  0.4710
 5361SOL     OW27541   4.683   2.256   7.239 -0.1229 -0.3212  0.7066
 5361SOL    HW127542   4.645   2.200   7.306 -0.8435 -0.7234 -0.0396
 5361SOL    HW227543   4.669   2.346   7.268  0.1810  0.2686 -0.9589
 5362SOL     OW27544   0.216   4.121   0.740  0.3939  0.7826  0.2882
 5362SOL    HW127545   0.137   4.152   0.696  1.5107  1.3543 -1.3102
 5362SOL    HW227546   0.175   4.091   0.821  1.9518 -1.7947  0.1446
 5363SOL     OW27547   0.358   0.230   2.833  0.5841  0.3694 -0.1604
 5363SOL    HW127548   0.359   0.294   2.904 -1.9784  1.4620 -1.1113
 5363SOL    HW227549   0.276   0.239   2.784 -0.5769 -0.9146  1.5388
 5364SOL     OW27550   1.391   3.121  10.310  0.2353  0.5022 -0.0332
 5364SOL    HW127551   1.460   3.055  10.313 -1.0808 -0.8273  0.8650
 5364SOL    HW227552   1.421   3.165  10.231  0.4974 -0.6736 -0.5868
 5365SOL     OW27553   4.688   1.230   7.311 -0.3384 -0.3298 -0.0939
 5365SOL    HW127554   0.000   1.313   7.278 -0.9596 -1.2396 -3.1130
 5365SOL    HW227555   0.001   1.220   7.398 -2.0627 -0.1306  0.6750
 5366SOL     OW27556   2.671   3.658   8.514  0.7129 -0.2074  0.4337
 5366SOL    HW127557   2.765   3.645   8.509  0.7320 -0.5584  1.7131
 5366SOL    HW227558   2.656   3.573   8.554  0.7695 -0.3767  0.0890
 5367SOL     OW27559   0.178   0.104  13.470  0.5154 -0.3410 -0.1306
 5367SOL    HW127560   0.165   0.114  13.564 -0.6247 -0.1290 -0.3146
 5367SOL    HW227561   0.088   0.117  13.439  0.2297  0.7367  1.1848
 5368SOL     OW27562   2.799   4.244   3.973  0.6867  0.7637  0.2435
 5368SOL    HW127563   2.726   4.241   3.911  0.3744 -0.7609  0.6926
 5368SOL    HW227564   2.762   4.300   4.041  2.5386 -0.3528  2.1433
 5369SOL     OW27565   2.998   3.713  10.246  0.2190 -0.5917 -0.0392
 5369SOL    HW127566   2.904   3.730  10.238 -0.2429 -3.3670 -0.5748
 5369SOL    HW227567   3.018   3.806  10.261  0.2612 -0.5907 -0.1000
 5370SOL     OW27568   2.534   2.706   9.771  0.1913  0.2025  0.1904
 5370SOL    HW127569   2.485   2.630   9.740 -1.1635 -0.0330  2.9402
 5370SOL    HW227570   2.491   2.731   9.853  0.7269  0.3225  0.4362
 5371SOL     OW27571   1.160   3.064   3.998  0.1248  0.3542 -0.5851
 5371SOL    HW127572   1.242   3.057   4.047 -0.6701 -1.2908  0.5038
 5371SOL    HW227573   1.132   2.975   3.978 -1.1700  0.3116  1.3481
 5372SOL     OW27574   1.558   3.432   5.074 -0.1806  0.1395 -0.3895
 5372SOL    HW127575   1.592   3.520   5.059 -3.3112  1.9160  3.2147
 5372SOL    HW227576   1.629   3.379   5.036 -0.8715 -2.3927  1.8774
 5373SOL     OW27577   3.514   1.493   8.214  0.3049 -0.3807  0.5012
 5373SOL    HW127578   3.576   1.550   8.259  0.5370 -2.6108  3.0341
 5373SOL    HW227579   3.550   1.485   8.126  1.1266 -0.0408  0.8112
 5374SOL     OW27580   1.389   0.222   2.343 -0.3142 -0.1632  0.2133
 5374SOL    HW127581   1.444   0.208   2.421 -0.5565 -2.1330  0.0438
 5374SOL    HW227582   1.431   0.304   2.318 -0.5644 -0.7037 -1.9845
 5375SOL     OW27583   3.052   4.635   9.185  0.5779  0.6680 -1.0652
 5375SOL    HW127584   3.028   4.544   9.168  0.0515  0.4913  0.5588
 5375SOL    HW227585   3.124   4.617   9.245  0.1570 -0.3953 -0.8700
 5376SOL     OW27586   1.381   3.243   4.445  0.0218 -0.1471 -0.5963
 5376SOL    HW127587   1.438   3.182   4.491  1.7236  0.6184 -1.6965
 5376SOL    HW227588   1.308   3.249   4.506  0.1287  2.1573 -0.6759
 5377SOL     OW27589   1.261   0.095   0.837 -0.2937  0.0962 -0.2415
 5377SOL    HW127590   1.179   0.077   0.885 -0.5191 -2.2369 -1.4855
 5377SOL    HW227591   1.314   0.016   0.847  2.1897  1.7069 -0.7029
 5378SOL     OW27592   2.054   3.444   3.840 -0.2181 -0.1030 -0.1090
 5378SOL    HW127593   2.144   3.425   3.867  0.0549  2.6636  0.9995
 5378SOL    HW227594   2.055   3.485   3.754 -0.3741  2.7366  1.2411
 5379SOL     OW27595   0.546   4.323   7.106 -0.0458 -0.6527  0.3578
 5379SOL    HW127596   0.534   4.313   7.200  2.3852 -1.9364  0.5327
 5379SOL    HW227597   0.631   4.367   7.103  0.2881 -1.2874  0.6002
 5380SOL     OW27598   4.680   0.268   3.020  0.2099  0.5535 -0.6424
 5380SOL    HW127599   4.634   0.194   3.059 -1.7418  0.3997 -3.3119
 5380SOL    HW227600   4.620   0.294   2.951  0.5009  1.7620 -0.4501
 5381SOL     OW27601   0.682   2.730  14.009  0.6212  0.0831  0.5838
 5381SOL    HW127602   0.672   2.680  14.091  0.1840 -0.8177 -0.0195
 5381SOL    HW227603   0.613   2.796  14.015 -2.0276 -2.6290 -0.0481
 5382SOL     OW27604   4.626   0.050  15.995 -0.3254  0.0439 -0.7625
 5382SOL    HW127605   4.544   0.002  15.982 -0.6816  1.0722 -2.2266
 5382SOL    HW227606   4.588   0.120  16.048  1.1733  0.8169 -0.7184
 5383SOL     OW27607   4.122   4.011  10.405  0.0884  0.0993 -0.6405
 5383SOL    HW127608   4.160   4.044  10.323 -0.1851  0.5430 -0.5867
 5383SOL    HW227609   4.189   4.053  10.458  0.7155 -0.2196 -1.1727
 5384SOL     OW27610   2.200   3.832   6.042  0.1570 -0.3599  0.6709
 5384SOL    HW127611   2.241   3.751   6.070  0.4235  0.1765  1.8138
 5384SOL    HW227612   2.114   3.819   6.082 -0.3101  0.4642 -0.0759
 5385SOL     OW27613   1.960   0.141   4.429  0.6355  0.0532 -0.6724
 5385SOL    HW127614   1.944   0.236   4.422 -1.7132 -0.3383 -0.5745
 5385SOL    HW227615   2.005   0.119   4.510  0.0429  0.0236 -0.3518
 5386SOL     OW27616   3.902   0.479   7.771  0.7557  0.1152 -0.3526
 5386SOL    HW127617   3.906   0.560   7.721  0.1873 -0.6478 -1.6322
 5386SOL    HW227618   3.982   0.430   7.748 -0.0595 -1.4444  0.1257
 5387SOL     OW27619   0.300   3.796   8.716 -0.2868  0.7323 -0.0376
 5387SOL    HW127620   0.210   3.773   8.692 -1.2923  4.3053  0.3879
 5387SOL    HW227621   0.317   3.849   8.639  0.3468  0.5399 -0.0298
 5388SOL     OW27622   3.101   2.836   2.322 -0.2355  0.0413  0.5134
 5388SOL    HW127623   3.031   2.862   2.381 -1.0090  1.6458 -1.1120
 5388SOL    HW227624   3.130   2.924   2.296 -0.8920  0.1910  0.2847
 5389SOL     OW27625   3.688   2.048  10.820 -0.0392  0.4007 -0.0592
 5389SOL    HW127626   3.670   2.104  10.896  0.0826  0.7062 -0.2579
 5389SOL    HW227627   3.597   2.020  10.806  0.1141  1.3989 -2.8509
 5390SOL     OW27628   3.820   0.017   0.642 -1.0761 -0.2443 -0.1395
 5390SOL    HW127629   3.763   0.052   0.711 -1.3107 -0.3748 -0.2659
 5390SOL    HW227630   3.871   0.094   0.617  4.7412 -4.1573 -0.3330
 5391SOL     OW27631   0.420   3.083   9.109  0.4437 -0.0474  0.1901
 5391SOL    HW127632   0.481   3.080   9.182 -0.1089 -4.8127  0.4845
 5391SOL    HW227633   0.336   3.078   9.155  0.2432 -1.8221 -0.3704
 5392SOL     OW27634   3.437   2.209  16.373  0.3979 -0.5460 -0.4707
 5392SOL    HW127635   3.482   2.293  16.374 -3.5841  1.6184  0.2199
 5392SOL    HW227636   3.479   2.174  16.295  2.1508 -0.7225  0.5547
 5393SOL     OW27637   4.639   2.230  16.545 -0.6791 -0.6668  0.0259
 5393SOL    HW127638   4.672   2.209  16.457 -2.5082  2.3059 -1.3875
 5393SOL    HW227639   4.546   2.246  16.531 -0.8087 -1.0109  0.5006
 5394SOL     OW27640   3.704   3.624   4.478  0.1571  0.6221  0.1418
 5394SOL    HW127641   3.708   3.530   4.461  1.9420  0.9369 -1.1316
 5394SOL    HW227642   3.657   3.649   4.399  2.2169 -0.2204 -1.3455
 5395SOL     OW27643   3.107   2.759   2.967 -0.2630  0.0189 -0.5406
 5395SOL    HW127644   3.148   2.752   2.881 -0.2246 -3.8165 -0.1937
 5395SOL    HW227645   3.070   2.847   2.958  1.5281  0.9332  1.1170
 5396SOL     OW27646   0.149   2.393  11.019  0.0629  0.1075 -0.4304
 5396SOL    HW127647   0.216   2.348  11.070 -0.6477 -2.5810 -1.8814
 5396SOL    HW227648   0.086   2.323  11.000 -0.2786  0.3261 -0.1033
 5397SOL     OW27649   2.593   3.342   6.397 -0.1809 -0.7178 -0.3634
 5397SOL    HW127650   2.592   3.297   6.482  2.5522  0.8216  0.5156
 5397SOL    HW227651   2.579   3.433   6.426 -1.0196 -0.8548 -0.3550
 5398SOL     OW27652   4.223   3.053   5.337  0.0015 -0.6103  0.3258
 5398SOL    HW127653   4.319   3.045   5.342 -0.1106 -0.6925  2.6058
 5398SOL    HW227654   4.193   2.976   5.289  0.6967 -0.7383  0.0861
 5399SOL     OW27655   1.172   4.403   1.244  0.0456 -0.4935 -0.2140
 5399SOL    HW127656   1.200   4.492   1.223 -1.9516  0.2499  0.2536
 5399SOL    HW227657   1.251   4.368   1.285  0.3244  0.6133  0.2064
 5400SOL     OW27658   0.924   1.065   5.535 -0.5854  0.7119  0.1542
 5400SOL    HW127659   0.877   0.986   5.509  0.2174 -0.1594  1.3566
 5400SOL    HW227660   0.957   1.091   5.449 -1.1894 -1.3439 -0.7026
 5401SOL     OW27661   2.911   3.715   7.542 -0.4608  0.6247  0.2137
 5401SOL    HW127662   2.896   3.702   7.448  0.6539  0.5760  0.0349
 5401SOL    HW227663   2.932   3.808   7.533 -2.7316  1.3664  2.5988
 5402SOL     OW27664   3.073   3.903   1.795 -0.2816  0.2281 -0.6701
 5402SOL    HW127665   2.988   3.914   1.836  0.5977  1.9957  0.6891
 5402SOL    HW227666   3.105   3.817   1.821  2.3064  1.6688  0.9577
 5403SOL     OW27667   0.038   2.778  11.572 -0.2076 -0.1596  0.0737
 5403SOL    HW127668   0.129   2.767  11.601 -0.6886 -0.4536  1.4646
 5403SOL    HW227669   4.712   2.781  11.653 -1.7954  0.6178 -0.9614
 5404SOL     OW27670   2.474   4.089   1.699  0.6105  0.2332  0.0528
 5404SOL    HW127671   2.542   4.037   1.655  1.7894  0.6851  1.3384
 5404SOL    HW227672   2.392   4.053   1.665  0.0658  1.1251  0.4406
 5405SOL     OW27673   3.318   1.621   6.689  0.2422  0.6336  0.4599
 5405SOL    HW127674   3.285   1.616   6.599  0.2748 -0.1752  0.4917
 5405SOL    HW227675   3.399   1.571   6.681 -1.2954 -2.0287  1.3106
 5406SOL     OW27676   0.892   0.097  17.166 -0.2022 -0.1046  0.1524
 5406SOL    HW127677   0.817   0.111  17.108  1.5151  2.8643 -1.3578
 5406SOL    HW227678   0.938   0.026  17.121 -0.8045  0.6879 -1.7051
 5407SOL     OW27679   0.177   4.287  17.441  0.2650  0.3508  0.2082
 5407SOL    HW127680   0.124   4.366  17.451  1.9040  1.1960  2.1230
 5407SOL    HW227681   0.253   4.314  17.389  0.6093 -1.4152 -0.1854
 5408SOL     OW27682   4.087   4.457   7.650 -0.2114  0.1599  0.0860
 5408SOL    HW127683   3.994   4.463   7.671 -0.0395 -2.2928  1.5613
 5408SOL    HW227684   4.107   4.379   7.702  2.0470 -0.3664 -1.5930
 5409SOL     OW27685   2.091   0.113   3.844  0.3594  0.1848  0.8827
 5409SOL    HW127686   2.054   0.154   3.922  0.2919  0.5541  0.6574
 5409SOL    HW227687   2.051   0.167   3.776 -2.0018 -0.2193  1.9418
 5410SOL     OW27688   2.671   1.645   2.860  0.0071  0.0523 -0.0710
 5410SOL    HW127689   2.621   1.703   2.917 -1.3745 -1.7503  0.5710
 5410SOL    HW227690   2.741   1.627   2.923  0.4180 -1.1932 -0.8849
 5411SOL     OW27691   2.783   3.658   8.045  0.1123  0.8722  0.2003
 5411SOL    HW127692   2.844   3.603   8.094 -0.4821  0.0729  0.0550
 5411SOL    HW227693   2.817   3.650   7.956 -0.3449 -0.0486  0.1062
 5412SOL     OW27694   2.367   0.683   5.988  0.0886  0.1279  0.0472
 5412SOL    HW127695   2.280   0.702   5.953 -0.1558 -1.4555 -0.2119
 5412SOL    HW227696   2.362   0.747   6.059 -1.4937  0.1049 -0.0285
 5413SOL     OW27697   0.381   0.689   7.047 -0.8551  0.0463  0.4684
 5413SOL    HW127698   0.454   0.682   6.985  1.9055  0.6927  3.6395
 5413SOL    HW227699   0.305   0.671   6.991 -0.7739  0.2231  0.3020
 5414SOL     OW27700   3.899   4.396   8.277  0.8916  0.0765  0.1943
 5414SOL    HW127701   3.865   4.475   8.318  0.6011 -0.3661  0.8108
 5414SOL    HW227702   3.810   4.364   8.264  0.7180 -0.5441  2.9543
 5415SOL     OW27703   2.098   4.092   7.894 -0.4814 -0.5330 -0.2072
 5415SOL    HW127704   2.074   4.122   7.981  0.0340 -1.5160  0.2744
 5415SOL    HW227705   2.132   4.008   7.926 -1.1125 -1.3436 -1.6638
 5416SOL     OW27706   2.039   4.158  12.456  0.6868  0.4966 -0.3659
 5416SOL    HW127707   2.038   4.094  12.528 -1.5627 -0.5177 -1.2875
 5416SOL    HW227708   2.130   4.156  12.428  1.0520 -1.4790  0.9328
 5417SOL     OW27709   3.309   1.223   5.433  0.2550 -0.1586  0.9774
 5417SOL    HW127710   3.377   1.172   5.478  1.6940  1.7744  0.9732
 5417SOL    HW227711   3.249   1.153   5.407  2.2038 -1.9924  1.3844
 5418SOL     OW27712   1.041   1.251   9.682  0.4090  0.1845  0.0987
 5418SOL    HW127713   1.104   1.318   9.707  3.5885 -1.0338 -4.7226
 5418SOL    HW227714   1.036   1.263   9.587  0.7867  0.1022  0.0697
 5419SOL     OW27715   3.469   2.558   0.396  0.7572 -0.3632 -0.5262
 5419SOL    HW127716   3.427   2.567   0.310 -1.4775  0.2882  0.6346
 5419SOL    HW227717   3.407   2.499   0.438 -0.2415  0.5134 -0.7811
 5420SOL     OW27718   2.984   1.248   3.517 -0.0694 -0.6328 -0.0697
 5420SOL    HW127719   2.901   1.236   3.471 -0.4629 -1.0065  0.7398
 5420SOL    HW227720   3.044   1.253   3.443 -0.8085 -2.2775 -0.7856
 5421SOL     OW27721   0.969   0.536   4.316  0.0614  0.3492 -0.0347
 5421SOL    HW127722   0.985   0.536   4.221  0.3789  1.1242  0.0136
 5421SOL    HW227723   1.024   0.607   4.349  0.0087 -0.1004  1.0004
 5422SOL     OW27724   3.040   1.249   8.725 -0.2705 -0.2796 -0.0226
 5422SOL    HW127725   3.031   1.291   8.810 -0.4981 -1.8487  0.7180
 5422SOL    HW227726   3.000   1.168   8.755  1.5271 -1.4491 -0.7975
 5423SOL     OW27727   0.322   1.956   2.883 -0.1745 -0.3225 -0.4441
 5423SOL    HW127728   0.273   1.904   2.819 -2.4635  0.5031  0.6380
 5423SOL    HW227729   0.268   1.926   2.957  1.7697  0.0424  1.1068
 5424SOL     OW27730   4.193   4.572   0.737  0.8727  0.2324 -0.1823
 5424SOL    HW127731   4.138   4.517   0.682  1.7611  1.4028 -2.2449
 5424SOL    HW227732   4.270   4.518   0.756  0.9895  0.6153  0.4332
 5425SOL     OW27733   4.506   3.142  14.162 -0.3146  0.2115  0.3795
 5425SOL    HW127734   4.424   3.139  14.212 -1.3064  3.8462 -1.0277
 5425SOL    HW227735   4.489   3.072  14.098  0.1996 -0.3455  0.8490
 5426SOL     OW27736   1.506   3.133   5.408  0.3354  0.2325  0.2926
 5426SOL    HW127737   1.421   3.113   5.367  1.5964 -0.4784 -1.9621
 5426SOL    HW227738   1.495   3.227   5.397  2.4096  0.3586 -0.5382
 5427SOL     OW27739   1.774   4.389   9.059 -0.6976 -0.4074  0.4499
 5427SOL    HW127740   1.682   4.378   9.037 -0.9794  0.5101  1.1505
 5427SOL    HW227741   1.761   4.389   9.154 -1.6087  1.3297  0.3204
 5428SOL     OW27742   3.910   4.641   3.968 -0.1038  0.2093 -0.1323
 5428SOL    HW127743   3.832   4.690   3.992 -1.2742 -1.6711 -0.1863
 5428SOL    HW227744   3.916   4.568   4.029 -0.3602  0.8732  0.6816
 5429SOL     OW27745   0.317   1.213   2.470 -0.1291 -0.5982  0.5291
 5429SOL    HW127746   0.324   1.308   2.466 -2.4339 -0.4128  0.6924
 5429SOL    HW227747   0.230   1.202   2.432  0.0176  1.5715 -0.4402
 5430SOL     OW27748   0.961   4.162   8.935 -0.0089  0.1815 -0.0014
 5430SOL    HW127749   0.909   4.217   8.995  0.3235  1.2205 -0.6732
 5430SOL    HW227750   0.901   4.089   8.918 -1.0381  0.7884  0.9753
 5431SOL     OW27751   1.130   3.270   8.689  0.2928  0.4265 -0.0368
 5431SOL    HW127752   1.174   3.309   8.764  1.4897  2.2927 -1.7078
 5431SOL    HW227753   1.159   3.181   8.708  2.9784  1.2687 -0.3128
 5432SOL     OW27754   2.512   1.686   5.735  0.1909  0.3836  0.4497
 5432SOL    HW127755   2.568   1.611   5.714 -0.5194  0.0281 -0.1891
 5432SOL    HW227756   2.432   1.658   5.689  0.8510 -1.7667  0.6125
 5433SOL     OW27757   1.792   2.275  13.681  0.3275 -0.3583  0.1842
 5433SOL    HW127758   1.873   2.324  13.668  1.3133 -1.6360  1.4413
 5433SOL    HW227759   1.811   2.228  13.762  1.7996  2.6001  1.5726
 5434SOL     OW27760   4.049   4.625  10.613  0.0266  0.1068  0.2868
 5434SOL    HW127761   4.033   4.664  10.700  1.1124 -2.4161  1.6156
 5434SOL    HW227762   4.001   4.543  10.619  0.9095 -0.6972 -4.2811
 5435SOL     OW27763   4.479   4.297   0.510 -0.3391 -0.2278 -0.0422
 5435SOL    HW127764   4.410   4.234   0.492 -0.9270  1.1702 -2.6002
 5435SOL    HW227765   4.430   4.368   0.467 -1.5155 -0.4524  0.9377
 5436SOL     OW27766   0.802   2.354  16.703 -0.2273 -0.0696  0.6578
 5436SOL    HW127767   0.848   2.313  16.775  0.1641 -1.6186 -0.4917
 5436SOL    HW227768   0.838   2.443  16.707 -1.7974  0.6351 -0.4050
 5437SOL     OW27769   2.201   3.944   7.159  0.1007  0.4233  0.1887
 5437SOL    HW127770   2.295   3.948   7.175 -0.0347  1.9374  0.5622
 5437SOL    HW227771   2.176   3.904   7.243 -0.3156  1.0594  0.3654
 5438SOL     OW27772   0.457   0.685  10.570  0.0502 -0.1568  0.2658
 5438SOL    HW127773   0.397   0.673  10.643  0.2236 -1.2415  0.2240
 5438SOL    HW227774   0.525   0.623  10.597  1.1991  1.6959  1.6474
 5439SOL     OW27775   3.250   2.841   4.576  0.1156  0.0847 -0.6316
 5439SOL    HW127776   3.223   2.902   4.644 -0.6879 -0.9004 -0.0621
 5439SOL    HW227777   3.247   2.762   4.631  2.0004 -0.9225 -1.9720
 5440SOL     OW27778   4.639   2.542   7.252  0.6238 -0.0134 -0.1415
 5440SOL    HW127779   4.571   2.553   7.185  0.7849 -0.6022 -0.3957
 5440SOL    HW227780   4.641   2.636   7.272  1.8842 -0.0367 -0.2114
 5441SOL     OW27781   3.943   4.010   1.980 -0.0618  0.3829  0.0986
 5441SOL    HW127782   3.871   3.955   1.949  0.2880 -0.1137  0.1694
 5441SOL    HW227783   4.026   3.970   1.953  0.3920  1.8605 -0.7100
 5442SOL     OW27784   3.563   0.764   7.024 -0.1939 -0.4529 -0.0138
 5442SOL    HW127785   3.578   0.679   7.066  2.5602  0.5924  1.1255
 5442SOL    HW227786   3.625   0.765   6.952 -1.8498  1.6091 -1.3848
 5443SOL     OW27787   2.457   0.666   2.796  0.1215  0.3159 -0.4573
 5443SOL    HW127788   2.423   0.752   2.822 -2.0574 -0.2494 -1.4631
 5443SOL    HW227789   2.463   0.630   2.885  0.1464  0.9194 -0.2114
 5444SOL     OW27790   3.934   4.436   5.118 -0.2434 -0.4061 -0.0326
 5444SOL    HW127791   3.975   4.385   5.188  0.6910 -0.8797 -0.9292
 5444SOL    HW227792   3.885   4.501   5.168 -1.5569 -1.0824 -0.4331
 5445SOL     OW27793   3.990   3.411  16.361  0.0230 -0.3168  0.2712
 5445SOL    HW127794   3.896   3.404  16.376 -0.2826 -1.4606 -2.2703
 5445SOL    HW227795   4.026   3.411  16.450 -0.5731 -0.1335  0.5129
 5446SOL     OW27796   1.707   1.565   1.847  0.1351 -0.1237  0.4496
 5446SOL    HW127797   1.766   1.551   1.773 -0.2433  1.7536 -0.1918
 5446SOL    HW227798   1.643   1.625   1.809  0.3131 -1.0335 -1.3125
 5447SOL     OW27799   4.439   2.707   9.464  0.0975  0.1684 -0.1413
 5447SOL    HW127800   4.459   2.637   9.526  1.8200 -0.5748 -1.5087
 5447SOL    HW227801   4.353   2.741   9.488  0.5349  2.1736 -1.4437
 5448SOL     OW27802   1.374   1.177   1.668  0.2172 -0.1272 -0.3342
 5448SOL    HW127803   1.406   1.218   1.587 -1.8176  1.4151 -0.3786
 5448SOL    HW227804   1.341   1.097   1.627  0.0720 -1.0197  1.5486
 5449SOL     OW27805   0.887   2.870   5.044 -0.0634  0.2769 -0.9344
 5449SOL    HW127806   0.894   2.953   5.090 -1.5800  1.1394 -2.2636
 5449SOL    HW227807   0.843   2.891   4.961 -2.4387 -0.7480  0.0651
 5450SOL     OW27808   2.599   4.651   7.530 -0.0074  0.7303 -0.2028
 5450SOL    HW127809   2.507   4.669   7.552  0.3391  1.0767  0.9690
 5450SOL    HW227810   2.607   4.573   7.585 -0.4890  0.5496 -0.3860
 5451SOL     OW27811   4.086   1.546  15.859  0.7139  0.4446 -0.3668
 5451SOL    HW127812   4.138   1.557  15.939  0.1498 -0.3107  0.1046
 5451SOL    HW227813   4.004   1.521  15.901  1.9127  0.0197  1.7224
 5452SOL     OW27814   1.075   0.197   2.569 -0.4945 -0.3071  0.1904
 5452SOL    HW127815   1.077   0.229   2.659  1.0741 -0.2540  0.1414
 5452SOL    HW227816   1.136   0.123   2.573  0.7574  0.6000 -2.1580
 5453SOL     OW27817   2.727   4.724   8.873 -0.5638  0.2382 -0.2288
 5453SOL    HW127818   2.643   4.686   8.899  0.1185 -1.0952  0.0079
 5453SOL    HW227819   2.781   4.651   8.844 -1.3568 -0.8455  1.0299
 5454SOL     OW27820   0.827   2.888   7.778  0.0828  0.2114  0.2678
 5454SOL    HW127821   0.750   2.857   7.826  0.7442 -0.9685  0.5655
 5454SOL    HW227822   0.847   2.968   7.827 -1.2105  1.1004 -0.6276
 5455SOL     OW27823   2.563   0.788  15.607 -0.1646  0.4057  0.0561
 5455SOL    HW127824   2.482   0.741  15.627 -1.0679  1.0331 -2.1506
 5455SOL    HW227825   2.625   0.752  15.671  0.9121  3.0092  0.4906
 5456SOL     OW27826   1.368   2.403  13.438 -0.1606  0.0174 -0.2349
 5456SOL    HW127827   1.361   2.398  13.342  1.2848 -0.3181 -0.3326
 5456SOL    HW227828   1.319   2.329  13.473 -0.9400  0.9070  0.5203
 5457SOL     OW27829   3.464   1.465   6.144  0.3390  0.0202 -0.2515
 5457SOL    HW127830   3.528   1.395   6.130 -2.0190 -1.8509 -1.8073
 5457SOL    HW227831   3.387   1.420   6.180  2.1631 -2.4770  0.5133
 5458SOL     OW27832   2.895   0.750  11.464  0.1266  0.5431 -0.1935
 5458SOL    HW127833   2.877   0.755  11.558  0.3993 -1.8988 -0.0151
 5458SOL    HW227834   2.879   0.840  11.434  1.1505  0.5704 -0.6615
 5459SOL     OW27835   3.242   2.485   4.311  0.0112  0.2829  0.3737
 5459SOL    HW127836   3.307   2.485   4.381 -0.7361  0.1534  1.0584
 5459SOL    HW227837   3.231   2.580   4.308 -3.4940 -0.1111  0.9782
 5460SOL     OW27838   3.344   3.141   0.105  0.0403  0.0835  0.0665
 5460SOL    HW127839   3.256   3.144   0.141  0.5966 -0.7110  1.5131
 5460SOL    HW227840   3.400   3.148   0.182 -0.1163 -0.8196  0.2574
 5461SOL     OW27841   0.550   1.983   1.639  0.0180  0.1964  0.1386
 5461SOL    HW127842   0.522   2.046   1.705 -1.3240 -0.0601 -0.1936
 5461SOL    HW227843   0.536   1.908   1.696 -0.4703  0.2154  0.0414
 5462SOL     OW27844   1.551   0.409   4.713 -0.3408  0.2737  0.0184
 5462SOL    HW127845   1.481   0.345   4.718 -2.3337  2.5729  1.3884
 5462SOL    HW227846   1.580   0.395   4.623 -0.5892 -1.2351  0.1826
 5463SOL     OW27847   0.975   2.962   8.878 -0.1097  0.0378 -0.2327
 5463SOL    HW127848   0.913   2.981   8.948  1.3083 -2.7962  1.7819
 5463SOL    HW227849   0.990   2.868   8.885  0.6027  0.3227  2.0261
 5464SOL     OW27850   0.535   3.306  17.306 -0.1816  0.6071 -0.4410
 5464SOL    HW127851   0.574   3.278  17.223  3.3195 -1.0691  1.7814
 5464SOL    HW227852   0.465   3.243  17.324  2.2689 -2.2148 -0.8137
 5465SOL     OW27853   3.092   1.358   5.963 -0.5025 -0.4540  0.2878
 5465SOL    HW127854   3.179   1.360   5.923 -0.7636 -0.1111 -0.2729
 5465SOL    HW227855   3.110   1.401   6.046  0.2344  2.5448 -1.4053
 5466SOL     OW27856   2.873   2.500   3.690  0.1872  0.4780 -0.0162
 5466SOL    HW127857   2.847   2.518   3.600 -1.3382 -2.4612 -0.1747
 5466SOL    HW227858   2.788   2.469   3.720  0.4319  0.0156  0.2160
 5467SOL     OW27859   4.499   4.401  14.794 -0.7126 -0.1682 -0.0845
 5467SOL    HW127860   4.588   4.430  14.773 -1.7587  1.2684 -2.6925
 5467SOL    HW227861   4.474   4.351  14.716 -3.3455 -0.7523  1.1437
 5468SOL     OW27862   0.990   1.472   4.207  0.3925 -0.2512  0.1004
 5468SOL    HW127863   1.044   1.474   4.128 -1.9497  0.1658 -1.4893
 5468SOL    HW227864   1.056   1.476   4.277  1.0018  2.1612 -0.6222
 5469SOL     OW27865   4.680   0.050   4.008  0.2707  0.0604 -0.3596
 5469SOL    HW127866   4.706   4.700   3.955 -0.0377  1.1480 -2.0313
 5469SOL    HW227867   4.679   0.113   3.937  0.4536 -0.4044 -0.7752
 5470SOL     OW27868   0.445   1.985  11.257  0.8095 -0.2243  0.5282
 5470SOL    HW127869   0.371   2.035  11.224  3.1216  3.0952  0.3277
 5470SOL    HW227870   0.484   1.966  11.171 -1.0646 -0.7562 -0.2020
 5471SOL     OW27871   2.074   2.649  12.047  0.4596  0.2999 -0.5285
 5471SOL    HW127872   2.010   2.710  12.011 -1.1070 -1.1392 -0.2026
 5471SOL    HW227873   2.129   2.634  11.970  0.7494 -0.8562 -0.1034
 5472SOL     OW27874   0.360   0.665  12.023  0.3815  0.0413  0.1376
 5472SOL    HW127875   0.328   0.623  12.103 -0.5610  0.9441  0.2295
 5472SOL    HW227876   0.315   0.749  12.012  1.9528  0.8691  0.1168
 5473SOL     OW27877   0.821   0.429   7.942 -0.3693 -0.2221  0.0808
 5473SOL    HW127878   0.884   0.399   7.876 -1.7687  2.1661 -2.3509
 5473SOL    HW227879   0.844   0.385   8.023 -2.5914 -0.4170  0.6086
 5474SOL     OW27880   1.094   3.340   6.413  0.7178 -0.6329 -0.2075
 5474SOL    HW127881   1.058   3.403   6.351 -0.1595  0.0273  0.9888
 5474SOL    HW227882   1.110   3.390   6.493  0.2562  0.2302 -0.6571
 5475SOL     OW27883   3.827   4.440   7.728  0.2240 -0.5781  0.4362
 5475SOL    HW127884   3.748   4.467   7.777  1.1457  1.4261  0.8375
 5475SOL    HW227885   3.811   4.349   7.705 -0.8818 -1.1135  3.2716
 5476SOL     OW27886   1.688   4.138   3.461 -0.1150  0.0100 -0.4104
 5476SOL    HW127887   1.726   4.072   3.404 -0.5003  0.9308 -1.7349
 5476SOL    HW227888   1.605   4.095   3.482  0.0124  0.5989  1.3403
 5477SOL     OW27889   3.661   0.587   3.975  0.0049 -0.7963  1.0984
 5477SOL    HW127890   3.715   0.519   4.015  2.7833  1.2631  0.8286
 5477SOL    HW227891   3.576   0.574   4.017 -0.2060  0.0153  0.9263
 5478SOL     OW27892   3.445   0.886   9.079 -0.1536 -0.4871  0.1382
 5478SOL    HW127893   3.497   0.817   9.039  2.7538  1.7371  0.0530
 5478SOL    HW227894   3.425   0.844   9.162  2.8374  1.0747  1.6314
 5479SOL     OW27895   3.562   3.020  13.717  0.2041  0.0095 -0.3152
 5479SOL    HW127896   3.605   3.060  13.792 -1.3347  3.2853 -1.1264
 5479SOL    HW227897   3.559   2.929  13.745 -0.9815  0.1131 -0.1170
 5480SOL     OW27898   3.556   2.416   7.070  0.1732  0.0118 -0.2008
 5480SOL    HW127899   3.644   2.380   7.079  0.1594 -0.3869 -1.5980
 5480SOL    HW227900   3.534   2.365   6.991  0.3830  0.2028 -0.3804
 5481SOL     OW27901   2.740   0.981   3.778  0.1560  0.0728 -0.0694
 5481SOL    HW127902   2.753   0.899   3.825 -1.8940 -0.2804 -0.1197
 5481SOL    HW227903   2.830   1.002   3.751 -0.4887  2.0619 -0.6917
 5482SOL     OW27904   1.106   2.966  11.744 -0.6409  0.0258 -0.4837
 5482SOL    HW127905   1.087   2.886  11.696 -1.7106  0.4378 -0.7296
 5482SOL    HW227906   1.047   3.030  11.706  0.2997  0.8301 -0.5839
 5483SOL     OW27907   2.484   1.434   2.809  0.3571 -0.1070  0.3671
 5483SOL    HW127908   2.543   1.509   2.805 -1.5138  1.3681  0.4741
 5483SOL    HW227909   2.426   1.435   2.733 -0.0266  0.2058  0.6638
 5484SOL     OW27910   4.664   0.758   2.794 -0.1623  0.3993  0.0538
 5484SOL    HW127911   4.583   0.754   2.845  2.4824 -1.4486  4.1812
 5484SOL    HW227912   4.627   0.747   2.707  0.0469  1.6312 -0.1968
 5485SOL     OW27913   2.471   3.587  10.401 -0.4701  0.1784  0.1163
 5485SOL    HW127914   2.506   3.586  10.312  1.5293 -1.5139  0.9271
 5485SOL    HW227915   2.411   3.513  10.399 -1.7188  1.1640  1.0726
 5486SOL     OW27916   0.271   0.810   7.462 -0.0939  0.0587 -0.1484
 5486SOL    HW127917   0.271   0.840   7.371  1.6541 -0.1858 -0.2416
 5486SOL    HW227918   0.326   0.731   7.460  0.6911  0.6697 -2.8598
 5487SOL     OW27919   0.291   0.739  11.014  0.2592  0.1235 -0.1333
 5487SOL    HW127920   0.301   0.737  11.109 -1.7832  0.6712  0.0845
 5487SOL    HW227921   0.355   0.670  10.999  0.1498 -0.4023  1.8234
 5488SOL     OW27922   0.628   0.811   7.465  0.3042 -1.1979  0.5563
 5488SOL    HW127923   0.661   0.873   7.531  2.4578 -0.9214 -0.8034
 5488SOL    HW227924   0.580   0.741   7.509 -1.4393  0.0265  0.5965
 5489SOL     OW27925   0.872   4.457  11.811  0.0221  0.0173  0.5162
 5489SOL    HW127926   0.956   4.422  11.779 -1.5056  0.4125 -3.9581
 5489SOL    HW227927   0.843   4.523  11.749  0.0794 -1.4720 -1.0948
 5490SOL     OW27928   2.979   3.297   1.232 -0.1366 -1.1578 -0.0740
 5490SOL    HW127929   3.022   3.253   1.305 -1.3431 -2.2635 -0.0199
 5490SOL    HW227930   2.884   3.290   1.239 -0.1270 -0.6795  0.4967
 5491SOL     OW27931   0.619   0.017  13.017  0.0794 -0.2240 -0.2589
 5491SOL    HW127932   0.673   0.074  13.071  2.0782 -0.0337 -2.4598
 5491SOL    HW227933   0.592   4.672  13.078  2.3826 -0.2702  0.6902
 5492SOL     OW27934   3.315   0.874   6.911  0.6368  0.4754  0.1501
 5492SOL    HW127935   3.311   0.964   6.877 -1.6748 -0.0179 -0.8696
 5492SOL    HW227936   3.407   0.871   6.937  1.0497 -2.5454 -1.7637
 5493SOL     OW27937   1.744   1.027   3.407  0.6827 -0.4762  0.0849
 5493SOL    HW127938   1.799   1.082   3.464  0.9986  0.1202 -0.8032
 5493SOL    HW227939   1.667   1.084   3.400 -0.7542 -2.3062  0.8593
 5494SOL     OW27940   3.377   3.330  17.560 -0.4034 -0.0606  0.2274
 5494SOL    HW127941   3.319   3.260  17.530 -1.7971  1.5169 -0.7325
 5494SOL    HW227942   3.457   3.278  17.566  0.9368  1.7379 -2.2454
 5495SOL     OW27943   3.752   0.024  17.485  0.2452 -0.7784  0.7469
 5495SOL    HW127944   3.716   0.108  17.457  0.3583 -1.1435 -0.4791
 5495SOL    HW227945   3.753   0.032  17.581  0.8301 -0.3046  0.7049
 5496SOL     OW27946   1.319   1.646   2.360  0.1445 -0.5521 -0.5476
 5496SOL    HW127947   1.407   1.611   2.351 -0.2513 -1.2270 -1.7819
 5496SOL    HW227948   1.293   1.657   2.268 -0.7479  0.2538 -0.2073
 5497SOL     OW27949   2.313   0.261   2.517  0.1415 -0.1638 -0.0934
 5497SOL    HW127950   2.292   0.267   2.424  0.6329  1.1133 -0.1273
 5497SOL    HW227951   2.338   0.170   2.531  2.2636  0.6060  1.1469
 5498SOL     OW27952   3.821   4.242  11.729 -0.1450  0.3017 -0.5670
 5498SOL    HW127953   3.739   4.202  11.700 -0.9442  2.0667 -0.7446
 5498SOL    HW227954   3.871   4.162  11.714 -1.1275 -0.2583 -0.8500
 5499SOL     OW27955   4.667   3.648   4.642 -0.4158  0.6759 -0.1816
 5499SOL    HW127956   4.601   3.717   4.644 -2.1847 -1.0265  0.4406
 5499SOL    HW227957   4.693   3.649   4.550 -0.5804 -2.4311 -0.2702
 5500SOL     OW27958   1.259   3.430   5.559 -0.0640 -0.4825  0.4886
 5500SOL    HW127959   1.315   3.501   5.589 -1.1031  1.3423 -1.8195
 5500SOL    HW227960   1.287   3.428   5.467  0.2838 -0.1144  0.5874
 5501SOL     OW27961   0.639   3.464   2.040  0.2650 -0.2098 -0.0596
 5501SOL    HW127962   0.698   3.391   2.019  0.9132  1.0125 -2.5238
 5501SOL    HW227963   0.560   3.421   2.008  1.7253 -1.5838 -1.8671
 5502SOL     OW27964   0.121   0.604   5.506 -0.5159 -0.3275  0.7307
 5502SOL    HW127965   0.071   0.554   5.571  0.8619 -0.7962  1.4356
 5502SOL    HW227966   0.060   0.657   5.457  0.7545  0.8097  0.3817
 5503SOL     OW27967   3.910   1.649  15.648 -0.3294 -0.2879  0.0840
 5503SOL    HW127968   3.954   1.585  15.704 -0.6493 -0.6868 -0.1176
 5503SOL    HW227969   3.994   1.678  15.612  0.6447 -0.2893  2.3656
 5504SOL     OW27970   4.023   2.578   2.760  0.3300 -0.9000  0.0748
 5504SOL    HW127971   3.956   2.605   2.822  1.2188 -1.0024  1.0744
 5504SOL    HW227972   4.091   2.642   2.780  0.0297 -0.6302  0.2188
 5505SOL     OW27973   4.453   3.116   2.955  0.1630 -0.0555  0.3798
 5505SOL    HW127974   4.509   3.078   2.887  0.6106 -0.4204  0.9506
 5505SOL    HW227975   4.438   3.047   3.021  0.1578 -1.4104 -1.0338
 5506SOL     OW27976   4.597   1.381   6.757  0.2021  0.5988  0.3016
 5506SOL    HW127977   4.606   1.370   6.852  3.4368  0.1929 -0.0697
 5506SOL    HW227978   4.556   1.301   6.723 -0.8656  1.8734 -1.4107
 5507SOL     OW27979   1.639   2.301   9.511  0.4219 -0.8167 -0.1881
 5507SOL    HW127980   1.628   2.262   9.598 -3.0273  1.3537  0.3128
 5507SOL    HW227981   1.587   2.243   9.455 -3.6073  0.0984  2.6380
 5508SOL     OW27982   4.012   3.639   3.510  0.3779  0.1507  0.1633
 5508SOL    HW127983   3.945   3.578   3.540  0.5524  0.4756  1.2222
 5508SOL    HW227984   4.044   3.676   3.593 -1.6801 -0.5923  1.2640
 5509SOL     OW27985   3.038   4.082   6.698  0.3655 -0.3930 -0.3159
 5509SOL    HW127986   3.072   4.074   6.608 -1.4720  2.5285 -1.2588
 5509SOL    HW227987   3.024   4.177   6.703 -1.8523 -0.8479  1.7803
 5510SOL     OW27988   4.568   2.091   1.174 -0.1508 -0.1671  0.4105
 5510SOL    HW127989   4.633   2.147   1.216 -0.2207  1.4808 -1.6872
 5510SOL    HW227990   4.506   2.160   1.151 -2.2320 -2.3624 -0.5360
 5511SOL     OW27991   4.211   3.852  12.600  0.2981  0.3188 -0.3425
 5511SOL    HW127992   4.155   3.793  12.651  0.8491  3.0015  3.3949
 5511SOL    HW227993   4.171   3.939  12.604  0.9263  0.5210  1.3893
 5512SOL     OW27994   3.678   3.891  14.158  0.5921  0.4761  0.2143
 5512SOL    HW127995   3.644   3.895  14.069  1.5504 -0.8419 -0.2015
 5512SOL    HW227996   3.606   3.904  14.219  0.0608 -0.1708 -0.2797
 5513SOL     OW27997   2.088   1.073  13.841  0.1115 -0.2151 -0.2070
 5513SOL    HW127998   2.011   1.112  13.799  1.2068  0.8987 -1.1838
 5513SOL    HW227999   2.069   0.980  13.828 -0.3637 -0.1500 -0.0032
 5514SOL     OW28000   0.788   4.081   4.627 -0.1191 -0.2296  0.5173
 5514SOL    HW128001   0.741   4.019   4.683  1.4863 -0.8811  1.1520
 5514SOL    HW228002   0.712   4.115   4.581 -1.2620 -0.8223  1.9996
 5515SOL     OW28003   4.358   4.402  12.703  0.0339  0.4480  0.4758
 5515SOL    HW128004   4.332   4.315  12.734  1.9658  0.2822  1.5940
 5515SOL    HW228005   4.401   4.439  12.780 -1.6453  0.0881  1.5941
 5516SOL     OW28006   0.846   0.017   1.312  0.7409 -0.4610 -0.1670
 5516SOL    HW128007   0.856   4.663   1.366 -1.4506  1.2341  2.7090
 5516SOL    HW228008   0.892   0.086   1.359 -0.7210 -0.6545  1.5671
 5517SOL     OW28009   2.924   1.627   6.334  0.0289  0.0327  0.1244
 5517SOL    HW128010   2.995   1.657   6.279  0.4711 -0.2500  0.5417
 5517SOL    HW228011   2.923   1.689   6.408 -0.3005 -0.8518  0.8622
 5518SOL     OW28012   1.228   0.738   4.370 -0.1386 -0.1285 -0.0009
 5518SOL    HW128013   1.226   0.830   4.343 -1.4536 -0.5285 -1.2034
 5518SOL    HW228014   1.244   0.695   4.287 -0.1100  1.0747 -0.6151
 5519SOL     OW28015   3.796   3.524   5.578  0.2260  0.0085 -0.0797
 5519SOL    HW128016   3.778   3.598   5.521  1.0543  0.3469  0.0935
 5519SOL    HW228017   3.716   3.522   5.631  0.6015 -0.7946  0.4630
 5520SOL     OW28018   3.370   3.704   6.065  0.4138 -0.3263 -0.2908
 5520SOL    HW128019   3.366   3.749   5.980  0.8980  2.4363  1.1737
 5520SOL    HW228020   3.360   3.622   6.015  1.9694  1.0336 -2.8658
 5521SOL     OW28021   0.128   0.743  17.208  0.1454  0.3468 -0.4291
 5521SOL    HW128022   0.035   0.727  17.191 -0.0539  3.2384 -2.1210
 5521SOL    HW228023   0.119   0.726  17.301 -2.2222  0.2904 -0.6670
 5522SOL     OW28024   2.216   2.198  10.004  0.0297  0.1006 -0.3420
 5522SOL    HW128025   2.176   2.228   9.923  0.8212  0.5055 -0.5830
 5522SOL    HW228026   2.264   2.124   9.967  1.4730  0.4365  0.8196
 5523SOL     OW28027   0.465   0.196   6.886  0.6267 -0.1207 -0.0818
 5523SOL    HW128028   0.514   0.171   6.964  0.6960 -1.6575 -0.6281
 5523SOL    HW228029   0.433   0.112   6.853 -1.6800  0.4674  0.6558
 5524SOL     OW28030   4.200   4.321   5.557 -0.1462 -0.1509  0.1879
 5524SOL    HW128031   4.200   4.303   5.651 -2.3728  2.0385  0.6093
 5524SOL    HW228032   4.282   4.371   5.556 -0.7705  0.8411 -1.6780
 5525SOL     OW28033   1.825   1.116  15.098  0.7022 -0.0676  0.4609
 5525SOL    HW128034   1.809   1.117  15.193  1.2995 -0.6552  0.5631
 5525SOL    HW228035   1.912   1.078  15.095 -0.1200 -1.7394 -1.7749
 5526SOL     OW28036   2.190   4.382   2.608  0.3425  0.2985  0.2464
 5526SOL    HW128037   2.235   4.359   2.526 -0.1223  2.2775 -0.5683
 5526SOL    HW228038   2.198   4.477   2.614  1.1404  0.4066 -2.4800
 5527SOL     OW28039   1.569   2.148   1.181 -0.3735  0.3934  0.5139
 5527SOL    HW128040   1.656   2.163   1.144 -0.1763 -0.6229  0.5577
 5527SOL    HW228041   1.517   2.129   1.103  0.2878  2.0466 -0.3127
 5528SOL     OW28042   4.486   4.282   5.909 -0.6659  0.1035 -0.3160
 5528SOL    HW128043   4.408   4.311   5.863  0.5122  1.1972 -1.6613
 5528SOL    HW228044   4.528   4.251   5.829  0.0392 -1.3194  0.5916
 5529SOL     OW28045   4.605   2.912   1.851  0.2765  0.2223  0.3780
 5529SOL    HW128046   4.641   2.992   1.889  1.9211 -0.3266 -0.0422
 5529SOL    HW228047   4.525   2.892   1.901 -0.1269 -0.4844 -0.5393
 5530SOL     OW28048   0.574   2.606   2.299  0.2901 -0.2244  0.2470
 5530SOL    HW128049   0.632   2.682   2.286 -1.1451  0.4805 -1.9555
 5530SOL    HW228050   0.616   2.576   2.379 -0.3439 -2.6200 -0.3323
 5531SOL     OW28051   4.361   0.822   1.918  0.1406 -0.6541 -0.4170
 5531SOL    HW128052   4.293   0.787   1.861 -1.5897  1.0366  0.5957
 5531SOL    HW228053   4.335   0.914   1.918 -0.7962 -0.9154 -0.4270
 5532SOL     OW28054   4.414   4.593   1.083  0.3680  0.0038  0.3301
 5532SOL    HW128055   4.376   4.680   1.085 -0.5572 -0.4162  1.0288
 5532SOL    HW228056   4.507   4.616   1.088  0.5955 -0.7716 -0.1715
 5533SOL     OW28057   0.958   2.727   4.664 -0.0992  0.8070 -0.6204
 5533SOL    HW128058   1.042   2.681   4.662 -1.5826 -1.9360 -0.6651
 5533SOL    HW228059   0.977   2.818   4.642  1.6978  0.6577  0.3842
 5534SOL     OW28060   4.262   2.302   6.498  0.3213  0.4816 -0.5011
 5534SOL    HW128061   4.292   2.392   6.487  1.6051 -0.1389 -2.1722
 5534SOL    HW228062   4.346   2.255   6.489  0.4126  0.6427 -0.4912
 5535SOL     OW28063   0.850   0.346   5.332 -0.6650 -0.1142  0.0225
 5535SOL    HW128064   0.809   0.432   5.343  2.0425  0.6798  3.4511
 5535SOL    HW228065   0.771   0.292   5.336 -1.6167  0.9989 -3.1289
 5536SOL     OW28066   2.972   3.631   8.520 -0.2829 -0.2641  0.3794
 5536SOL    HW128067   3.002   3.692   8.454  1.7180 -0.9631  0.6613
 5536SOL    HW228068   3.013   3.663   8.600  3.5262 -1.3976 -1.1255
 5537SOL     OW28069   3.747   4.628   3.435  0.6183 -0.3002  0.2550
 5537SOL    HW128070   3.718   4.714   3.404 -0.2169  0.4778  3.2333
 5537SOL    HW228071   3.717   4.577   3.359 -0.3430  0.2466  0.2657
 5538SOL     OW28072   0.670   1.327   6.671  0.7330  0.0365 -0.0422
 5538SOL    HW128073   0.636   1.416   6.681  0.5011  0.0115 -0.5941
 5538SOL    HW228074   0.728   1.335   6.596  2.7569 -0.5032  1.4642
 5539SOL     OW28075   1.429   1.193   4.028 -0.2627  0.1912 -0.6400
 5539SOL    HW128076   1.336   1.213   4.028  0.2097  2.4392 -0.7532
 5539SOL    HW228077   1.468   1.232   4.107  0.6487 -0.2876 -0.8476
 5540SOL     OW28078   4.022   4.360   1.365  0.3858  0.0893  0.2527
 5540SOL    HW128079   4.108   4.397   1.344  0.6804 -0.8827 -0.2701
 5540SOL    HW228080   4.029   4.277   1.319 -0.4987  2.3286 -3.8605
 5541SOL     OW28081   4.614   1.900  17.682 -0.0610  0.7298 -0.5082
 5541SOL    HW128082   4.642   1.850   0.057  1.6763  1.3289 -0.7479
 5541SOL    HW228083   4.626   1.841  17.608 -0.7973 -1.8026  1.4226
 5542SOL     OW28084   3.209   4.470   2.244 -0.3805  0.3114 -0.4381
 5542SOL    HW128085   3.178   4.391   2.200  1.5188 -1.1647  0.8375
 5542SOL    HW228086   3.304   4.460   2.237 -0.3906 -1.2925  1.7534
 5543SOL     OW28087   1.093   1.221   7.578 -0.0132 -0.3882  0.4397
 5543SOL    HW128088   1.145   1.302   7.585 -0.7788 -0.1323  2.9896
 5543SOL    HW228089   1.070   1.205   7.669 -2.6620  0.2210 -0.1327
 5544SOL     OW28090   4.523   2.214   6.476  0.5943 -0.4037  0.0955
 5544SOL    HW128091   4.551   2.302   6.503 -3.1363  0.2782  1.7345
 5544SOL    HW228092   4.604   2.170   6.502  0.8521 -0.3244 -0.5897
 5545SOL     OW28093   3.391   2.700   3.158 -0.0373  0.2076 -0.2372
 5545SOL    HW128094   3.361   2.609   3.158 -0.7130  0.4262 -3.0087
 5545SOL    HW228095   3.308   2.741   3.131  0.2646  0.4300 -0.8285
 5546SOL     OW28096   3.663   1.591  15.542  0.0249  0.0995 -0.2407
 5546SOL    HW128097   3.636   1.676  15.507  0.4103  0.2162 -0.2450
 5546SOL    HW228098   3.739   1.613  15.595 -2.2030  0.7360  2.6978
 5547SOL     OW28099   1.690   1.878   8.032  0.6353  0.5018  0.3836
 5547SOL    HW128100   1.692   1.866   8.127 -0.8320 -3.1388 -0.0530
 5547SOL    HW228101   1.758   1.943   8.012  0.5211  0.2773 -0.7294
 5548SOL     OW28102   4.014   1.833   4.360  0.0818  0.1285 -0.5629
 5548SOL    HW128103   3.967   1.809   4.440 -1.0650 -0.3527 -1.3887
 5548SOL    HW228104   4.102   1.840   4.397 -0.0415  1.4503 -0.5055
 5549SOL     OW28105   2.620   4.038   0.392 -0.1965 -0.3571 -0.0011
 5549SOL    HW128106   2.574   4.067   0.470  1.1480 -1.0899  1.0518
 5549SOL    HW228107   2.588   3.948   0.393 -0.7647 -0.1531 -0.0388
 5550SOL     OW28108   4.476   3.917  12.882  0.0037 -0.8308  0.1344
 5550SOL    HW128109   4.427   3.857  12.938  1.0741 -1.2035  0.6723
 5550SOL    HW228110   4.456   3.888  12.794 -2.5444 -1.0410  0.7762
 5551SOL     OW28111   4.605   0.443   4.288 -0.3669  0.0745 -0.0048
 5551SOL    HW128112   4.690   0.433   4.244  0.8070 -1.8542  2.7130
 5551SOL    HW228113   4.548   0.439   4.211 -0.8761 -2.0213  0.4828
 5552SOL     OW28114   2.196   1.786   2.932  0.4164 -0.1250 -0.1557
 5552SOL    HW128115   2.290   1.770   2.925  0.4645 -1.2243  2.9239
 5552SOL    HW228116   2.156   1.711   2.887  0.4822 -0.0306 -0.3680
 5553SOL     OW28117   0.220   4.538   2.609 -0.1632  0.2143  0.1790
 5553SOL    HW128118   0.278   4.566   2.680 -0.8132  1.7420  0.1103
 5553SOL    HW228119   0.205   4.622   2.567  1.2306 -0.4667 -1.7046
 5554SOL     OW28120   3.877   1.594   6.968  0.4662 -0.1215 -0.7086
 5554SOL    HW128121   3.788   1.599   7.002 -0.1911 -0.2710 -2.4237
 5554SOL    HW228122   3.919   1.673   7.001  0.5101 -0.5734  0.3260
 5555SOL     OW28123   2.641   3.407   3.382 -0.2421  0.2569  0.3725
 5555SOL    HW128124   2.717   3.464   3.374 -1.1163  1.0026 -2.4872
 5555SOL    HW228125   2.647   3.371   3.471 -0.9427 -2.2266 -0.5955
 5556SOL     OW28126   1.406   3.398   7.562 -0.9655  0.7470 -0.2981
 5556SOL    HW128127   1.316   3.427   7.574 -1.1953 -0.0844 -0.0269
 5556SOL    HW228128   1.416   3.341   7.638 -1.7923  2.1573  0.8740
 5557SOL     OW28129   3.369   3.343   8.464 -0.1147 -0.1832  0.6013
 5557SOL    HW128130   3.463   3.354   8.448  0.3617 -0.7117  3.0763
 5557SOL    HW228131   3.353   3.410   8.530  1.0458  1.9358 -1.2786
 5558SOL     OW28132   2.892   0.323  12.579  0.3504 -0.0997  0.1710
 5558SOL    HW128133   2.957   0.294  12.642 -1.1347 -0.7946  1.3710
 5558SOL    HW228134   2.819   0.336  12.640  0.2214 -1.7800  0.3765
 5559SOL     OW28135   2.153   3.686  10.534  0.0650  0.4277  0.3440
 5559SOL    HW128136   2.209   3.713  10.461  2.6221  0.3378  2.2956
 5559SOL    HW228137   2.181   3.596  10.552  1.1985  0.7654  0.2491
 5560SOL     OW28138   1.635   1.449  12.638  0.1353  0.1203  0.0400
 5560SOL    HW128139   1.696   1.515  12.671  0.1512  0.2472 -0.2372
 5560SOL    HW228140   1.704   1.401  12.591  2.4826  3.2553  0.2814
 5561SOL     OW28141   3.135   4.425   1.830 -0.0899 -0.4117 -0.0234
 5561SOL    HW128142   3.113   4.502   1.778  2.1397 -0.3444 -0.8901
 5561SOL    HW228143   3.076   4.363   1.787  1.4450 -1.1145 -1.1670
 5562SOL     OW28144   0.860   0.123   6.402 -0.1543  0.7399  0.2539
 5562SOL    HW128145   0.809   0.202   6.382 -0.0733  0.9800  1.0061
 5562SOL    HW228146   0.878   0.144   6.494  1.2835  1.6289 -0.2212
 5563SOL     OW28147   3.059   3.471   3.610  0.4148  0.3561  0.3316
 5563SOL    HW128148   3.136   3.527   3.600  0.4453  0.3770  0.7054
 5563SOL    HW228149   3.071   3.429   3.525  0.2048  1.4913 -0.2622
 5564SOL     OW28150   2.525   2.723   3.279  0.8634  0.2466 -0.5828
 5564SOL    HW128151   2.586   2.674   3.223 -0.2722  0.3082 -1.8601
 5564SOL    HW228152   2.468   2.653   3.312  0.8065 -0.1196 -1.4524
 5565SOL     OW28153   0.562   4.537   8.057  0.1951 -0.1837 -0.1449
 5565SOL    HW128154   0.536   4.602   7.992 -3.0267 -2.5406 -1.1949
 5565SOL    HW228155   0.655   4.535   8.033  1.0096  1.5750  2.9022
 5566SOL     OW28156   4.263   4.341  16.361 -0.8312 -0.0492 -0.3947
 5566SOL    HW128157   4.297   4.306  16.443 -0.2500 -0.1866 -0.6892
 5566SOL    HW228158   4.245   4.257  16.318  0.4516 -0.7554  0.4548
 5567SOL     OW28159   1.289   0.545   5.829 -0.3415  0.5168 -0.1237
 5567SOL    HW128160   1.359   0.551   5.764  0.0947 -0.4961  0.2522
 5567SOL    HW228161   1.223   0.525   5.763 -0.7425  0.1595  0.3844
 5568SOL     OW28162   0.100   4.049  12.980 -0.7505  0.4565 -0.6436
 5568SOL    HW128163   0.042   3.996  13.035  0.6321  2.2214  2.5514
 5568SOL    HW228164   0.183   4.046  13.028  0.2902 -0.6908 -2.5055
 5569SOL     OW28165   3.464   3.827  17.542 -0.1796  0.6364 -0.0663
 5569SOL    HW128166   3.490   3.818  17.634 -1.5227 -3.0883 -0.0315
 5569SOL    HW228167   3.443   3.737  17.517 -0.4059  0.5196  0.5374
 5570SOL     OW28168   0.232   2.868   6.290 -0.2019 -0.2709  0.2420
 5570SOL    HW128169   0.152   2.896   6.335 -0.0537 -0.1034  0.4052
 5570SOL    HW228170   0.205   2.827   6.209 -3.4395 -0.4402  1.4105
 5571SOL     OW28171   4.702   3.622   9.934 -0.0416  0.4813  0.5579
 5571SOL    HW128172   4.688   3.713   9.908  3.5372  1.2519  1.4275
 5571SOL    HW228173   0.072   3.619   9.943 -0.0666 -0.4276  0.4906
 5572SOL     OW28174   3.911   2.520   4.735 -0.1128  0.2205  0.0279
 5572SOL    HW128175   3.937   2.509   4.643  0.5402  1.2152  0.0893
 5572SOL    HW228176   3.975   2.583   4.768 -0.3196  0.1052  0.6463
 5573SOL     OW28177   4.676   2.809  11.274 -0.1346  0.3710  0.0084
 5573SOL    HW128178   4.587   2.836  11.293 -0.0855  1.1782 -0.9112
 5573SOL    HW228179   4.718   2.800  11.359 -0.4673  1.0996  0.2459
 5574SOL     OW28180   0.476   3.685   2.225  0.5444  0.3254  0.1878
 5574SOL    HW128181   0.435   3.682   2.312  0.8554  0.6616  0.3467
 5574SOL    HW228182   0.395   3.704   2.177 -0.3095 -2.1214  0.6608
 5575SOL     OW28183   0.550   1.589   8.098  0.6868 -0.6937  0.3136
 5575SOL    HW128184   0.477   1.570   8.157  0.2285 -0.4314 -0.1681
 5575SOL    HW228185   0.501   1.585   8.015 -1.7479  0.3065  1.7086
 5576SOL     OW28186   3.321   2.107  10.398  0.5638  0.6685 -0.4463
 5576SOL    HW128187   3.313   2.178  10.335  0.9031 -1.1785 -2.5802
 5576SOL    HW228188   3.372   2.145  10.469  1.1122 -0.9879  0.0367
 5577SOL     OW28189   3.297   0.374   9.673 -0.2943 -0.2142  0.5217
 5577SOL    HW128190   3.343   0.336   9.748  0.1941  1.0189  0.8395
 5577SOL    HW228191   3.237   0.439   9.710 -0.6333 -1.3257  1.9450
 5578SOL     OW28192   3.814   2.284   7.080 -0.0754  0.6426  0.1491
 5578SOL    HW128193   3.865   2.247   7.009 -1.0676 -2.2782  0.9163
 5578SOL    HW228194   3.836   2.235   7.160 -4.0323  3.1714  2.8164
 5579SOL     OW28195   0.464   1.106   7.439  0.1303  0.0123  0.0907
 5579SOL    HW128196   0.486   1.149   7.356 -1.3552  0.3415 -0.1278
 5579SOL    HW228197   0.400   1.041   7.409 -0.1365  0.3536 -0.0863
 5580SOL     OW28198   0.048   1.494  11.809 -0.1953 -0.2644  0.1285
 5580SOL    HW128199   0.031   1.587  11.825 -0.3927 -0.1618 -0.6579
 5580SOL    HW228200   0.140   1.497  11.835 -0.9712 -1.5915  3.0038
 5581SOL     OW28201   0.332   4.146  12.136 -0.5391 -0.0592  0.1537
 5581SOL    HW128202   0.366   4.198  12.063  0.1598  0.4755  0.8587
 5581SOL    HW228203   0.258   4.104  12.093 -0.9972 -1.7454  2.5459
 5582SOL     OW28204   2.565   0.731   2.549  0.1279 -0.3449 -0.4446
 5582SOL    HW128205   2.506   0.698   2.617  0.0218  3.4789  1.3266
 5582SOL    HW228206   2.647   0.736   2.597  0.4753 -0.9535 -0.9867
 5583SOL     OW28207   2.479   2.393   5.967 -0.1731 -0.0093 -0.4211
 5583SOL    HW128208   2.475   2.299   5.946 -0.3949  0.4792 -2.6138
 5583SOL    HW228209   2.563   2.402   6.012 -1.5276 -0.6897  2.2126
 5584SOL     OW28210   0.991   3.854  12.619 -0.6157 -0.5153  0.2837
 5584SOL    HW128211   1.048   3.816  12.552  0.9434  1.0484  0.7392
 5584SOL    HW228212   1.010   3.808  12.701 -3.6694 -0.1084  1.2460
 5585SOL     OW28213   4.594   2.606  13.225  0.1725  0.0090  0.2305
 5585SOL    HW128214   4.663   2.557  13.271 -0.5371 -2.0824 -0.9349
 5585SOL    HW228215   4.607   2.696  13.255  0.4027 -0.4065  1.3793
 5586SOL     OW28216   3.817   3.946  15.247 -0.2067  0.1653  0.0968
 5586SOL    HW128217   3.866   4.027  15.260 -1.2584  0.6744  0.8442
 5586SOL    HW228218   3.735   3.985  15.218  0.3832  1.3200 -0.0500
 5587SOL     OW28219   1.233   4.289  16.392 -0.1403  0.2806  0.0466
 5587SOL    HW128220   1.264   4.333  16.313  1.0013  2.7230  1.8477
 5587SOL    HW228221   1.279   4.327  16.467 -2.7609  2.0231  0.7613
 5588SOL     OW28222   4.595   3.098   5.691 -0.2192  0.4018 -0.2173
 5588SOL    HW128223   4.681   3.103   5.649 -0.0454 -2.2938 -0.1845
 5588SOL    HW228224   4.618   3.115   5.782  2.6389  0.2043 -0.8964
 5589SOL     OW28225   4.120   3.418   0.909 -0.1197 -0.2419  0.1740
 5589SOL    HW128226   4.061   3.361   0.958 -0.0445  0.5491  1.1824
 5589SOL    HW228227   4.072   3.484   0.860  0.8553  0.4248  0.1163
 5590SOL     OW28228   2.541   2.140   8.228 -0.3804 -0.2106  0.0064
 5590SOL    HW128229   2.549   2.130   8.323  1.6909 -1.9723 -0.3360
 5590SOL    HW228230   2.629   2.178   8.230 -1.0598  1.5577 -3.2663
 5591SOL     OW28231   1.918   4.017   5.765 -0.2314  0.0300  0.5104
 5591SOL    HW128232   1.828   4.025   5.735  0.5615  1.4209 -1.4504
 5591SOL    HW228233   1.907   3.947   5.830  2.1470 -1.2255 -0.4205
 5592SOL     OW28234   1.917   4.565   8.224 -0.3819 -0.2200 -0.6481
 5592SOL    HW128235   1.829   4.562   8.187 -0.7440  0.9571  0.1074
 5592SOL    HW228236   1.932   4.659   8.234  0.5789 -0.6687  1.8742
 5593SOL     OW28237   0.599   0.583   3.969 -0.7826  0.2821  0.3170
 5593SOL    HW128238   0.557   0.544   4.045 -1.1241 -0.1639 -0.1053
 5593SOL    HW228239   0.566   0.672   3.983  1.1370  1.1172 -0.4477
 5594SOL     OW28240   0.803   4.445   9.449 -0.0960 -0.2919 -0.0854
 5594SOL    HW128241   0.793   4.539   9.465 -2.6549 -0.5085 -0.3795
 5594SOL    HW228242   0.734   4.415   9.508 -0.1779 -0.0662 -0.0667
 5595SOL     OW28243   1.776   3.333  16.206  0.0027  0.4402  0.3453
 5595SOL    HW128244   1.715   3.340  16.132 -0.0854  0.5904  0.4306
 5595SOL    HW228245   1.746   3.250  16.244 -1.5327  0.4276 -0.9102
 5596SOL     OW28246   1.557   3.002   7.339 -0.4607 -0.0639  0.2626
 5596SOL    HW128247   1.550   2.945   7.263  3.2189  1.2685 -1.0826
 5596SOL    HW228248   1.650   3.022   7.345 -0.1610 -1.5780  0.7826
 5597SOL     OW28249   1.804   0.718   3.007 -0.2419  0.2323  0.3453
 5597SOL    HW128250   1.862   0.794   2.997  2.3206 -1.8028  0.0195
 5597SOL    HW228251   1.844   0.655   2.948  0.6472  2.5152 -1.5028
 5598SOL     OW28252   2.232   2.824   7.862  0.2323  0.2571 -0.5685
 5598SOL    HW128253   2.213   2.913   7.833  0.6869  0.2458 -0.8969
 5598SOL    HW228254   2.172   2.817   7.937  1.7915 -0.9929  0.5829
 5599SOL     OW28255   3.974   1.069   5.090  0.2177 -0.6210  0.0951
 5599SOL    HW128256   3.932   1.155   5.088  1.5612  0.0581  0.8332
 5599SOL    HW228257   4.040   1.084   5.158 -1.0923  1.8834  0.8393
 5600SOL     OW28258   2.438   1.251   3.564 -0.0129  0.5521 -0.3274
 5600SOL    HW128259   2.381   1.193   3.515  0.3063  1.0983 -1.3415
 5600SOL    HW228260   2.401   1.243   3.652  0.7649 -1.4840 -0.1828
 5601SOL     OW28261   4.378   0.506   0.912  0.6221  0.4636 -0.0835
 5601SOL    HW128262   4.399   0.516   1.005 -1.9272  0.6031  0.4821
 5601SOL    HW228263   4.324   0.426   0.906  1.8038 -0.3523  0.2295
 5602SOL     OW28264   0.464   0.521   8.430  0.1528  0.7663  0.2122
 5602SOL    HW128265   0.408   0.572   8.488 -1.6152  1.1261 -1.8144
 5602SOL    HW228266   0.523   0.490   8.498  0.0543 -0.0511 -0.0714
 5603SOL     OW28267   4.574   0.753  12.089 -0.5586  0.2615  0.1880
 5603SOL    HW128268   4.494   0.800  12.111  0.4152  2.5606 -1.1377
 5603SOL    HW228269   4.540   0.716  12.007  0.8902 -2.7407  0.9306
 5604SOL     OW28270   1.128   3.405   7.556 -0.6900 -0.2693  0.2943
 5604SOL    HW128271   1.123   3.390   7.461  0.3863 -0.5024  0.2725
 5604SOL    HW228272   1.037   3.390   7.580 -1.3173  0.8213 -1.3884
 5605SOL     OW28273   3.839   0.314   3.706  0.5228 -0.0354  0.5671
 5605SOL    HW128274   3.859   0.391   3.759 -0.8281  0.3554  0.5291
 5605SOL    HW228275   3.777   0.258   3.753 -0.5739  0.4400 -0.3181
 5606SOL     OW28276   3.131   0.823  16.060  0.2825 -0.1470 -0.5090
 5606SOL    HW128277   3.054   0.825  16.003 -1.0400 -2.0432  1.2141
 5606SOL    HW228278   3.130   0.744  16.114  1.1000 -0.5176 -1.0250
 5607SOL     OW28279   1.518   1.183   3.398  0.1447 -0.3224 -0.4204
 5607SOL    HW128280   1.448   1.218   3.343 -0.8262 -2.2912 -0.4350
 5607SOL    HW228281   1.475   1.190   3.483  3.1436  1.3036  0.9695
 5608SOL     OW28282   2.947   3.133   5.094  0.3645 -0.3070  0.2459
 5608SOL    HW128283   2.957   3.217   5.050 -1.1188 -0.7111 -0.8536
 5608SOL    HW228284   2.893   3.083   5.034  0.5800 -0.6240  0.3148
 5609SOL     OW28285   3.774   2.240   3.387  1.0155 -0.6509 -0.4123
 5609SOL    HW128286   3.817   2.156   3.402  0.3717 -0.9955 -0.5334
 5609SOL    HW228287   3.786   2.281   3.473 -1.8705  1.9695 -1.2693
 5610SOL     OW28288   1.690   2.026  11.059 -0.0300 -0.0104  0.6230
 5610SOL    HW128289   1.722   1.979  10.982  0.7377  1.2233  0.1823
 5610SOL    HW228290   1.770   2.039  11.109  1.0989 -0.8922 -0.9742
 5611SOL     OW28291   0.167   4.459   8.089  0.0229 -0.3964  0.1322
 5611SOL    HW128292   0.175   4.555   8.092 -1.2056 -0.2772 -0.5016
 5611SOL    HW228293   0.073   4.442   8.084 -0.3178  1.5394 -0.1580
 5612SOL     OW28294   1.666   0.275   4.463 -0.7373  0.1896 -0.2569
 5612SOL    HW128295   1.677   0.180   4.459  1.4882  0.4644 -0.9862
 5612SOL    HW228296   1.753   0.312   4.479 -0.8499  1.1494 -1.8471
 5613SOL     OW28297   3.271   1.024   3.731 -0.3261 -0.2456 -0.1244
 5613SOL    HW128298   3.191   0.974   3.746  0.2326 -1.4974 -1.2540
 5613SOL    HW228299   3.233   1.111   3.720  1.0571  0.3753 -0.0797
 5614SOL     OW28300   2.030   1.999   2.955 -0.2887 -0.1609 -0.1025
 5614SOL    HW128301   2.090   1.926   2.966  1.6060  1.7160  2.0987
 5614SOL    HW228302   2.064   2.034   2.872 -3.0504 -1.3479 -1.7456
 5615SOL     OW28303   3.144   1.917  13.613 -0.4677  0.0291 -0.1209
 5615SOL    HW128304   3.158   2.003  13.572  0.6579  0.8840  2.0307
 5615SOL    HW228305   3.162   1.860  13.538  0.5163  0.4767 -0.2271
 5616SOL     OW28306   0.224   3.149   5.307 -0.6899 -0.5793  0.3077
 5616SOL    HW128307   0.175   3.223   5.269  1.1639  0.3271 -0.3301
 5616SOL    HW228308   0.261   3.112   5.227 -1.6219 -1.0925  0.1112
 5617SOL     OW28309   2.857   1.475   9.232  0.4229  0.1308 -0.2180
 5617SOL    HW128310   2.896   1.448   9.315  1.3172  0.0492 -0.6618
 5617SOL    HW228311   2.882   1.567   9.230  2.3664 -0.4430 -2.2615
 5618SOL     OW28312   2.432   3.778  13.937  0.0082 -0.5993 -0.1723
 5618SOL    HW128313   2.385   3.714  13.884 -0.2766  2.3662 -3.5321
 5618SOL    HW228314   2.520   3.741  13.944 -1.0607 -2.8250  1.3669
 5619SOL     OW28315   3.840   2.889  15.274 -0.6004 -0.3039 -0.2923
 5619SOL    HW128316   3.820   2.797  15.262  2.0754 -0.9319  0.0519
 5619SOL    HW228317   3.798   2.912  15.357 -0.1543 -0.7364  0.0542
 5620SOL     OW28318   3.584   1.514   4.566 -0.0525  1.0180  0.1183
 5620SOL    HW128319   3.623   1.525   4.479  2.5002  0.5187  1.2067
 5620SOL    HW228320   3.615   1.425   4.583  0.9336  1.0906 -1.2899
 5621SOL     OW28321   4.533   2.981   9.644  0.3413 -0.2083  0.3555
 5621SOL    HW128322   4.527   3.077   9.642  1.2261 -0.1570 -0.0453
 5621SOL    HW228323   4.446   2.945   9.661  0.2090 -0.4538 -0.7929
 5622SOL     OW28324   0.752   0.707  13.391 -0.5646  0.1924 -0.3139
 5622SOL    HW128325   0.732   0.801  13.386  2.2670  0.8856  0.9497
 5622SOL    HW228326   0.670   0.687  13.436 -1.4734  2.4423 -0.9548
 5623SOL     OW28327   2.628   4.589   3.189 -0.0244  0.3401  0.1229
 5623SOL    HW128328   2.678   4.658   3.146  2.0018 -2.0756 -1.3921
 5623SOL    HW228329   2.562   4.649   3.225  0.1282  0.2927  0.4851
 5624SOL     OW28330   1.497   2.435   1.215  0.0524 -0.2444  0.2327
 5624SOL    HW128331   1.567   2.380   1.180  0.1890  0.0487  0.0437
 5624SOL    HW228332   1.417   2.388   1.191 -1.2543  3.3056 -2.4480
 5625SOL     OW28333   2.364   3.364   5.238  0.2074 -0.0702  0.1672
 5625SOL    HW128334   2.361   3.442   5.293  1.1957 -0.2528  0.4938
 5625SOL    HW228335   2.434   3.315   5.282  0.9345  0.0259 -0.8596
 5626SOL     OW28336   1.739   1.068  10.729 -0.0705  0.4165  0.5926
 5626SOL    HW128337   1.687   1.051  10.650 -1.1565  2.3425  0.8921
 5626SOL    HW228338   1.819   1.021  10.706 -0.2033 -0.5405  2.0914
 5627SOL     OW28339   4.536   4.677  15.588  0.2815  0.5144 -0.2114
 5627SOL    HW128340   4.484   4.718  15.658 -0.5852  1.2018 -1.2658
 5627SOL    HW228341   4.482   4.683  15.509 -0.6165  0.9856  0.4359
 5628SOL     OW28342   1.589   3.870   3.819 -0.2876 -0.1359 -0.0277
 5628SOL    HW128343   1.510   3.886   3.870  0.1728  0.3092  0.5425
 5628SOL    HW228344   1.645   3.940   3.854  0.1519 -0.4858 -0.0322
 5629SOL     OW28345   2.803   0.788   5.829 -0.3916  0.9650 -0.7262
 5629SOL    HW128346   2.852   0.790   5.912  0.7575  0.1143 -1.3852
 5629SOL    HW228347   2.766   0.700   5.834  0.3792  0.5977 -1.5200
 5630SOL     OW28348   2.863   1.722   3.043 -0.4923 -0.4351 -0.4459
 5630SOL    HW128349   2.854   1.682   3.130 -3.1195 -2.0426 -1.4475
 5630SOL    HW228350   2.927   1.791   3.059  0.0451 -1.8249  3.4437
 5631SOL     OW28351   2.842   1.089   9.714 -0.5961  0.1470 -0.2927
 5631SOL    HW128352   2.757   1.117   9.679  0.5084 -0.6519 -3.6686
 5631SOL    HW228353   2.886   1.173   9.708  1.4947 -1.0076 -1.0810
 5632SOL     OW28354   2.316   4.141  11.171  0.4345  0.3858  0.1129
 5632SOL    HW128355   2.268   4.108  11.247  0.2500 -1.3787 -0.7647
 5632SOL    HW228356   2.359   4.060  11.142 -3.3342 -0.3968 -3.3057
 5633SOL     OW28357   1.465   4.364   2.874  0.0420  1.0164  0.0372
 5633SOL    HW128358   1.536   4.352   2.811  1.1875  0.6748  1.3808
 5633SOL    HW228359   1.459   4.273   2.904 -0.1771  0.9756 -0.1306
 5634SOL     OW28360   3.732   1.563  12.271 -0.7038 -0.2473  0.6963
 5634SOL    HW128361   3.810   1.580  12.323  0.3143  0.1708 -0.9760
 5634SOL    HW228362   3.707   1.479  12.311  0.4225 -0.9575 -0.1032
 5635SOL     OW28363   1.241   0.175  15.661  0.1085  0.1789 -0.5346
 5635SOL    HW128364   1.208   0.181  15.571  0.0374  0.7774 -0.4664
 5635SOL    HW228365   1.166   0.126  15.696 -0.9739  2.1997 -0.0348
 5636SOL     OW28366   3.593   2.579   5.807  0.0662 -0.6121  0.1626
 5636SOL    HW128367   3.626   2.669   5.814  0.5803 -0.7546 -0.4472
 5636SOL    HW228368   3.602   2.567   5.713  0.9009  0.9851  0.0258
 5637SOL     OW28369   1.678   2.697  15.451 -0.0537 -0.0819  0.0178
 5637SOL    HW128370   1.624   2.624  15.420  0.7050  0.0323 -1.6216
 5637SOL    HW228371   1.712   2.744  15.375 -2.1895  2.7924  0.8428
 5638SOL     OW28372   3.478   4.039   5.714 -0.0192  0.6503 -0.1982
 5638SOL    HW128373   3.454   3.970   5.652  0.8262  1.4892 -1.4728
 5638SOL    HW228374   3.415   4.018   5.783 -1.5946  1.1637 -1.4794
 5639SOL     OW28375   0.098   3.961  17.440  1.0267  0.2683  0.3575
 5639SOL    HW128376   0.022   3.974  17.496  0.9614 -0.1449  0.3670
 5639SOL    HW228377   0.100   4.041  17.388  0.8703  0.3991  0.5575
 5640SOL     OW28378   2.673   4.536  11.180 -0.5273 -0.0031  0.3521
 5640SOL    HW128379   2.677   4.505  11.089  0.7773  1.4064 -0.0714
 5640SOL    HW228380   2.680   4.452  11.226 -0.6708  0.1717  0.6876
 5641SOL     OW28381   0.114   0.301   4.656  0.1700 -0.2533 -0.4074
 5641SOL    HW128382   0.062   0.377   4.630  1.2511  0.9919  1.0867
 5641SOL    HW228383   0.165   0.282   4.577  0.7756  0.7381 -0.2555
 5642SOL     OW28384   0.103   0.691   7.691 -0.2130  0.3066  0.1929
 5642SOL    HW128385   0.167   0.737   7.638 -0.2395 -1.3824 -1.3295
 5642SOL    HW228386   0.039   0.662   7.625  0.0348  0.6130 -0.1809
 5643SOL     OW28387   3.108   1.852   9.963  0.2087  0.2019 -0.1293
 5643SOL    HW128388   3.194   1.811   9.960  1.1437  2.1530  0.1589
 5643SOL    HW228389   3.113   1.898  10.046 -0.3699 -0.3603  0.2251
 5644SOL     OW28390   0.514   2.874   4.453 -0.5453  0.6800 -0.5520
 5644SOL    HW128391   0.468   2.832   4.380 -0.7087 -0.5131  0.2329
 5644SOL    HW228392   0.558   2.942   4.402  0.6447 -0.5104 -1.1178
 5645SOL     OW28393   0.352   2.467   2.364  0.3656  0.3889  0.1845
 5645SOL    HW128394   0.386   2.447   2.451  1.0926 -0.2276 -0.2329
 5645SOL    HW228395   0.404   2.546   2.347  1.0446  0.2837  1.7592
 5646SOL     OW28396   0.066   0.098   0.477  0.4019  0.3901 -0.4390
 5646SOL    HW128397   0.007   0.048   0.421 -0.9221  0.0340  1.2448
 5646SOL    HW228398   0.018   0.181   0.477 -1.3705 -0.6381 -1.4645
 5647SOL     OW28399   4.157   0.992   4.367 -0.4064  0.1962  0.2925
 5647SOL    HW128400   4.199   1.071   4.331  1.5525 -1.6461 -1.4529
 5647SOL    HW228401   4.093   1.033   4.425 -1.2961 -0.4735 -0.2194
 5648SOL     OW28402   3.154   3.591   6.581  1.0949 -0.5930 -0.1734
 5648SOL    HW128403   3.192   3.604   6.494  1.7276  0.7884  0.2966
 5648SOL    HW228404   3.222   3.628   6.638  0.3015  1.0825 -0.3101
 5649SOL     OW28405   4.292   1.434   1.280  0.2982  0.5398 -0.0232
 5649SOL    HW128406   4.247   1.431   1.365 -0.0835 -2.1647 -0.3193
 5649SOL    HW228407   4.356   1.363   1.289 -0.3758 -0.3989 -2.5787
 5650SOL     OW28408   4.021   4.243  15.558  0.5256 -0.2983  0.2892
 5650SOL    HW128409   4.070   4.326  15.558 -1.2031  0.7208 -1.3661
 5650SOL    HW228410   3.979   4.250  15.644  0.8703 -2.0572  0.5904
 5651SOL     OW28411   1.448   4.021   3.575 -0.1776 -0.7947 -0.8997
 5651SOL    HW128412   1.413   4.093   3.629  2.4887  1.2440 -1.8653
 5651SOL    HW228413   1.442   3.936   3.618 -0.6172 -0.7354 -0.8452
 5652SOL     OW28414   0.735   3.165  10.687 -0.3262  0.1445  0.2171
 5652SOL    HW128415   0.748   3.134  10.777 -0.7711  0.5112  0.4070
 5652SOL    HW228416   0.779   3.094  10.639 -0.4322 -1.0353  1.8621
 5653SOL     OW28417   4.465   1.615   8.585 -0.1212 -0.1047  0.0651
 5653SOL    HW128418   4.422   1.530   8.582 -0.3173 -0.0206  0.5115
 5653SOL    HW228419   4.404   1.678   8.623  0.6698 -0.0383  1.2331
 5654SOL     OW28420   0.433   2.505   7.832 -0.0111  0.8911 -0.1839
 5654SOL    HW128421   0.472   2.548   7.908  1.1902  0.9328 -0.8248
 5654SOL    HW228422   0.391   2.425   7.865  0.9698  1.1998  1.7570
 5655SOL     OW28423   2.823   0.773  11.984 -0.0674 -0.6414  0.0167
 5655SOL    HW128424   2.880   0.730  12.048  1.3892 -1.7476 -2.0345
 5655SOL    HW228425   2.747   0.801  12.036  0.7991 -0.3222  1.1032
 5656SOL     OW28426   3.400   2.104   8.912  0.0516 -0.4010 -0.2140
 5656SOL    HW128427   3.483   2.130   8.952  0.5068 -0.9916 -0.7721
 5656SOL    HW228428   3.412   2.116   8.818  2.0027  0.9199  0.2044
 5657SOL     OW28429   2.305   2.850   2.147  0.0422 -0.3052 -0.0073
 5657SOL    HW128430   2.286   2.827   2.057 -0.5283 -0.2558  0.0997
 5657SOL    HW228431   2.394   2.881   2.129 -0.2691  1.0811  0.7650
 5658SOL     OW28432   2.677   3.917   5.841  0.5659 -0.1200 -0.5394
 5658SOL    HW128433   2.685   3.907   5.936 -2.2302  0.6913 -0.2178
 5658SOL    HW228434   2.582   3.929   5.841  0.7758  1.4278  3.0098
 5659SOL     OW28435   3.377   4.064   8.994 -0.8936  0.5426 -0.7368
 5659SOL    HW128436   3.353   4.128   9.062 -0.7440 -0.3492  0.1522
 5659SOL    HW228437   3.436   4.119   8.941 -0.1578  2.3591  1.9645
 5660SOL     OW28438   2.261   3.704   2.175 -0.2176  0.2770  0.2805
 5660SOL    HW128439   2.346   3.740   2.149  0.8362 -2.4851 -0.0525
 5660SOL    HW228440   2.302   3.623   2.205  1.6341  0.3978 -1.9276
 5661SOL     OW28441   4.625   2.616  13.907 -0.2419  0.5445 -0.6026
 5661SOL    HW128442   4.648   2.675  13.978  1.3479 -1.2739  0.3711
 5661SOL    HW228443   4.695   2.640  13.846  0.7875  0.9495  0.7528
 5662SOL     OW28444   2.656   4.669   5.448  0.1399 -0.1494 -0.4532
 5662SOL    HW128445   2.676   4.682   5.355  0.9009  2.7655  0.1471
 5662SOL    HW228446   2.741   4.647   5.486  0.2026  1.7963  0.5410
 5663SOL     OW28447   0.862   0.471   8.911 -0.0569  0.0053  0.7176
 5663SOL    HW128448   0.909   0.540   8.864  0.8289 -0.8168  0.3904
 5663SOL    HW228449   0.852   0.520   8.992  2.2098  1.2866  0.2473
 5664SOL     OW28450   2.965   2.600   5.963 -0.3434 -0.8620  0.4616
 5664SOL    HW128451   2.883   2.641   5.937 -1.4222 -3.8040 -0.8100
 5664SOL    HW228452   3.026   2.662   5.923  1.3988 -2.9156 -0.0958
 5665SOL     OW28453   3.358   3.007   3.429  0.2404 -0.0791 -0.7153
 5665SOL    HW128454   3.433   3.059   3.458 -0.2753  1.3494 -1.9535
 5665SOL    HW228455   3.410   2.938   3.388 -2.8238 -1.9429 -1.5136
 5666SOL     OW28456   3.707   1.834  13.444 -0.5837 -0.2263 -0.6724
 5666SOL    HW128457   3.634   1.791  13.490 -0.1469  0.9829  1.1653
 5666SOL    HW228458   3.783   1.791  13.482 -1.1762  0.6005  1.4572
 5667SOL     OW28459   1.555   3.115   6.989  0.5511 -0.2755  0.0505
 5667SOL    HW128460   1.524   3.171   6.919 -0.6902  2.2596  2.6415
 5667SOL    HW228461   1.618   3.059   6.942 -0.8973 -1.1905 -0.7849
 5668SOL     OW28462   2.304   2.253   4.563 -0.3347  0.0706  0.1266
 5668SOL    HW128463   2.391   2.268   4.528 -0.4110 -1.6783 -0.8077
 5668SOL    HW228464   2.314   2.184   4.629  0.7197  0.2706  0.1703
 5669SOL     OW28465   3.728   2.179   4.965  0.3483  0.1023 -0.1377
 5669SOL    HW128466   3.725   2.266   4.925 -1.4571  0.0443 -0.1391
 5669SOL    HW228467   3.816   2.174   5.001  0.4048 -1.9167 -0.5383
 5670SOL     OW28468   2.445   0.247   5.566  0.2850 -0.4804 -0.2202
 5670SOL    HW128469   2.374   0.196   5.604  0.7302 -0.2323  0.9487
 5670SOL    HW228470   2.425   0.337   5.594  1.0041  0.6023 -3.1280
 5671SOL     OW28471   1.108   0.952   2.822  0.2143 -0.1256  0.1206
 5671SOL    HW128472   1.044   0.881   2.814  1.4492 -1.1316 -0.7846
 5671SOL    HW228473   1.096   1.006   2.743  0.6694  0.0985  0.2020
 5672SOL     OW28474   0.252   2.563   3.732 -0.6067 -0.4639  0.3257
 5672SOL    HW128475   0.265   2.656   3.750 -1.9018 -0.0443 -0.8994
 5672SOL    HW228476   0.246   2.571   3.637  1.8696 -2.7642 -0.0313
 5673SOL     OW28477   2.387   4.359   7.525 -0.5602  0.5046  0.0335
 5673SOL    HW128478   2.365   4.388   7.436  0.0114 -0.6335 -0.4746
 5673SOL    HW228479   2.325   4.413   7.574 -0.8195 -2.2330  2.6550
 5674SOL     OW28480   4.439   3.216   6.835  0.4324  0.1768  0.0312
 5674SOL    HW128481   4.405   3.274   6.768  0.9068 -0.5732 -0.8530
 5674SOL    HW228482   4.355   3.200   6.878  0.7295  0.9558  0.9138
 5675SOL     OW28483   2.007   3.630   2.052  0.2746 -0.2470  0.6785
 5675SOL    HW128484   2.091   3.669   2.076  0.8247 -0.3212 -1.1545
 5675SOL    HW228485   1.975   3.671   1.972 -2.2941 -2.5702  0.5110
 5676SOL     OW28486   0.010   1.636  13.009 -0.1084 -0.9293  0.1435
 5676SOL    HW128487   0.036   1.679  13.090 -1.6176  0.3923 -0.0772
 5676SOL    HW228488   0.043   1.687  12.935  0.0135  0.5324  1.2069
 5677SOL     OW28489   4.636   4.495   2.714 -0.4982 -0.2224  1.0311
 5677SOL    HW128490   4.711   4.461   2.764  1.3102  0.3059 -1.3463
 5677SOL    HW228491   4.638   4.581   2.758  0.8644  0.9320 -1.2787
 5678SOL     OW28492   3.556   4.325  11.410  0.4362  0.2554  0.0679
 5678SOL    HW128493   3.515   4.370  11.337  0.6231 -1.5012 -1.1096
 5678SOL    HW228494   3.604   4.398  11.451 -0.6384  0.8858  0.1959
 5679SOL     OW28495   1.551   3.855  14.565  0.1071  0.0545 -0.2466
 5679SOL    HW128496   1.562   3.824  14.655  0.3088  0.9397  0.0382
 5679SOL    HW228497   1.465   3.891  14.583  0.2186  0.8018 -1.2126
 5680SOL     OW28498   3.255   0.853   7.720 -0.7739  0.1925  0.0162
 5680SOL    HW128499   3.306   0.869   7.799 -0.3526  2.1223 -0.6653
 5680SOL    HW228500   3.319   0.841   7.650  0.8655  0.5155  1.4489
 5681SOL     OW28501   3.250   3.808   2.620  0.1671 -0.3463  1.2478
 5681SOL    HW128502   3.205   3.812   2.536 -0.7342 -0.5743  1.7207
 5681SOL    HW228503   3.250   3.716   2.645 -1.2244 -0.5652  0.4496
 5682SOL     OW28504   1.193   4.678   3.435  0.0340 -0.4956 -0.5518
 5682SOL    HW128505   1.211   0.026   3.496  0.9579 -1.7952  0.7318
 5682SOL    HW228506   1.272   4.625   3.442  0.3774  0.4613  2.9707
 5683SOL     OW28507   1.813   4.026  11.717 -0.2990  0.1280 -0.4196
 5683SOL    HW128508   1.737   4.084  11.708 -0.7842 -0.4763 -0.2096
 5683SOL    HW228509   1.874   4.076  11.771 -0.3416 -1.0504  0.7075
 5684SOL     OW28510   3.485   2.075   6.131  0.1514 -0.1637  0.1760
 5684SOL    HW128511   3.571   2.082   6.090  0.4490  0.7338  0.9431
 5684SOL    HW228512   3.518   2.060   6.220  2.5477 -1.2767 -0.8920
 5685SOL     OW28513   3.677   0.225   8.831 -0.6200 -0.1597  0.3386
 5685SOL    HW128514   3.710   0.304   8.788 -1.7146 -0.4236 -0.9874
 5685SOL    HW228515   3.654   0.260   8.917  0.1627 -0.2810  0.5928
 5686SOL     OW28516   4.179   0.851   0.217 -0.0299  0.2321  0.1124
 5686SOL    HW128517   4.133   0.854   0.301 -0.2296  0.3436 -0.0026
 5686SOL    HW228518   4.251   0.914   0.227  0.3673 -0.3684  1.0467
 5687SOL     OW28519   4.626   4.508  12.512 -0.4880 -0.3884 -0.2827
 5687SOL    HW128520   4.717   4.480  12.499 -0.1657  1.0957 -1.1976
 5687SOL    HW228521   4.620   4.539  12.602 -0.1266 -0.2023 -0.3208
 5688SOL     OW28522   0.419   2.177   5.163  0.6158  0.2560  0.2820
 5688SOL    HW128523   0.413   2.241   5.235  0.6734  0.5421  0.0307
 5688SOL    HW228524   0.326   2.164   5.145  0.2739 -0.2769  2.4134
 5689SOL     OW28525   3.553   2.151   8.327  0.3252 -0.3832  0.5644
 5689SOL    HW128526   3.563   2.234   8.281  2.3941  0.2028  2.0737
 5689SOL    HW228527   3.459   2.138   8.341  0.3809 -1.8589 -0.4196
 5690SOL     OW28528   2.700   3.786  10.146  0.4517 -0.3073  0.1582
 5690SOL    HW128529   2.640   3.719  10.181 -0.8819  0.4051 -0.7518
 5690SOL    HW228530   2.716   3.836  10.226  0.5680 -0.0143 -0.0499
 5691SOL     OW28531   2.587   3.035  17.078  0.4816  0.1295 -0.0013
 5691SOL    HW128532   2.654   2.983  17.122  1.0272 -0.1302 -1.1268
 5691SOL    HW228533   2.585   3.126  17.106  2.0805  0.2822 -0.4241
 5692SOL     OW28534   0.382   1.668   7.576  0.5033  0.0305 -0.1932
 5692SOL    HW128535   0.418   1.587   7.540 -0.2091 -0.6443  0.6302
 5692SOL    HW228536   0.337   1.621   7.646 -0.0574 -0.6690 -1.0360
 5693SOL     OW28537   1.085   0.709   5.505 -0.0461 -0.2556  0.5492
 5693SOL    HW128538   1.099   0.658   5.425 -1.5547  0.3741 -0.1106
 5693SOL    HW228539   1.076   0.639   5.570 -0.5801  0.8459  1.6651
 5694SOL     OW28540   1.299   2.675  17.122  0.5251  0.1347 -0.2753
 5694SOL    HW128541   1.344   2.712  17.047 -0.0504  0.0809 -0.6431
 5694SOL    HW228542   1.367   2.690  17.189  0.7101  0.4612 -0.5379
 5695SOL     OW28543   0.987   3.938   6.170 -0.1733 -0.1320 -0.0648
 5695SOL    HW128544   0.895   3.964   6.170  0.4256  2.0162 -0.9116
 5695SOL    HW228545   1.006   3.921   6.263  0.7658  1.6046  0.0564
 5696SOL     OW28546   1.272   3.650   3.525  0.3618 -0.2929  0.8566
 5696SOL    HW128547   1.184   3.615   3.538  0.3274  0.0885  1.6827
 5696SOL    HW228548   1.279   3.711   3.599 -2.8421  0.6612  0.3644
 5697SOL     OW28549   1.376   1.326  13.578 -0.0963  0.3471 -0.2595
 5697SOL    HW128550   1.332   1.410  13.591 -0.2895  0.2698 -0.4325
 5697SOL    HW228551   1.435   1.353  13.507  2.2495  0.6781  1.8102
 5698SOL     OW28552   3.948   2.431  15.182 -0.5317  0.5601  0.1380
 5698SOL    HW128553   3.890   2.507  15.179 -1.0320  0.2120  0.9903
 5698SOL    HW228554   3.887   2.364  15.153 -2.8580  2.4504  0.5866
 5699SOL     OW28555   1.017   1.360   1.822  0.0305 -0.4972  0.2838
 5699SOL    HW128556   0.952   1.336   1.756  0.0519  1.1867 -0.3648
 5699SOL    HW228557   1.030   1.275   1.863 -1.7361  0.0508  1.9752
 5700SOL     OW28558   3.582   1.284   8.487  0.1455  0.4190 -0.6519
 5700SOL    HW128559   3.532   1.333   8.552 -1.0333 -0.9299 -0.5491
 5700SOL    HW228560   3.524   1.301   8.412 -0.9910 -0.7431 -0.0404
 5701SOL     OW28561   1.656   0.839   0.489 -0.2953 -0.1679 -0.5292
 5701SOL    HW128562   1.642   0.867   0.580 -1.7411  0.8999 -1.0919
 5701SOL    HW228563   1.583   0.777   0.484  0.6597 -1.6164  2.8541
 5702SOL     OW28564   0.540   4.221  12.284  0.5986  0.0202  0.1582
 5702SOL    HW128565   0.463   4.181  12.243  0.6488 -0.7081  0.7920
 5702SOL    HW228566   0.588   4.139  12.293  0.9690  0.4084  1.5979
 5703SOL     OW28567   3.484   3.807   2.425 -1.0757  0.4800 -0.0339
 5703SOL    HW128568   3.427   3.732   2.444 -0.8169  0.3814  0.3357
 5703SOL    HW228569   3.481   3.867   2.499 -1.2483 -0.7427  0.9470
 5704SOL     OW28570   4.696   4.296   5.425 -0.1596  0.7263  0.2176
 5704SOL    HW128571   0.019   4.348   5.361 -0.8331  0.5795 -0.4044
 5704SOL    HW228572   0.022   4.302   5.506 -2.3161  1.3608  1.5419
 5705SOL     OW28573   0.732   2.910   6.456  0.1929 -0.7291  0.0288
 5705SOL    HW128574   0.643   2.900   6.423 -0.3998 -0.2391  1.4646
 5705SOL    HW228575   0.766   2.991   6.418  0.9426 -1.4172 -0.7576
 5706SOL     OW28576   0.354   4.521   1.809 -0.6276  0.3709 -0.3202
 5706SOL    HW128577   0.389   4.477   1.886 -1.5156  1.1568  0.5255
 5706SOL    HW228578   0.261   4.514   1.829 -0.2402  0.1311  1.3357
 5707SOL     OW28579   2.380   1.658   6.058  0.2200  0.2452  0.2122
 5707SOL    HW128580   2.301   1.610   6.033  1.8360 -1.0884 -2.3506
 5707SOL    HW228581   2.355   1.750   6.058 -2.6490 -0.5491 -2.1532
 5708SOL     OW28582   4.643   3.248   3.260 -0.7986 -0.0872  0.1356
 5708SOL    HW128583   4.631   3.321   3.198  0.9954 -1.0529 -1.3437
 5708SOL    HW228584   4.721   3.210   3.220 -1.4759  0.6946 -1.9299
 5709SOL     OW28585   2.537   3.219   3.643  0.3114 -1.0673  0.5877
 5709SOL    HW128586   2.498   3.145   3.598  1.3376 -0.6227 -1.0397
 5709SOL    HW228587   2.627   3.189   3.652 -0.3199 -2.2491  2.7727
 5710SOL     OW28588   4.108   2.219   6.041 -0.0806  0.6790 -0.0993
 5710SOL    HW128589   4.154   2.136   6.032  0.3120  0.8073  0.7091
 5710SOL    HW228590   4.182   2.278   6.055  0.9520 -0.4962 -0.6003
 5711SOL     OW28591   1.593   0.498   9.339  0.5468 -0.4501  0.4356
 5711SOL    HW128592   1.579   0.588   9.310  0.6978 -0.3992  0.5210
 5711SOL    HW228593   1.629   0.517   9.426 -1.4699  3.1421  0.4808
 5712SOL     OW28594   0.047   1.065   3.421  0.5239  0.1173  0.1911
 5712SOL    HW128595   0.126   1.023   3.455  1.7666  2.7955  0.6570
 5712SOL    HW228596   0.004   0.996   3.370 -0.2161  0.2011  0.6991
 5713SOL     OW28597   1.605   1.210   3.830 -0.7392 -0.3686 -0.4094
 5713SOL    HW128598   1.566   1.196   3.916  1.3293  2.1367  0.9410
 5713SOL    HW228599   1.566   1.296   3.816  0.3142  0.1699 -0.0256
 5714SOL     OW28600   3.638   2.806   2.321  0.4632  0.3213  0.1702
 5714SOL    HW128601   3.594   2.798   2.406 -0.6928  0.5863 -0.4122
 5714SOL    HW228602   3.647   2.899   2.305 -0.8892  0.5282  0.6438
 5715SOL     OW28603   2.701   2.494   8.172  0.2472  0.0419  0.2848
 5715SOL    HW128604   2.731   2.427   8.232 -1.3134  1.1103  2.2643
 5715SOL    HW228605   2.778   2.547   8.151  0.2671 -0.0489  0.1303
 5716SOL     OW28606   3.212   0.109   8.000  0.2963  0.1060  0.6518
 5716SOL    HW128607   3.176   0.065   7.923  1.5272 -1.3733  0.9231
 5716SOL    HW228608   3.292   0.147   7.964  0.6080  2.0704  3.4446
 5717SOL     OW28609   4.646   3.902   9.996 -0.1201 -0.0553 -0.0865
 5717SOL    HW128610   4.564   3.886   9.949 -0.2675  3.0971 -0.9271
 5717SOL    HW228611   4.640   3.995   9.974 -1.0833  0.3337  1.9176
 5718SOL     OW28612   1.705   2.868   3.899 -0.2825  0.3986  0.0530
 5718SOL    HW128613   1.657   2.874   3.817 -0.2074  0.8883  0.0448
 5718SOL    HW228614   1.795   2.849   3.872  0.0782  0.2123  1.3997
 5719SOL     OW28615   0.871   2.911  12.918  0.2921 -0.1060 -0.3386
 5719SOL    HW128616   0.824   2.867  12.989  1.4048 -0.5250  0.1327
 5719SOL    HW228617   0.901   2.987  12.967  1.2581 -0.4055 -0.4777
 5720SOL     OW28618   4.662   1.052  15.021  0.2242  0.3184 -0.0255
 5720SOL    HW128619   4.637   1.145  15.017 -2.2939 -0.3361  0.5572
 5720SOL    HW228620   4.608   1.027  15.096 -2.2910  0.2998 -1.8312
 5721SOL     OW28621   0.945   3.282   7.388  0.1708  0.6172 -0.7978
 5721SOL    HW128622   0.924   3.189   7.391  0.9577  0.4164 -1.3969
 5721SOL    HW228623   0.862   3.314   7.355 -0.0105 -0.7980 -1.7140
 5722SOL     OW28624   0.757   4.226  12.556 -0.5783 -0.0958 -0.1336
 5722SOL    HW128625   0.847   4.197  12.541 -1.1590 -2.0223  0.1091
 5722SOL    HW228626   0.714   4.167  12.495  1.0684 -0.3700 -1.0494
 5723SOL     OW28627   0.189   1.885   9.059 -0.4368 -0.0615 -0.3046
 5723SOL    HW128628   0.162   1.949   9.125  1.8977  0.1646  0.4464
 5723SOL    HW228629   0.130   1.814   9.083 -0.2899  0.0442  0.3613
 5724SOL     OW28630   3.463   3.016   0.843  0.6727 -0.4317 -0.3335
 5724SOL    HW128631   3.543   2.979   0.881  0.2367  0.0122  1.0016
 5724SOL    HW228632   3.509   3.082   0.792  2.7879 -0.0747  2.0281
 5725SOL     OW28633   0.222   1.885   9.447 -0.5835 -0.0768  0.4418
 5725SOL    HW128634   0.289   1.939   9.405 -1.5643  0.0761 -0.9069
 5725SOL    HW228635   0.274   1.810   9.476  0.9316  0.4542 -0.8867
 5726SOL     OW28636   0.138   4.493   5.315 -0.3138 -0.1006 -0.2285
 5726SOL    HW128637   0.194   4.524   5.244  0.8817  2.2702  1.7407
 5726SOL    HW228638   0.151   4.562   5.380 -1.0591 -0.0912 -0.0839
 5727SOL     OW28639   4.480   3.319   5.530 -0.4903  0.2059 -0.5201
 5727SOL    HW128640   4.405   3.291   5.582  0.6079  0.1110  0.9938
 5727SOL    HW228641   4.467   3.281   5.443 -0.9268 -2.0543  0.5388
 5728SOL     OW28642   1.965   3.677   8.962 -0.3950 -0.1012  0.0791
 5728SOL    HW128643   1.968   3.681   8.866  0.5184  2.9455  0.2481
 5728SOL    HW228644   1.962   3.582   8.973  0.6223 -0.2019 -0.5502
 5729SOL     OW28645   3.584   1.816   3.763 -0.3528  0.1173 -0.5248
 5729SOL    HW128646   3.576   1.734   3.811 -1.3064  0.8857  0.6187
 5729SOL    HW228647   3.512   1.866   3.802 -1.5946 -1.5755 -0.6650
 5730SOL     OW28648   0.921   0.510   2.667  0.3543  0.3595 -0.5671
 5730SOL    HW128649   0.834   0.473   2.652  1.0606 -1.3044 -0.4945
 5730SOL    HW228650   0.935   0.578   2.601 -0.8385 -0.3295 -1.5071
 5731SOL     OW28651   1.949   0.486   1.791  0.0374  0.1341 -0.2922
 5731SOL    HW128652   1.891   0.495   1.866  0.5186 -2.7998  0.4350
 5731SOL    HW228653   1.907   0.525   1.714  0.1792  0.5654 -0.1525
 5732SOL     OW28654   4.288   4.134  12.748 -0.1166 -0.5788 -0.2754
 5732SOL    HW128655   4.201   4.095  12.756  0.2345 -1.7744 -2.4914
 5732SOL    HW228656   4.311   4.099  12.663  0.4976 -0.4436 -0.1642
 5733SOL     OW28657   4.136   0.875  10.287  1.1986  0.0973  0.2051
 5733SOL    HW128658   4.082   0.940  10.332  0.4696  0.5388 -1.3322
 5733SOL    HW228659   4.124   0.796  10.341  2.4768  0.3918  0.9069
 5734SOL     OW28660   4.637   3.728   7.047  0.1114  1.1995 -0.3185
 5734SOL    HW128661   4.578   3.685   6.985 -0.0084  1.1778 -0.1898
 5734SOL    HW228662   4.569   3.771   7.099 -1.4358 -2.5747  0.7871
 5735SOL     OW28663   1.086   1.816   8.833  0.3868 -0.1557  0.3478
 5735SOL    HW128664   1.079   1.866   8.751 -2.0927 -1.4335 -0.2053
 5735SOL    HW228665   1.048   1.867   8.904 -1.1958 -0.1603 -0.5105
 5736SOL     OW28666   3.540   2.914  17.469 -0.0591  0.0064 -0.3430
 5736SOL    HW128667   3.614   2.888  17.414  0.7811  3.2916 -0.8106
 5736SOL    HW228668   3.478   2.842  17.475 -0.5397  0.4778  0.3757
 5737SOL     OW28669   4.145   4.246   7.799  0.2241 -0.5701  0.4715
 5737SOL    HW128670   4.162   4.277   7.888 -0.1396  1.1020 -0.0464
 5737SOL    HW228671   4.128   4.157   7.830  0.7528 -1.0091 -0.4811
 5738SOL     OW28672   2.263   0.266   6.276 -0.4990 -0.1064  0.0798
 5738SOL    HW128673   2.337   0.279   6.217  0.7554 -0.2482  1.6182
 5738SOL    HW228674   2.289   0.193   6.333 -2.3990 -0.8874 -0.0489
 5739SOL     OW28675   2.307   2.143   9.515  0.2581  0.0404  0.3972
 5739SOL    HW128676   2.400   2.131   9.535  0.2692  0.4942  0.6244
 5739SOL    HW228677   2.300   2.226   9.468  0.2734 -0.2755 -0.1711
 5740SOL     OW28678   4.718   2.835  10.342  0.2784  0.1537 -0.3369
 5740SOL    HW128679   0.009   2.919  10.387 -0.0607  0.0740 -0.0629
 5740SOL    HW228680   4.623   2.843  10.330  0.0724  1.4395  2.0884
 5741SOL     OW28681   3.953   4.036   0.893 -0.1899  0.2322  0.2334
 5741SOL    HW128682   3.947   4.065   0.984 -1.5213  1.1906 -0.1618
 5741SOL    HW228683   3.955   3.941   0.905  2.4621  0.1803 -0.6526
 5742SOL     OW28684   3.942   3.266   4.743 -0.4052  0.6108 -0.2448
 5742SOL    HW128685   3.934   3.190   4.802 -2.2811  0.4706 -0.6840
 5742SOL    HW228686   4.022   3.304   4.777 -0.0822 -1.7288  1.6365
 5743SOL     OW28687   1.039   3.322   1.903  0.2577 -0.0617 -0.4445
 5743SOL    HW128688   1.015   3.409   1.870 -0.1746 -0.3749 -0.9463
 5743SOL    HW228689   1.009   3.337   1.993 -1.0851  0.8529 -1.0465
 5744SOL     OW28690   3.171   0.725   8.716 -0.2140  0.3065 -0.1632
 5744SOL    HW128691   3.244   0.755   8.663 -0.8903 -0.6511 -1.6205
 5744SOL    HW228692   3.100   0.705   8.655 -1.5599  0.0224  1.4822
 5745SOL     OW28693   1.918   3.129   6.671 -0.7840 -0.2471  0.3691
 5745SOL    HW128694   1.887   3.102   6.585 -0.4055 -1.3237  0.5705
 5745SOL    HW228695   2.010   3.113   6.652 -0.5379  0.8977  0.5947
 5746SOL     OW28696   0.546   3.824   0.455  0.4881 -0.7350  0.1626
 5746SOL    HW128697   0.520   3.829   0.363 -1.7465 -1.2144  0.7650
 5746SOL    HW228698   0.490   3.754   0.489 -0.3572 -1.9562 -3.8297
 5747SOL     OW28699   1.548   3.508   3.152  0.4549 -0.7516  0.1355
 5747SOL    HW128700   1.564   3.538   3.241  0.8812 -1.8737  0.4410
 5747SOL    HW228701   1.605   3.571   3.108  0.1709 -0.7023 -0.1527
 5748SOL     OW28702   3.068   0.717   9.918  0.6350  0.0400  0.2037
 5748SOL    HW128703   3.018   0.798   9.906  0.5276  0.0236  0.5606
 5748SOL    HW228704   3.150   0.736   9.964 -0.1216  1.8244  0.8386
 5749SOL     OW28705   0.398   4.657   5.208  0.1240  0.3080  0.3947
 5749SOL    HW128706   0.319   4.685   5.254 -0.7471 -2.4944  0.6582
 5749SOL    HW228707   0.417   0.012   5.161  1.4888 -0.7180 -0.7965
 5750SOL     OW28708   0.751   4.132   7.242 -0.8381 -0.2693 -0.1151
 5750SOL    HW128709   0.678   4.193   7.231  0.8494  1.6060 -0.7693
 5750SOL    HW228710   0.714   4.048   7.215  0.9447 -1.0897  0.0340
 5751SOL     OW28711   0.253   1.116   9.026 -0.0695  0.0192 -0.3227
 5751SOL    HW128712   0.230   1.199   8.984  0.7900 -0.9605 -2.7335
 5751SOL    HW228713   0.335   1.133   9.072  0.0791  2.4323 -1.4750
 5752SOL     OW28714   2.890   2.028   5.536  0.2502 -0.2770  0.0309
 5752SOL    HW128715   2.800   2.042   5.507  0.1178 -2.0785 -0.4163
 5752SOL    HW228716   2.886   2.041   5.630 -1.7767  2.2130 -0.3935
 5753SOL     OW28717   2.726   0.018   2.637 -0.3991 -0.2798  0.2277
 5753SOL    HW128718   2.751   0.081   2.569  0.5281  0.6995  1.4948
 5753SOL    HW228719   2.749   0.077   2.709 -2.1866 -0.4444  0.9216
 5754SOL     OW28720   2.712   2.975   0.319 -0.7901  0.3557  0.5509
 5754SOL    HW128721   2.624   2.986   0.354 -0.1836  2.2303  1.4880
 5754SOL    HW228722   2.714   2.881   0.335  1.4692 -0.0210 -1.8052
 5755SOL     OW28723   2.554   4.199   3.833  0.1750 -0.0169 -0.1561
 5755SOL    HW128724   2.576   4.204   3.740 -0.2399 -1.8797 -0.3531
 5755SOL    HW228725   2.471   4.153   3.824  0.3168 -0.3689  0.3803
 5756SOL     OW28726   3.982   0.177   4.351  0.3129  0.1093  0.2846
 5756SOL    HW128727   3.895   0.171   4.311 -0.2012  0.6923  1.3240
 5756SOL    HW228728   3.972   0.272   4.357 -1.1640 -0.1256  1.7359
 5757SOL     OW28729   0.098   2.194   7.540 -0.1852  0.0217  0.3804
 5757SOL    HW128730   0.162   2.126   7.521  0.7507  0.9340  0.2928
 5757SOL    HW228731   0.126   2.276   7.499  0.7539 -0.5001 -0.0154
 5758SOL     OW28732   0.793   0.709  10.979 -0.0423 -0.7187  0.2219
 5758SOL    HW128733   0.780   0.614  10.977  0.9563 -0.8522 -0.0164
 5758SOL    HW228734   0.824   0.715  11.070  1.1736 -1.1911 -0.1516
 5759SOL     OW28735   0.010   2.965   1.159 -0.0752 -0.1626 -0.6038
 5759SOL    HW128736   4.666   2.956   1.092 -1.5532 -1.1870  1.0355
 5759SOL    HW228737   0.080   2.982   1.096 -0.3385 -0.8957 -1.1024
 5760SOL     OW28738   2.056   0.595   2.948 -0.1261 -0.2326 -0.2168
 5760SOL    HW128739   2.038   0.678   2.905  1.3168 -0.1838 -0.7233
 5760SOL    HW228740   2.120   0.553   2.889 -0.1169 -1.5011  0.6897
 5761SOL     OW28741   2.136   2.174  12.924 -0.0324  0.4198  0.4540
 5761SOL    HW128742   2.207   2.233  12.951 -0.0849  0.9863 -0.6325
 5761SOL    HW228743   2.101   2.220  12.848  0.2196 -0.1815 -0.0336
 5762SOL     OW28744   1.013   2.743   9.384 -0.4877 -0.2098  0.3380
 5762SOL    HW128745   1.039   2.784   9.467  0.0708 -1.5526  0.8346
 5762SOL    HW228746   1.056   2.808   9.329 -0.9532 -0.3887 -0.2298
 5763SOL     OW28747   3.789   1.696   6.697  0.2760 -0.9139 -0.6730
 5763SOL    HW128748   3.724   1.701   6.767  1.2607  1.8594  0.0367
 5763SOL    HW228749   3.753   1.621   6.649  0.3594 -2.3889  1.5935
 5764SOL     OW28750   1.791   1.390  16.640  0.1884  0.2986 -0.0780
 5764SOL    HW128751   1.868   1.354  16.594 -0.0197 -1.1794  0.7402
 5764SOL    HW228752   1.830   1.437  16.714 -1.6949 -0.5836  1.4572
 5765SOL     OW28753   4.189   2.196   7.162  0.2604 -0.5640 -0.7803
 5765SOL    HW128754   4.101   2.195   7.125 -0.2439 -2.5817  0.5061
 5765SOL    HW228755   4.236   2.227   7.085  0.9584 -0.9054 -0.4929
 5766SOL     OW28756   2.370   0.257   1.035  0.1597  0.4494  0.3667
 5766SOL    HW128757   2.327   0.342   1.026  2.0945  1.2671 -1.0688
 5766SOL    HW228758   2.326   0.209   1.105  0.5703  2.1752  1.8120
 5767SOL     OW28759   1.084   4.622  11.543  0.1135 -0.6313  0.2066
 5767SOL    HW128760   1.021   4.684  11.582 -0.6790 -0.7440 -0.8999
 5767SOL    HW228761   1.138   4.608  11.621 -1.1579 -0.4969  1.1266
 5768SOL     OW28762   1.494   4.429   7.094  0.5327 -0.2864  0.9759
 5768SOL    HW128763   1.529   4.441   7.182  0.7512  0.5635  0.7734
 5768SOL    HW228764   1.482   4.335   7.082  0.2037  0.1513 -2.2839
 5769SOL     OW28765   2.522   3.525   5.842 -0.7487 -0.4156  0.9599
 5769SOL    HW128766   2.493   3.445   5.799  1.1488  0.1347 -1.3924
 5769SOL    HW228767   2.553   3.494   5.927  1.1085 -0.9536  0.0901
 5770SOL     OW28768   1.616   1.418  12.894 -0.0878  0.2708 -0.1005
 5770SOL    HW128769   1.565   1.337  12.898 -0.0853  0.2649 -0.1761
 5770SOL    HW228770   1.623   1.437  12.800  2.3257 -0.0981  0.0020
 5771SOL     OW28771   4.342   3.011   5.679 -0.6826 -0.2968  0.0127
 5771SOL    HW128772   4.303   3.077   5.621 -1.2587 -0.1589  0.5616
 5771SOL    HW228773   4.431   3.043   5.695 -0.1197 -0.9271 -1.8678
 5772SOL     OW28774   1.803   2.493   8.242  0.0352 -0.0080  0.2457
 5772SOL    HW128775   1.893   2.521   8.226  0.3545 -0.3126  1.5676
 5772SOL    HW228776   1.753   2.566   8.206 -1.9212 -1.0887  0.7729
 5773SOL     OW28777   0.841   2.588   6.795  0.0493 -0.4416  0.0287
 5773SOL    HW128778   0.815   2.496   6.785 -0.4676 -0.0591 -2.2293
 5773SOL    HW228779   0.827   2.627   6.709 -2.6794 -0.2976  0.5168
 5774SOL     OW28780   0.066   0.247  10.102 -0.0443 -0.0901  0.3113
 5774SOL    HW128781   0.076   0.275  10.193 -0.7453  1.1670  0.0065
 5774SOL    HW228782   0.006   0.174  10.109 -0.3513  0.1651  0.3472
 5775SOL     OW28783   1.539   0.019   3.619  0.2855 -0.2002 -0.1470
 5775SOL    HW128784   1.547   0.002   3.713  0.9908  0.5455 -0.0690
 5775SOL    HW228785   1.483   0.097   3.619  0.8652  0.2236 -1.9419
 5776SOL     OW28786   1.600   0.393   7.022 -0.4530  0.0749  0.0116
 5776SOL    HW128787   1.636   0.475   7.056  1.9231 -1.2332  0.6471
 5776SOL    HW228788   1.610   0.332   7.096  0.8502 -0.7232 -0.8259
 5777SOL     OW28789   0.059   2.142  10.035 -0.0771 -0.4758 -0.3319
 5777SOL    HW128790   0.041   2.101   9.950 -2.4117 -0.2365  0.0273
 5777SOL    HW228791   0.104   2.073  10.084 -1.8616 -2.0092 -0.8374
 5778SOL     OW28792   4.257   2.477   4.004 -0.1092  0.3320  0.5805
 5778SOL    HW128793   4.304   2.479   3.921  0.4663 -4.0056  0.7735
 5778SOL    HW228794   4.209   2.395   3.995 -1.4793  1.3384 -1.0589
 5779SOL     OW28795   1.009   1.153   0.514  0.2524 -0.1885 -0.1970
 5779SOL    HW128796   1.045   1.121   0.596 -1.5403 -0.9684  0.2929
 5779SOL    HW228797   0.920   1.171   0.545  0.3346  1.6038 -0.9897
 5780SOL     OW28798   2.131   1.897   5.214  0.2455 -1.1409  0.2521
 5780SOL    HW128799   2.212   1.886   5.164  1.0176  2.2646  0.7937
 5780SOL    HW228800   2.117   1.805   5.236 -0.8117 -1.1596 -0.4538
 5781SOL     OW28801   1.532   3.321   6.810 -1.1936  0.3023 -0.0025
 5781SOL    HW128802   1.442   3.308   6.780 -0.2741 -1.8078 -1.8431
 5781SOL    HW228803   1.568   3.370   6.737  0.8480 -2.4843 -0.8555
 5782SOL     OW28804   0.753   2.191   7.022  0.1771 -0.0236  0.8505
 5782SOL    HW128805   0.813   2.142   7.078 -0.5560 -1.6011  0.2426
 5782SOL    HW228806   0.821   2.210   6.956 -0.9119  0.7060 -0.0580
 5783SOL     OW28807   1.097   1.063  17.566  0.2352 -0.1143  0.0661
 5783SOL    HW128808   1.003   1.057  17.583  0.2610 -0.7329  0.0096
 5783SOL    HW228809   1.108   1.028  17.477 -1.1676  1.4783 -0.7416
 5784SOL     OW28810   0.882   0.500   2.211  0.5407  0.1344  0.4642
 5784SOL    HW128811   0.952   0.559   2.186  0.0383  0.5244 -0.0256
 5784SOL    HW228812   0.923   0.417   2.234  0.6518 -0.6948 -2.7725
 5785SOL     OW28813   2.401   3.897   3.484 -0.4238 -0.1760 -0.1395
 5785SOL    HW128814   2.466   3.833   3.454  0.4629  0.3122  0.7521
 5785SOL    HW228815   2.399   3.969   3.420  0.9440 -0.4309 -0.4711
 5786SOL     OW28816   2.571   0.871   8.954  1.1283  0.3486  0.3688
 5786SOL    HW128817   2.583   0.783   8.992 -2.6020  0.1848  1.1491
 5786SOL    HW228818   2.660   0.905   8.963  2.2174 -1.4774 -3.4275
 5787SOL     OW28819   1.262   0.962   8.637  0.2405 -0.6656 -0.2665
 5787SOL    HW128820   1.254   0.979   8.543  0.6190 -0.3366 -0.2393
 5787SOL    HW228821   1.311   1.040   8.664 -0.1819  0.1373 -1.7827
 5788SOL     OW28822   1.398   1.217   2.190 -0.7353 -0.3987  0.4828
 5788SOL    HW128823   1.374   1.220   2.097 -2.7693 -0.4854  1.0084
 5788SOL    HW228824   1.481   1.266   2.194 -0.9588 -0.1468  1.7983
 5789SOL     OW28825   3.855   4.463   2.564  0.3222  0.1477  0.0976
 5789SOL    HW128826   3.834   4.546   2.607 -1.2257 -0.2611  0.1146
 5789SOL    HW228827   3.935   4.475   2.512 -0.4625  0.1589 -1.0972
 5790SOL     OW28828   4.117   2.388   5.126 -0.0457  0.2856  0.3870
 5790SOL    HW128829   4.086   2.451   5.061 -0.4692 -3.2104 -2.7984
 5790SOL    HW228830   4.116   2.439   5.207 -2.6794 -0.3918  0.7584
 5791SOL     OW28831   1.711   1.136   9.932  0.4530 -0.0593  0.3032
 5791SOL    HW128832   1.687   1.100   9.847  1.2530 -0.7304  0.3717
 5791SOL    HW228833   1.635   1.133   9.990  0.7064 -0.6476  0.5998
 5792SOL     OW28834   1.301   3.982   7.202 -0.0709  0.3443  0.4682
 5792SOL    HW128835   1.288   3.955   7.111  0.0759 -2.6029  1.3192
 5792SOL    HW228836   1.352   4.062   7.198  2.3519 -1.3491 -1.8103
 5793SOL     OW28837   2.144   2.143  10.920 -0.4065 -0.2244  0.9456
 5793SOL    HW128838   2.226   2.101  10.947 -0.1348 -0.9318 -1.0221
 5793SOL    HW228839   2.101   2.069  10.876  0.1115  0.5033 -0.7731
 5794SOL     OW28840   4.517   1.508   3.903  0.3731  0.1876 -0.2863
 5794SOL    HW128841   4.595   1.471   3.943 -1.3037 -1.1743  1.7790
 5794SOL    HW228842   4.495   1.575   3.968  3.0596 -0.5413  1.3629
 5795SOL     OW28843   2.173   2.914   6.983  0.0195  0.3809  0.3128
 5795SOL    HW128844   2.131   2.854   6.921 -1.5189  0.4091  1.3538
 5795SOL    HW228845   2.189   2.854   7.056  2.3129 -0.8824 -1.2042
 5796SOL     OW28846   2.285   4.285  15.203 -0.1988 -0.0526 -0.2464
 5796SOL    HW128847   2.344   4.361  15.205  1.7744 -1.5409 -2.4442
 5796SOL    HW228848   2.350   4.216  15.217  1.3465  1.9057  2.2870
 5797SOL     OW28849   2.909   1.986  12.271 -0.0728  0.3174 -0.4787
 5797SOL    HW128850   2.828   1.972  12.221 -0.9061  1.1539  0.6431
 5797SOL    HW228851   2.975   1.952  12.210 -0.6639 -3.5555  1.0636
 5798SOL     OW28852   2.299   2.161   3.279  0.4293  0.2570 -0.0204
 5798SOL    HW128853   2.311   2.155   3.374  0.1568  0.0837  0.0014
 5798SOL    HW228854   2.224   2.104   3.263 -0.7043  1.4525  0.9217
 5799SOL     OW28855   1.933   2.071   5.245 -0.8501 -0.2548  0.5098
 5799SOL    HW128856   1.894   2.015   5.177 -0.1552 -1.0257  0.7404
 5799SOL    HW228857   2.017   2.025   5.253 -1.3119 -0.7476  2.3209
 5800SOL     OW28858   1.944   4.532   6.855 -0.5861 -0.2951  0.2751
 5800SOL    HW128859   1.876   4.518   6.921 -1.0270  1.8308  0.2546
 5800SOL    HW228860   1.934   4.626   6.839  4.9890  0.1334 -0.6562
 5801SOL     OW28861   1.869   0.329   3.055 -0.6220 -0.2536  0.7862
 5801SOL    HW128862   1.839   0.383   2.982  3.4453  1.3989  0.3184
 5801SOL    HW228863   1.789   0.309   3.103  0.2479 -2.1873  1.3929
 5802SOL     OW28864   1.053   4.343   2.866 -0.1620  0.4889 -0.5665
 5802SOL    HW128865   1.081   4.378   2.951  1.3085 -1.1016 -0.3835
 5802SOL    HW228866   0.958   4.335   2.870 -0.3243  1.9766 -1.7637
 5803SOL     OW28867   1.965   0.614  16.998 -1.0056 -0.3455 -0.3711
 5803SOL    HW128868   1.964   0.526  17.035 -3.0729 -0.0119  0.3561
 5803SOL    HW228869   2.010   0.616  16.913 -2.2129  0.0135 -1.0058
 5804SOL     OW28870   0.151   1.770   7.475  0.3841 -0.1429 -0.0336
 5804SOL    HW128871   0.214   1.699   7.471 -0.0120 -0.3917 -1.8378
 5804SOL    HW228872   0.206   1.848   7.480  1.2665 -0.7545 -0.1821
 5805SOL     OW28873   0.510   1.871  13.852 -0.4605 -0.4385  0.0321
 5805SOL    HW128874   0.540   1.913  13.932  1.9624  0.4697 -1.3426
 5805SOL    HW228875   0.461   1.941  13.808 -0.5280 -0.4623  0.0698
 5806SOL     OW28876   4.202   1.936  16.725 -0.2394 -0.1974 -0.7386
 5806SOL    HW128877   4.287   1.977  16.741  0.9827 -2.0216 -2.5712
 5806SOL    HW228878   4.209   1.928  16.630 -0.4734 -0.7589 -0.7087
 5807SOL     OW28879   4.282   0.545   3.813 -0.3418 -0.2644 -0.0430
 5807SOL    HW128880   4.326   0.612   3.761  2.9371  0.6192  3.8264
 5807SOL    HW228881   4.272   0.584   3.900  1.0937  2.0685 -0.9307
 5808SOL     OW28882   3.319   2.472   0.128 -0.0361 -0.3700  0.6665
 5808SOL    HW128883   3.376   2.395   0.124  1.7742  1.0136 -0.4449
 5808SOL    HW228884   3.268   2.460   0.047 -0.4570 -2.6178  1.2616
 5809SOL     OW28885   3.984   2.783   2.275 -0.8095  0.1169  0.1442
 5809SOL    HW128886   3.969   2.689   2.284 -0.9042  0.0626 -0.6014
 5809SOL    HW228887   3.907   2.811   2.226 -0.2462 -0.9551 -1.3502
 5810SOL     OW28888   3.898   4.636   6.305 -0.5822 -0.3279  0.3060
 5810SOL    HW128889   3.826   4.697   6.288 -0.9638 -0.2186  2.3400
 5810SOL    HW228890   3.977   4.677   6.271 -0.9611 -0.1217 -0.3196
 5811SOL     OW28891   1.233   1.553   8.799  0.3056  0.2273 -0.0912
 5811SOL    HW128892   1.183   1.628   8.832 -0.0247 -0.2315  0.4412
 5811SOL    HW228893   1.165   1.485   8.797  0.9189 -0.3496 -1.5520
 5812SOL     OW28894   3.163   1.268   3.331  0.1343 -0.5288  0.2439
 5812SOL    HW128895   3.254   1.298   3.333  0.2215 -0.8659  1.6668
 5812SOL    HW228896   3.154   1.259   3.236 -3.0090  2.3986  0.2726
 5813SOL     OW28897   2.508   0.720   2.253  0.8554  0.4863  0.1898
 5813SOL    HW128898   2.529   0.777   2.327 -0.3172 -0.5074  1.2774
 5813SOL    HW228899   2.567   0.646   2.268 -0.0502  0.0400  1.5488
 5814SOL     OW28900   2.053   1.591   4.342  0.4699 -0.3437  0.1365
 5814SOL    HW128901   2.019   1.680   4.347 -0.6090 -0.7645  0.2297
 5814SOL    HW228902   1.996   1.543   4.282 -2.7510 -0.0383  2.9681
 5815SOL     OW28903   1.382   1.549   9.610 -0.1338  0.0906  0.2918
 5815SOL    HW128904   1.390   1.454   9.596 -1.1952  0.3743 -2.1455
 5815SOL    HW228905   1.422   1.565   9.695 -3.8496  0.2411  2.0204
 5816SOL     OW28906   0.937   1.984  17.296 -0.2697 -0.3298  0.3249
 5816SOL    HW128907   1.011   2.044  17.307  0.2705 -1.0959  0.9059
 5816SOL    HW228908   0.859   2.038  17.305  0.0587  0.0589  0.8293
 5817SOL     OW28909   3.302   2.232  13.648  0.0065 -0.0019  0.4252
 5817SOL    HW128910   3.269   2.264  13.564 -0.3812 -1.7641 -0.0843
 5817SOL    HW228911   3.374   2.177  13.616 -1.2683 -0.2238 -2.0458
 5818SOL     OW28912   1.703   3.837   2.798 -0.2810 -0.1554 -0.0160
 5818SOL    HW128913   1.684   3.755   2.752  1.5774  0.0481 -1.1682
 5818SOL    HW228914   1.750   3.809   2.877  2.2762  3.1140 -0.3644
 5819SOL     OW28915   1.445   4.014   4.214  0.8299  0.0244  0.5183
 5819SOL    HW128916   1.478   3.927   4.238  0.0757  0.1763  2.1074
 5819SOL    HW228917   1.365   4.024   4.265 -0.5963 -0.6360 -1.6187
 5820SOL     OW28918   3.159   0.019   2.173  0.1255  0.1034  0.4059
 5820SOL    HW128919   3.087   0.007   2.110 -0.2980  0.2230  0.8659
 5820SOL    HW228920   3.178   4.654   2.200 -0.2147  0.3991  1.6444
 5821SOL     OW28921   0.157   0.840   6.068 -0.5149 -0.2984 -0.3705
 5821SOL    HW128922   0.160   0.762   6.124  1.5505  0.3534  0.4313
 5821SOL    HW228923   0.181   0.905   6.135  1.5248 -0.1964 -1.2046
 5822SOL     OW28924   0.619   0.059  17.333 -0.3712  0.2380 -0.1957
 5822SOL    HW128925   0.660   0.017  17.409  1.1073  0.0892 -1.1015
 5822SOL    HW228926   0.642   0.151  17.345 -0.3224 -0.0042  1.6936
 5823SOL     OW28927   1.381   2.583   4.338 -0.3363  0.5942 -0.1726
 5823SOL    HW128928   1.330   2.545   4.410 -0.9020 -1.6381 -1.7606
 5823SOL    HW228929   1.325   2.571   4.262 -0.4083  1.3136 -0.2317
 5824SOL     OW28930   1.290   1.592   9.309  0.0860  0.2789 -0.3810
 5824SOL    HW128931   1.368   1.536   9.318 -1.4389 -1.7840  0.0492
 5824SOL    HW228932   1.223   1.542   9.356 -0.1107  0.0019 -0.9594
 5825SOL     OW28933   2.778   2.804   6.939 -0.5003  0.1180 -0.3927
 5825SOL    HW128934   2.768   2.730   6.879 -0.3285  0.3263 -0.6790
 5825SOL    HW228935   2.687   2.806   6.968 -0.6329 -0.1858 -0.7933
 5826SOL     OW28936   1.925   4.398   5.149 -0.5844 -0.5825 -0.5545
 5826SOL    HW128937   1.859   4.349   5.198 -0.4536  0.3676  0.5540
 5826SOL    HW228938   1.987   4.434   5.212 -1.6408  0.3898 -0.0754
 5827SOL     OW28939   1.981   2.941   6.174  0.1741 -0.5074 -0.1715
 5827SOL    HW128940   2.054   2.887   6.206  0.4803  0.1500  0.2479
 5827SOL    HW228941   2.004   2.943   6.081  0.4728  1.5009 -0.0483
 5828SOL     OW28942   0.115   4.256  15.048 -0.0437  0.7220 -0.0230
 5828SOL    HW128943   0.047   4.206  15.004  1.6565  0.4394 -2.3146
 5828SOL    HW228944   0.086   4.342  15.018 -1.3565  0.9017  1.7509
 5829SOL     OW28945   0.293   1.670   3.366 -0.2191  0.4845  0.6694
 5829SOL    HW128946   0.256   1.594   3.412 -2.1275  0.7616 -0.4020
 5829SOL    HW228947   0.370   1.633   3.324 -0.4684  0.8018 -0.0786
 5830SOL     OW28948   4.293   4.115  11.366  0.1520 -0.4052 -0.2322
 5830SOL    HW128949   4.268   4.027  11.396 -1.3598 -0.7899 -2.6610
 5830SOL    HW228950   4.385   4.100  11.344  0.2820  0.9010 -0.5589
 5831SOL     OW28951   3.296   2.316  16.017 -0.0366  0.1857 -0.0347
 5831SOL    HW128952   3.236   2.383  16.047 -0.4020 -0.8313  1.4888
 5831SOL    HW228953   3.235   2.271  15.958 -0.3070 -0.1323  0.4877
 5832SOL     OW28954   1.834   2.840   7.839  0.7985 -0.5107  0.1013
 5832SOL    HW128955   1.750   2.886   7.832  0.5247 -1.4932 -2.9778
 5832SOL    HW228956   1.857   2.847   7.746 -0.9587 -1.0452 -0.3824
 5833SOL     OW28957   2.797   0.622   6.107 -0.0158  0.3519 -0.7609
 5833SOL    HW128958   2.736   0.602   6.179 -0.3825 -2.6850 -1.9273
 5833SOL    HW228959   2.750   0.593   6.029 -2.8904  1.9149  0.3526
 5834SOL     OW28960   0.033   0.915  17.661 -0.6827  0.1670 -0.0857
 5834SOL    HW128961   0.104   0.968  17.697 -3.5101  2.7615  1.8265
 5834SOL    HW228962   4.693   0.914   0.031  0.0434 -2.7376  0.5002
 5835SOL     OW28963   3.315   0.673  10.499  0.4224  0.4836  0.0945
 5835SOL    HW128964   3.249   0.716  10.554  0.3036 -1.6147  1.5825
 5835SOL    HW228965   3.308   0.724  10.418 -0.0416 -3.0649 -2.1104
 5836SOL     OW28966   1.616   0.067   9.427  0.3754  0.3197  0.8574
 5836SOL    HW128967   1.607   0.149   9.476  0.8910  0.4336  0.7567
 5836SOL    HW228968   1.664   0.006   9.483  1.5811  0.0499 -0.4521
 5837SOL     OW28969   1.871   1.311   9.763  0.2229 -0.5404  0.1942
 5837SOL    HW128970   1.937   1.333   9.829 -0.9267 -0.7961  1.4320
 5837SOL    HW228971   1.808   1.268   9.822  2.3866 -1.2840  1.9425
 5838SOL     OW28972   0.236   4.539   6.533 -0.2035  0.1880 -0.6579
 5838SOL    HW128973   0.150   4.521   6.494  0.3484 -3.3617 -0.3107
 5838SOL    HW228974   0.226   4.483   6.610 -3.1743  1.0158 -0.4271
 5839SOL     OW28975   0.846   2.004   1.693 -0.0062 -1.1688 -0.1290
 5839SOL    HW128976   0.849   2.073   1.758  2.7906 -0.8175 -0.6349
 5839SOL    HW228977   0.756   1.974   1.710 -0.4321  0.9003  1.1065
 5840SOL     OW28978   4.256   2.967   6.415  0.1586  0.0597  0.0433
 5840SOL    HW128979   4.269   2.933   6.327 -1.2360 -0.0156 -0.1239
 5840SOL    HW228980   4.204   2.895   6.450  1.2894 -0.6321  0.3084
 5841SOL     OW28981   3.885   3.454   4.245  0.6571  0.0711  0.5905
 5841SOL    HW128982   3.795   3.424   4.258  0.0394  2.0437  0.9743
 5841SOL    HW228983   3.913   3.422   4.331  0.9169  1.6024  1.0726
 5842SOL     OW28984   2.587   0.324   9.426 -0.0764 -0.2701  0.8664
 5842SOL    HW128985   2.502   0.356   9.394 -0.0819  1.7159  2.8446
 5842SOL    HW228986   2.561   0.293   9.512 -0.2187  2.7963  1.9233
 5843SOL     OW28987   4.114   3.986  17.299  0.5356 -0.8132 -0.1317
 5843SOL    HW128988   4.156   3.960  17.217 -1.8209 -0.8687 -1.3232
 5843SOL    HW228989   4.031   4.023  17.270 -0.0964 -0.6738  1.8606
 5844SOL     OW28990   2.937   3.850   0.298 -0.5509 -0.2492 -0.1343
 5844SOL    HW128991   2.920   3.776   0.240  1.7091 -0.9309  0.0833
 5844SOL    HW228992   2.889   3.818   0.375  1.4942  0.8925  1.6249
 5845SOL     OW28993   3.461   1.788   2.382  0.3356 -0.1663 -0.3388
 5845SOL    HW128994   3.377   1.817   2.419  0.2338  0.5667 -1.1381
 5845SOL    HW228995   3.488   1.868   2.337  0.2551  0.2352  0.3337
 5846SOL     OW28996   0.631   0.507   7.671  0.3577  0.1296 -0.0451
 5846SOL    HW128997   0.697   0.523   7.739  0.0915 -0.2228  0.2897
 5846SOL    HW228998   0.617   0.413   7.665 -2.6872  0.6213 -0.5268
 5847SOL     OW28999   3.122   1.985   1.362 -0.2779  0.2272  0.1953
 5847SOL    HW129000   3.176   1.978   1.283 -0.2462 -0.9763  0.3199
 5847SOL    HW229001   3.189   1.972   1.430 -0.7048 -0.6086  0.4578
 5848SOL     OW29002   1.740   3.630   6.756  0.3690  0.0468 -0.0977
 5848SOL    HW129003   1.649   3.660   6.759  0.3946 -0.0458  1.6311
 5848SOL    HW229004   1.765   3.639   6.848 -0.0041  0.0090  0.0066
 5849SOL     OW29005   4.719   1.450   2.303  0.1151 -0.2447 -0.0559
 5849SOL    HW129006   0.046   1.514   2.255  0.3536 -0.1426  0.3414
 5849SOL    HW229007   0.037   1.453   2.389  0.9823 -1.4751 -0.4431
 5850SOL     OW29008   3.386   1.679   9.677  0.4302  0.4514  0.2582
 5850SOL    HW129009   3.447   1.742   9.637  0.6425 -0.0582 -0.2259
 5850SOL    HW229010   3.435   1.642   9.750 -1.7275 -0.8609  1.0381
 5851SOL     OW29011   0.275   0.345   7.429  0.1374  0.1637 -0.5256
 5851SOL    HW129012   0.317   0.424   7.394 -3.0166  1.6583 -0.9377
 5851SOL    HW229013   0.327   0.274   7.391 -1.9468 -1.9632  0.5689
 5852SOL     OW29014   2.633   4.626   6.994  0.4517  0.4047 -0.4057
 5852SOL    HW129015   2.567   4.695   6.990 -1.1089 -1.0531  0.1683
 5852SOL    HW229016   2.666   4.645   7.082 -1.0045  0.9441  0.0255
 5853SOL     OW29017   3.746   3.158  11.511  0.4577 -0.6948  0.1631
 5853SOL    HW129018   3.663   3.110  11.516  0.6637 -1.1450 -0.7517
 5853SOL    HW229019   3.779   3.123  11.428 -2.1988  3.6321 -2.7751
 5854SOL     OW29020   0.073   0.519  11.313 -0.2484 -0.5133  0.2155
 5854SOL    HW129021   4.715   0.472  11.325 -0.7571  0.4640  0.5085
 5854SOL    HW229022   0.095   0.534  11.405 -0.1761 -0.7921  0.2457
 5855SOL     OW29023   2.078   1.209   6.455  0.1056 -0.1955  0.0287
 5855SOL    HW129024   2.066   1.182   6.364  3.0420 -1.9715  0.1638
 5855SOL    HW229025   2.158   1.261   6.461 -0.3609  0.2671  2.2746
 5856SOL     OW29026   0.860   3.269   4.776  0.3836 -0.0619  0.3774
 5856SOL    HW129027   0.790   3.217   4.817  0.1806 -0.0380  0.0574
 5856SOL    HW229028   0.933   3.209   4.792  1.2798  1.1796  0.9452
 5857SOL     OW29029   3.874   2.074  10.179 -0.2012  0.5972 -0.3019
 5857SOL    HW129030   3.905   2.088  10.089  0.1809  0.9607 -0.1156
 5857SOL    HW229031   3.932   2.005  10.211  1.0714  0.0333 -3.8274
 5858SOL     OW29032   3.243   0.421   1.921  0.6363 -0.2329 -0.0751
 5858SOL    HW129033   3.330   0.395   1.952  0.5060 -1.4344 -0.7563
 5858SOL    HW229034   3.234   0.511   1.954  1.6689  0.1450 -0.7969
 5859SOL     OW29035   2.393   2.341   1.925  0.1634  0.5951 -0.1757
 5859SOL    HW129036   2.313   2.304   1.963  0.8957 -0.8417 -0.0577
 5859SOL    HW229037   2.388   2.425   1.971  2.0842 -0.8018  2.5477
 5860SOL     OW29038   4.692   0.174   9.660  0.5321 -0.1519 -0.3614
 5860SOL    HW129039   4.701   0.080   9.642  1.5592 -0.5918  2.4251
 5860SOL    HW229040   0.017   0.199   9.582 -2.0386  1.2932 -1.5571
 5861SOL     OW29041   2.038   2.293   5.629  0.5876 -0.1952 -0.3259
 5861SOL    HW129042   2.048   2.388   5.628 -1.2792 -0.0092 -0.9399
 5861SOL    HW229043   1.980   2.283   5.705 -1.1297 -1.1510 -1.7536
 5862SOL     OW29044   1.886   3.578   4.030  0.1320  0.2128  0.8941
 5862SOL    HW129045   1.938   3.517   3.978  0.6187  1.2440  0.1607
 5862SOL    HW229046   1.823   3.574   3.958  1.8447  0.1815 -0.6068
 5863SOL     OW29047   3.588   2.251  12.404 -0.2700 -0.0224  0.2078
 5863SOL    HW129048   3.524   2.183  12.382  1.0929 -1.1158 -0.3779
 5863SOL    HW229049   3.603   2.290  12.318  0.1928  0.0134  0.3075
 5864SOL     OW29050   3.485   4.195   2.050  0.0104  0.1148 -0.0050
 5864SOL    HW129051   3.436   4.265   2.093 -2.9683 -1.6122 -0.5718
 5864SOL    HW229052   3.576   4.221   2.062  0.2978 -0.2139 -1.4070
 5865SOL     OW29053   3.856   4.348  15.070  0.2614 -0.5151 -0.3164
 5865SOL    HW129054   3.764   4.323  15.070  0.3600 -0.8953  0.2565
 5865SOL    HW229055   3.887   4.308  15.151 -0.7121 -2.2166 -0.7865
 5866SOL     OW29056   2.885   2.402   2.723  0.0881  0.2045 -0.1629
 5866SOL    HW129057   2.855   2.332   2.664 -1.0677 -1.6063  2.5752
 5866SOL    HW229058   2.915   2.473   2.666 -0.1015  0.0071 -0.5111
 5867SOL     OW29059   1.749   2.359   4.680  0.3386 -0.6186 -0.3664
 5867SOL    HW129060   1.727   2.447   4.651 -0.9074 -0.8246 -0.0741
 5867SOL    HW229061   1.837   2.345   4.645  0.8373  0.8310  0.3329
 5868SOL     OW29062   3.154   1.887   5.811  0.0687  0.3060 -0.1269
 5868SOL    HW129063   3.073   1.930   5.784  0.0192  0.9074  0.9751
 5868SOL    HW229064   3.187   1.952   5.873 -0.8190 -1.1836  1.9380
 5869SOL     OW29065   1.019   3.666   8.031  0.5089 -0.6029  0.3357
 5869SOL    HW129066   1.049   3.737   8.087 -1.6801 -0.5821  1.4656
 5869SOL    HW229067   1.089   3.677   7.966 -0.2928 -1.3527 -0.6566
 5870SOL     OW29068   0.769   3.017   4.006 -0.4415 -0.3662  0.2805
 5870SOL    HW129069   0.735   3.029   3.917  1.6410  1.3838 -0.2718
 5870SOL    HW229070   0.827   3.093   4.016 -0.5894 -0.2942  0.5956
 5871SOL     OW29071   1.886   1.899  15.072  0.7594 -0.3710  0.6601
 5871SOL    HW129072   1.844   1.976  15.111 -0.6910 -1.3763  1.0872
 5871SOL    HW229073   1.827   1.829  15.101 -1.0241  0.8011 -0.1795
 5872SOL     OW29074   3.260   2.502  13.683 -0.0001  0.3598  0.3674
 5872SOL    HW129075   3.262   2.407  13.669  1.7227  0.3345  0.8201
 5872SOL    HW229076   3.342   2.524  13.726 -0.1591 -1.1600  1.4348
 5873SOL     OW29077   4.284   0.194  14.096 -0.0266  0.1693 -0.4648
 5873SOL    HW129078   4.357   0.227  14.148 -0.4886 -0.1634  0.3961
 5873SOL    HW229079   4.211   0.244  14.130  1.0729  2.4360 -1.4295
 5874SOL     OW29080   4.245   0.607   4.061 -0.3213  0.2694 -0.4904
 5874SOL    HW129081   4.149   0.609   4.063 -0.3450 -0.9126 -0.4436
 5874SOL    HW229082   4.262   0.687   4.110 -2.3760 -0.8218  1.9716
 5875SOL     OW29083   3.416   1.161  12.323 -0.1170 -0.9476  0.5112
 5875SOL    HW129084   3.360   1.084  12.319 -0.7562 -0.3911 -1.5863
 5875SOL    HW229085   3.489   1.149  12.261 -2.3861  2.2808 -2.7875
 5876SOL     OW29086   1.490   3.638  10.700  0.3042 -0.1522  0.1528
 5876SOL    HW129087   1.533   3.697  10.761  2.1832 -0.4531 -0.8678
 5876SOL    HW229088   1.432   3.703  10.660  1.4856 -0.1778 -1.6104
 5877SOL     OW29089   4.074   0.864   7.958  0.4224 -0.5108 -0.0694
 5877SOL    HW129090   4.129   0.888   8.032  0.1009  0.5777 -0.1822
 5877SOL    HW229091   4.098   0.927   7.889 -1.9653  1.5194  0.9350
 5878SOL     OW29092   3.623   4.465   5.787  0.0972 -1.0626 -0.1287
 5878SOL    HW129093   3.604   4.387   5.839 -0.7764 -0.3927  0.5685
 5878SOL    HW229094   3.551   4.458   5.724  0.8639 -0.7452 -1.0339
 5879SOL     OW29095   2.300   3.223   3.063 -0.1664 -0.8704 -0.0055
 5879SOL    HW129096   2.352   3.231   3.142 -0.3609 -0.4743  0.0812
 5879SOL    HW229097   2.243   3.300   3.071  0.7372 -0.2282  0.2359
 5880SOL     OW29098   4.668   4.658   8.243  0.2271 -0.1871  0.1600
 5880SOL    HW129099   4.651   4.571   8.207 -2.1529 -0.0435  0.9937
 5880SOL    HW229100   4.712   4.685   8.162  0.0441 -1.0139 -0.2137
 5881SOL     OW29101   1.313   3.037   6.097 -0.3456  0.4395 -0.0218
 5881SOL    HW129102   1.268   3.121   6.086 -1.2499 -0.2428 -1.4817
 5881SOL    HW229103   1.299   3.012   6.189  0.7137 -1.1518 -0.3046
 5882SOL     OW29104   3.507   4.516   4.069  0.1242  0.0169 -0.0013
 5882SOL    HW129105   3.522   4.490   4.160  1.8741  3.0834  0.6098
 5882SOL    HW229106   3.542   4.605   4.077 -0.4932  0.1264  1.4786
 5883SOL     OW29107   4.189   3.720   7.532 -0.4573  0.1621 -0.0566
 5883SOL    HW129108   4.234   3.798   7.498  1.0181 -0.3272  0.7512
 5883SOL    HW229109   4.160   3.680   7.450 -0.5037  0.3627 -0.1398
 5884SOL     OW29110   1.190   3.154   7.216  0.4031  0.1413  0.3386
 5884SOL    HW129111   1.210   3.244   7.241  1.0935  0.3772 -1.0608
 5884SOL    HW229112   1.233   3.111   7.289 -1.9069 -1.5444  0.7318
 5885SOL     OW29113   2.108   3.891  16.353 -0.2034 -0.1441  0.3768
 5885SOL    HW129114   2.039   3.951  16.325 -2.1943 -1.9846  1.3441
 5885SOL    HW229115   2.120   3.838  16.275  2.1961  0.2043  0.5106
 5886SOL     OW29116   1.142   1.193   4.086 -0.2560 -0.4887  0.2505
 5886SOL    HW129117   1.133   1.171   4.178 -1.2222 -1.5121 -0.0947
 5886SOL    HW229118   1.100   1.111   4.059 -0.9665  0.9500 -3.1084
 5887SOL     OW29119   1.328   0.558   4.164  0.3416 -0.4406  0.6246
 5887SOL    HW129120   1.411   0.593   4.132  0.0454 -1.3962 -1.1973
 5887SOL    HW229121   1.334   0.470   4.127  1.2324 -0.4073  0.6870
 5888SOL     OW29122   0.889   1.325   5.120  0.3148  0.5023 -0.1417
 5888SOL    HW129123   0.879   1.409   5.076  1.2640  1.2787  1.1445
 5888SOL    HW229124   0.800   1.310   5.150 -0.8927  3.5912 -2.1555
 5889SOL     OW29125   4.357   3.590   2.395 -0.4322  0.3431 -0.5003
 5889SOL    HW129126   4.432   3.585   2.334 -0.2938  0.3089 -0.3262
 5889SOL    HW229127   4.383   3.517   2.451  0.2718  1.5284  0.7025
 5890SOL     OW29128   0.228   1.613   6.649  0.1007  0.5354 -0.5877
 5890SOL    HW129129   0.199   1.529   6.613  1.3433 -0.4448  0.6708
 5890SOL    HW229130   0.141   1.625   6.687  0.6391  3.1226 -0.1765
 5891SOL     OW29131   1.767   3.992  14.132 -0.1519  0.0290 -0.1090
 5891SOL    HW129132   1.688   3.959  14.174 -0.5874 -0.7130 -1.5114
 5891SOL    HW229133   1.758   4.087  14.142  3.1741  0.2242  1.1121
 5892SOL     OW29134   0.235   2.978   2.381  0.4535  0.3662  0.4256
 5892SOL    HW129135   0.227   2.951   2.290  0.4492  0.8015  0.2957
 5892SOL    HW229136   0.330   2.984   2.382  0.4173  1.1064 -0.5361
 5893SOL     OW29137   0.863   3.337   8.602  0.1394 -0.9773  0.0654
 5893SOL    HW129138   0.822   3.334   8.689 -0.4462 -4.5818 -0.3475
 5893SOL    HW229139   0.953   3.307   8.617 -0.6505 -1.7353  3.3500
 5894SOL     OW29140   1.591   4.654   6.776 -0.3673  0.2730  0.0360
 5894SOL    HW129141   1.611   4.713   6.703 -0.8287  2.7704  1.9256
 5894SOL    HW229142   1.569   4.574   6.729  0.3347 -0.1337  0.4150
 5895SOL     OW29143   1.796   4.372  15.297  0.6208 -0.1798  0.0995
 5895SOL    HW129144   1.861   4.357  15.228  0.8070 -1.0832  0.4680
 5895SOL    HW229145   1.855   4.364  15.372  0.8067 -0.2168 -0.0493
 5896SOL     OW29146   1.366   3.631   9.235  0.0198 -0.1808 -0.1122
 5896SOL    HW129147   1.299   3.571   9.267 -0.4559 -0.1729 -1.0769
 5896SOL    HW229148   1.357   3.706   9.295  0.6627 -0.5037  0.3883
 5897SOL     OW29149   1.089   1.324   8.280  0.0796  0.0266  0.8212
 5897SOL    HW129150   1.049   1.324   8.193 -0.6398 -2.7708  1.1396
 5897SOL    HW229151   1.051   1.247   8.323  0.1209  0.0694  0.9339
 5898SOL     OW29152   0.069   1.453   7.198  0.2525  0.7323 -0.4817
 5898SOL    HW129153   0.016   1.532   7.210  0.8890  1.1529 -0.4311
 5898SOL    HW229154   0.084   1.437   7.105  2.3022  2.0644 -0.3988
 5899SOL     OW29155   3.935   1.939   2.835  0.0295 -0.1022 -0.1467
 5899SOL    HW129156   3.866   1.912   2.896  1.4943  0.2215  1.6361
 5899SOL    HW229157   3.913   2.031   2.820  3.3489  1.0630  2.2170
 5900SOL     OW29158   3.057   3.373   8.539 -0.3779 -0.0565  0.2353
 5900SOL    HW129159   3.009   3.455   8.529 -1.0591 -0.6284 -1.2198
 5900SOL    HW229160   3.130   3.398   8.595 -0.3009 -1.5981  0.8359
 5901SOL     OW29161   1.117   4.703  11.849  0.3892 -0.1228  0.1897
 5901SOL    HW129162   1.176   0.025  11.791  1.1271 -1.8192 -0.4247
 5901SOL    HW229163   1.167   4.625  11.871 -0.7755 -0.9196  0.0347
 5902SOL     OW29164   3.220   3.414  13.030  0.7032 -0.7396 -0.3655
 5902SOL    HW129165   3.305   3.372  13.040  1.7710  1.7451  1.0620
 5902SOL    HW229166   3.243   3.492  12.979 -2.5612  0.8973  0.6743
 5903SOL     OW29167   1.583   4.465   4.419  0.3561 -0.2166  0.6977
 5903SOL    HW129168   1.641   4.390   4.406  0.2650 -0.1510 -0.0712
 5903SOL    HW229169   1.642   4.534   4.390  0.5082 -1.9486 -3.0597
 5904SOL     OW29170   2.983   2.318   9.081 -0.1082  0.2695  0.5066
 5904SOL    HW129171   2.977   2.409   9.108  4.1549  1.3013 -2.1100
 5904SOL    HW229172   2.918   2.317   9.010  1.0636  1.0564 -0.5628
 5905SOL     OW29173   0.178   2.700   2.572  0.0004 -0.1507 -0.1147
 5905SOL    HW129174   0.261   2.745   2.586  0.5393 -0.2761 -3.0885
 5905SOL    HW229175   0.119   2.774   2.563  0.1093 -0.3927 -2.6862
 5906SOL     OW29176   0.613   2.610   8.418  0.1011  0.3073 -0.2713
 5906SOL    HW129177   0.703   2.643   8.413  0.6344 -1.2957 -1.4554
 5906SOL    HW229178   0.608   2.544   8.349  1.1775  1.1329 -1.1526
 5907SOL     OW29179   1.124   4.153   6.961 -0.3603 -0.4376  0.6975
 5907SOL    HW129180   1.181   4.078   6.975  2.1439  0.7468 -3.0890
 5907SOL    HW229181   1.042   4.105   6.973 -0.0621 -0.8234  1.1774
 5908SOL     OW29182   2.951   1.616   9.821  0.1416  0.3049 -0.2333
 5908SOL    HW129183   2.871   1.598   9.871 -0.5016  0.8865 -1.0394
 5908SOL    HW229184   3.016   1.560   9.863 -0.4981 -0.0990  0.2271
 5909SOL     OW29185   3.749   1.130   2.057 -0.2440  0.1636  0.0898
 5909SOL    HW129186   3.666   1.151   2.014  0.4836  0.8903 -0.9505
 5909SOL    HW229187   3.802   1.210   2.050  1.2234 -0.8253 -0.0201
 5910SOL     OW29188   0.401   4.474   3.353  0.2094 -0.2783 -0.2316
 5910SOL    HW129189   0.467   4.534   3.316 -0.5692  1.2802  0.8944
 5910SOL    HW229190   0.329   4.537   3.353  0.0161 -0.5048  1.0451
 5911SOL     OW29191   1.766   2.583   0.945  0.1070  0.2645  0.3516
 5911SOL    HW129192   1.719   2.653   0.989  1.2145  0.7707  0.7440
 5911SOL    HW229193   1.816   2.548   1.019  0.5477  0.3339  0.0931
 5912SOL     OW29194   3.019   2.400   8.682 -0.0752 -0.2079 -0.1482
 5912SOL    HW129195   2.967   2.368   8.756 -1.0530  0.0730 -0.7122
 5912SOL    HW229196   2.974   2.485   8.674  2.2727  1.0818  0.3426
 5913SOL     OW29197   2.772   0.976   8.462  0.5657 -0.6214  0.1950
 5913SOL    HW129198   2.855   1.024   8.464  0.4375 -0.4648  1.3660
 5913SOL    HW229199   2.775   0.932   8.547 -0.4326 -1.6139 -0.2892
 5914SOL     OW29200   1.654   4.620   1.130 -0.3089  0.6153 -0.0283
 5914SOL    HW129201   1.600   4.623   1.209 -0.2756  0.5031 -0.0015
 5914SOL    HW229202   1.704   4.539   1.138 -0.6891 -0.0306 -4.1536
 5915SOL     OW29203   3.322   3.063  17.536  0.2175 -0.3351 -0.0783
 5915SOL    HW129204   3.391   2.999  17.518  1.6731  0.9663  0.8487
 5915SOL    HW229205   3.337   3.066  17.630  1.4297  1.6830 -0.3363
 5916SOL     OW29206   2.482   0.337   7.847  0.6520  0.2360  0.4664
 5916SOL    HW129207   2.542   0.298   7.910 -0.6334 -1.5767  0.5585
 5916SOL    HW229208   2.419   0.373   7.909 -0.5479 -1.5903  0.3284
 5917SOL     OW29209   4.395   3.908   7.448 -0.1121 -0.3087  0.0260
 5917SOL    HW129210   4.446   3.828   7.434 -0.5809 -0.5129 -0.5119
 5917SOL    HW229211   4.444   3.955   7.516 -1.5662  0.2488  0.6918
 5918SOL     OW29212   2.115   3.498  12.759  0.3758 -0.5270  0.0246
 5918SOL    HW129213   2.049   3.491  12.828 -1.2101 -0.3949 -1.5115
 5918SOL    HW229214   2.155   3.583  12.777 -2.2033  1.0233 -1.6944
 5919SOL     OW29215   3.322   0.237   2.206  0.1997 -0.1590  0.0765
 5919SOL    HW129216   3.268   0.162   2.183 -0.8539  0.4439  0.5911
 5919SOL    HW229217   3.248   0.278   2.251 -0.9388 -1.4596 -0.6112
 5920SOL     OW29218   3.973   1.624   5.502  0.1806 -0.0245  0.4986
 5920SOL    HW129219   4.010   1.681   5.434 -1.0846  1.7521  1.2941
 5920SOL    HW229220   3.890   1.668   5.522 -0.6847 -0.5504 -1.9039
 5921SOL     OW29221   1.919   2.874   7.293 -0.3591  0.6866 -0.0344
 5921SOL    HW129222   1.848   2.862   7.230 -1.0573  2.3048  0.4502
 5921SOL    HW229223   1.957   2.956   7.263  1.5294  0.6473  2.3066
 5922SOL     OW29224   3.507   3.392   9.044 -0.1348  0.4481 -0.2113
 5922SOL    HW129225   3.537   3.482   9.047 -0.7612  0.6612 -0.3679
 5922SOL    HW229226   3.589   3.348   9.068 -2.1869 -1.9470  2.4792
 5923SOL     OW29227   0.756   0.370   4.340  0.4988 -0.1376 -0.3006
 5923SOL    HW129228   0.816   0.446   4.337  0.4165 -0.1238 -1.3822
 5923SOL    HW229229   0.809   0.306   4.387 -1.1284 -0.5531  0.9404
 5924SOL     OW29230   2.999   2.305   1.603  0.3750 -0.4003  0.2788
 5924SOL    HW129231   2.977   2.315   1.510  0.3347  1.4088  0.4815
 5924SOL    HW229232   3.082   2.258   1.594  1.1505  1.0492 -0.1570
 5925SOL     OW29233   1.109   4.216   3.434  0.1726 -0.2076  0.1885
 5925SOL    HW129234   1.066   4.276   3.495 -2.0621 -1.0814 -0.5082
 5925SOL    HW229235   1.050   4.142   3.418 -2.4375  2.1110 -0.7738
 5926SOL     OW29236   3.996   2.576   6.793  0.1490  0.2511 -0.3067
 5926SOL    HW129237   4.080   2.624   6.791  0.2596  0.0606 -0.2059
 5926SOL    HW229238   4.031   2.492   6.764  2.1028  0.7280  0.6539
 5927SOL     OW29239   1.880   0.044  10.392 -0.0270  1.4011  0.0271
 5927SOL    HW129240   1.803   0.080  10.436  0.1020  0.7533  0.7850
 5927SOL    HW229241   1.941   0.117  10.381  2.5629 -0.2022  3.6216
 5928SOL     OW29242   2.380   1.623   4.171  0.5032  0.0349 -0.3768
 5928SOL    HW129243   2.456   1.681   4.161 -0.2796  0.9827 -0.8068
 5928SOL    HW229244   2.316   1.692   4.185 -0.5106 -1.0665  0.3775
 5929SOL     OW29245   1.482   1.657   8.169  0.0223  0.3840 -0.4428
 5929SOL    HW129246   1.453   1.739   8.209  0.1471  0.2036  0.0277
 5929SOL    HW229247   1.398   1.613   8.160  1.0024 -1.7475  0.8413
 5930SOL     OW29248   0.386   2.505   6.946 -0.0551 -0.2562 -0.0119
 5930SOL    HW129249   0.347   2.527   6.862  0.3812  0.8897  0.0984
 5930SOL    HW229250   0.416   2.416   6.928  1.7301  0.0440  1.4573
 5931SOL     OW29251   4.415   1.386   8.016 -0.2363 -0.2572 -0.4893
 5931SOL    HW129252   4.377   1.300   8.039  1.3738 -0.8183  0.0410
 5931SOL    HW229253   4.430   1.428   8.100 -0.2200 -1.1851 -0.0269
 5932SOL     OW29254   0.617   0.017   6.206  0.3982  0.6984  0.1194
 5932SOL    HW129255   0.565   4.679   6.156  0.4818  0.4553  0.3380
 5932SOL    HW229256   0.546   0.055   6.257  1.0487  2.9330 -0.6482
 5933SOL     OW29257   4.358   3.594   8.992 -0.0701  0.0498 -0.8701
 5933SOL    HW129258   4.302   3.654   9.041  0.5701 -0.1620  0.1044
 5933SOL    HW229259   4.360   3.521   9.053 -3.1720 -0.5415 -1.4509
 5934SOL     OW29260   0.162   1.649   8.149  0.2562 -0.4219 -0.1767
 5934SOL    HW129261   0.215   1.587   8.200 -0.2196 -1.2618 -0.6998
 5934SOL    HW229262   0.150   1.716   8.215  3.8860  1.0634 -1.0186
 5935SOL     OW29263   0.844   3.870   3.690 -0.1633 -0.4135 -0.8545
 5935SOL    HW129264   0.776   3.803   3.679 -0.3813 -0.3535  0.1453
 5935SOL    HW229265   0.791   3.950   3.693 -2.6476 -2.0584 -0.4428
 5936SOL     OW29266   2.797   0.205   2.427  0.3414  0.1940  0.4315
 5936SOL    HW129267   2.705   0.183   2.413 -0.1079  0.8252  2.2950
 5936SOL    HW229268   2.832   0.180   2.342 -2.8852 -1.6114 -0.3608
 5937SOL     OW29269   0.556   1.106   3.633 -0.0792  0.2049 -0.8549
 5937SOL    HW129270   0.494   1.106   3.560  0.6007  0.0781 -1.4218
 5937SOL    HW229271   0.585   1.015   3.645 -1.0091  0.1624  1.0199
 5938SOL     OW29272   2.190   2.606   1.582  0.5129 -0.7690  0.6397
 5938SOL    HW129273   2.159   2.667   1.650  0.6136  0.3183 -0.2802
 5938SOL    HW229274   2.254   2.556   1.632  2.1210  0.1217 -0.5103
 5939SOL     OW29275   1.084   1.931   1.908 -0.6847 -0.0984  0.0109
 5939SOL    HW129276   1.036   1.923   1.990 -3.1416 -1.2146 -1.5364
 5939SOL    HW229277   1.173   1.945   1.940 -1.0498  1.2114  0.4742
 5940SOL     OW29278   1.746   3.314   4.915 -0.2601 -0.1691 -0.2427
 5940SOL    HW129279   1.817   3.374   4.891  2.1474 -1.6811  3.1377
 5940SOL    HW229280   1.733   3.258   4.838  1.1687 -0.8911  0.0334
 5941SOL     OW29281   1.969   3.595  14.777 -0.1920 -0.7723 -0.0717
 5941SOL    HW129282   2.040   3.624  14.721  0.9539 -3.2316  0.0980
 5941SOL    HW229283   1.995   3.509  14.812  1.3701 -0.7210 -1.0993
 5942SOL     OW29284   3.380   3.731   7.411  0.1906 -0.9523  0.0460
 5942SOL    HW129285   3.433   3.724   7.331  1.3228 -1.7396  0.8677
 5942SOL    HW229286   3.422   3.801   7.462  1.0411 -0.5104 -1.2444
 5943SOL     OW29287   0.790   0.899   6.638 -0.1799  0.1678  0.1934
 5943SOL    HW129288   0.873   0.905   6.685  0.3225 -1.9077 -0.4503
 5943SOL    HW229289   0.776   0.804   6.643  0.6961 -0.0451 -1.5018
 5944SOL     OW29290   0.393   2.014   2.205 -0.4185 -0.2329  0.3524
 5944SOL    HW129291   0.326   2.067   2.249 -0.0653 -0.6763  1.4365
 5944SOL    HW229292   0.422   2.080   2.142 -0.6653  1.2757  1.7986
 5945SOL     OW29293   2.908   2.093  12.518  0.2349 -0.0033 -0.6000
 5945SOL    HW129294   2.920   2.065  12.427  1.5805 -1.2202 -0.0492
 5945SOL    HW229295   2.816   2.116  12.502  0.4766  0.1341 -1.7837
 5946SOL     OW29296   0.605   2.581  14.493  0.1753  0.0177  0.1150
 5946SOL    HW129297   0.545   2.610  14.562  1.0287 -0.1442  0.9178
 5946SOL    HW229298   0.660   2.517  14.538  1.1815 -0.6536 -2.0978
 5947SOL     OW29299   1.669   0.856   8.162  0.7793  0.7615  0.0655
 5947SOL    HW129300   1.637   0.947   8.158 -0.8244  0.1500 -0.9916
 5947SOL    HW229301   1.707   0.852   8.075 -0.3987 -0.8350 -0.3745
 5948SOL     OW29302   1.204   0.732  14.776 -0.3526  0.3926  0.2434
 5948SOL    HW129303   1.125   0.729  14.829  0.3638 -0.7564  1.2689
 5948SOL    HW229304   1.173   0.797  14.714 -1.4449 -0.8525 -0.5309
 5949SOL     OW29305   3.753   4.707   4.979 -0.2491  0.1471  0.0246
 5949SOL    HW129306   3.741   4.613   4.987 -3.5424  0.2921 -2.8685
 5949SOL    HW229307   3.846   4.707   4.958  0.1787 -1.3930  1.9033
 5950SOL     OW29308   2.523   1.782   3.063  0.0868  0.3451 -0.4322
 5950SOL    HW129309   2.557   1.809   3.149  3.2523 -1.5094 -1.0899
 5950SOL    HW229310   2.485   1.698   3.090 -1.1043  1.1318  0.3577
 5951SOL     OW29311   0.752   3.184  13.995  0.5869 -0.0747  0.6266
 5951SOL    HW129312   0.778   3.241  14.068  0.5688  1.7129 -0.7786
 5951SOL    HW229313   0.772   3.249  13.928  0.7870 -1.5561 -0.7413
 5952SOL     OW29314   1.370   0.107   0.020  0.2091  0.1604  0.3371
 5952SOL    HW129315   1.443   0.124  17.662 -1.2208 -0.4733 -1.6243
 5952SOL    HW229316   1.332   0.194   0.033 -0.1181  0.0142  0.3658
 5953SOL     OW29317   0.157   1.873   4.346 -0.2003 -0.2766 -0.2544
 5953SOL    HW129318   0.245   1.885   4.381  0.0546  0.6338 -1.1839
 5953SOL    HW229319   0.095   1.907   4.411  1.0040 -0.3341  0.9148
 5954SOL     OW29320   3.622   4.139   8.545 -0.2842 -0.2600  0.0011
 5954SOL    HW129321   3.570   4.162   8.467  2.0922  2.4316 -0.7661
 5954SOL    HW229322   3.687   4.208   8.554  0.0135 -0.4226 -0.9251
 5955SOL     OW29323   2.400   3.219   8.252  0.0777 -0.5257 -0.3866
 5955SOL    HW129324   2.341   3.249   8.183 -1.3138 -1.9121  0.2096
 5955SOL    HW229325   2.335   3.203   8.320 -1.6304 -0.9847 -2.1341
 5956SOL     OW29326   3.323   3.652  10.958 -0.2398 -0.1906 -0.2141
 5956SOL    HW129327   3.299   3.633  10.867  1.5389  0.2666 -0.7845
 5956SOL    HW229328   3.393   3.717  10.950  0.4180 -0.9476 -0.5898
 5957SOL     OW29329   3.579   3.138   4.813 -0.7980 -0.6149  0.0391
 5957SOL    HW129330   3.653   3.195   4.794 -0.6414 -0.2085  1.9042
 5957SOL    HW229331   3.517   3.171   4.748  0.1410 -0.6436 -0.8549
 5958SOL     OW29332   4.233   0.698   7.718 -0.3544 -0.0859  0.1663
 5958SOL    HW129333   4.275   0.692   7.804 -0.7796 -0.0902  0.3757
 5958SOL    HW229334   4.280   0.772   7.680 -2.5817  1.5353  0.5794
 5959SOL     OW29335   2.294   3.404   2.690  0.1019  0.1337 -0.2460
 5959SOL    HW129336   2.267   3.314   2.676  1.5966 -0.1875 -1.0889
 5959SOL    HW229337   2.231   3.455   2.640 -0.8090  1.7098  2.4998
 5960SOL     OW29338   1.412   0.772  17.094 -0.6357  0.2875  0.3278
 5960SOL    HW129339   1.454   0.720  17.162  0.4944  0.9825  0.1576
 5960SOL    HW229340   1.329   0.725  17.105  0.3788 -1.4884  0.2904
 5961SOL     OW29341   1.874   3.339   6.839  0.1373  0.4661 -0.5865
 5961SOL    HW129342   1.908   3.263   6.792 -0.4446 -0.8300  1.0835
 5961SOL    HW229343   1.824   3.382   6.770 -0.9365 -0.8559 -0.6214
 5962SOL     OW29344   1.463   1.802   6.575  0.6838 -0.4692  0.1638
 5962SOL    HW129345   1.511   1.737   6.522 -0.8622 -0.4154 -1.2961
 5962SOL    HW229346   1.534   1.825   6.635  0.5292 -2.0148  0.9242
 5963SOL     OW29347   4.506   0.086  13.905 -0.0282  0.1686 -0.0074
 5963SOL    HW129348   4.567   0.118  13.972 -1.1320  3.6287 -0.6702
 5963SOL    HW229349   4.424   0.104  13.950 -0.9359 -0.4355 -1.4345
 5964SOL     OW29350   2.269   4.002   9.563  0.1573  0.5335 -0.1794
 5964SOL    HW129351   2.236   4.003   9.653 -3.3115  1.7083 -1.4742
 5964SOL    HW229352   2.359   4.033   9.574  0.9190 -2.4904  2.1488
 5965SOL     OW29353   3.040   4.066   1.200 -0.1052  0.2945 -0.0544
 5965SOL    HW129354   3.005   3.982   1.170  0.4077  0.4056 -0.9451
 5965SOL    HW229355   2.961   4.105   1.237  1.4494  0.7319  2.8005
 5966SOL     OW29356   3.134   2.768   9.348  0.5303 -0.0622  0.3494
 5966SOL    HW129357   3.175   2.748   9.432 -0.0192 -1.4337  0.2904
 5966SOL    HW229358   3.208   2.768   9.287  2.4820  1.6812  2.7427
 5967SOL     OW29359   3.014   0.989   9.058 -0.0360 -0.0707  0.4055
 5967SOL    HW129360   3.101   1.020   9.083  0.4073 -0.9596 -0.0301
 5967SOL    HW229361   3.029   0.899   9.029  0.2538  0.5533 -1.3559
 5968SOL     OW29362   1.934   3.144   7.688  0.7935 -0.2635 -0.2482
 5968SOL    HW129363   1.866   3.200   7.649  1.8105 -0.2721 -2.0187
 5968SOL    HW229364   1.937   3.194   7.770 -0.8110  0.3423 -0.5630
 5969SOL     OW29365   2.635   2.875   4.961  0.0133  0.0969 -0.3239
 5969SOL    HW129366   2.667   2.963   4.983 -4.2931  1.3106  1.0595
 5969SOL    HW229367   2.596   2.846   5.044 -1.4233  1.4363 -0.5352
 5970SOL     OW29368   0.956   2.312   0.879 -0.9057 -0.1305  0.5683
 5970SOL    HW129369   0.951   2.407   0.889 -1.3293 -0.0148 -0.6907
 5970SOL    HW229370   0.864   2.286   0.869  0.0259 -2.6315 -1.3268
 5971SOL     OW29371   1.824   0.754   9.270  0.2809 -0.0620 -0.1791
 5971SOL    HW129372   1.875   0.834   9.283  0.0825 -0.0490  0.5366
 5971SOL    HW229373   1.738   0.789   9.291 -0.0585 -0.9824 -0.0158
 5972SOL     OW29374   1.789   0.181   8.658  0.4299 -0.0581  0.3606
 5972SOL    HW129375   1.854   0.115   8.634  1.6326  0.4370  2.2649
 5972SOL    HW229376   1.725   0.133   8.709 -1.2437  2.1150  0.3218
 5973SOL     OW29377   4.151   0.567   8.068 -0.1768 -0.9549  0.1838
 5973SOL    HW129378   4.245   0.581   8.060 -0.3153  0.2873  0.8316
 5973SOL    HW229379   4.126   0.653   8.100 -1.2093 -1.8723  1.8456
 5974SOL     OW29380   3.594   2.026  14.904 -0.2867 -0.2806 -0.2206
 5974SOL    HW129381   3.543   1.960  14.951 -1.2963  0.2311 -0.6029
 5974SOL    HW229382   3.525   2.046  14.840 -0.0470 -1.2521 -0.7805
 5975SOL     OW29383   3.930   3.773   4.266 -0.4624  0.5361  0.3062
 5975SOL    HW129384   3.892   3.718   4.198 -1.4525  1.2023  0.3230
 5975SOL    HW229385   3.856   3.800   4.320  0.9663  1.2294  1.9145
 5976SOL     OW29386   3.685   2.814   3.198 -0.3640  0.1495  0.3711
 5976SOL    HW129387   3.727   2.755   3.261  1.3128 -0.2848 -1.1691
 5976SOL    HW229388   3.603   2.770   3.178 -0.2153  0.9143 -1.9120
 5977SOL     OW29389   1.853   1.601   0.748  0.2765 -0.4111  0.2865
 5977SOL    HW129390   1.791   1.599   0.820 -1.0913  0.9013 -0.8653
 5977SOL    HW229391   1.831   1.518   0.705 -0.1369 -0.8322  1.3278
 5978SOL     OW29392   4.325   4.702  10.209  0.0147 -0.5478 -0.7534
 5978SOL    HW129393   4.296   4.691  10.300 -0.6047  2.1901 -0.6336
 5978SOL    HW229394   4.242   0.019  10.185  0.4623  0.5559 -0.3528
 5979SOL     OW29395   3.079   3.271  17.410 -0.0059  0.5250  0.2427
 5979SOL    HW129396   3.074   3.275  17.505  0.9504  0.1110  0.3090
 5979SOL    HW229397   3.014   3.202  17.395  1.2184 -0.6274  0.2865
 5980SOL     OW29398   3.464   4.003   0.958  0.3672  0.1739 -0.0807
 5980SOL    HW129399   3.535   4.036   0.903 -1.6665  2.5279 -1.3031
 5980SOL    HW229400   3.443   3.925   0.907 -0.7220  1.8326 -2.1566
 5981SOL     OW29401   2.405   0.847   7.996 -0.4799  0.1417  0.1258
 5981SOL    HW129402   2.430   0.924   8.047 -2.1259 -0.7949  2.3594
 5981SOL    HW229403   2.347   0.796   8.053  0.7554 -0.6610  0.6631
 5982SOL     OW29404   2.656   2.008   2.548  0.3516  0.5045 -0.2193
 5982SOL    HW129405   2.656   2.043   2.637  1.1756  0.9875 -0.4127
 5982SOL    HW229406   2.700   1.923   2.556  0.4831  0.7089  1.1583
 5983SOL     OW29407   2.735   3.425   7.476  0.0388  0.1279 -0.5151
 5983SOL    HW129408   2.685   3.495   7.518  0.0500  0.9383 -1.8716
 5983SOL    HW229409   2.783   3.478   7.412 -2.4787  1.3609 -1.3669
 5984SOL     OW29410   3.920   4.350  11.391  0.2001  0.0001 -0.0383
 5984SOL    HW129411   3.909   4.368  11.297 -2.0250 -0.7375  0.0841
 5984SOL    HW229412   3.893   4.433  11.429 -4.3022 -1.5503  0.1384
 5985SOL     OW29413   2.819   0.717   8.979  0.1611 -0.5276 -0.3543
 5985SOL    HW129414   2.791   0.748   8.893  1.2110 -1.8074 -1.1450
 5985SOL    HW229415   2.914   0.708   8.977  0.0713 -1.0554 -1.8981
 5986SOL     OW29416   2.189   1.548  16.886 -0.4864 -0.7124  0.4529
 5986SOL    HW129417   2.271   1.535  16.933  0.0585  2.2370  0.2815
 5986SOL    HW229418   2.207   1.594  16.804  4.2518 -0.1549  1.8525
 5987SOL     OW29419   3.960   1.275   7.996  0.0176  0.1157 -0.5464
 5987SOL    HW129420   3.946   1.286   8.090 -2.4126  0.8963 -0.9906
 5987SOL    HW229421   3.873   1.246   7.968 -0.4054 -1.7381  2.7422
 5988SOL     OW29422   3.779   0.778   7.408  0.1464  0.3188 -0.2678
 5988SOL    HW129423   3.822   0.768   7.493  0.0626  2.8085  0.0696
 5988SOL    HW229424   3.828   0.715   7.357  2.8356  1.3837  0.9738
 5989SOL     OW29425   1.503   4.641   6.322  0.4343 -0.1028  0.5290
 5989SOL    HW129426   1.410   4.641   6.301  0.6231 -0.8921 -0.3530
 5989SOL    HW229427   1.509   4.577   6.393 -0.1155  0.6041  1.2024
 5990SOL     OW29428   3.162   4.706   8.950 -0.2912 -0.2646 -0.0906
 5990SOL    HW129429   3.233   4.647   8.927 -0.4018  0.4585 -2.3670
 5990SOL    HW229430   3.108   4.672   9.021  0.3818  2.7043  1.8441
 5991SOL     OW29431   1.057   1.571   6.006 -0.0333  0.2017  0.0564
 5991SOL    HW129432   1.145   1.576   5.969 -0.9451  1.5794 -1.8937
 5991SOL    HW229433   1.042   1.477   5.999 -1.4148  0.4328  0.0920
 5992SOL     OW29434   2.158   3.801   2.693  0.4671 -0.0419  0.0828
 5992SOL    HW129435   2.215   3.755   2.755 -0.1204 -1.0148 -0.0945
 5992SOL    HW229436   2.217   3.794   2.618 -0.0063 -2.2923 -0.0740
 5993SOL     OW29437   4.327   1.438   2.437 -0.2070 -0.1018 -0.1576
 5993SOL    HW129438   4.279   1.515   2.468  1.1969  1.0760 -0.9040
 5993SOL    HW229439   4.404   1.475   2.395  0.6633  0.5601  2.0159
 5994SOL     OW29440   3.773   4.237   2.355 -0.3099 -0.0026  0.1610
 5994SOL    HW129441   3.752   4.315   2.406  0.3623  1.1672 -1.3437
 5994SOL    HW229442   3.809   4.177   2.420 -2.9161 -1.3326  0.4032
 5995SOL     OW29443   1.409   4.614   0.916 -0.6322 -0.0771  0.0266
 5995SOL    HW129444   1.497   4.638   0.945  0.0462 -0.8247 -1.4005
 5995SOL    HW229445   1.434   4.537   0.865  1.8696  0.1355  0.9119
 5996SOL     OW29446   1.459   1.843   7.874  0.4774  0.2473 -0.3279
 5996SOL    HW129447   1.537   1.845   7.930  0.8646 -2.4667 -0.7653
 5996SOL    HW229448   1.501   1.849   7.788  0.7737 -1.1767 -0.2956
 5997SOL     OW29449   0.880   2.299   0.245 -0.3340  0.2942 -0.3837
 5997SOL    HW129450   0.816   2.340   0.303 -0.2731  0.5146 -0.4723
 5997SOL    HW229451   0.950   2.363   0.233 -1.0496  1.2598  0.5199
 5998SOL     OW29452   0.539   3.740   7.901 -0.0748 -0.1338  0.2134
 5998SOL    HW129453   0.448   3.730   7.928 -0.2740  0.7993 -0.1317
 5998SOL    HW229454   0.559   3.830   7.925 -2.4550  0.1687  1.0198
 5999SOL     OW29455   0.009   2.853  14.015  0.3061  0.1364 -0.1893
 5999SOL    HW129456   0.063   2.860  14.094 -1.6655  4.3890  0.8110
 5999SOL    HW229457   0.064   2.874  13.940 -0.6572  2.2709 -0.2923
 6000SOL     OW29458   2.452   2.019   7.984  0.4122 -0.7756 -0.2034
 6000SOL    HW129459   2.477   2.058   8.068  0.6456  0.2352 -0.7369
 6000SOL    HW229460   2.517   2.060   7.926 -0.6921  2.4246  0.8547
 6001SOL     OW29461   1.702   4.375   1.054  1.0134  0.2576  0.1370
 6001SOL    HW129462   1.720   4.281   1.064  2.2319  0.1801 -2.6379
 6001SOL    HW229463   1.612   4.373   1.021  1.1947  2.3382 -0.4513
 6002SOL     OW29464   3.132   0.798  13.854  0.1332 -0.5467 -0.2043
 6002SOL    HW129465   3.187   0.761  13.784  0.7434 -0.6976  0.3574
 6002SOL    HW229466   3.054   0.745  13.840 -0.7483  0.5819  0.4315
 6003SOL     OW29467   1.316   4.300   3.235  0.0122 -0.5973  0.4311
 6003SOL    HW129468   1.242   4.241   3.219  0.4669 -0.8234 -0.9072
 6003SOL    HW229469   1.291   4.339   3.318 -2.6172 -1.0222 -0.1747
 6004SOL     OW29470   4.056   4.592   9.492 -0.2190  0.4637 -0.6250
 6004SOL    HW129471   4.006   4.623   9.567 -0.2752  0.0430 -0.4891
 6004SOL    HW229472   3.995   4.521   9.470  0.0179 -0.2099  0.8825
 6005SOL     OW29473   3.851   3.834  14.486 -0.0188  0.1982  0.1056
 6005SOL    HW129474   3.756   3.844  14.495 -0.2612  1.7680 -4.0183
 6005SOL    HW229475   3.874   3.922  14.455  3.2402 -0.8586 -0.4894
 6006SOL     OW29476   1.616   1.354   7.197  0.9105  1.0967  0.9014
 6006SOL    HW129477   1.587   1.385   7.283 -2.5392  1.8306 -0.5328
 6006SOL    HW229478   1.633   1.262   7.218 -0.9012  0.6704  0.4728
 6007SOL     OW29479   4.666   1.817   3.584 -0.5375  0.8485  0.7477
 6007SOL    HW129480   4.578   1.818   3.621 -2.1082 -1.3381 -2.9096
 6007SOL    HW229481   4.706   1.735   3.614 -0.0764  1.1633  0.9914
 6008SOL     OW29482   3.716   3.505   1.829 -0.0844 -0.0506 -0.0300
 6008SOL    HW129483   3.641   3.511   1.769 -0.8768 -1.8644  0.7895
 6008SOL    HW229484   3.771   3.437   1.790 -1.8594 -0.7592 -1.3043
 6009SOL     OW29485   2.518   2.076  12.963  0.0825  0.0762 -0.0094
 6009SOL    HW129486   2.516   2.080  12.868  1.3496  2.3200  0.0518
 6009SOL    HW229487   2.431   2.106  12.988 -0.6470 -3.2955  1.4639
 6010SOL     OW29488   3.752   0.773   1.776  0.6476  0.2360  0.4663
 6010SOL    HW129489   3.725   0.689   1.738 -0.6090  1.3454 -1.1157
 6010SOL    HW229490   3.687   0.833   1.738  0.5983 -0.8072 -1.1260
 6011SOL     OW29491   4.399   0.957   6.006  0.1172 -0.0652  0.4007
 6011SOL    HW129492   4.350   0.883   5.970 -0.4971  0.2281  0.6329
 6011SOL    HW229493   4.483   0.945   5.963  0.7491  2.9206  0.8400
 6012SOL     OW29494   1.809   1.498   9.361  0.1960  0.3420 -0.5040
 6012SOL    HW129495   1.769   1.419   9.397 -2.9011  2.0781 -0.1687
 6012SOL    HW229496   1.898   1.469   9.339  0.7430  0.9585  0.8923
 6013SOL     OW29497   0.135   1.803  12.832 -0.4182  0.5264 -0.0044
 6013SOL    HW129498   0.179   1.878  12.873  0.5512 -0.4437  0.7318
 6013SOL    HW229499   0.189   1.801  12.753 -1.6320  0.7829 -0.8378
 6014SOL     OW29500   4.645   0.384   2.556  0.1352 -0.2254  0.3678
 6014SOL    HW129501   4.654   0.441   2.480  0.2572 -0.3489  0.2903
 6014SOL    HW229502   4.570   0.344   2.514  0.5259  0.7553 -1.2514
 6015SOL     OW29503   0.404   3.707  12.016 -0.7004  0.1928  0.3659
 6015SOL    HW129504   0.494   3.702  12.050  0.0415 -0.4235 -1.6562
 6015SOL    HW229505   0.354   3.740  12.090  0.1621  1.8514  0.2353
 6016SOL     OW29506   2.812   0.384   7.685  0.2348 -0.0922 -0.1132
 6016SOL    HW129507   2.781   0.300   7.653  0.3161  0.5426 -1.8801
 6016SOL    HW229508   2.848   0.361   7.771 -0.0224 -0.1921 -0.0329
 6017SOL     OW29509   0.440   1.530   7.859  0.0401 -0.2600  0.0855
 6017SOL    HW129510   0.450   1.442   7.821 -1.1206 -0.8428  1.1244
 6017SOL    HW229511   0.350   1.552   7.834 -0.6162 -0.5606  2.1659
 6018SOL     OW29512   1.931   3.912  17.174 -0.2725 -0.3947 -0.1971
 6018SOL    HW129513   1.836   3.917  17.163 -0.2987  1.6302  1.1434
 6018SOL    HW229514   1.961   3.903  17.084  1.5982  2.1882  0.1881
 6019SOL     OW29515   4.446   1.165   6.674 -0.7335 -0.2309 -0.5278
 6019SOL    HW129516   4.430   1.076   6.708  0.4088  0.3299  1.4596
 6019SOL    HW229517   4.440   1.157   6.579  0.0664 -1.3633 -0.4878
 6020SOL     OW29518   3.524   0.663  10.867 -0.1134  0.6021  0.1586
 6020SOL    HW129519   3.448   0.606  10.874  1.9110 -2.4567 -3.0293
 6020SOL    HW229520   3.574   0.640  10.945 -2.4731  2.0780  2.0952
 6021SOL     OW29521   1.770   1.536   6.112  0.5281 -0.2697  0.3203
 6021SOL    HW129522   1.726   1.580   6.185  0.2401  0.2187 -0.1514
 6021SOL    HW229523   1.824   1.613   6.093  0.4231 -0.7266 -1.7995
 6022SOL     OW29524   3.808   2.438  10.079  0.0150  0.1659 -0.1212
 6022SOL    HW129525   3.903   2.441  10.066 -0.0723 -2.8933 -1.3806
 6022SOL    HW229526   3.801   2.514  10.138  2.5831  1.6472 -1.7239
 6023SOL     OW29527   3.082   0.095   7.738 -0.1333 -0.3173 -0.3123
 6023SOL    HW129528   3.119   0.183   7.743 -1.1442  0.0567  0.4248
 6023SOL    HW229529   3.131   0.061   7.662  0.4848  0.1739 -0.1318
 6024SOL     OW29530   2.873   2.821   4.632 -0.2770 -0.0905 -0.5476
 6024SOL    HW129531   2.793   2.768   4.634 -0.8515  0.8121  0.0846
 6024SOL    HW229532   2.896   2.829   4.539  1.4316 -0.0811 -0.1209
 6025SOL     OW29533   1.140   2.324   2.790  0.1990  0.0739 -0.5541
 6025SOL    HW129534   1.086   2.298   2.715 -1.2450  1.3056  0.0480
 6025SOL    HW229535   1.110   2.415   2.798  0.3788 -0.0524  1.4921
 6026SOL     OW29536   4.025   1.671   4.889  0.4931  0.1967  0.3411
 6026SOL    HW129537   3.959   1.653   4.822 -0.4611  1.2234  1.0076
 6026SOL    HW229538   3.982   1.722   4.958 -2.7877 -3.9560  1.3608
 6027SOL     OW29539   4.398   0.789   7.956  0.0713  0.0631  0.3368
 6027SOL    HW129540   4.397   0.719   8.022 -2.4674 -2.3732 -2.2800
 6027SOL    HW229541   4.455   0.763   7.884 -0.1791  0.0834  0.1356
 6028SOL     OW29542   3.649   2.600   1.111 -0.1821  0.0232 -0.3621
 6028SOL    HW129543   3.559   2.583   1.083 -0.3751  1.3568 -0.5874
 6028SOL    HW229544   3.637   2.688   1.149 -0.9694 -0.0241 -0.5075
 6029SOL     OW29545   4.356   2.531  16.450  0.6179  0.2091  0.1102
 6029SOL    HW129546   4.371   2.532  16.355 -0.5913 -0.6574 -0.0986
 6029SOL    HW229547   4.312   2.447  16.466  0.3938  0.0431 -1.3863
 6030SOL     OW29548   3.466   4.081  16.664 -0.0642 -0.1396 -0.6999
 6030SOL    HW129549   3.549   4.077  16.711 -0.9453  2.6203  1.0893
 6030SOL    HW229550   3.423   4.152  16.711  3.2671  0.9362  0.6709
 6031SOL     OW29551   0.737   3.855   4.474  0.1104 -0.2161  0.3870
 6031SOL    HW129552   0.797   3.835   4.402 -3.3617 -1.5095 -2.1189
 6031SOL    HW229553   0.677   3.920   4.439 -1.3292 -1.6454  0.2161
 6032SOL     OW29554   2.112   0.224   5.259  0.2454 -0.3850  0.4432
 6032SOL    HW129555   2.097   0.314   5.289  0.7990 -1.1572  3.0553
 6032SOL    HW229556   2.200   0.200   5.289  0.4368 -0.2005  0.0240
 6033SOL     OW29557   3.253   2.539   6.906 -0.2328 -0.0956 -0.2257
 6033SOL    HW129558   3.227   2.586   6.827 -0.4095  0.1781 -0.0067
 6033SOL    HW229559   3.196   2.575   6.974 -0.5561 -0.3262 -0.3749
 6034SOL     OW29560   4.108   2.610   7.675  0.4555 -0.0482  0.2552
 6034SOL    HW129561   4.025   2.655   7.665  0.9601  0.7322 -0.4570
 6034SOL    HW229562   4.081   2.529   7.632 -1.6305  0.6530  0.2620
 6035SOL     OW29563   2.151   4.682   7.020  0.2451 -0.6389  0.1698
 6035SOL    HW129564   2.101   4.634   7.085  0.1866 -1.8669 -0.7823
 6035SOL    HW229565   2.154   4.632   6.939  1.6994  0.6601 -0.5900
 6036SOL     OW29566   0.811   1.358   3.998 -0.0775 -0.0764 -0.5363
 6036SOL    HW129567   0.720   1.332   4.016 -0.0758  1.6562  2.0591
 6036SOL    HW229568   0.826   1.384   4.089 -1.4742  0.2022 -0.3755
 6037SOL     OW29569   3.583   3.263  12.020 -0.1800  0.2802  0.0261
 6037SOL    HW129570   3.601   3.229  11.932 -0.1152  0.9229 -0.2096
 6037SOL    HW229571   3.490   3.244  12.031 -0.0902 -0.1576  0.0292
 6038SOL     OW29572   4.285   4.577   3.915  0.3152  0.6543  0.3094
 6038SOL    HW129573   4.328   4.542   3.993 -2.3245  1.3826  2.0892
 6038SOL    HW229574   4.231   4.502   3.891  1.9206 -0.6761  0.8636
 6039SOL     OW29575   0.399   1.330  10.973  0.7484 -0.9442 -0.2920
 6039SOL    HW129576   0.433   1.418  10.954  0.7110 -0.4203  2.0480
 6039SOL    HW229577   0.433   1.317  11.062 -1.3717 -0.8763  0.5234
 6040SOL     OW29578   3.739   1.464   9.363 -0.1360  0.4601 -0.1372
 6040SOL    HW129579   3.751   1.542   9.308 -1.5631  0.2242 -0.8066
 6040SOL    HW229580   3.764   1.396   9.300  2.0347  0.1620  1.0631
 6041SOL     OW29581   1.922   1.834   4.305 -0.4483 -0.1224  0.2399
 6041SOL    HW129582   1.868   1.817   4.228  0.7340 -2.2817 -0.1016
 6041SOL    HW229583   1.890   1.918   4.338  0.5714  0.8154 -1.1389
 6042SOL     OW29584   2.973   3.152   5.868  0.5863  0.3390  0.5199
 6042SOL    HW129585   3.004   3.242   5.884  2.1658 -0.0390 -0.3906
 6042SOL    HW229586   2.930   3.118   5.946 -0.9812  1.1612  0.0187
 6043SOL     OW29587   0.505   3.964   3.924 -0.3806  0.0854 -0.0450
 6043SOL    HW129588   0.542   3.957   3.836  1.0220  0.7108  0.5103
 6043SOL    HW229589   0.525   4.054   3.947  0.4891 -0.0354 -0.3478
 6044SOL     OW29590   2.553   0.464   6.658 -0.6245  0.0910  0.3550
 6044SOL    HW129591   2.489   0.439   6.591 -1.5501 -0.9853  1.6169
 6044SOL    HW229592   2.598   0.541   6.625 -0.3429  0.0752  0.7051
 6045SOL     OW29593   2.163   3.271   6.856 -0.1930 -0.0025  0.3051
 6045SOL    HW129594   2.078   3.306   6.882 -0.1124  0.3396  0.0974
 6045SOL    HW229595   2.223   3.319   6.913  2.3036 -0.7916 -1.6297
 6046SOL     OW29596   0.651   3.933   6.253  0.0881  0.1816  0.0366
 6046SOL    HW129597   0.666   3.904   6.343 -2.1024 -1.7225 -0.2273
 6046SOL    HW229598   0.625   3.852   6.210 -2.7139  0.8592  0.4588
 6047SOL     OW29599   3.337   3.080   7.390  0.0704 -0.0185 -0.1451
 6047SOL    HW129600   3.254   3.042   7.360 -0.2914  0.4082  0.3101
 6047SOL    HW229601   3.394   3.075   7.313 -1.0195 -1.4723 -0.8552
 6048SOL     OW29602   1.284   0.314   6.028 -0.1723  0.1905 -0.3063
 6048SOL    HW129603   1.287   0.399   6.072 -2.1690 -0.3445  0.8804
 6048SOL    HW229604   1.315   0.339   5.941 -0.1466 -2.6659 -1.1303
 6049SOL     OW29605   0.188   1.858   5.308 -0.4117 -0.5941  0.2899
 6049SOL    HW129606   0.093   1.867   5.313 -0.6421 -2.6257 -0.6058
 6049SOL    HW229607   0.203   1.803   5.231 -0.7486 -0.7535  0.3375
 6050SOL     OW29608   3.893   1.144   5.401 -0.1179  0.4379  0.1234
 6050SOL    HW129609   3.843   1.178   5.326  1.2380  1.1826 -0.4553
 6050SOL    HW229610   3.856   1.059   5.424 -1.3903  1.0733  0.4687
 6051SOL     OW29611   3.664   0.346   2.659 -0.0120 -0.0630 -0.1047
 6051SOL    HW129612   3.721   0.291   2.605 -0.3744 -0.5595  0.0178
 6051SOL    HW229613   3.647   0.420   2.599 -0.9731  1.0625  1.5512
 6052SOL     OW29614   2.794   4.719  10.686 -0.2749  0.7801 -0.0775
 6052SOL    HW129615   2.862   4.697  10.750  1.5274  0.0813 -2.2565
 6052SOL    HW229616   2.713   4.715  10.737  0.3231  4.6951  1.1522
 6053SOL     OW29617   0.892   2.020   7.189  0.0179  0.7993 -0.1317
 6053SOL    HW129618   0.975   2.040   7.232 -0.6005 -0.1585  1.4819
 6053SOL    HW229619   0.878   1.934   7.229  0.9830 -0.1467 -1.8002
 6054SOL     OW29620   2.167   1.983   2.181 -0.1164  0.8552 -0.2320
 6054SOL    HW129621   2.078   1.983   2.219 -0.9624  2.8783 -2.2150
 6054SOL    HW229622   2.202   1.906   2.225 -2.4712 -1.3767 -2.2496
 6055SOL     OW29623   3.924   3.699   9.006  0.1084  0.3866  0.3779
 6055SOL    HW129624   3.879   3.624   8.967 -0.8202  1.0948  0.0867
 6055SOL    HW229625   3.863   3.760   9.046 -1.3523 -0.2324 -0.8760
 6056SOL     OW29626   3.772   0.584   6.740 -0.1764 -0.0701  0.4510
 6056SOL    HW129627   3.723   0.667   6.741 -1.0922 -0.6140  0.5282
 6056SOL    HW229628   3.828   0.596   6.664 -0.2689 -1.6677  0.1325
 6057SOL     OW29629   0.243   4.448  16.024 -0.0553 -0.1334  0.2966
 6057SOL    HW129630   0.316   4.481  16.076 -1.3785 -0.1352  2.1796
 6057SOL    HW229631   0.170   4.499  16.060  0.3348 -0.0701  1.0023
 6058SOL     OW29632   4.030   3.626  11.319  0.0249  0.1085 -0.2223
 6058SOL    HW129633   4.108   3.615  11.372  0.2810  0.7883 -0.4579
 6058SOL    HW229634   4.076   3.685  11.260 -0.3432  1.9098  1.2729
 6059SOL     OW29635   3.296   2.374   6.222 -0.5359  0.1169 -0.0638
 6059SOL    HW129636   3.318   2.314   6.293 -1.6479 -0.5470 -0.2664
 6059SOL    HW229637   3.368   2.437   6.218  1.3197 -1.9074  1.7261
 6060SOL     OW29638   3.589   0.531  14.510 -0.3191  0.3258 -0.3744
 6060SOL    HW129639   3.655   0.594  14.540 -0.7632 -0.4731  2.2798
 6060SOL    HW229640   3.645   0.466  14.469  1.4135  1.2980  0.4552
 6061SOL     OW29641   0.378   3.651   5.479  0.2156  0.2340 -0.5367
 6061SOL    HW129642   0.311   3.669   5.413  0.3831  1.6035 -0.3313
 6061SOL    HW229643   0.455   3.695   5.443 -0.6631  1.1534 -1.2536
 6062SOL     OW29644   1.504   2.980   6.414  0.1761 -0.0094 -0.6392
 6062SOL    HW129645   1.453   2.912   6.370 -1.3685 -2.1982  4.6087
 6062SOL    HW229646   1.446   3.056   6.408  0.5054  0.2619 -0.4069
 6063SOL     OW29647   1.489   3.110   8.197 -0.3430  0.4468  0.5898
 6063SOL    HW129648   1.404   3.155   8.202  0.1365  1.3300  0.7723
 6063SOL    HW229649   1.467   3.017   8.202 -0.4868  0.4610  0.1748
 6064SOL     OW29650   3.372   3.809   1.754  0.3385 -0.2197 -0.1589
 6064SOL    HW129651   3.352   3.845   1.840 -0.3776  1.0367 -0.8570
 6064SOL    HW229652   3.442   3.869   1.727  0.3270  0.3432  1.0587
 6065SOL     OW29653   3.130   1.764   4.729  0.3106 -0.0973 -0.0886
 6065SOL    HW129654   3.062   1.699   4.712  1.4560 -1.0965 -0.8350
 6065SOL    HW229655   3.125   1.813   4.647 -1.3062 -1.1892 -0.6326
 6066SOL     OW29656   1.456   0.855   6.620 -0.5489  0.0453 -0.7083
 6066SOL    HW129657   1.455   0.763   6.592  0.0198  0.5218 -2.2201
 6066SOL    HW229658   1.548   0.869   6.644 -0.3503  1.6273 -2.4315
 6067SOL     OW29659   3.152   2.770   5.783 -0.4579 -0.0658 -0.1191
 6067SOL    HW129660   3.117   2.809   5.703  0.8968 -1.1777 -1.2521
 6067SOL    HW229661   3.240   2.808   5.789 -0.3486 -0.1463 -1.2189
 6068SOL     OW29662   0.369   2.300   3.852 -0.0458  0.1992  0.5359
 6068SOL    HW129663   0.312   2.370   3.820  0.8126  0.1796 -1.0639
 6068SOL    HW229664   0.398   2.243   3.780  1.9727  1.3472  0.4573
 6069SOL     OW29665   0.708   4.477   1.364  1.1386 -0.1682 -0.4117
 6069SOL    HW129666   0.790   4.466   1.413 -0.1921  1.1394  2.1134
 6069SOL    HW229667   0.645   4.498   1.433 -1.1148  0.5741 -2.7058
 6070SOL     OW29668   4.382   4.248  17.097  0.3732  0.0533 -0.0140
 6070SOL    HW129669   4.318   4.293  17.151  0.7723 -0.7692  1.1452
 6070SOL    HW229670   4.464   4.293  17.113  0.2560  0.2051  0.1545
 6071SOL     OW29671   1.937   1.428  16.897 -0.0444 -0.0532  0.2034
 6071SOL    HW129672   2.025   1.467  16.895  2.0221 -4.7527 -0.1542
 6071SOL    HW229673   1.889   1.510  16.884  3.1913  1.7399 -0.6395
 6072SOL     OW29674   3.398   4.280   6.363 -0.4857 -0.2038 -0.2667
 6072SOL    HW129675   3.486   4.248   6.386 -1.2045 -3.2427 -1.8223
 6072SOL    HW229676   3.366   4.321   6.443 -0.9140 -0.3406 -0.3729
 6073SOL     OW29677   3.925   3.745  11.705 -0.0045 -0.0523 -0.8298
 6073SOL    HW129678   3.990   3.813  11.688  1.2467 -1.6041 -2.3201
 6073SOL    HW229679   3.892   3.767  11.792 -1.1192  1.2742 -1.5959
 6074SOL     OW29680   1.276   4.590   8.239  0.4129 -0.0798 -0.0957
 6074SOL    HW129681   1.214   4.570   8.169  3.2125  0.2961 -2.6771
 6074SOL    HW229682   1.252   4.681   8.253 -3.2160 -1.4119  2.3225
 6075SOL     OW29683   1.879   2.125   1.393  0.0376 -0.3223  0.2816
 6075SOL    HW129684   1.835   2.047   1.359 -1.4774  0.7155 -0.1916
 6075SOL    HW229685   1.970   2.115   1.366 -0.8820  1.2935 -3.4368
 6076SOL     OW29686   1.396   4.423  16.225  0.0479  0.0981 -0.0168
 6076SOL    HW129687   1.360   4.507  16.250 -1.2695 -0.0255 -1.4604
 6076SOL    HW229688   1.481   4.457  16.196  0.4227 -0.1527  0.7913
 6077SOL     OW29689   0.045   3.493   6.276 -0.4915 -0.5670  0.4210
 6077SOL    HW129690   0.055   3.428   6.345  1.3313  0.3590  1.0276
 6077SOL    HW229691   0.013   3.437   6.205  1.0892 -0.1397 -0.6299
 6078SOL     OW29692   3.763   1.832   4.208  0.0092  0.4009  0.3415
 6078SOL    HW129693   3.813   1.840   4.127 -0.0964 -1.7862  0.0516
 6078SOL    HW229694   3.839   1.850   4.264  0.0238  2.4982 -0.3468
 6079SOL     OW29695   1.458   0.512   6.819 -0.1922 -0.4044 -0.7426
 6079SOL    HW129696   1.455   0.441   6.755  1.0787 -1.9597  0.9191
 6079SOL    HW229697   1.478   0.466   6.901 -1.7390  0.0577 -0.1219
 6080SOL     OW29698   1.635   4.724   8.223 -0.2972 -0.1732 -0.0740
 6080SOL    HW129699   1.634   0.094   8.231 -0.9622 -0.4841  3.2037
 6080SOL    HW229700   1.545   4.706   8.249 -0.7670 -0.2153 -1.6767
 6081SOL     OW29701   4.645   0.911   3.212 -0.3988  0.2228  0.0440
 6081SOL    HW129702   4.608   0.924   3.125 -0.7986 -0.0748  0.1675
 6081SOL    HW229703   4.634   0.817   3.226  0.1037  0.2889  0.8854
 6082SOL     OW29704   1.784   3.172   1.885 -0.6172  0.3451 -0.9260
 6082SOL    HW129705   1.689   3.176   1.895 -0.4160 -1.5060  1.7065
 6082SOL    HW229706   1.788   3.250   1.830  0.5358  0.2153 -1.0187
 6083SOL     OW29707   0.401   1.174   4.192  0.6173 -0.3583 -0.3095
 6083SOL    HW129708   0.318   1.169   4.240 -0.3116 -0.0432 -1.8849
 6083SOL    HW229709   0.397   1.257   4.144  1.0980 -0.2268 -0.1219
 6084SOL     OW29710   2.399   2.451   1.675  0.3236 -0.3689  0.1900
 6084SOL    HW129711   2.411   2.400   1.755  2.3754  1.2189  0.8966
 6084SOL    HW229712   2.407   2.538   1.715 -0.3565 -0.7056  1.0527
 6085SOL     OW29713   0.849   1.235   8.634  0.3704 -0.2442 -0.4496
 6085SOL    HW129714   0.866   1.146   8.604  1.4768  0.2888 -1.4119
 6085SOL    HW229715   0.835   1.288   8.555  0.3271 -1.7713 -1.4677
 6086SOL     OW29716   3.407   1.382   3.732 -0.3422 -0.2447  0.6995
 6086SOL    HW129717   3.423   1.330   3.653  1.3281  0.4164  0.6150
 6086SOL    HW229718   3.315   1.358   3.746 -0.2339 -1.3320 -0.4343
 6087SOL     OW29719   4.701   2.715   3.111 -0.4884 -0.2989 -0.3235
 6087SOL    HW129720   4.696   2.800   3.154  0.8164 -0.3936  0.0408
 6087SOL    HW229721   0.065   2.710   3.076 -0.7451 -1.5999 -0.7791
 6088SOL     OW29722   4.583   2.879  14.972 -0.2232  0.1559 -0.3460
 6088SOL    HW129723   4.632   2.836  14.902 -0.3752  1.0143 -0.9764
 6088SOL    HW229724   4.610   2.824  15.046  0.0943  1.3309  0.4073
 6089SOL     OW29725   2.727   2.002   5.060  0.0793 -0.0479  0.7182
 6089SOL    HW129726   2.638   2.036   5.056  0.6944  1.5378  0.5408
 6089SOL    HW229727   2.771   2.046   5.134  1.3476 -1.4825  0.8102
 6090SOL     OW29728   4.702   4.189  14.321  0.3636 -0.8617  0.3432
 6090SOL    HW129729   4.647   4.249  14.270  1.4700 -0.6440 -0.5945
 6090SOL    HW229730   4.709   4.246  14.397 -1.4462 -0.6591  0.3688
 6091SOL     OW29731   2.636   3.502   5.570 -0.4044  0.1353 -0.1372
 6091SOL    HW129732   2.629   3.538   5.659  1.7252 -0.2091  0.1717
 6091SOL    HW229733   2.714   3.448   5.586 -0.8273 -0.3493  0.2773
 6092SOL     OW29734   3.613   4.383  10.377  0.0042 -0.1556 -0.2629
 6092SOL    HW129735   3.586   4.337  10.457 -1.1112 -1.4055 -1.3706
 6092SOL    HW229736   3.685   4.323  10.357  1.0739  1.0103  0.0508
 6093SOL     OW29737   3.954   1.610  12.447 -0.2574 -0.3933  0.0590
 6093SOL    HW129738   3.936   1.702  12.468  2.7903  0.2992 -0.3866
 6093SOL    HW229739   4.017   1.619  12.376 -0.2967  0.3846  0.1147
 6094SOL     OW29740   2.306   3.667   2.879  0.2473  0.2029 -0.2608
 6094SOL    HW129741   2.276   3.678   2.969 -0.0088 -2.4248 -0.0223
 6094SOL    HW229742   2.388   3.619   2.886 -1.1483 -2.1936 -0.5623
 6095SOL     OW29743   1.089   2.871  16.929 -0.0505 -0.4061  0.4803
 6095SOL    HW129744   1.111   2.779  16.945  1.0637  0.0195  1.3916
 6095SOL    HW229745   1.041   2.875  16.846 -1.7415  0.1969  1.4725
 6096SOL     OW29746   0.129   4.516   7.339 -0.2310  0.1359 -0.0050
 6096SOL    HW129747   0.051   4.550   7.294  1.1855  0.5066 -2.2008
 6096SOL    HW229748   0.084   4.481   7.416  0.5221 -1.1935 -0.1706
 6097SOL     OW29749   2.143   2.425   8.554 -0.7233  0.0639 -0.6941
 6097SOL    HW129750   2.088   2.503   8.544  1.1704  1.3424 -1.0925
 6097SOL    HW229751   2.224   2.473   8.539 -0.0110 -1.0095 -0.2533
 6098SOL     OW29752   3.129   1.983   7.080 -0.5514  0.0093  0.2157
 6098SOL    HW129753   3.158   1.993   7.170  1.7191 -0.0951 -0.4970
 6098SOL    HW229754   3.076   1.903   7.078 -0.8114  0.2031 -1.1321
 6099SOL     OW29755   0.558   3.076   3.837  0.5770  0.3930 -0.1752
 6099SOL    HW129756   0.582   3.124   3.757 -0.4867  1.2783  0.0388
 6099SOL    HW229757   0.568   3.140   3.907  1.7332  1.0363 -0.9363
 6100SOL     OW29758   1.951   0.170  14.554  0.1330 -0.4578  0.1190
 6100SOL    HW129759   1.974   0.178  14.461  0.3710 -0.2235  0.1975
 6100SOL    HW229760   2.034   0.163  14.602 -1.2006 -2.2795  2.1665
 6101SOL     OW29761   4.307   0.546   2.678 -0.3831 -0.2640 -0.0684
 6101SOL    HW129762   4.362   0.599   2.735  2.1483 -1.1090 -1.7144
 6101SOL    HW229763   4.250   0.613   2.642 -0.4676 -0.9680 -1.2466
 6102SOL     OW29764   1.192   2.549   3.647  0.0243 -0.1540  0.2340
 6102SOL    HW129765   1.241   2.564   3.566 -0.2628  1.4575  0.3596
 6102SOL    HW229766   1.257   2.524   3.712  0.8228 -2.6557 -1.5382
 6103SOL     OW29767   2.012   3.723   5.394  0.2275 -0.3868  0.4328
 6103SOL    HW129768   2.052   3.779   5.461  0.2365 -1.2710  1.1580
 6103SOL    HW229769   1.983   3.794   5.336  1.0618 -0.3787  0.0284
 6104SOL     OW29770   3.714   2.252  11.652 -0.4622 -0.1793  0.4680
 6104SOL    HW129771   3.635   2.257  11.597  0.1481  0.0730 -0.3757
 6104SOL    HW229772   3.730   2.343  11.678  1.4448 -0.9844  2.0255
 6105SOL     OW29773   4.370   0.080   8.849 -0.1616 -0.3468  0.5068
 6105SOL    HW129774   4.285   0.124   8.852  0.4147  0.8100 -0.1411
 6105SOL    HW229775   4.368   0.030   8.768 -3.6581  0.0227  0.3693
 6106SOL     OW29776   0.948   1.537   7.826  0.0099  0.4173  0.2956
 6106SOL    HW129777   0.862   1.578   7.816 -1.1616 -1.7227  1.4570
 6106SOL    HW229778   0.973   1.522   7.735 -1.6813  0.3791 -0.1675
 6107SOL     OW29779   4.459   3.866  12.524  0.6039 -0.6939  0.0454
 6107SOL    HW129780   4.444   3.867  12.430  0.1255 -0.1735  0.1281
 6107SOL    HW229781   4.374   3.832  12.553 -0.4504  1.9795  0.0460
 6108SOL     OW29782   3.859   4.334  14.513 -0.0029  0.3841  0.3108
 6108SOL    HW129783   3.934   4.275  14.509 -1.2436 -1.2347  0.7835
 6108SOL    HW229784   3.856   4.345  14.608  1.1235  0.4613  0.3313
 6109SOL     OW29785   3.842   2.697   7.674  1.1647  0.3789  0.0115
 6109SOL    HW129786   3.764   2.751   7.683  1.4549  0.4685  1.9470
 6109SOL    HW229787   3.794   2.635   7.619  0.7905  0.3081  0.4246
 6110SOL     OW29788   2.707   0.461  12.118  0.4257  0.3214 -0.4292
 6110SOL    HW129789   2.747   0.488  12.200 -0.1139  0.6262 -0.2654
 6110SOL    HW229790   2.783   0.451  12.061  1.6534  1.1701  1.0851
 6111SOL     OW29791   2.956   3.974   2.856 -0.3118  0.0009 -0.0246
 6111SOL    HW129792   3.030   4.035   2.849  0.9160 -1.5615 -0.7341
 6111SOL    HW229793   3.000   3.897   2.892  0.9165  0.6177 -0.2128
 6112SOL     OW29794   3.779   4.580   1.575 -0.1252  0.3028  0.6938
 6112SOL    HW129795   3.745   4.668   1.557 -1.4519 -0.4784 -0.6952
 6112SOL    HW229796   3.847   4.598   1.639  1.0630 -0.1955 -0.4445
 6113SOL     OW29797   3.142   1.934   3.125  0.3748  0.2989 -0.1895
 6113SOL    HW129798   3.198   1.989   3.071  1.5308 -0.7443 -0.0461
 6113SOL    HW229799   3.210   1.871   3.148 -0.3327 -1.0680 -1.8961
 6114SOL     OW29800   4.417   4.492  17.661 -0.3418 -0.6771 -0.2908
 6114SOL    HW129801   4.476   4.491   0.035 -0.4186 -1.3834 -0.2429
 6114SOL    HW229802   4.365   4.414  17.682 -1.1985 -0.0373 -0.0539
 6115SOL     OW29803   2.227   0.914   8.276  0.7356 -0.3270 -0.5764
 6115SOL    HW129804   2.201   0.822   8.279  0.5831 -0.3091 -1.5147
 6115SOL    HW229805   2.259   0.915   8.367  0.8794 -1.9295 -0.6094
 6116SOL     OW29806   2.171   0.398   5.940  0.2095 -0.4058 -0.0600
 6116SOL    HW129807   2.170   0.478   5.887  0.2337  0.1402  0.7697
 6116SOL    HW229808   2.225   0.425   6.015 -0.7597 -1.8173  1.1241
 6117SOL     OW29809   0.483   0.807   6.000 -0.1361  0.1969 -0.2482
 6117SOL    HW129810   0.414   0.861   5.961 -0.5915 -1.3515 -1.5633
 6117SOL    HW229811   0.528   0.779   5.920 -1.4818  0.2370 -1.0218
 6118SOL     OW29812   1.905   1.696   8.847 -0.2790  0.0377  0.6234
 6118SOL    HW129813   1.872   1.680   8.759  1.2556  2.7714 -0.4703
 6118SOL    HW229814   1.911   1.607   8.881 -0.1071 -0.1948 -0.0227
 6119SOL     OW29815   1.034   2.819   6.419  0.2236  0.1918  0.1911
 6119SOL    HW129816   0.971   2.747   6.408 -0.0107  0.0728  2.1389
 6119SOL    HW229817   0.990   2.886   6.367  0.8079  1.1008  0.8845
 6120SOL     OW29818   3.195   0.962   6.296  0.4717  0.2628  0.2307
 6120SOL    HW129819   3.231   0.951   6.385 -0.0151 -0.3808  0.3425
 6120SOL    HW229820   3.103   0.937   6.306  0.1090  1.9758  1.1985
 6121SOL     OW29821   2.559   3.697   0.638 -0.0997  0.0735 -0.1706
 6121SOL    HW129822   2.478   3.722   0.682 -0.0577 -0.1042  0.0049
 6121SOL    HW229823   2.549   3.606   0.612 -0.2425  0.1337 -0.3253
 6122SOL     OW29824   1.533   0.200  17.514 -0.0201  0.4013  0.0613
 6122SOL    HW129825   1.609   0.149  17.488 -0.8052  1.4110 -4.1074
 6122SOL    HW229826   1.492   0.219  17.430  0.3032 -1.9857 -0.6437
 6123SOL     OW29827   2.403   4.457   8.369  0.0130 -0.2696  0.0151
 6123SOL    HW129828   2.314   4.439   8.401 -0.1220 -1.4862 -1.0483
 6123SOL    HW229829   2.444   4.377   8.400 -1.8244 -1.2458 -0.0601
 6124SOL     OW29830   1.089   3.819   8.967 -0.7980 -0.5618  0.0200
 6124SOL    HW129831   1.018   3.860   8.919  0.9089  1.8400 -0.4663
 6124SOL    HW229832   1.053   3.809   9.055 -1.9202 -2.8572 -0.6931
 6125SOL     OW29833   4.151   4.227  16.876 -0.1687  0.0053  0.2408
 6125SOL    HW129834   4.221   4.191  16.930 -0.1392  1.0546  0.8913
 6125SOL    HW229835   4.195   4.260  16.797 -1.4409 -0.2364 -0.5654
 6126SOL     OW29836   3.627   3.000   9.299 -0.2013  0.6148  0.3541
 6126SOL    HW129837   3.669   2.986   9.384  0.6757 -1.9630 -0.5068
 6126SOL    HW229838   3.547   3.039   9.334 -0.5558  2.5472 -2.6196
 6127SOL     OW29839   3.362   0.994   5.859  0.0773 -0.5413  0.2289
 6127SOL    HW129840   3.408   1.071   5.826  0.0435 -1.2588 -1.4994
 6127SOL    HW229841   3.413   0.967   5.935  1.1064 -0.0445 -0.2709
 6128SOL     OW29842   0.950   1.807   2.242 -0.6863 -0.0346 -0.1847
 6128SOL    HW129843   0.951   1.716   2.272 -0.1798  0.0540  0.0624
 6128SOL    HW229844   0.902   1.791   2.160  0.1758 -1.3393 -0.4379
 6129SOL     OW29845   1.834   2.299   4.402 -0.3898 -0.1154  0.4488
 6129SOL    HW129846   1.802   2.343   4.323 -1.2087 -1.2664  0.1501
 6129SOL    HW229847   1.927   2.285   4.382  0.1481  1.6313  1.7229
 6130SOL     OW29848   4.189   4.085   5.218  0.0292  0.4411 -0.0517
 6130SOL    HW129849   4.203   4.050   5.306  0.5727 -1.2202 -0.7924
 6130SOL    HW229850   4.101   4.122   5.224  0.1429  0.7809 -0.5277
 6131SOL     OW29851   0.727   1.242   1.940  0.5655  0.2332 -0.6896
 6131SOL    HW129852   0.814   1.201   1.942  0.0573 -0.8292 -0.3473
 6131SOL    HW229853   0.709   1.269   1.850  0.8193 -1.9767 -1.4212
 6132SOL     OW29854   1.225   1.267  17.247  0.1257 -0.8132 -0.0053
 6132SOL    HW129855   1.302   1.242  17.195 -0.1812 -0.9559 -0.3939
 6132SOL    HW229856   1.259   1.310  17.325  2.3517  0.5634 -1.7348
 6133SOL     OW29857   0.402   3.062   3.450 -0.0847 -0.4587  0.7297
 6133SOL    HW129858   0.377   2.971   3.439 -1.0514 -0.0468 -0.4850
 6133SOL    HW229859   0.317   3.105   3.463  0.8037  0.7411  2.6935
 6134SOL     OW29860   2.504   0.551   7.695  0.0186  0.4358  0.2449
 6134SOL    HW129861   2.492   0.605   7.773  2.8947 -1.4525  2.0196
 6134SOL    HW229862   2.507   0.466   7.739 -1.3171  1.0720  1.5488
 6135SOL     OW29863   4.197   4.197   7.030  0.2517  0.2242  0.1380
 6135SOL    HW129864   4.153   4.149   6.959  0.6051 -0.4293  0.3706
 6135SOL    HW229865   4.292   4.190   7.020  0.1177  1.4866 -2.0488
 6136SOL     OW29866   0.858   0.151   6.681  0.1361  0.3003  0.3579
 6136SOL    HW129867   0.859   0.219   6.749  1.2102  0.8427 -0.1970
 6136SOL    HW229868   0.797   0.087   6.719 -1.1968 -0.4058 -2.9833
 6137SOL     OW29869   3.425   3.507   2.077  0.8446  0.5952  0.0003
 6137SOL    HW129870   3.499   3.536   2.131  1.5261  2.4200 -1.8690
 6137SOL    HW229871   3.456   3.490   1.988  0.3895 -0.7603  0.1048
 6138SOL     OW29872   4.465   2.887  10.384  0.1270 -0.8002 -0.4101
 6138SOL    HW129873   4.390   2.838  10.349  0.2282 -1.1260 -0.1660
 6138SOL    HW229874   4.451   2.877  10.478  0.7375 -0.1092 -0.2459
 6139SOL     OW29875   0.055   2.966  14.720 -0.1446 -0.6336 -0.2361
 6139SOL    HW129876   0.020   2.879  14.734 -2.1527  0.3546  0.8860
 6139SOL    HW229877   0.005   2.991  14.642  0.2594  1.7584  0.2732
 6140SOL     OW29878   2.043   4.015  10.765 -0.2075  0.5446 -0.4768
 6140SOL    HW129879   2.016   3.998  10.675  0.9055  1.6386 -1.0072
 6140SOL    HW229880   1.978   3.960  10.809 -1.0207  1.7799 -0.1366
 6141SOL     OW29881   0.047   0.969  17.071 -0.4172  0.1334 -0.2792
 6141SOL    HW129882   0.092   0.895  17.112  0.5972  0.6604 -0.4295
 6141SOL    HW229883   0.016   0.921  16.995  0.0353  0.8447 -0.9164
 6142SOL     OW29884   2.553   3.455  12.943  0.0599 -0.0836 -0.0276
 6142SOL    HW129885   2.560   3.374  12.893 -3.9572 -1.5119  1.7551
 6142SOL    HW229886   2.549   3.521  12.873  1.1733 -0.1301 -0.1305
 6143SOL     OW29887   2.594   4.422   2.607 -0.1747  0.6733  0.0784
 6143SOL    HW129888   2.669   4.384   2.561  2.2314  4.3918  0.9486
 6143SOL    HW229889   2.515   4.397   2.561 -0.3551  1.1728  0.1172
 6144SOL     OW29890   3.625   4.389  13.726 -0.0356  0.2924 -0.3987
 6144SOL    HW129891   3.547   4.417  13.774  0.6943  0.0263  0.9658
 6144SOL    HW229892   3.692   4.423  13.786  2.3720 -1.0176 -2.3530
 6145SOL     OW29893   3.239   3.269  15.385 -0.2528 -0.0526  0.3463
 6145SOL    HW129894   3.201   3.207  15.447  1.0554  1.2564  2.4342
 6145SOL    HW229895   3.331   3.252  15.405  0.1714  0.0264 -1.5276
 6146SOL     OW29896   4.133   1.639   7.205  0.0620 -0.1059 -0.0610
 6146SOL    HW129897   4.101   1.598   7.124  1.7126 -0.6038 -0.4697
 6146SOL    HW229898   4.129   1.732   7.180 -0.9489 -0.0954  0.1498
 6147SOL     OW29899   2.059   1.450   4.653 -0.5827 -0.3074  0.6286
 6147SOL    HW129900   2.149   1.418   4.658 -0.7720 -0.9503 -0.0869
 6147SOL    HW229901   2.033   1.409   4.571  0.6351 -1.4082  0.7901
 6148SOL     OW29902   3.999   0.504   5.432 -0.3017  0.3132 -0.2998
 6148SOL    HW129903   4.036   0.518   5.519  0.6975 -2.0458 -0.3512
 6148SOL    HW229904   3.993   0.409   5.434  0.5201  0.2811  0.8215
 6149SOL     OW29905   1.618   4.453   6.522 -0.0737  0.1684 -0.5852
 6149SOL    HW129906   1.702   4.446   6.476 -0.1398 -0.1858 -0.6504
 6149SOL    HW229907   1.600   4.359   6.527 -0.7874  0.4693  2.5396
 6150SOL     OW29908   3.403   2.276  16.613  0.3229 -0.5352 -0.2859
 6150SOL    HW129909   3.487   2.248  16.651 -0.3118 -0.4458  1.1766
 6150SOL    HW229910   3.407   2.239  16.525 -1.5364 -1.0344 -0.1492
 6151SOL     OW29911   4.211   2.759  11.768 -0.5130 -0.0617  0.7941
 6151SOL    HW129912   4.264   2.817  11.824 -1.5630  1.1853  0.5083
 6151SOL    HW229913   4.126   2.801  11.781  0.8494  2.9411  0.0155
 6152SOL     OW29914   4.519   4.225   1.955 -0.0698  0.2104 -0.1561
 6152SOL    HW129915   4.426   4.202   1.950 -0.4186  1.8176 -1.0054
 6152SOL    HW229916   4.511   4.308   2.002 -1.4181 -0.0320  0.0523
 6153SOL     OW29917   3.124   1.282   3.053 -0.4809  0.4379 -0.5526
 6153SOL    HW129918   3.077   1.356   3.014 -1.6999 -0.4395 -0.7408
 6153SOL    HW229919   3.131   1.224   2.977 -2.3343  1.0369 -1.1665
 6154SOL     OW29920   4.164   2.652   3.658 -0.0467  0.1688  0.4939
 6154SOL    HW129921   4.232   2.596   3.696 -0.6100 -0.1391  1.0541
 6154SOL    HW229922   4.229   2.714   3.625  0.3213 -1.1261 -1.1719
 6155SOL     OW29923   3.715   1.877   6.457 -0.2433 -0.1376 -0.3867
 6155SOL    HW129924   3.798   1.853   6.498 -1.1395  0.0839  1.6070
 6155SOL    HW229925   3.656   1.812   6.496 -1.3724  3.1640  3.3858
 6156SOL     OW29926   2.566   3.567   5.309 -0.0686  0.5711  0.2925
 6156SOL    HW129927   2.553   3.555   5.403 -2.0438  1.3392  0.1230
 6156SOL    HW229928   2.504   3.639   5.291  0.2151  0.4670 -1.0335
 6157SOL     OW29929   4.380   1.174   4.288  0.2301 -0.3277 -0.3645
 6157SOL    HW129930   4.454   1.125   4.253  1.8471  1.3348  0.7502
 6157SOL    HW229931   4.415   1.188   4.376 -0.9214 -2.1895  0.3919
 6158SOL     OW29932   0.531   0.219   9.185  0.1038 -0.2005 -0.2207
 6158SOL    HW129933   0.626   0.225   9.198  0.3890 -1.9903 -1.4885
 6158SOL    HW229934   0.499   0.296   9.231  0.3284  1.4065 -2.7514
 6159SOL     OW29935   0.098   0.947   8.839 -0.1480 -0.0889 -0.4400
 6159SOL    HW129936   0.100   0.979   8.929  0.2100 -1.2505 -0.0390
 6159SOL    HW229937   0.026   0.884   8.833 -1.0106  0.7403  1.1928
 6160SOL     OW29938   0.725   3.180   7.201  0.3618  0.2183  0.0896
 6160SOL    HW129939   0.634   3.159   7.223  0.5066 -1.5224 -1.0010
 6160SOL    HW229940   0.754   3.095   7.168  2.3167  0.8223  0.3030
 6161SOL     OW29941   1.461   3.402   5.330 -0.1174 -0.6899 -0.0460
 6161SOL    HW129942   1.509   3.474   5.370 -1.3305 -0.4314  0.9331
 6161SOL    HW229943   1.481   3.421   5.238 -0.5413 -0.8677 -0.1765
 6162SOL     OW29944   3.757   0.256   4.915  0.1966 -0.1949  0.3057
 6162SOL    HW129945   3.752   0.175   4.966  0.8868 -1.1618 -1.1520
 6162SOL    HW229946   3.844   0.291   4.931  0.4712 -1.2654  1.1478
 6163SOL     OW29947   2.132   3.877   5.591  0.0669  0.4611 -0.0404
 6163SOL    HW129948   2.215   3.918   5.568  0.7860 -1.2036 -0.3742
 6163SOL    HW229949   2.102   3.956   5.635  0.7371  1.4973 -1.4309
 6164SOL     OW29950   3.537   0.753   3.791  0.2773 -0.3440 -0.4551
 6164SOL    HW129951   3.580   0.713   3.715 -1.4299 -1.8206 -0.6226
 6164SOL    HW229952   3.565   0.688   3.855  0.3609  0.3165  0.1792
 6165SOL     OW29953   1.962   4.117  11.516 -0.0646  0.8599  0.1878
 6165SOL    HW129954   1.884   4.170  11.498 -0.7839  0.1747  1.2995
 6165SOL    HW229955   1.932   4.058  11.585  1.5181  0.7661  0.7817
 6166SOL     OW29956   4.356   2.918   7.272 -0.1209  0.7503 -0.0024
 6166SOL    HW129957   4.450   2.932   7.278 -0.0595  0.4221 -0.2141
 6166SOL    HW229958   4.331   2.836   7.315  1.6626  0.1495 -0.1274
 6167SOL     OW29959   2.503   2.081  14.348  0.3296  0.1778  0.1670
 6167SOL    HW129960   2.537   2.102  14.435 -0.7592 -0.9617  0.8622
 6167SOL    HW229961   2.467   1.994  14.363  3.1967 -0.9331  0.7168
 6168SOL     OW29962   1.162   0.256   6.503 -0.0591  0.3959 -0.6521
 6168SOL    HW129963   1.142   0.182   6.445 -2.8369  1.0352 -0.5195
 6168SOL    HW229964   1.256   0.268   6.488 -0.1429  0.4158 -1.1461
 6169SOL     OW29965   2.818   3.151   3.564  0.1718 -0.2104  0.5805
 6169SOL    HW129966   2.851   3.211   3.496  0.5775 -0.0122  0.9567
 6169SOL    HW229967   2.901   3.105   3.570  1.4050  1.6541 -1.9724
 6170SOL     OW29968   2.695   3.377   3.105  0.0281  0.4200 -0.1095
 6170SOL    HW129969   2.665   3.444   3.167 -0.5365 -1.1890  1.3497
 6170SOL    HW229970   2.622   3.371   3.043 -0.1184  1.3916 -0.0365
 6171SOL     OW29971   4.086   1.937   3.666  0.4195  0.6439  0.0887
 6171SOL    HW129972   4.061   1.861   3.614  0.9950  0.3971  0.1659
 6171SOL    HW229973   4.106   1.893   3.748  0.5298  0.1879 -0.1827
 6172SOL     OW29974   1.374   2.343   7.952  0.5623  0.0358 -0.3036
 6172SOL    HW129975   1.464   2.369   7.931 -0.1089  1.9105 -0.8096
 6172SOL    HW229976   1.376   2.247   7.952 -0.0261  0.0260  0.2587
 6173SOL     OW29977   1.220   4.675  16.880  0.2861  0.5760  0.3907
 6173SOL    HW129978   1.303   4.717  16.857  1.4879 -1.6711  0.5945
 6173SOL    HW229979   1.194   4.641  16.794 -1.2216  0.9352  0.6974
 6174SOL     OW29980   1.558   1.025   6.120  0.0747 -0.1019  0.0906
 6174SOL    HW129981   1.561   1.064   6.033 -3.3610  1.6920  0.8043
 6174SOL    HW229982   1.582   1.095   6.180  0.1705  0.0346 -0.1060
 6175SOL     OW29983   3.397   0.403   7.204  0.0273 -0.1857 -0.2178
 6175SOL    HW129984   3.349   0.358   7.273  0.4530  2.2927  1.7090
 6175SOL    HW229985   3.332   0.393   7.134  0.1004  0.1917 -0.3387
 6176SOL     OW29986   1.704   1.346   9.570 -0.3137  0.6618 -0.4687
 6176SOL    HW129987   1.721   1.252   9.564 -0.6256  0.6205 -0.7366
 6176SOL    HW229988   1.758   1.368   9.646 -0.4704 -0.6391  0.0178
 6177SOL     OW29989   2.013   3.310   2.671 -0.1808  1.0926 -0.7461
 6177SOL    HW129990   2.053   3.228   2.641  0.1665  1.3759 -1.0657
 6177SOL    HW229991   2.054   3.382   2.622  1.7900  1.5413  1.5798
 6178SOL     OW29992   2.129   1.776   3.706 -0.4542 -0.0055  0.5474
 6178SOL    HW129993   2.072   1.828   3.649 -1.7151 -1.4854  0.4523
 6178SOL    HW229994   2.101   1.686   3.693  1.4231 -0.7962  1.9750
 6179SOL     OW29995   2.128   4.072   5.368  0.3612  0.3146 -0.2022
 6179SOL    HW129996   2.180   3.994   5.385 -0.9595 -0.4227  0.4446
 6179SOL    HW229997   2.072   4.038   5.298  1.9709  3.0411 -2.8231
 6180SOL     OW29998   2.628   1.092  15.231 -0.3246 -0.0210 -0.1909
 6180SOL    HW129999   2.578   1.103  15.312 -0.3931 -1.2240 -0.0675
 6180SOL    HW230000   2.573   1.025  15.190  0.0148  0.3910 -1.3274
 6181SOL     OW30001   1.559   1.184  12.008 -0.4656  0.0178 -0.1883
 6181SOL    HW130002   1.474   1.152  12.039 -0.2767 -0.1796  0.1233
 6181SOL    HW230003   1.601   1.103  11.981 -0.1876  0.0882  0.0394
 6182SOL     OW30004   4.214   0.103   3.866 -0.3334 -0.6104 -0.2389
 6182SOL    HW130005   4.222   0.151   3.949 -0.1415  0.3317 -0.8008
 6182SOL    HW230006   4.256   0.019   3.885 -0.9024 -0.3919  2.0006
 6183SOL     OW30007   2.389   0.251   9.094 -0.2992 -0.1680 -0.4073
 6183SOL    HW130008   2.360   0.262   9.185  2.2709 -0.3452  0.4500
 6183SOL    HW230009   2.412   0.158   9.095 -0.5944 -0.2370 -0.0139
 6184SOL     OW30010   3.717   4.216   0.199  0.1385  0.5089  0.3216
 6184SOL    HW130011   3.799   4.265   0.185  0.9918 -1.4505 -1.5071
 6184SOL    HW230012   3.753   4.161   0.268  1.6958  1.9858  0.6849
 6185SOL     OW30013   0.649   4.304   3.455 -0.1953  0.6519  0.2882
 6185SOL    HW130014   0.597   4.384   3.449 -1.9352 -0.4154  1.2613
 6185SOL    HW230015   0.712   4.306   3.383 -0.3359 -0.1927  0.1392
 6186SOL     OW30016   3.938   3.926   6.392  0.3335 -0.1858  0.2893
 6186SOL    HW130017   3.916   3.861   6.325  0.4450  0.0878 -0.0141
 6186SOL    HW230018   4.033   3.931   6.395  0.4696 -2.0740 -0.8310
 6187SOL     OW30019   1.512   3.215   1.931 -0.4561 -0.3667  0.0775
 6187SOL    HW130020   1.420   3.234   1.951 -0.8506 -0.1410 -2.0021
 6187SOL    HW230021   1.510   3.148   1.863  1.6326 -0.6781  0.3196
 6188SOL     OW30022   0.157   0.534   6.481  0.4948 -0.0823  0.4300
 6188SOL    HW130023   0.213   0.463   6.510 -0.0843 -0.2848  1.0509
 6188SOL    HW230024   0.178   0.526   6.388 -0.2694  2.2647  0.0444
 6189SOL     OW30025   3.756   0.824   8.688 -0.1646 -0.4901 -0.2226
 6189SOL    HW130026   3.684   0.765   8.666 -1.9863  2.5178 -2.1855
 6189SOL    HW230027   3.713   0.903   8.659  1.8148  1.2224  1.4545
 6190SOL     OW30028   2.659   0.783   1.050  0.0317 -0.2941  0.1995
 6190SOL    HW130029   2.649   0.804   0.957 -3.2648  2.1320  1.0980
 6190SOL    HW230030   2.731   0.840   1.077 -1.4438  1.2383  0.9641
 6191SOL     OW30031   3.031   0.499   0.662 -0.3583  0.0048  0.1433
 6191SOL    HW130032   3.040   0.461   0.575 -1.7687  1.2013 -0.5413
 6191SOL    HW230033   2.970   0.572   0.649 -1.5083 -1.3710 -2.0279
 6192SOL     OW30034   1.667   2.925   2.186 -0.4444 -0.7485 -0.3793
 6192SOL    HW130035   1.723   2.967   2.252 -1.5152 -0.1374  0.1445
 6192SOL    HW230036   1.701   2.837   2.173  0.1595 -0.3126 -1.7454
 6193SOL     OW30037   1.438   3.281  16.768  0.0750  0.0726  0.1519
 6193SOL    HW130038   1.395   3.337  16.704 -1.0940 -0.0592  0.8273
 6193SOL    HW230039   1.530   3.301  16.748  0.8218 -1.3991  2.0563
 6194SOL     OW30040   2.123   0.689   4.981  0.2697 -0.1551  0.4702
 6194SOL    HW130041   2.094   0.619   4.923 -0.4542 -0.4849  1.2237
 6194SOL    HW230042   2.042   0.732   5.009 -0.3951  0.3858 -2.3746
 6195SOL     OW30043   3.115   1.757  16.806 -0.0292  0.2304  0.6893
 6195SOL    HW130044   3.035   1.742  16.857  0.3950 -0.1538  1.2451
 6195SOL    HW230045   3.122   1.851  16.796  1.3479  0.0372 -0.1048
 6196SOL     OW30046   2.318   4.721   2.879  0.2082  0.0395 -0.3424
 6196SOL    HW130047   2.369   0.004   2.798  2.4208 -1.0672  0.9493
 6196SOL    HW230048   2.326   0.086   2.909  0.5987  0.0648 -0.5203
 6197SOL     OW30049   3.652   3.538  15.935 -0.0391 -0.1279  0.1934
 6197SOL    HW130050   3.615   3.579  16.013  0.2105 -1.6019  1.0857
 6197SOL    HW230051   3.737   3.578  15.917 -0.6306  0.9953 -0.0902
 6198SOL     OW30052   4.222   1.470   5.513 -0.0723  0.3805 -0.3266
 6198SOL    HW130053   4.295   1.512   5.559 -0.2583 -1.5970  1.7991
 6198SOL    HW230054   4.143   1.524   5.522 -1.6810 -2.4645  3.0358
 6199SOL     OW30055   3.068   2.526   9.680  0.7579  0.0600 -0.1530
 6199SOL    HW130056   3.146   2.569   9.643  3.2454 -1.0895  3.7390
 6199SOL    HW230057   3.088   2.540   9.772 -3.9428 -2.5601  1.2482
 6200SOL     OW30058   4.643   0.886   3.616 -0.6171  0.1791  0.2829
 6200SOL    HW130059   4.666   0.978   3.620 -0.0575  0.0891 -0.8838
 6200SOL    HW230060   4.724   0.845   3.648 -0.9766  0.2971  1.3608
 6201SOL     OW30061   0.608   3.544   8.743  0.4737 -0.0647 -0.9214
 6201SOL    HW130062   0.514   3.536   8.760  0.4303 -0.8270 -1.5617
 6201SOL    HW230063   0.635   3.456   8.769 -1.9735 -0.5402 -0.0173
 6202SOL     OW30064   4.392   3.577   5.641 -0.0211  0.3693  0.5990
 6202SOL    HW130065   4.432   3.510   5.586  0.1463 -0.1796  1.3946
 6202SOL    HW230066   4.420   3.545   5.727  0.3818 -2.3983 -0.5697
 6203SOL     OW30067   3.223   4.179   0.924  0.2389  0.0529 -0.1242
 6203SOL    HW130068   3.207   4.135   0.841  1.2195  0.8534 -0.7241
 6203SOL    HW230069   3.296   4.238   0.906  3.0342 -3.0845  0.8903
 6204SOL     OW30070   0.370   3.905  17.581  0.2220  0.2988 -0.6799
 6204SOL    HW130071   0.384   3.863  17.665 -0.2853  0.8520 -0.3203
 6204SOL    HW230072   0.277   3.892  17.568  0.2236 -0.2041 -0.1674
 6205SOL     OW30073   3.546   0.808   2.790  0.1683 -0.0762  0.1582
 6205SOL    HW130074   3.582   0.738   2.844 -1.6185 -1.3658 -0.3055
 6205SOL    HW230075   3.587   0.888   2.821  1.3242 -0.1917 -1.0957
 6206SOL     OW30076   2.045   3.016   2.759  0.2298 -0.4303  0.2185
 6206SOL    HW130077   2.088   2.931   2.765 -0.1241 -0.7216 -1.3262
 6206SOL    HW230078   1.986   2.998   2.832  0.0842 -0.7246  0.0328
 6207SOL     OW30079   2.597   0.174   4.753  0.0560 -0.0146  0.3437
 6207SOL    HW130080   2.687   0.165   4.720  0.0233 -0.3070  0.3283
 6207SOL    HW230081   2.552   0.236   4.696 -2.3807  0.0544  2.3769
 6208SOL     OW30082   1.129   0.545   2.908 -0.1013 -0.3766 -0.3617
 6208SOL    HW130083   1.070   0.501   2.848 -3.2012 -1.1417  3.2950
 6208SOL    HW230084   1.091   0.633   2.914  1.1158  0.0392  1.3924
 6209SOL     OW30085   2.567   2.248   4.517  0.5586 -0.2640 -0.1809
 6209SOL    HW130086   2.630   2.181   4.542  2.5854  0.8378 -2.2266
 6209SOL    HW230087   2.628   2.316   4.486 -0.9201  0.4387 -1.5617
 6210SOL     OW30088   4.457   0.780  11.347 -0.5175  0.2706 -0.0380
 6210SOL    HW130089   4.493   0.842  11.284 -0.2580 -0.4995 -0.6452
 6210SOL    HW230090   4.391   0.833  11.392  0.8859  1.9783 -0.0165
 6211SOL     OW30091   4.558   0.276   8.119 -0.0664  0.3452  0.2998
 6211SOL    HW130092   4.594   0.296   8.033 -1.9057  2.9190  0.1026
 6211SOL    HW230093   4.628   0.263   8.183 -0.6775 -1.7031  0.5529
 6212SOL     OW30094   4.675   2.218   3.459  0.0022  0.5779 -0.3811
 6212SOL    HW130095   4.656   2.214   3.365  1.5783  2.3557 -0.7607
 6212SOL    HW230096   4.669   2.313   3.467  0.9289  0.6469 -0.5428
 6213SOL     OW30097   2.564   2.584  15.707  0.2093  0.0087 -0.1133
 6213SOL    HW130098   2.489   2.548  15.754 -1.7154 -0.6729 -3.6641
 6213SOL    HW230099   2.550   2.675  15.733  0.0692  0.3146 -1.2405
 6214SOL     OW30100   0.181   1.708   4.608  0.6854  0.3734 -0.3375
 6214SOL    HW130101   0.094   1.746   4.599  0.5146 -0.1607 -0.9166
 6214SOL    HW230102   0.177   1.714   4.704 -2.1415  0.0062 -0.4486
 6215SOL     OW30103   4.043   2.003   4.882 -0.1283 -0.0345  0.4284
 6215SOL    HW130104   3.980   1.994   4.811  0.1982  0.2744  0.1012
 6215SOL    HW230105   3.996   2.056   4.947 -1.3044 -0.5515 -0.0164
 6216SOL     OW30106   3.755   4.271   4.727 -0.1825  0.3087  0.0695
 6216SOL    HW130107   3.717   4.357   4.710 -1.1859 -0.3586 -0.9938
 6216SOL    HW230108   3.833   4.302   4.774 -0.0057  0.3853 -0.2719
 6217SOL     OW30109   3.040   3.315   9.600  0.3219 -0.3543  0.1549
 6217SOL    HW130110   3.053   3.403   9.563  1.7614  0.2492  2.1058
 6217SOL    HW230111   3.091   3.336   9.678 -1.9363 -0.5512  1.6906
 6218SOL     OW30112   0.990   4.591   6.239 -0.2012 -0.6393  0.4628
 6218SOL    HW130113   1.071   4.539   6.244  0.7125  0.5748 -1.7222
 6218SOL    HW230114   0.970   4.585   6.333 -0.7697  0.1044  0.3901
 6219SOL     OW30115   0.869   2.696   7.016  0.0018 -0.6707  0.0319
 6219SOL    HW130116   0.855   2.661   6.928 -0.7333 -0.3192  0.0092
 6219SOL    HW230117   0.844   2.620   7.068  0.8407 -0.7693  0.2884
 6220SOL     OW30118   3.801   0.902   5.554 -0.1082  0.2142 -0.3553
 6220SOL    HW130119   3.837   0.814   5.546 -1.7274 -0.4016 -1.0158
 6220SOL    HW230120   3.722   0.884   5.606 -0.1001 -1.5711 -0.9696
 6221SOL     OW30121   1.184   1.829   6.314  0.0554 -0.1185 -0.1434
 6221SOL    HW130122   1.266   1.833   6.265  0.2709  0.5532  0.2808
 6221SOL    HW230123   1.199   1.870   6.399  1.3868  0.1399 -0.5136
 6222SOL     OW30124   2.886   4.604   3.852 -0.3640  0.3621  0.3746
 6222SOL    HW130125   2.871   4.687   3.896 -0.4703 -0.0247  1.0560
 6222SOL    HW230126   2.804   4.592   3.805 -0.0385  0.5629 -0.2507
 6223SOL     OW30127   4.111   0.898   6.102 -0.1099 -0.8245  0.3982
 6223SOL    HW130128   4.155   0.828   6.150 -0.6977 -1.1243  0.5045
 6223SOL    HW230129   4.182   0.960   6.085 -0.8088 -0.9525 -2.8171
 6224SOL     OW30130   3.930   1.657  17.419  0.3624 -0.2197  0.3579
 6224SOL    HW130131   3.841   1.626  17.440 -0.3759 -0.0770 -2.4996
 6224SOL    HW230132   3.972   1.660  17.504  1.5580  0.8571 -0.2741
 6225SOL     OW30133   0.352   1.547   1.760 -0.0049  0.1518 -0.1277
 6225SOL    HW130134   0.288   1.536   1.831 -0.2863 -0.7676 -0.5195
 6225SOL    HW230135   0.365   1.456   1.735 -0.0287  0.0479  0.2365
 6226SOL     OW30136   3.253   1.439   9.634 -0.2853 -0.4267  0.0197
 6226SOL    HW130137   3.285   1.527   9.656 -1.8935  0.3210 -0.6153
 6226SOL    HW230138   3.220   1.411   9.719 -0.7214  2.9797  0.9953
 6227SOL     OW30139   2.109   0.402  10.696 -0.2107  0.9050  0.0819
 6227SOL    HW130140   2.098   0.365  10.784  0.3286 -0.0507 -0.2599
 6227SOL    HW230141   2.167   0.474  10.722 -3.1933  2.3711  2.7246
 6228SOL     OW30142   0.384   3.338   6.897  0.1149 -0.3535  0.0072
 6228SOL    HW130143   0.385   3.408   6.962 -0.0230 -0.9560  0.6605
 6228SOL    HW230144   0.474   3.314   6.875 -0.0825  0.1570 -1.3492
 6229SOL     OW30145   1.176   0.304  14.816  0.2275  0.2051 -0.3118
 6229SOL    HW130146   1.131   0.379  14.854 -0.8802 -0.2331 -0.7658
 6229SOL    HW230147   1.266   0.336  14.810  0.6258 -1.0174 -0.8379
 6230SOL     OW30148   0.480   2.601   8.089  0.0952  0.2919 -0.4484
 6230SOL    HW130149   0.405   2.641   8.133 -0.6875 -0.8405 -0.7258
 6230SOL    HW230150   0.547   2.657   8.127 -0.9930  0.6261  1.0074
 6231SOL     OW30151   3.440   3.391  10.552 -0.0025 -0.0274  0.4141
 6231SOL    HW130152   3.519   3.375  10.605  0.8368  1.2899 -0.4263
 6231SOL    HW230153   3.480   3.413  10.468  0.6713  0.8540  0.9611
 6232SOL     OW30154   3.799   4.052   6.707  0.1353 -0.7428 -0.4322
 6232SOL    HW130155   3.705   4.060   6.687  0.4687  0.9025 -1.3850
 6232SOL    HW230156   3.799   4.074   6.800  0.9101 -0.2917 -0.5416
 6233SOL     OW30157   0.952   2.795  15.785 -0.0994  0.1203  0.1441
 6233SOL    HW130158   1.035   2.808  15.832 -0.0237 -1.8356  0.5511
 6233SOL    HW230159   0.951   2.700  15.781 -0.4967  0.0650  1.8579
 6234SOL     OW30160   1.699   4.315   6.210 -0.5803 -0.4438 -0.0044
 6234SOL    HW130161   1.700   4.225   6.244 -3.1427  0.0793  1.4860
 6234SOL    HW230162   1.764   4.310   6.140 -1.3521 -1.3047 -0.6513
 6235SOL     OW30163   1.576   4.622   4.165  0.4657  0.2021  0.5607
 6235SOL    HW130164   1.573   4.686   4.094 -0.7420 -0.0724  0.3496
 6235SOL    HW230165   1.553   4.540   4.121  0.5933 -0.4334  1.7052
 6236SOL     OW30166   0.233   3.808   6.827  0.1965 -0.1638 -0.1801
 6236SOL    HW130167   0.209   3.724   6.867  0.0679 -0.5216 -0.9883
 6236SOL    HW230168   0.212   3.881   6.885 -0.2222  0.8282 -1.5789
 6237SOL     OW30169   0.143   0.751   3.714 -0.1640 -0.5580 -0.7820
 6237SOL    HW130170   0.160   0.707   3.797  0.6274 -1.1994 -1.2835
 6237SOL    HW230171   0.070   0.698   3.681 -0.5210  0.5082 -1.6798
 6238SOL     OW30172   3.907   2.916   1.103 -0.7324  0.1673 -0.2372
 6238SOL    HW130173   3.918   2.824   1.078 -0.4439  0.0530  0.3215
 6238SOL    HW230174   3.937   2.925   1.193  1.0963  0.3803 -0.8740
 6239SOL     OW30175   0.685   4.468  12.628  0.2778 -0.2107 -0.1213
 6239SOL    HW130176   0.715   4.380  12.606  0.7456 -0.3033  0.8679
 6239SOL    HW230177   0.641   4.490  12.546 -0.1318  2.4534  0.7903
 6240SOL     OW30178   3.280   3.865   4.317 -0.1355  0.8126  0.0546
 6240SOL    HW130179   3.350   3.920   4.352  0.1729  0.8653 -0.6417
 6240SOL    HW230180   3.219   3.877   4.390  0.5298  1.3140  0.5206
 6241SOL     OW30181   0.723   0.033   2.116 -0.0280 -0.5140  0.2167
 6241SOL    HW130182   0.792   0.041   2.050  0.4100 -0.0116  0.7249
 6241SOL    HW230183   0.664   4.695   2.076  0.1194  0.8033 -2.0722
 6242SOL     OW30184   1.939   3.586   0.594 -0.0416 -0.3552  0.8068
 6242SOL    HW130185   1.929   3.526   0.520  1.6520  2.2219 -1.4974
 6242SOL    HW230186   1.923   3.672   0.555  0.9676 -0.7824 -0.5428
 6243SOL     OW30187   4.148   1.572   6.697  0.4923 -0.4602 -0.2489
 6243SOL    HW130188   4.216   1.587   6.763 -0.2217 -0.2694  0.4441
 6243SOL    HW230189   4.093   1.504   6.736 -2.6150  2.0272 -0.3287
 6244SOL     OW30190   3.962   2.157   5.087 -0.2100 -0.1594  0.1525
 6244SOL    HW130191   3.981   2.126   5.175 -0.3211  1.1861  0.6444
 6244SOL    HW230192   3.993   2.247   5.096 -1.0548  0.0008  1.4426
 6245SOL     OW30193   1.555   3.227   8.813 -0.3860  0.1400 -0.1001
 6245SOL    HW130194   1.589   3.163   8.750 -0.3333  1.0030 -0.9473
 6245SOL    HW230195   1.547   3.308   8.763  0.1180  0.2703  0.0272
 6246SOL     OW30196   0.443   0.197   5.151 -0.2607  0.4562  0.5960
 6246SOL    HW130197   0.365   0.223   5.102  0.1104 -0.4216 -0.4313
 6246SOL    HW230198   0.474   0.284   5.177  1.3180 -0.5751  2.1477
 6247SOL     OW30199   3.625   4.534   6.527  0.1700 -0.5011 -0.1679
 6247SOL    HW130200   3.708   4.543   6.573 -0.5689  0.1884  1.0341
 6247SOL    HW230201   3.652   4.534   6.435  1.2226 -0.1635  0.1375
 6248SOL     OW30202   0.347   3.361   8.988  0.4878 -0.1757 -0.3864
 6248SOL    HW130203   0.414   3.294   8.998  0.8470  0.0106 -1.5982
 6248SOL    HW230204   0.270   3.308   9.009  0.7504 -0.3894  0.0369
 6249SOL     OW30205   1.964   1.701   4.613  0.4847  0.3158  0.1652
 6249SOL    HW130206   1.980   1.607   4.615 -0.6903  0.1384  0.6609
 6249SOL    HW230207   1.899   1.706   4.543 -0.9462  2.2237  1.6608
 6250SOL     OW30208   4.234   2.461   2.469 -0.0504 -0.0006 -0.4982
 6250SOL    HW130209   4.281   2.491   2.547  1.7478  0.2748 -1.6984
 6250SOL    HW230210   4.293   2.387   2.454  1.1199  0.5594  1.3123
 6251SOL     OW30211   2.739   4.487  16.105  0.1568 -0.6149 -0.8078
 6251SOL    HW130212   2.649   4.520  16.106  0.6127  0.5652  1.0920
 6251SOL    HW230213   2.767   4.525  16.021  2.1527  0.0276  0.1410
 6252SOL     OW30214   1.746   1.101   5.337 -0.3099  0.1771 -0.0914
 6252SOL    HW130215   1.692   1.027   5.366  1.3386 -1.3343 -0.8842
 6252SOL    HW230216   1.675   1.162   5.317  1.2871  2.2386  0.5711
 6253SOL     OW30217   0.291   2.304   7.964 -0.2124  0.0300  0.8061
 6253SOL    HW130218   0.211   2.353   7.948 -1.1041 -1.6695  0.0550
 6253SOL    HW230219   0.265   2.241   8.031  1.2996 -2.3404 -0.7947
 6254SOL     OW30220   0.368   2.555   2.781  0.0199  0.6820 -0.2255
 6254SOL    HW130221   0.325   2.585   2.700  0.6431 -0.0506 -0.8239
 6254SOL    HW230222   0.406   2.474   2.748 -0.6330 -0.0891  0.9043
 6255SOL     OW30223   0.674   3.965  12.292  0.6379  0.0369  0.5292
 6255SOL    HW130224   0.637   3.889  12.247  0.4946 -1.1418  2.6383
 6255SOL    HW230225   0.762   3.973  12.256 -0.3141 -1.0785 -2.1141
 6256SOL     OW30226   1.467   3.305  16.308 -0.6071 -0.1026 -0.8939
 6256SOL    HW130227   1.378   3.331  16.284 -0.9788 -0.5919 -0.0149
 6256SOL    HW230228   1.493   3.262  16.227 -0.0026 -1.6185  0.1138
 6257SOL     OW30229   2.434   1.313   6.762 -0.1868  0.1782  0.1654
 6257SOL    HW130230   2.364   1.342   6.704  1.9565  0.9479 -2.0299
 6257SOL    HW230231   2.394   1.236   6.802  2.1718 -2.0272 -1.7714
 6258SOL     OW30232   3.911   3.513   6.808 -0.6347  0.5523  0.5105
 6258SOL    HW130233   3.999   3.518   6.846 -1.8946  2.2875  3.2013
 6258SOL    HW230234   3.903   3.435   6.753  0.7691  2.4044 -2.3423
 6259SOL     OW30235   0.735   3.819   5.879 -0.2147  0.3154  0.0139
 6259SOL    HW130236   0.690   3.893   5.837  1.3373  1.2777  0.0129
 6259SOL    HW230237   0.827   3.828   5.855  0.1112 -3.6317 -0.2198
 6260SOL     OW30238   4.065   0.793  15.277 -0.1781 -0.3528  0.0770
 6260SOL    HW130239   4.157   0.769  15.272 -0.0488  0.1524  0.0846
 6260SOL    HW230240   4.079   0.863  15.341  0.4029 -0.3285 -0.0802
 6261SOL     OW30241   1.407   1.898  16.058 -0.8502  0.1726 -0.3028
 6261SOL    HW130242   1.351   1.975  16.052  0.1258  0.8529 -0.7079
 6261SOL    HW230243   1.425   1.873  15.968 -1.3534  1.6851 -0.8215
 6262SOL     OW30244   2.453   2.134   4.984 -0.1240  0.1595  0.0382
 6262SOL    HW130245   2.504   2.210   5.013  1.4373 -0.8773 -0.0132
 6262SOL    HW230246   2.362   2.164   4.974 -0.3184 -0.4638 -0.0986
 6263SOL     OW30247   2.559   3.416   9.075 -0.1986 -0.0803  0.3741
 6263SOL    HW130248   2.565   3.321   9.065  1.6745 -0.1269  1.8946
 6263SOL    HW230249   2.642   3.441   9.035  0.1104 -0.0108  1.0586
 6264SOL     OW30250   3.705   0.193   4.280 -0.6898 -0.3729  0.7365
 6264SOL    HW130251   3.718   0.107   4.239  1.6609  1.2494 -1.8995
 6264SOL    HW230252   3.629   0.176   4.336 -0.6824 -0.3949  0.7399
 6265SOL     OW30253   4.709   4.629   7.840  0.1714 -0.1946  0.0414
 6265SOL    HW130254   0.038   4.680   7.899 -1.0849  1.5446 -0.3199
 6265SOL    HW230255   4.625   4.672   7.853  1.8742  2.8971  0.7249
 6266SOL     OW30256   0.287   3.833   6.324 -0.8387  0.3858 -0.1415
 6266SOL    HW130257   0.230   3.803   6.395  0.2469  0.0015  0.5551
 6266SOL    HW230258   0.332   3.903   6.370 -2.7505  0.9587  0.8635
 6267SOL     OW30259   1.368   3.826   3.967  0.2909  0.2739  0.3453
 6267SOL    HW130260   1.404   3.753   4.018  1.0544 -0.4357 -1.2162
 6267SOL    HW230261   1.350   3.892   4.034 -3.0133  0.3188 -0.5853
 6268SOL     OW30262   4.160   1.538   2.857 -0.8180 -0.0983 -0.2969
 6268SOL    HW130263   4.094   1.586   2.806 -1.6869  0.8915  1.7497
 6268SOL    HW230264   4.111   1.500   2.930  0.5783 -1.4058 -0.0352
 6269SOL     OW30265   0.540   4.010   0.230 -0.0486  0.3512 -0.3122
 6269SOL    HW130266   0.603   3.944   0.199 -0.7835 -0.2979 -0.4149
 6269SOL    HW230267   0.550   4.076   0.162  0.4890  0.1321 -0.4465
 6270SOL     OW30268   3.627   2.874   1.226  0.1189 -0.1123  0.4364
 6270SOL    HW130269   3.658   2.901   1.139  0.2701 -0.1863  0.4682
 6270SOL    HW230270   3.693   2.910   1.285  0.2208 -0.5006  0.5619
 6271SOL     OW30271   3.937   2.995   3.637 -0.6478  0.4866  0.0121
 6271SOL    HW130272   3.870   2.958   3.579 -0.2443 -0.9597  0.4800
 6271SOL    HW230273   3.891   2.999   3.721 -1.1299 -1.5689 -0.1538
 6272SOL     OW30274   3.761   2.899   5.497 -0.1223 -0.4473 -0.3794
 6272SOL    HW130275   3.665   2.905   5.500  0.1060  2.9260 -0.0359
 6272SOL    HW230276   3.798   2.986   5.488 -0.0717 -0.5401 -1.1014
 6273SOL     OW30277   1.661   3.432   7.391 -0.4574  0.1855 -0.1799
 6273SOL    HW130278   1.597   3.393   7.451 -1.3164  1.6229 -0.1687
 6273SOL    HW230279   1.605   3.487   7.336  1.6675  1.3367 -1.1847
 6274SOL     OW30280   3.808   1.457   8.763 -0.1210 -0.0899 -0.7910
 6274SOL    HW130281   3.884   1.475   8.818 -0.7583  2.0011 -0.5886
 6274SOL    HW230282   3.749   1.518   8.809  1.2723  0.3623  0.3972
 6275SOL     OW30283   0.065   1.520  14.565 -0.1011  0.2818 -0.5230
 6275SOL    HW130284   0.005   1.594  14.555  0.1799  0.8581  1.9627
 6275SOL    HW230285   0.142   1.555  14.521  0.6195 -0.0093  0.5094
 6276SOL     OW30286   0.471   3.957   6.922  0.1554 -0.1267  0.0659
 6276SOL    HW130287   0.423   3.898   6.864 -1.9093  0.5586  1.0926
 6276SOL    HW230288   0.445   4.044   6.891 -0.0858 -0.2046  0.0468
 6277SOL     OW30289   0.776   2.006   8.477  0.1375  0.6415 -0.4962
 6277SOL    HW130290   0.798   1.974   8.565  1.2396 -0.3128 -1.1129
 6277SOL    HW230291   0.838   2.079   8.485  1.4536 -0.5481  0.1070
 6278SOL     OW30292   0.310   3.039   8.421 -0.0540  0.5163 -0.4697
 6278SOL    HW130293   0.327   3.019   8.329 -0.1638 -1.9222  0.0567
 6278SOL    HW230294   0.343   2.965   8.470 -2.0493 -0.3807 -0.5031
 6279SOL     OW30295   3.630   3.785   5.953  0.1223 -0.0344  0.2239
 6279SOL    HW130296   3.570   3.725   5.909 -0.5786  0.6435  0.2593
 6279SOL    HW230297   3.676   3.816   5.875  1.2330 -1.3870  0.3378
 6280SOL     OW30298   1.330   2.097  12.877  0.1150 -0.4196  0.1179
 6280SOL    HW130299   1.312   2.004  12.867 -1.3926  0.1120 -2.2502
 6280SOL    HW230300   1.338   2.123  12.785  2.2944  2.9849  1.2485
 6281SOL     OW30301   3.008   3.687  17.637 -0.0761  0.0074 -0.2738
 6281SOL    HW130302   3.007   3.675  17.542  2.7739 -2.5443  0.0124
 6281SOL    HW230303   3.098   3.665  17.659 -0.7192 -0.0911  2.2414
 6282SOL     OW30304   4.064   0.212   7.262 -0.1942 -0.0907  0.4867
 6282SOL    HW130305   4.010   0.271   7.209  1.1487  0.1776 -0.5784
 6282SOL    HW230306   4.003   0.192   7.333 -0.4601 -0.0160  0.2797
 6283SOL     OW30307   1.031   2.734  17.264  0.0633  0.0650 -0.3814
 6283SOL    HW130308   1.109   2.735  17.208  0.7383 -0.6517  0.5416
 6283SOL    HW230309   1.062   2.760  17.351 -0.3789 -1.1575  0.1432
 6284SOL     OW30310   4.243   3.496  15.934  0.2914  0.0621 -0.0133
 6284SOL    HW130311   4.202   3.528  16.015 -0.5530  0.5817 -0.6450
 6284SOL    HW230312   4.275   3.576  15.893  1.4578 -0.5894 -0.3520
 6285SOL     OW30313   4.461   1.715  12.436  0.8058 -0.8309 -0.1042
 6285SOL    HW130314   4.471   1.727  12.531 -0.7887 -0.3812 -0.0036
 6285SOL    HW230315   4.451   1.620  12.426 -0.1412 -0.8990  1.4971
 6286SOL     OW30316   3.577   0.637   8.630 -0.3447  0.5249 -0.0545
 6286SOL    HW130317   3.492   0.595   8.633 -1.1275  2.2614  2.1851
 6286SOL    HW230318   3.616   0.583   8.561 -2.9949  0.2458 -1.3311
 6287SOL     OW30319   2.752   2.734   5.650 -0.4279 -0.6029 -0.0694
 6287SOL    HW130320   2.838   2.765   5.625 -0.5806  0.4224  0.6595
 6287SOL    HW230321   2.744   2.735   5.745 -0.1671  0.4638 -0.0606
 6288SOL     OW30322   2.884   1.214   7.174  0.1441 -0.5388  0.5675
 6288SOL    HW130323   2.817   1.240   7.237 -1.5829 -2.9469 -0.2990
 6288SOL    HW230324   2.945   1.174   7.237  1.8028  1.8790  0.5219
 6289SOL     OW30325   2.469   4.195   4.361  0.2961 -0.0419  0.2070
 6289SOL    HW130326   2.378   4.221   4.348  0.5782  0.2690 -1.2032
 6289SOL    HW230327   2.484   4.229   4.449  0.7456 -2.3818  1.0318
 6290SOL     OW30328   0.433   3.473   8.245  0.0464 -0.1463  0.6263
 6290SOL    HW130329   0.490   3.535   8.292  1.5298  0.8610 -2.5008
 6290SOL    HW230330   0.396   3.429   8.321  0.4024  1.1002  1.5355
 6291SOL     OW30331   1.762   3.276   3.497  0.1302  0.4293 -0.0762
 6291SOL    HW130332   1.690   3.228   3.457 -1.5976  2.0808  1.0407
 6291SOL    HW230333   1.718   3.359   3.514 -2.5611 -0.8152 -0.9612
 6292SOL     OW30334   0.337   2.558   6.157 -0.3844 -0.1884  0.5090
 6292SOL    HW130335   0.415   2.598   6.196 -0.7463 -0.1190  1.1629
 6292SOL    HW230336   0.286   2.550   6.238 -1.0346  0.5326  0.1738
 6293SOL     OW30337   3.150   4.365   8.857  0.0697  0.5081  0.5166
 6293SOL    HW130338   3.233   4.399   8.826  0.6110 -1.1951  0.0739
 6293SOL    HW230339   3.108   4.320   8.783  0.5016  0.4586  0.3061
 6294SOL     OW30340   3.654   3.662   0.126 -0.1380  0.9314  0.1746
 6294SOL    HW130341   3.729   3.661   0.185  0.6476  2.9965 -0.8318
 6294SOL    HW230342   3.697   3.633   0.046  0.7769  0.0811  0.9786
 6295SOL     OW30343   1.473   3.442   0.294  0.0587  0.1858  0.2300
 6295SOL    HW130344   1.395   3.474   0.248  1.4906  2.7717 -0.3947
 6295SOL    HW230345   1.427   3.402   0.368  0.3978 -0.3739  0.1328
 6296SOL     OW30346   1.385   4.080   6.290 -0.1509 -0.0216  0.2732
 6296SOL    HW130347   1.300   4.111   6.258 -0.0895  0.6021  0.7050
 6296SOL    HW230348   1.375   3.986   6.277 -0.7062  0.2540 -1.3412
 6297SOL     OW30349   1.890   3.756   0.228 -0.4978  0.0523 -0.3087
 6297SOL    HW130350   1.917   3.847   0.244 -2.3038  0.2013  1.8587
 6297SOL    HW230351   1.842   3.732   0.307 -1.0065  0.5020 -0.4749
 6298SOL     OW30352   3.385   0.865   7.484  0.1843 -0.4319 -0.6402
 6298SOL    HW130353   3.419   0.906   7.404  0.9099  0.1820 -0.0132
 6298SOL    HW230354   3.369   0.775   7.456 -2.2630 -0.4654  0.8350
 6299SOL     OW30355   3.802   4.690   7.203 -0.3371  0.3935 -0.0114
 6299SOL    HW130356   3.777   0.052   7.171 -0.9857  0.2671  0.1466
 6299SOL    HW230357   3.721   4.639   7.199 -1.1804  1.7635 -0.2275
 6300SOL     OW30358   3.937   2.292  14.815 -0.0087  0.6566  0.0893
 6300SOL    HW130359   4.015   2.290  14.760  0.6505  0.0462  1.0403
 6300SOL    HW230360   3.872   2.279  14.746 -0.9382  1.6147  0.8000
 6301SOL     OW30361   0.774   4.119   2.630  0.3958  0.8508 -0.4331
 6301SOL    HW130362   0.830   4.093   2.556  1.1381  2.2402 -0.3470
 6301SOL    HW230363   0.832   4.185   2.668 -0.0029  1.3597 -0.7101
 6302SOL     OW30364   1.656   4.168   7.322  0.1756  0.4342 -1.0389
 6302SOL    HW130365   1.724   4.153   7.388 -1.2978 -0.0517  0.3860
 6302SOL    HW230366   1.609   4.240   7.364  1.3011 -0.1620  1.2724
 6303SOL     OW30367   0.216   0.865   5.809 -0.2324 -0.6674 -0.0655
 6303SOL    HW130368   0.181   0.834   5.892 -0.8215 -0.0956 -0.1051
 6303SOL    HW230369   0.147   0.930   5.796  1.1903  0.2483 -3.0506
 6304SOL     OW30370   1.926   1.373  12.815 -0.0541 -0.4454 -0.1287
 6304SOL    HW130371   1.882   1.302  12.769  1.0536 -1.1796 -0.0560
 6304SOL    HW230372   2.007   1.323  12.825  1.3235  1.5854 -0.9863
 6305SOL     OW30373   0.008   4.136   7.813  0.6680 -0.5901 -0.1244
 6305SOL    HW130374   4.663   4.198   7.792  0.7149 -0.5406 -0.1342
 6305SOL    HW230375   4.703   4.109   7.900  0.0592  1.4032  0.2876
 6306SOL     OW30376   3.991   3.165  11.762  0.6437 -0.4146 -0.3484
 6306SOL    HW130377   3.975   3.248  11.806  2.0228 -0.6609  0.6156
 6306SOL    HW230378   4.067   3.178  11.705 -1.4754  0.4284 -2.9850
 6307SOL     OW30379   2.442   0.734  14.206  0.4380 -0.8054  0.0695
 6307SOL    HW130380   2.533   0.723  14.233  0.5788 -0.2538 -0.1990
 6307SOL    HW230381   2.460   0.752  14.114  1.5838  0.0549  0.4741
 6308SOL     OW30382   3.738   1.113   3.974 -0.0379  0.7349 -0.0521
 6308SOL    HW130383   3.755   1.139   3.883 -0.3351  0.5976 -0.1486
 6308SOL    HW230384   3.643   1.123   3.985  0.0764  0.9018  0.7148
 6309SOL     OW30385   4.162   2.289  15.142  0.5609 -0.1050 -0.4443
 6309SOL    HW130386   4.088   2.339  15.177  0.3201 -0.9105  0.1924
 6309SOL    HW230387   4.228   2.295  15.211 -1.6203  1.1415  1.5639
 6310SOL     OW30388   3.581   1.554   3.862  0.3508  0.2435  0.0024
 6310SOL    HW130389   3.547   1.505   3.937  0.0546  1.7590  0.8458
 6310SOL    HW230390   3.524   1.502   3.804  0.9450  0.3519 -0.6831
 6311SOL     OW30391   0.853   4.725  16.727 -0.1915  0.6730 -0.4924
 6311SOL    HW130392   0.886   4.649  16.678  0.2550  1.5182 -1.4898
 6311SOL    HW230393   0.799   4.683  16.794  0.9910 -2.7394 -1.6635
 6312SOL     OW30394   4.021   4.373   3.578  0.5964 -1.1525 -0.2954
 6312SOL    HW130395   3.993   4.283   3.590  2.4965 -1.9163 -1.5761
 6312SOL    HW230396   4.019   4.380   3.483 -0.5049 -1.4704 -0.2973
 6313SOL     OW30397   3.645   4.356   3.841  0.0526  0.1967 -0.3822
 6313SOL    HW130398   3.644   4.384   3.932 -0.9809  0.5009 -0.4879
 6313SOL    HW230399   3.705   4.425   3.812  1.0018 -0.4933 -0.0817
 6314SOL     OW30400   3.626   2.849   4.832  0.9912  0.1137  0.4144
 6314SOL    HW130401   3.612   2.939   4.804 -1.3303 -0.2892  0.2343
 6314SOL    HW230402   3.661   2.861   4.920 -1.4916 -1.1000  1.5928
 6315SOL     OW30403   1.688   3.087  10.128  0.0578  0.0734 -0.4972
 6315SOL    HW130404   1.613   3.146  10.125 -0.5176 -0.6769 -0.7933
 6315SOL    HW230405   1.657   3.036  10.203  2.7497 -0.5053  0.2189
 6316SOL     OW30406   1.540   2.379  13.675  0.4187  0.1134  0.0644
 6316SOL    HW130407   1.530   2.418  13.588 -1.0500 -1.0122 -0.2856
 6316SOL    HW230408   1.624   2.333  13.668 -0.4370 -1.2174 -1.4971
 6317SOL     OW30409   1.856   0.353   7.655  0.0749  0.0671 -0.4049
 6317SOL    HW130410   1.931   0.374   7.712 -0.1933 -0.6526  0.2154
 6317SOL    HW230411   1.888   0.396   7.576  0.2635 -1.7171 -1.3105
 6318SOL     OW30412   0.923   2.689   8.141 -0.1564  0.0951  0.0011
 6318SOL    HW130413   0.981   2.764   8.154  0.0427  0.2447 -1.6538
 6318SOL    HW230414   0.909   2.665   8.232 -0.2773 -0.8538 -0.2647
 6319SOL     OW30415   1.668   0.504   9.595  0.1707  0.2720 -0.4112
 6319SOL    HW130416   1.760   0.477   9.592  0.9059  2.7161  0.1462
 6319SOL    HW230417   1.626   0.423   9.623 -0.0376  0.2045 -0.9199
 6320SOL     OW30418   4.078   1.453   8.379  0.0630 -0.0431 -0.1152
 6320SOL    HW130419   4.132   1.408   8.445  1.1923 -2.0381 -2.4230
 6320SOL    HW230420   3.989   1.425   8.402 -0.2851  1.1368 -0.0180
 6321SOL     OW30421   0.012   4.607   0.720 -0.0177  0.1145 -0.5995
 6321SOL    HW130422   4.676   4.618   0.647 -0.3516  1.0960 -0.1845
 6321SOL    HW230423   4.712   4.689   0.763  0.9684  1.0590 -1.8343
 6322SOL     OW30424   0.509   1.631  11.254  0.0522 -0.5208  0.0205
 6322SOL    HW130425   0.491   1.539  11.234 -1.6177  0.0093 -0.9019
 6322SOL    HW230426   0.515   1.618  11.349  0.1577 -1.8333 -0.1595
 6323SOL     OW30427   2.564   3.847   1.542 -0.3207 -0.0710 -0.3381
 6323SOL    HW130428   2.530   3.782   1.480 -0.3454 -0.6593  0.2952
 6323SOL    HW230429   2.583   3.780   1.607  0.4051  0.0724 -0.4017
 6324SOL     OW30430   3.022   3.174   4.440  0.1044 -0.2893 -0.0677
 6324SOL    HW130431   3.010   3.233   4.365 -0.5134  0.4147  0.5839
 6324SOL    HW230432   3.054   3.096   4.396  3.1670  1.6883 -1.3074
 6325SOL     OW30433   1.416   3.076   8.978 -0.4666 -0.1618 -0.0497
 6325SOL    HW130434   1.463   3.106   9.056 -0.3911 -0.4582  0.0189
 6325SOL    HW230435   1.457   3.131   8.911  0.0183 -1.2587 -0.6601
 6326SOL     OW30436   0.175   3.032   2.124  0.3102 -0.4591 -0.6808
 6326SOL    HW130437   0.206   3.065   2.039 -0.0880  0.3066 -0.5207
 6326SOL    HW230438   0.081   3.039   2.112  0.3363 -0.3686 -0.8481
 6327SOL     OW30439   0.779   4.371   2.879  0.3486  0.6510 -0.1334
 6327SOL    HW130440   0.696   4.350   2.921 -0.0161 -0.8983 -1.6131
 6327SOL    HW230441   0.773   4.459   2.843 -0.7557  0.7424  0.2651
 6328SOL     OW30442   2.112   4.190  14.035 -0.7014 -0.2851 -0.1512
 6328SOL    HW130443   2.101   4.211  14.128  0.3170  1.2995 -0.3992
 6328SOL    HW230444   2.198   4.149  14.040 -0.4611  0.0917 -1.2943
 6329SOL     OW30445   3.111   2.866  16.806 -0.2350  0.4284  0.5804
 6329SOL    HW130446   3.020   2.885  16.828 -0.3853  1.0648 -0.6034
 6329SOL    HW230447   3.164   2.917  16.867 -0.5358  1.9198 -0.4081
 6330SOL     OW30448   0.959   0.192   5.526 -0.4857  0.1798 -0.4908
 6330SOL    HW130449   0.920   0.255   5.465 -2.3754 -1.2897 -0.8263
 6330SOL    HW230450   1.042   0.161   5.490 -0.7304  0.4130 -1.2678
 6331SOL     OW30451   2.832   0.910   6.655 -0.4736 -0.6396  0.3577
 6331SOL    HW130452   2.783   0.881   6.732  0.6432 -0.3305  1.1943
 6331SOL    HW230453   2.827   1.005   6.665 -1.3627 -0.2702 -3.7645
 6332SOL     OW30454   3.574   3.448   0.367 -0.2208 -0.1465 -0.2251
 6332SOL    HW130455   3.499   3.503   0.346  0.9831  1.0944 -1.2532
 6332SOL    HW230456   3.610   3.497   0.440 -0.5514 -0.2094 -0.0212
 6333SOL     OW30457   1.151   2.803   4.883 -0.3215 -0.2296  0.2144
 6333SOL    HW130458   1.068   2.833   4.920 -0.0746 -0.2831  0.8072
 6333SOL    HW230459   1.154   2.710   4.903 -0.6061 -0.1079  0.8219
 6334SOL     OW30460   3.893   2.890   1.768 -0.4267 -0.0008  0.2421
 6334SOL    HW130461   3.895   2.965   1.827 -3.4584  0.3031 -0.0410
 6334SOL    HW230462   3.985   2.893   1.740 -0.1385 -1.9499  0.9909
 6335SOL     OW30463   3.956   1.414   7.507  0.2950 -0.0854 -0.1490
 6335SOL    HW130464   4.040   1.395   7.466  1.1280  0.4383  1.3155
 6335SOL    HW230465   3.904   1.359   7.448  1.3347 -1.1979 -0.0395
 6336SOL     OW30466   1.104   3.110   6.974 -0.4660 -0.6533 -0.5246
 6336SOL    HW130467   1.127   3.135   7.063  0.3746 -1.4714 -0.5176
 6336SOL    HW230468   1.030   3.171   6.968  0.4787  0.7101  1.9975
 6337SOL     OW30469   1.303   2.299   8.959 -0.3139 -0.5656  0.2635
 6337SOL    HW130470   1.391   2.312   8.992  0.4403  0.6580 -2.2685
 6337SOL    HW230471   1.273   2.390   8.965 -1.6428 -1.0439  0.8330
 6338SOL     OW30472   1.037   0.454   4.041  0.2559 -0.8372  0.2860
 6338SOL    HW130473   0.960   0.435   3.987  2.4093  1.8148 -3.6715
 6338SOL    HW230474   1.062   0.369   4.076  0.3619 -1.3606 -1.0557
 6339SOL     OW30475   0.806   3.756   5.251  0.4037 -0.4253  0.7653
 6339SOL    HW130476   0.779   3.664   5.251  1.8661 -0.8568  0.4787
 6339SOL    HW230477   0.739   3.794   5.194  1.1815  0.5750  0.5074
 6340SOL     OW30478   3.515   1.675   5.984  0.0444 -0.2063  0.1429
 6340SOL    HW130479   3.590   1.718   6.025  0.6772 -0.4351 -0.7752
 6340SOL    HW230480   3.494   1.602   6.043  0.5876  0.3294  1.0010
 6341SOL     OW30481   1.532   1.935   5.456  0.2738  0.3278  0.2899
 6341SOL    HW130482   1.593   1.981   5.515  0.2363  0.1541  0.4643
 6341SOL    HW230483   1.450   1.975   5.485  0.5993  1.0714  0.1836
 6342SOL     OW30484   4.498   0.224   6.806 -0.4828  0.7233  0.0684
 6342SOL    HW130485   4.573   0.266   6.764  0.6706  1.3823  2.8175
 6342SOL    HW230486   4.442   0.208   6.730  3.0904 -1.8788 -1.9934
 6343SOL     OW30487   2.051   0.417  12.523 -0.3804 -0.1689 -0.3195
 6343SOL    HW130488   1.981   0.352  12.516 -2.2889  1.8758 -0.2462
 6343SOL    HW230489   2.111   0.386  12.590  0.6041  0.2973 -0.9867
 6344SOL     OW30490   2.289   0.668  12.274 -0.4258  0.5288  0.0807
 6344SOL    HW130491   2.266   0.576  12.283  2.5871 -0.0651  1.6831
 6344SOL    HW230492   2.252   0.702  12.356 -1.1061 -1.6523  0.6805
 6345SOL     OW30493   3.426   4.661   6.055 -0.1336  0.0096  0.5020
 6345SOL    HW130494   3.402   4.700   6.139  0.6020 -0.1516  0.7825
 6345SOL    HW230495   3.479   4.586   6.082  2.2832  0.9700 -1.6371
 6346SOL     OW30496   1.426   4.159   8.576 -0.5672 -0.6276 -0.9163
 6346SOL    HW130497   1.422   4.250   8.548  1.0040  0.3096  1.8833
 6346SOL    HW230498   1.337   4.137   8.550  0.1156 -3.0736 -1.2408
 6347SOL     OW30499   4.235   1.434   7.365 -0.3147  0.3240  0.0689
 6347SOL    HW130500   4.191   1.494   7.304  0.0208 -0.9721 -1.4277
 6347SOL    HW230501   4.282   1.500   7.416 -0.2026  0.9655 -0.8727
 6348SOL     OW30502   1.757   2.807   6.299  0.1857 -0.5886  0.1158
 6348SOL    HW130503   1.782   2.717   6.279 -0.4546 -0.9257  0.8210
 6348SOL    HW230504   1.841   2.852   6.290  0.9701 -2.1614 -0.4675
 6349SOL     OW30505   0.794   2.941   7.101 -0.5852  0.2651  0.3049
 6349SOL    HW130506   0.828   2.852   7.095  0.8968  0.7603  1.3643
 6349SOL    HW230507   0.700   2.936   7.082 -0.6209  2.7445 -0.1581
 6350SOL     OW30508   0.740   0.004   3.642  0.3836 -0.3743  0.5579
 6350SOL    HW130509   0.744   4.680   3.725 -0.4912  0.3429  1.0310
 6350SOL    HW230510   0.653   4.705   3.610 -0.0286  0.4205  1.0761
 6351SOL     OW30511   2.350   0.795   0.596  0.6732  0.2785  0.2644
 6351SOL    HW130512   2.388   0.869   0.548 -1.6753  1.2026 -0.1736
 6351SOL    HW230513   2.403   0.723   0.561 -2.0529 -2.1867  1.2003
 6352SOL     OW30514   2.759   1.604   5.600  0.2967 -0.1279 -0.1200
 6352SOL    HW130515   2.776   1.670   5.533 -0.4677 -1.7517 -1.9098
 6352SOL    HW230516   2.846   1.574   5.628  1.5743  3.2474 -0.5012
 6353SOL     OW30517   0.532   1.762   1.794 -0.1357  0.2123  0.1820
 6353SOL    HW130518   0.485   1.789   1.873 -0.2465 -0.5550  0.3780
 6353SOL    HW230519   0.475   1.689   1.774  0.8318 -0.1823 -1.1755
 6354SOL     OW30520   3.840   3.684  14.234  0.6130 -0.2131 -0.4302
 6354SOL    HW130521   3.770   3.659  14.294  0.3618 -0.7821 -0.9494
 6354SOL    HW230522   3.799   3.753  14.183  0.3585 -1.3857 -1.8307
 6355SOL     OW30523   0.389   0.865   4.353  0.6278  0.6318  0.0884
 6355SOL    HW130524   0.368   0.939   4.409  0.3821 -0.1506  1.0351
 6355SOL    HW230525   0.390   0.899   4.263 -0.2056 -2.2015 -1.0040
 6356SOL     OW30526   2.628   0.722   6.533  0.1584  0.0716 -0.2562
 6356SOL    HW130527   2.567   0.795   6.520 -0.3822 -0.5170 -1.0197
 6356SOL    HW230528   2.700   0.748   6.590 -1.8129  3.2888  0.7595
 6357SOL     OW30529   0.913   2.152  14.159  0.0299 -0.4130  0.0197
 6357SOL    HW130530   0.995   2.193  14.131  0.2734 -0.0632  1.2275
 6357SOL    HW230531   0.853   2.222  14.134  1.0509  0.4880  0.0864
 6358SOL     OW30532   4.606   2.634   6.121 -0.0938 -0.0964 -0.5173
 6358SOL    HW130533   4.618   2.548   6.080  0.8368  0.1017 -0.6579
 6358SOL    HW230534   4.548   2.615   6.194 -0.2813  1.2444 -0.3114
 6359SOL     OW30535   4.100   4.307   2.659  0.2302 -0.5781 -0.2285
 6359SOL    HW130536   4.027   4.358   2.693  1.5040  0.8739  0.3235
 6359SOL    HW230537   4.084   4.279   2.569 -0.5283  0.4541 -0.4079
 6360SOL     OW30538   1.797   2.326  12.966  0.4469 -0.2352  0.3116
 6360SOL    HW130539   1.830   2.283  12.887  1.5834 -1.6154  1.5357
 6360SOL    HW230540   1.717   2.361  12.928 -1.4057 -4.3287  0.3782
 6361SOL     OW30541   3.411   1.232   0.756  0.0215  0.5950 -0.0299
 6361SOL    HW130542   3.488   1.246   0.811  1.1822 -2.9482 -0.7983
 6361SOL    HW230543   3.380   1.323   0.757 -0.3662  0.4510  0.9437
 6362SOL     OW30544   1.649   4.065   5.726 -0.4773  0.6952  0.0066
 6362SOL    HW130545   1.617   4.137   5.671  0.0451  0.2613 -0.8576
 6362SOL    HW230546   1.576   4.018   5.766 -0.0505 -0.1204 -0.1708
 6363SOL     OW30547   4.316   4.526   1.778  0.7344 -0.1472 -0.3555
 6363SOL    HW130548   4.266   4.605   1.755  0.9385 -0.0678 -0.5300
 6363SOL    HW230549   4.250   4.458   1.764  0.8887 -0.0839 -1.3914
 6364SOL     OW30550   0.114   3.297   6.467 -0.2886 -0.2526 -0.0177
 6364SOL    HW130551   0.113   3.224   6.529 -0.4790 -1.0678 -0.9842
 6364SOL    HW230552   0.185   3.349   6.506  0.6258 -1.9139  0.5071
 6365SOL     OW30553   0.690   4.380  16.785  0.4869 -0.0954 -0.3488
 6365SOL    HW130554   0.783   4.357  16.776  0.4802  0.4142 -1.7997
 6365SOL    HW230555   0.687   4.435  16.863 -2.4388 -0.5979 -0.0939
 6366SOL     OW30556   4.313   0.028   2.128  0.5748  0.3575  0.2907
 6366SOL    HW130557   4.276   0.061   2.210 -1.6922  1.8760 -1.3291
 6366SOL    HW230558   4.320   4.660   2.147  0.3254 -0.4007 -3.4035
 6367SOL     OW30559   0.799   2.091  14.679  0.2529 -0.7393 -0.4563
 6367SOL    HW130560   0.720   2.051  14.640  0.0136 -0.5887 -0.1251
 6367SOL    HW230561   0.863   2.025  14.653  0.7971  0.2398 -1.6061
 6368SOL     OW30562   4.376   4.323   6.539 -0.4148  0.4562 -0.4521
 6368SOL    HW130563   4.447   4.299   6.479  0.5123  1.2822  0.3044
 6368SOL    HW230564   4.336   4.238   6.557 -2.2778  1.2374 -0.8799
 6369SOL     OW30565   1.034   2.198   6.933  0.0642  0.2145  0.6502
 6369SOL    HW130566   1.074   2.111   6.927 -1.0111 -0.0498 -2.4718
 6369SOL    HW230567   1.000   2.206   6.844  0.5432  0.8710  0.5203
 6370SOL     OW30568   3.545   3.103  10.820  0.5838 -0.7727  0.1781
 6370SOL    HW130569   3.563   3.181  10.873 -1.1646  0.1589 -0.5968
 6370SOL    HW230570   3.616   3.046  10.848  0.1810 -2.0003 -1.3261
 6371SOL     OW30571   4.098   3.240   3.656 -0.0026 -0.1589 -0.1431
 6371SOL    HW130572   4.075   3.232   3.563 -2.1176  1.2334  0.2578
 6371SOL    HW230573   4.057   3.160   3.690 -0.9452 -0.1495 -1.2490
 6372SOL     OW30574   4.570   2.955   3.282 -0.1140 -0.0145  0.2632
 6372SOL    HW130575   4.579   3.050   3.288 -0.4609  0.0171  0.2897
 6372SOL    HW230576   4.483   2.948   3.322 -0.2330  2.8820  0.4766
 6373SOL     OW30577   2.215   2.496   6.813 -0.4348  0.4895  0.1829
 6373SOL    HW130578   2.146   2.562   6.816 -0.7837  0.0482  1.6344
 6373SOL    HW230579   2.229   2.481   6.719  0.7107 -1.3843  0.6606
 6374SOL     OW30580   3.622   2.007   3.582  0.2157  0.5339  0.4918
 6374SOL    HW130581   3.693   2.068   3.604 -1.3949  2.5343  0.0794
 6374SOL    HW230582   3.621   1.931   3.640  1.0033 -0.5279 -0.8714
 6375SOL     OW30583   1.359   1.960  16.605  0.2387  0.0161  0.3068
 6375SOL    HW130584   1.287   1.903  16.576  1.0916 -2.7751  3.5547
 6375SOL    HW230585   1.407   1.981  16.525  0.6616 -1.6374  0.1159
 6376SOL     OW30586   1.194   2.412   4.185  0.2629 -0.1840  0.4845
 6376SOL    HW130587   1.112   2.449   4.218 -0.5260 -2.0187  0.5729
 6376SOL    HW230588   1.184   2.317   4.174 -2.9583  0.4654 -2.0376
 6377SOL     OW30589   3.394   0.897   6.116 -0.1365 -0.2871 -0.1692
 6377SOL    HW130590   3.466   0.921   6.174 -1.3571  0.7815  0.9194
 6377SOL    HW230591   3.320   0.911   6.175 -1.0008  3.2368 -2.0942
 6378SOL     OW30592   0.636   3.050  15.314 -0.3445  0.1998  0.4630
 6378SOL    HW130593   0.730   3.056  15.299 -0.5929 -0.5952 -1.3151
 6378SOL    HW230594   0.587   3.071  15.235  2.7551 -0.9163 -1.7201
 6379SOL     OW30595   1.567   0.380   9.085 -0.1717  0.2029  0.3755
 6379SOL    HW130596   1.589   0.406   9.174 -0.9411 -0.7143  0.8301
 6379SOL    HW230597   1.584   0.286   9.090 -0.8100 -0.0249 -1.9723
 6380SOL     OW30598   4.166   4.611   3.299 -0.3800  0.6541 -0.1320
 6380SOL    HW130599   4.131   4.527   3.268 -0.5115  0.2667  1.0438
 6380SOL    HW230600   4.106   4.637   3.370  1.2909 -0.6762  1.7699
 6381SOL     OW30601   1.768   4.472   7.279 -0.5433 -0.1175  0.6158
 6381SOL    HW130602   1.814   4.399   7.237 -0.6663 -0.8994  1.8232
 6381SOL    HW230603   1.763   4.534   7.207 -0.0677 -0.3696  0.3689
 6382SOL     OW30604   2.027   0.743   8.729 -0.2921 -0.5352 -0.3479
 6382SOL    HW130605   1.945   0.693   8.723  0.0405 -1.3452  1.9630
 6382SOL    HW230606   2.099   0.683   8.712 -0.0576 -0.6837  1.1680
 6383SOL     OW30607   3.468   0.524   5.962 -0.3650 -0.0156  0.0266
 6383SOL    HW130608   3.380   0.561   5.952  0.1927  0.7137 -2.2000
 6383SOL    HW230609   3.513   0.572   5.893  0.5015  0.4115  0.8854
 6384SOL     OW30610   3.473   4.308  10.133 -0.0231  0.1644 -0.0190
 6384SOL    HW130611   3.458   4.403  10.129 -1.8333 -0.0716  1.0034
 6384SOL    HW230612   3.548   4.311  10.193  0.8893 -1.6370 -1.0877
 6385SOL     OW30613   4.089   1.710  14.281  0.1218 -0.3329 -0.4050
 6385SOL    HW130614   3.994   1.710  14.275 -0.0134  0.9053  1.9488
 6385SOL    HW230615   4.107   1.617  14.265  1.0234 -0.2977  0.3998
 6386SOL     OW30616   0.913   2.862   6.123  0.0626 -0.1706  0.1231
 6386SOL    HW130617   0.837   2.817   6.087  1.2303 -1.0471 -1.2505
 6386SOL    HW230618   0.984   2.801   6.103 -0.2925 -0.5729  0.1075
 6387SOL     OW30619   1.377   4.506   4.810  0.1731  0.0689  0.4076
 6387SOL    HW130620   1.410   4.581   4.762  0.2262 -0.5671 -0.5544
 6387SOL    HW230621   1.430   4.432   4.779 -0.8844 -0.5482  0.0869
 6388SOL     OW30622   3.091   3.702   3.211 -0.6791  0.2635  0.2747
 6388SOL    HW130623   3.106   3.796   3.214  0.0717  0.1370  0.4469
 6388SOL    HW230624   3.156   3.670   3.273 -0.7419 -0.6122 -0.1061
 6389SOL     OW30625   1.353   2.362   9.272  0.1623 -0.2224 -0.1921
 6389SOL    HW130626   1.374   2.429   9.207  0.0025  0.9403  0.9613
 6389SOL    HW230627   1.332   2.422   9.343  0.0594 -0.7989  0.2624
 6390SOL     OW30628   2.310   2.743   4.613  0.2637 -0.2394  0.0438
 6390SOL    HW130629   2.325   2.664   4.562 -0.7449 -0.6260  0.3330
 6390SOL    HW230630   2.389   2.758   4.665  0.6417  2.5258 -1.3201
 6391SOL     OW30631   0.447   0.606   6.205  0.6790 -0.1953  0.2553
 6391SOL    HW130632   0.483   0.611   6.294 -1.8322 -3.2254  1.4279
 6391SOL    HW230633   0.494   0.681   6.168  0.8841 -0.3160  0.2669
 6392SOL     OW30634   2.055   0.505  12.259  0.5066 -0.2462  0.7273
 6392SOL    HW130635   2.040   0.480  12.350  1.0414  0.6762  1.0750
 6392SOL    HW230636   2.038   0.422  12.214  0.3503  1.2133 -1.9332
 6393SOL     OW30637   2.079   2.505   2.295  0.4712  0.0720 -0.5278
 6393SOL    HW130638   2.100   2.428   2.348 -2.6938  0.8867  1.9210
 6393SOL    HW230639   2.001   2.545   2.334 -0.4042 -0.4289 -1.7645
 6394SOL     OW30640   1.905   2.726  13.781  0.2811 -0.2485 -1.0611
 6394SOL    HW130641   1.886   2.699  13.871  0.8129 -0.4293 -1.0029
 6394SOL    HW230642   1.821   2.749  13.741 -0.1536 -0.8896 -0.5171
 6395SOL     OW30643   0.229   1.262   6.594  0.1684 -0.2528  0.1122
 6395SOL    HW130644   0.151   1.314   6.574  0.7941  0.5028 -0.3472
 6395SOL    HW230645   0.178   1.186   6.622 -1.0517  0.5112 -0.0622
 6396SOL     OW30646   0.832   0.049   3.117 -0.2728  0.0370  0.3121
 6396SOL    HW130647   0.794   0.137   3.118  1.2871  0.7470 -1.8865
 6396SOL    HW230648   0.920   0.071   3.148 -0.5950  0.8631  0.6406
 6397SOL     OW30649   2.604   2.932   6.185  0.2612  0.1944 -0.3713
 6397SOL    HW130650   2.573   2.917   6.274  0.4920  1.6043 -0.0404
 6397SOL    HW230651   2.566   2.852   6.149 -0.8248  0.0677  1.0510
 6398SOL     OW30652   3.617   3.508  14.765 -0.5164  0.4484 -0.3209
 6398SOL    HW130653   3.655   3.444  14.825 -0.6458  0.8754  0.2181
 6398SOL    HW230654   3.524   3.484  14.769 -0.5626  0.6243 -0.3497
 6399SOL     OW30655   2.778   2.240  14.210 -0.9437 -0.4859 -0.2139
 6399SOL    HW130656   2.845   2.259  14.144  0.3980 -0.0656  1.2553
 6399SOL    HW230657   2.759   2.149  14.188 -1.1497 -0.3850 -0.4582
 6400SOL     OW30658   1.990   2.642   7.001 -0.4995 -0.5174  0.0860
 6400SOL    HW130659   1.941   2.564   7.028  1.7095 -1.4484  1.4536
 6400SOL    HW230660   2.031   2.669   7.083 -0.8841 -2.8907  1.0520
 6401SOL     OW30661   4.258   2.658   3.120 -0.0439  0.1594  0.0943
 6401SOL    HW130662   4.201   2.588   3.088 -2.9738  2.0501  1.2320
 6401SOL    HW230663   4.287   2.615   3.200  2.7918  0.0712 -0.9791
 6402SOL     OW30664   2.677   1.189   4.820  0.1285 -0.7833 -0.0048
 6402SOL    HW130665   2.743   1.144   4.872  0.7008  0.2304  0.1523
 6402SOL    HW230666   2.731   1.242   4.761  1.4640  0.4530  2.3592
 6403SOL     OW30667   3.741   0.638   3.641 -0.2800 -0.5526  0.3235
 6403SOL    HW130668   3.801   0.600   3.705 -0.3268 -0.9410  0.1373
 6403SOL    HW230669   3.802   0.699   3.600 -1.0080 -0.6477 -0.8961
 6404SOL     OW30670   2.427   3.766   8.573  0.3581  0.2065 -0.2743
 6404SOL    HW130671   2.501   3.707   8.570 -1.2520 -1.8710  1.2576
 6404SOL    HW230672   2.355   3.703   8.583  0.7332  0.0347  1.2223
 6405SOL     OW30673   1.759   3.782  10.231 -0.2460  0.5133 -0.2914
 6405SOL    HW130674   1.845   3.782  10.272  0.1730  2.5636 -1.1861
 6405SOL    HW230675   1.751   3.688  10.215  0.5817  0.4683 -0.4533
 6406SOL     OW30676   2.172   1.244  12.789  0.3972  0.4587  0.1736
 6406SOL    HW130677   2.193   1.324  12.740 -0.3404  0.4251 -0.1945
 6406SOL    HW230678   2.258   1.207  12.809  0.8424  0.5741 -1.4843
 6407SOL     OW30679   0.931   0.532   6.848 -0.1157 -0.3543 -0.2591
 6407SOL    HW130680   1.017   0.516   6.808  0.1425  0.3568  0.0068
 6407SOL    HW230681   0.943   0.483   6.930 -1.7775  1.8274  1.2961
 6408SOL     OW30682   0.288   2.915   2.866  0.3485 -0.8623  0.4530
 6408SOL    HW130683   0.336   2.915   2.783 -0.7631  0.1773 -0.1825
 6408SOL    HW230684   0.340   2.970   2.925  2.7175 -1.3576 -1.1634
 6409SOL     OW30685   4.020   3.011   9.295 -0.0595  0.0328  0.1938
 6409SOL    HW130686   3.964   2.963   9.234 -1.6889  1.4829  0.5256
 6409SOL    HW230687   3.975   2.996   9.378  0.7922 -0.2313  0.6075
 6410SOL     OW30688   1.569   3.772   4.280  0.2148 -0.1204  0.2667
 6410SOL    HW130689   1.548   3.688   4.240 -0.6624 -0.6710  1.8603
 6410SOL    HW230690   1.648   3.796   4.232  0.3389 -0.1410  0.4582
 6411SOL     OW30691   3.746   3.033   8.090  0.4925  0.5593  0.1100
 6411SOL    HW130692   3.762   3.126   8.108 -1.9736  0.9998  0.0300
 6411SOL    HW230693   3.695   3.013   8.169  0.3993  0.2154 -0.0363
 6412SOL     OW30694   4.196   3.790   8.580  0.2289  0.5518 -0.2361
 6412SOL    HW130695   4.262   3.745   8.632  1.3042  1.2186 -1.0241
 6412SOL    HW230696   4.243   3.871   8.563  1.1775  0.3596  1.5184
 6413SOL     OW30697   1.144   3.016   6.646  0.2346 -0.1844  0.3959
 6413SOL    HW130698   1.089   2.983   6.575 -1.3444 -0.1821  1.6202
 6413SOL    HW230699   1.132   2.952   6.716  1.5205 -1.4381 -0.5146
 6414SOL     OW30700   3.861   1.980  16.413  0.3278  0.4364 -0.0584
 6414SOL    HW130701   3.821   1.949  16.331 -0.2568  1.6597 -0.2412
 6414SOL    HW230702   3.951   1.953  16.398  0.2267  0.8353 -1.4110
 6415SOL     OW30703   4.615   0.739  11.575 -0.0664  0.4385  0.8853
 6415SOL    HW130704   4.699   0.697  11.556  0.2489  2.2118 -1.5761
 6415SOL    HW230705   4.569   0.728  11.492  0.2968 -1.1195  0.8865
 6416SOL     OW30706   3.145   2.511   9.951  0.2187 -0.2094 -0.2966
 6416SOL    HW130707   3.096   2.445  10.000 -0.6677 -1.0801 -2.3677
 6416SOL    HW230708   3.168   2.567  10.025 -1.8361 -0.6259  0.6630
 6417SOL     OW30709   1.107   1.633   9.616  0.1920  0.6589 -0.3668
 6417SOL    HW130710   1.096   1.564   9.550  2.4249  0.2671 -0.3396
 6417SOL    HW230711   1.197   1.657   9.597  1.0520 -2.0752  0.2373
 6418SOL     OW30712   1.138   1.073   0.731  0.1451  0.5126 -0.1341
 6418SOL    HW130713   1.231   1.076   0.752 -0.0245  1.1075  0.5660
 6418SOL    HW230714   1.137   0.980   0.754  1.9681  0.1106 -1.6595
 6419SOL     OW30715   0.888   2.817  14.249  0.2477  0.2546 -0.3309
 6419SOL    HW130716   0.806   2.859  14.274 -2.5279 -4.8903 -0.7031
 6419SOL    HW230717   0.874   2.723  14.266 -0.9033 -0.0808 -3.1741
 6420SOL     OW30718   1.284   0.689   4.661  0.2557  0.1239  0.4137
 6420SOL    HW130719   1.372   0.720   4.640  1.5862 -2.2433  2.6127
 6420SOL    HW230720   1.245   0.670   4.575 -0.2524  0.0911  0.6476
 6421SOL     OW30721   0.539   1.539  10.087 -1.0458  0.1767 -0.1205
 6421SOL    HW130722   0.461   1.500  10.127  0.4511 -1.1366  1.5277
 6421SOL    HW230723   0.574   1.462  10.043 -1.3262 -0.6724  1.1441
 6422SOL     OW30724   0.900   3.482   2.703  0.2113 -0.2430 -0.0363
 6422SOL    HW130725   0.856   3.456   2.622 -2.7370  4.2636  0.1666
 6422SOL    HW230726   0.907   3.394   2.741 -1.8201  0.6395  2.4194
 6423SOL     OW30727   0.222   2.843   7.045 -0.1605  0.1692 -0.0357
 6423SOL    HW130728   0.217   2.938   7.056 -1.5462  0.2305 -1.2314
 6423SOL    HW230729   0.207   2.823   7.137  1.4219  3.0238  0.8464
 6424SOL     OW30730   3.014   0.922  11.833 -0.2315  0.2920 -0.5074
 6424SOL    HW130731   2.964   0.849  11.869  0.8996  1.0090  2.5681
 6424SOL    HW230732   2.980   0.999  11.878  1.4277  0.4634  0.4756
 6425SOL     OW30733   3.580   2.663  12.055  0.3309 -0.1869 -0.3513
 6425SOL    HW130734   3.624   2.602  11.996  1.2220 -0.8977  1.0390
 6425SOL    HW230735   3.643   2.735  12.059  0.0894  0.0104 -0.0882
 6426SOL     OW30736   2.917   0.223   8.403 -0.0929  0.6923  0.0530
 6426SOL    HW130737   2.931   0.160   8.474 -1.2723 -1.3307 -1.4932
 6426SOL    HW230738   2.890   0.172   8.326 -0.3997  0.9435 -0.0055
 6427SOL     OW30739   0.700   0.246   9.732  0.2230  0.2382  0.5583
 6427SOL    HW130740   0.673   0.291   9.652  1.1209 -0.8367 -0.3562
 6427SOL    HW230741   0.772   0.191   9.699  2.5871  2.5547  1.8515
 6428SOL     OW30742   3.274   1.064   9.143 -0.2040 -0.2621  0.1978
 6428SOL    HW130743   3.338   1.115   9.193  0.2917 -1.5800  0.8967
 6428SOL    HW230744   3.330   0.994   9.108  0.8380  0.6075  0.0968
 6429SOL     OW30745   3.907   1.450  13.085 -0.2520 -0.3723  0.6555
 6429SOL    HW130746   3.920   1.512  13.157  3.3412  0.2182 -0.5178
 6429SOL    HW230747   3.879   1.367  13.124 -3.6792  0.7659  0.5981
 6430SOL     OW30748   0.202   2.674   5.825  0.4240  0.1428  0.0040
 6430SOL    HW130749   0.228   2.677   5.733  4.0187  1.4531  1.0544
 6430SOL    HW230750   0.284   2.688   5.872  1.4989 -2.1229 -1.1549
 6431SOL     OW30751   4.147   2.176   2.050  0.1278 -0.2695  0.1157
 6431SOL    HW130752   4.155   2.213   1.963 -0.0197 -0.6845 -0.0749
 6431SOL    HW230753   4.200   2.229   2.110  0.1949 -0.4416  0.2109
 6432SOL     OW30754   0.531   2.547  16.861 -0.1266 -0.2704  0.2771
 6432SOL    HW130755   0.560   2.578  16.775  1.5707  2.0840  1.6960
 6432SOL    HW230756   0.447   2.593  16.870 -0.4673 -0.9207  0.4265
 6433SOL     OW30757   4.696   4.374   6.606 -0.0140 -0.1304  0.3664
 6433SOL    HW130758   0.002   4.284   6.620 -0.4350 -0.3359 -0.0105
 6433SOL    HW230759   4.663   4.361   6.517  0.2523  1.4356  0.0409
 6434SOL     OW30760   0.840   4.116  15.286 -0.1726 -0.3360  0.3725
 6434SOL    HW130761   0.884   4.122  15.370 -2.1794  0.6436  1.3697
 6434SOL    HW230762   0.771   4.054  15.310 -0.9828  0.0871 -0.8680
 6435SOL     OW30763   2.020   2.762   5.531  0.7369  0.1337  0.3315
 6435SOL    HW130764   2.031   2.787   5.439  2.5205  0.0842  0.5422
 6435SOL    HW230765   2.083   2.824   5.569  1.4326  0.3632 -1.2072
 6436SOL     OW30766   3.936   3.807   5.825  0.0627  0.0426  0.3648
 6436SOL    HW130767   3.914   3.816   5.732 -2.1832  0.2167  0.9238
 6436SOL    HW230768   3.883   3.878   5.859 -3.6909 -2.6199  0.1545
 6437SOL     OW30769   0.809   0.077   5.714  0.2205 -0.2976 -0.3032
 6437SOL    HW130770   0.771   4.716   5.699  0.8765 -0.7157  0.3888
 6437SOL    HW230771   0.828   0.094   5.622  2.4046  0.7749  0.3547
 6438SOL     OW30772   4.068   2.319  11.463 -0.3752  0.2298 -0.3631
 6438SOL    HW130773   4.131   2.297  11.395 -0.2158 -0.2157 -0.0668
 6438SOL    HW230774   4.125   2.344  11.536 -0.2773 -0.2768 -0.2714
 6439SOL     OW30775   2.171   3.148   8.072 -0.0944  0.0903  0.0305
 6439SOL    HW130776   2.172   3.056   8.044 -0.8063  0.5812 -1.5519
 6439SOL    HW230777   2.083   3.179   8.054 -1.0340 -1.7779  1.3718
 6440SOL     OW30778   4.149   3.936   1.583  0.1076 -0.2468  0.4875
 6440SOL    HW130779   4.192   3.931   1.498  1.4989  1.4243  1.1011
 6440SOL    HW230780   4.059   3.963   1.563 -0.0612  0.8577  2.6959
 6441SOL     OW30781   3.279   1.177   7.256 -0.6498  0.4884  0.0119
 6441SOL    HW130782   3.237   1.091   7.252 -1.2773  0.7889  0.1270
 6441SOL    HW230783   3.314   1.191   7.168  1.8515 -1.5340  0.6645
 6442SOL     OW30784   3.959   4.691   5.621 -0.1934  0.3897  0.2389
 6442SOL    HW130785   3.867   4.675   5.644  0.5840 -1.0938  2.3337
 6442SOL    HW230786   3.987   4.600   5.614  1.3594  0.8676  0.3105
 6443SOL     OW30787   4.556   3.552  15.650 -0.5204 -0.3830 -0.3850
 6443SOL    HW130788   4.538   3.463  15.678  0.6140 -0.2717  0.7271
 6443SOL    HW230789   4.502   3.555  15.572  0.9241  2.5969 -1.2569
 6444SOL     OW30790   1.506   4.330   3.869  0.4133  0.7010 -0.3529
 6444SOL    HW130791   1.592   4.327   3.827  0.2499  2.0723 -0.7630
 6444SOL    HW230792   1.451   4.297   3.799  0.7344 -2.5660  0.9133
 6445SOL     OW30793   3.112   2.156  13.415 -0.2716  0.4842 -0.0957
 6445SOL    HW130794   3.168   2.195  13.348  2.4034  0.1408  1.9385
 6445SOL    HW230795   3.060   2.083  13.381 -2.0405  2.0588 -0.7836
 6446SOL     OW30796   4.696   2.413   4.167 -0.3780  0.5124  0.0188
 6446SOL    HW130797   4.697   2.488   4.227 -3.7455  0.2549  0.3696
 6446SOL    HW230798   0.015   2.460   4.095  0.9933  1.1239  1.2358
 6447SOL     OW30799   2.763   0.478  12.391  0.1529  0.6390  0.1772
 6447SOL    HW130800   2.696   0.486  12.458 -0.1235  0.2200 -0.0495
 6447SOL    HW230801   2.811   0.407  12.433  1.2994  2.4253  1.8793
 6448SOL     OW30802   0.671   2.763  15.750  0.3278 -0.4991  0.3045
 6448SOL    HW130803   0.758   2.800  15.766  0.1575  0.1022 -0.1997
 6448SOL    HW230804   0.657   2.794  15.661  0.8932 -0.9415  0.0682
 6449SOL     OW30805   4.444   0.171   6.537 -0.1617  0.0131  0.3742
 6449SOL    HW130806   4.434   0.206   6.449  0.3909  0.7495  0.6065
 6449SOL    HW230807   4.444   0.075   6.529  1.8743 -0.1184  1.9701
 6450SOL     OW30808   0.345   1.952  16.588  0.8268 -0.1214 -0.8583
 6450SOL    HW130809   0.265   1.918  16.630  2.7133 -0.8048  2.1534
 6450SOL    HW230810   0.370   1.876  16.535  1.6882 -0.5255  0.1217
 6451SOL     OW30811   3.781   3.422   2.479  0.3755  0.0312 -0.2416
 6451SOL    HW130812   3.701   3.413   2.531  0.3224 -0.8648 -0.4885
 6451SOL    HW230813   3.788   3.336   2.438  3.1200  0.4120 -0.5628
 6452SOL     OW30814   1.597   2.192   4.843  0.3721  0.5419 -0.5981
 6452SOL    HW130815   1.646   2.267   4.808  0.8955  0.9529  1.0203
 6452SOL    HW230816   1.576   2.147   4.761  1.4809 -0.0817 -0.5467
 6453SOL     OW30817   2.883   3.125  13.104  0.1204 -0.1020 -0.4738
 6453SOL    HW130818   2.896   3.211  13.065  0.0692 -0.1551 -0.6084
 6453SOL    HW230819   2.968   3.116  13.147 -1.1256 -1.9497  1.5926
 6454SOL     OW30820   2.800   2.277   3.052 -0.2677  0.2616  0.0233
 6454SOL    HW130821   2.808   2.239   3.139  0.3556  1.1127  0.3330
 6454SOL    HW230822   2.832   2.366   3.064  1.3849 -0.1900 -1.0643
 6455SOL     OW30823   4.234   4.059   5.759  0.0860 -0.0546  0.1625
 6455SOL    HW130824   4.221   4.096   5.846 -2.6475 -0.4244 -0.0728
 6455SOL    HW230825   4.323   4.025   5.756  0.0377 -0.1567 -0.2549
 6456SOL     OW30826   0.144   0.290   5.839  0.5919  0.3319 -0.2831
 6456SOL    HW130827   0.196   0.339   5.903 -0.8970  2.7455 -0.9229
 6456SOL    HW230828   0.086   0.238   5.895 -0.8703  0.8807 -1.2924
 6457SOL     OW30829   2.313   1.701  11.570 -0.1914  0.3778 -0.1393
 6457SOL    HW130830   2.408   1.702  11.579 -0.1268 -0.0167 -0.8102
 6457SOL    HW230831   2.305   1.774  11.509 -0.0508  1.3941  1.0598
 6458SOL     OW30832   4.497   3.837   4.622 -0.0900  0.2986  0.1470
 6458SOL    HW130833   4.412   3.857   4.661 -1.1852 -2.7341 -0.7289
 6458SOL    HW230834   4.489   3.868   4.531  0.5059 -3.1654 -1.0651
 6459SOL     OW30835   0.345   0.438   2.309  0.0800  0.1090 -0.4929
 6459SOL    HW130836   0.260   0.457   2.270 -0.6785 -1.5121  0.3764
 6459SOL    HW230837   0.345   0.462   2.402 -0.0215 -3.3689  0.4034
 6460SOL     OW30838   2.540   4.705  10.815  0.1457 -0.2390  0.5308
 6460SOL    HW130839   2.471   0.041  10.841  0.5210  0.2347  0.4039
 6460SOL    HW230840   2.498   4.629  10.856  0.1333 -0.5511 -0.0489
 6461SOL     OW30841   0.677   4.249   7.891  0.6852  0.7147  0.6266
 6461SOL    HW130842   0.714   4.246   7.979 -0.0116  0.4312  0.9039
 6461SOL    HW230843   0.622   4.325   7.910 -1.5165 -0.4723 -0.8965
 6462SOL     OW30844   2.560   0.009  10.333  0.1853 -0.0622 -0.1353
 6462SOL    HW130845   2.643   4.707  10.293 -0.2568 -1.1670 -0.3299
 6462SOL    HW230846   2.563   4.673  10.407 -1.9105  1.0839  0.8803
 6463SOL     OW30847   0.755   0.362   7.386  0.7714  0.1295 -0.1562
 6463SOL    HW130848   0.824   0.411   7.430 -0.3548  2.2995 -0.7921
 6463SOL    HW230849   0.690   0.340   7.454  0.8507  0.0884 -0.0943
 6464SOL     OW30850   1.661   1.521  15.725  0.3868  0.3529  0.2000
 6464SOL    HW130851   1.726   1.502  15.657  0.0603  1.5201 -0.4470
 6464SOL    HW230852   1.634   1.435  15.756  0.0036  0.4145  0.0333
 6465SOL     OW30853   3.089   1.953   9.594 -0.0251 -0.0138  0.2102
 6465SOL    HW130854   3.063   2.019   9.531 -1.4842  0.4219  1.2589
 6465SOL    HW230855   3.161   1.990   9.645  0.5377  1.3514 -1.5794
 6466SOL     OW30856   0.320   1.980   7.536 -0.3982  0.5955 -0.2250
 6466SOL    HW130857   0.403   1.938   7.512 -0.1706  0.9395 -0.0455
 6466SOL    HW230858   0.339   2.067   7.499 -1.7865  1.8759  2.0880
 6467SOL     OW30859   2.990   3.436   0.870  0.0957  0.0072 -0.3156
 6467SOL    HW130860   2.928   3.474   0.933 -2.4020 -2.2555 -1.4056
 6467SOL    HW230861   2.959   3.346   0.883  1.3922 -0.5856 -1.3846
 6468SOL     OW30862   2.209   4.097   6.236 -0.1594  0.2904  0.2818
 6468SOL    HW130863   2.241   4.032   6.174  0.4048  0.7982  0.0402
 6468SOL    HW230864   2.115   4.098   6.217  0.0076  0.4238 -0.5278
 6469SOL     OW30865   1.424   4.503   3.458 -0.4268  0.0072  0.1646
 6469SOL    HW130866   1.478   4.568   3.503 -0.1149 -1.8411  2.4236
 6469SOL    HW230867   1.488   4.465   3.398  1.2695  2.0918  0.6386
 6470SOL     OW30868   0.066   0.003   8.737 -0.1023  0.2889 -0.1903
 6470SOL    HW130869   0.146   4.699   8.781  0.1597  2.7848  0.9905
 6470SOL    HW230870   0.055   4.681   8.654  0.9450 -0.4196  0.0717
 6471SOL     OW30871   2.008   0.594   1.206 -0.4492  0.0790 -0.2549
 6471SOL    HW130872   1.914   0.587   1.227 -0.1154  1.2001  1.5430
 6471SOL    HW230873   2.004   0.529   1.135 -0.8724 -0.8374  0.6072
 6472SOL     OW30874   2.821   0.476   2.534 -0.1706 -0.1974 -0.0699
 6472SOL    HW130875   2.848   0.387   2.512  1.3265  0.3012 -0.2133
 6472SOL    HW230876   2.748   0.452   2.592  0.1367  0.8022  0.7241
 6473SOL     OW30877   1.722   1.698   9.226  0.3768  0.1229  0.2448
 6473SOL    HW130878   1.761   1.628   9.278  0.2377 -0.5782 -0.5855
 6473SOL    HW230879   1.641   1.658   9.196 -0.1997 -1.3677  3.8597
 6474SOL     OW30880   2.715   0.429   3.768 -0.1989  0.1472 -0.1764
 6474SOL    HW130881   2.734   0.337   3.753  2.8754  1.0902 -2.1001
 6474SOL    HW230882   2.676   0.461   3.687  0.8075  1.0505 -0.3126
 6475SOL     OW30883   4.385   2.730   8.537  0.0053  0.3465 -0.0148
 6475SOL    HW130884   4.302   2.768   8.508 -0.2950 -1.5323 -1.5881
 6475SOL    HW230885   4.367   2.677   8.615  2.0867 -0.1102  0.1645
 6476SOL     OW30886   4.081   4.100   8.534  0.3592  0.0684  0.1437
 6476SOL    HW130887   4.175   4.116   8.522 -0.0364  1.6665 -0.9741
 6476SOL    HW230888   4.091   4.067   8.623  1.6677  0.2986  0.0895
 6477SOL     OW30889   0.798   3.353  17.428  0.2703 -0.4643  0.2217
 6477SOL    HW130890   0.716   3.364  17.379  0.0695  0.4442  0.7589
 6477SOL    HW230891   0.841   3.288  17.372  0.9643 -1.2329  1.6406
 6478SOL     OW30892   0.212   3.256   3.562 -0.2832 -0.4078  0.2002
 6478SOL    HW130893   0.199   3.280   3.470  2.7180  1.8708  0.3652
 6478SOL    HW230894   0.170   3.326   3.612  1.7136  0.6621  0.3711
 6479SOL     OW30895   1.297   0.988   5.357  0.0336  0.2075 -0.4422
 6479SOL    HW130896   1.230   1.047   5.322 -0.4659  0.1322  0.3836
 6479SOL    HW230897   1.237   0.920   5.388  0.7649 -0.6581 -0.9422
 6480SOL     OW30898   2.498   2.703   4.827  0.5624 -0.4242 -0.3588
 6480SOL    HW130899   2.551   2.775   4.862 -1.2658  1.0391 -0.5937
 6480SOL    HW230900   2.570   2.647   4.795  1.0489 -0.7924  1.4142
 6481SOL     OW30901   2.165   2.447   3.192  0.2908 -0.0601 -0.1589
 6481SOL    HW130902   2.241   2.415   3.240  0.2970 -0.6429 -0.5582
 6481SOL    HW230903   2.121   2.362   3.182 -0.8765  0.6518 -1.0867
 6482SOL     OW30904   2.004   1.267   2.375 -0.2422 -0.1104 -0.4317
 6482SOL    HW130905   2.055   1.197   2.335  1.9480  1.9149 -1.1705
 6482SOL    HW230906   2.003   1.229   2.462 -0.4208 -2.2348 -1.3500
 6483SOL     OW30907   0.649   2.216   3.664  0.1543 -0.2319 -0.1748
 6483SOL    HW130908   0.571   2.161   3.663  0.6581 -0.9664  1.1794
 6483SOL    HW230909   0.712   2.168   3.718  0.8512  0.4596 -0.3607
 6484SOL     OW30910   1.585   3.778   8.848 -0.0944  0.1677 -0.3286
 6484SOL    HW130911   1.585   3.860   8.799  1.8495  0.3545 -0.0145
 6484SOL    HW230912   1.496   3.772   8.883  0.0326 -1.0419 -0.1909
 6485SOL     OW30913   2.953   2.132   7.584  0.4872 -0.0048 -0.2193
 6485SOL    HW130914   3.010   2.203   7.552  0.0302  1.4239  2.1175
 6485SOL    HW230915   2.926   2.173   7.666  1.3654  1.6285 -0.7388
 6486SOL     OW30916   3.734   4.434   8.008  0.1761  0.0471  0.5228
 6486SOL    HW130917   3.707   4.430   8.100 -1.4906 -0.2629  0.0119
 6486SOL    HW230918   3.730   4.346   7.970 -1.6141  1.2539 -1.9961
 6487SOL     OW30919   0.093   3.744  16.085 -0.0737 -0.4640  0.0959
 6487SOL    HW130920   0.051   3.825  16.113 -0.8057 -0.8651  0.1531
 6487SOL    HW230921   0.145   3.722  16.162 -0.2466  0.4563  0.4705
 6488SOL     OW30922   4.485   4.103   3.050 -0.4917  0.7684 -0.4261
 6488SOL    HW130923   4.454   4.180   3.099 -0.3867 -0.0950  0.9946
 6488SOL    HW230924   4.574   4.137   3.039 -1.4057  3.3009 -0.1531
 6489SOL     OW30925   2.005   3.974   9.507 -0.3709  0.2893 -0.4947
 6489SOL    HW130926   2.093   4.006   9.530  0.6636 -3.8621  1.2881
 6489SOL    HW230927   2.001   3.891   9.555 -1.4971  0.0652 -0.9714
 6490SOL     OW30928   3.366   3.930   2.022 -0.0542  0.4798 -0.1812
 6490SOL    HW130929   3.423   3.876   2.076 -2.3992  0.8282  2.6684
 6490SOL    HW230930   3.414   4.013   2.028 -0.6237  0.6939  1.6658
 6491SOL     OW30931   0.390   1.890   2.568 -0.3071  0.2762  0.5096
 6491SOL    HW130932   0.403   1.797   2.551 -1.7213  0.1746 -0.0372
 6491SOL    HW230933   0.477   1.922   2.548  0.4856 -1.6872  0.8548
 6492SOL     OW30934   2.390   0.910   2.914 -0.6124 -0.2006  0.0824
 6492SOL    HW130935   2.354   0.991   2.949 -0.5053  0.4992 -1.4465
 6492SOL    HW230936   2.478   0.911   2.953  0.1775  0.3213 -1.7206
 6493SOL     OW30937   3.945   3.845  14.753 -0.0231  0.0492 -0.0382
 6493SOL    HW130938   3.927   3.827  14.660 -0.9498 -2.0641  0.5467
 6493SOL    HW230939   4.034   3.812  14.763 -1.2168 -2.9575  0.6863
 6494SOL     OW30940   3.920   2.129   2.235 -0.3901  0.4345  0.0394
 6494SOL    HW130941   3.937   2.037   2.255  3.1798  1.3304  1.1616
 6494SOL    HW230942   3.987   2.143   2.168  0.5637 -2.4220  0.4149
 6495SOL     OW30943   4.495   1.364   0.715 -0.1761  0.0723 -0.4085
 6495SOL    HW130944   4.479   1.270   0.709  0.8289 -0.0420 -1.4370
 6495SOL    HW230945   4.525   1.378   0.625  0.8222  0.5127 -0.0038
 6496SOL     OW30946   4.026   3.278   7.607  0.8141  0.1070 -0.1566
 6496SOL    HW130947   4.013   3.184   7.611  4.3773 -0.3233  0.8832
 6496SOL    HW230948   3.966   3.296   7.534 -0.5716 -0.6229  0.7943
 6497SOL     OW30949   1.027   2.971   8.163 -0.0278  0.0635 -0.3556
 6497SOL    HW130950   1.054   3.041   8.222  0.2266 -1.6828  1.5913
 6497SOL    HW230951   1.016   3.007   8.075  0.1401  1.3043  0.1402
 6498SOL     OW30952   4.075   3.760   1.989 -0.5850  0.3134 -0.2420
 6498SOL    HW130953   4.156   3.712   2.010 -1.1044 -0.4024  0.1029
 6498SOL    HW230954   4.001   3.715   2.028  0.9676 -0.8218  1.3901
 6499SOL     OW30955   1.794   1.326  11.995 -0.3006  0.0217 -0.2155
 6499SOL    HW130956   1.755   1.384  11.929 -0.8224 -0.7081 -0.5490
 6499SOL    HW230957   1.714   1.284  12.027 -1.3477  1.4947 -0.9018
 6500SOL     OW30958   0.875   3.161   6.375 -0.1856 -0.1372  0.1486
 6500SOL    HW130959   0.960   3.204   6.366  0.5915 -1.5779  0.6972
 6500SOL    HW230960   0.856   3.132   6.286 -0.8434  1.8873 -0.3796
 6501SOL     OW30961   1.689   1.649   9.908  0.1327  0.3569  0.8464
 6501SOL    HW130962   1.734   1.575   9.949  0.3558  0.0235  0.0197
 6501SOL    HW230963   1.691   1.624   9.815 -1.3146  1.9848  0.3836
 6502SOL     OW30964   1.749   3.620   7.675 -0.2047  0.2308 -0.0928
 6502SOL    HW130965   1.835   3.603   7.636 -1.0841 -1.3649 -1.3174
 6502SOL    HW230966   1.725   3.659   7.591  2.9291 -0.5907 -1.3711
 6503SOL     OW30967   0.135   1.353   6.941  0.4049 -0.1107 -0.2341
 6503SOL    HW130968   0.097   1.265   6.944 -3.0919  1.3161 -2.1582
 6503SOL    HW230969   0.212   1.332   6.888  1.0645  0.1492  0.6131
 6504SOL     OW30970   1.772   4.137   2.921 -0.7834 -0.0832  0.5264
 6504SOL    HW130971   1.747   4.155   2.830 -1.1657  0.1332  0.6719
 6504SOL    HW230972   1.827   4.061   2.901 -0.7101  0.4994 -1.4997
 6505SOL     OW30973   4.438   3.970   8.551 -0.0836  0.5303  0.2609
 6505SOL    HW130974   4.445   3.948   8.644 -0.2130 -0.2393  0.0907
 6505SOL    HW230975   4.440   4.065   8.563  0.7963  0.5233  0.1661
 6506SOL     OW30976   1.215   0.406  11.825 -0.3753 -0.1579 -0.4321
 6506SOL    HW130977   1.228   0.500  11.838 -0.1821  0.1321 -2.5974
 6506SOL    HW230978   1.149   0.414  11.756  0.1891  0.0432 -0.9598
 6507SOL     OW30979   1.606   1.869   7.637  0.3563 -0.0729  0.2197
 6507SOL    HW130980   1.680   1.927   7.622 -2.0581  2.1112 -3.2981
 6507SOL    HW230981   1.651   1.785   7.640 -0.7285 -0.5525  2.6835
 6508SOL     OW30982   3.291   3.364   0.896 -0.0187 -0.3015 -0.1821
 6508SOL    HW130983   3.287   3.281   0.943 -1.1436  0.2484  0.7087
 6508SOL    HW230984   3.205   3.402   0.916  0.0190 -0.2051 -0.2041
 6509SOL     OW30985   0.767   4.374  15.261  0.7240 -0.2760  0.3132
 6509SOL    HW130986   0.826   4.299  15.271  0.8004 -0.5124 -1.8765
 6509SOL    HW230987   0.749   4.361  15.167  0.0839 -0.7075  0.4948
 6510SOL     OW30988   0.594   0.971   0.332  0.0997 -0.1311 -0.0050
 6510SOL    HW130989   0.624   0.944   0.419 -3.6342 -1.0734  0.9628
 6510SOL    HW230990   0.593   1.066   0.339  1.4151 -0.1462  0.3651
 6511SOL     OW30991   2.434   1.139   2.280 -0.3689  0.2666  0.3669
 6511SOL    HW130992   2.397   1.168   2.197  0.7502 -0.3906 -0.3475
 6511SOL    HW230993   2.463   1.220   2.323 -1.2153  0.5963  0.3050
 6512SOL     OW30994   4.218   2.320   1.281  0.1716 -0.3834 -0.0710
 6512SOL    HW130995   4.219   2.260   1.207 -1.2667  0.1398 -0.5203
 6512SOL    HW230996   4.270   2.266   1.341 -0.7447 -1.9567 -0.6894
 6513SOL     OW30997   4.207   3.925   1.298 -0.7795  0.3238  0.0124
 6513SOL    HW130998   4.256   3.851   1.262 -3.1936 -0.7321 -1.0943
 6513SOL    HW230999   4.262   3.981   1.244 -1.1467 -0.3069 -1.0248
 6514SOL     OW31000   2.390   3.990   8.271  0.6854  0.5247  0.6129
 6514SOL    HW131001   2.361   4.077   8.243  0.2322  0.4975  1.0110
 6514SOL    HW231002   2.317   3.955   8.321  0.6699 -0.1001  0.1490
 6515SOL     OW31003   4.531   3.102   4.233 -0.3492 -0.2007 -0.0396
 6515SOL    HW131004   4.567   3.185   4.204  0.5267 -0.3966  0.4677
 6515SOL    HW231005   4.577   3.107   4.317  0.6850 -1.2421 -0.5349
 6516SOL     OW31006   2.092   1.722   7.957 -0.1151 -0.1061  0.6529
 6516SOL    HW131007   2.049   1.751   7.876 -0.3337 -0.4986  0.6288
 6516SOL    HW231008   2.144   1.801   7.975  0.2117 -0.1433 -0.1242
 6517SOL     OW31009   4.520   1.220   2.765 -0.4384 -0.1027 -0.2812
 6517SOL    HW131010   4.492   1.160   2.695  0.7210 -1.5749  0.5130
 6517SOL    HW231011   4.462   1.295   2.754 -1.4105 -0.6802  0.8559
 6518SOL     OW31012   1.134   1.869   7.569 -0.3636  0.2881  0.3279
 6518SOL    HW131013   1.211   1.919   7.542 -0.3146  0.9614  1.7306
 6518SOL    HW231014   1.147   1.865   7.664  0.7392 -2.9556  0.0288
 6519SOL     OW31015   0.988   0.752   3.310  0.2943  0.3962 -0.1278
 6519SOL    HW131016   0.952   0.666   3.287 -0.5996  0.8286 -0.3553
 6519SOL    HW231017   1.026   0.735   3.396 -0.3677  2.3429  0.5464
 6520SOL     OW31018   1.846   1.453   7.380  0.3361  0.0877  0.3364
 6520SOL    HW131019   1.764   1.422   7.419 -0.2494  0.4321 -0.6350
 6520SOL    HW231020   1.877   1.372   7.339  1.5802  2.0480 -2.5607
 6521SOL     OW31021   2.994   0.228   8.124  0.1819 -0.3681 -0.0605
 6521SOL    HW131022   3.028   0.252   8.210  1.2629 -0.0676 -0.5728
 6521SOL    HW231023   3.068   0.178   8.087  1.0453 -0.0409  1.2213
 6522SOL     OW31024   2.066   2.245   6.119 -0.1210  0.1206 -0.6712
 6522SOL    HW131025   2.141   2.288   6.161  0.3184 -2.0247  0.7348
 6522SOL    HW231026   1.998   2.265   6.183  1.1393  1.7844  0.1635
 6523SOL     OW31027   2.334   1.000   6.972 -0.2526 -0.9254  0.6227
 6523SOL    HW131028   2.297   1.075   6.924  0.7764 -1.7137 -1.4023
 6523SOL    HW231029   2.316   1.031   7.061 -0.8963  0.3403  0.0536
 6524SOL     OW31030   2.287   2.781  16.074 -0.0097  0.2986  0.3435
 6524SOL    HW131031   2.345   2.830  16.017 -3.3937 -0.8013 -4.1078
 6524SOL    HW231032   2.290   2.831  16.155  0.2618  0.5257  0.1928
 6525SOL     OW31033   2.338   1.823   6.544  0.0956  0.5913 -0.0275
 6525SOL    HW131034   2.428   1.808   6.515 -0.0342 -0.0574 -0.0949
 6525SOL    HW231035   2.350   1.875   6.623 -0.5910  0.8091 -0.0629
 6526SOL     OW31036   3.890   4.295   8.988  0.0592  0.3330 -0.0316
 6526SOL    HW131037   3.846   4.212   8.967  3.8438 -1.3808 -1.2437
 6526SOL    HW231038   3.967   4.254   9.027  0.4766  1.3083  0.1557
 6527SOL     OW31039   3.628   3.348   4.460  0.0409  0.4123  0.3714
 6527SOL    HW131040   3.665   3.321   4.376 -1.4750 -2.8231  0.7336
 6527SOL    HW231041   3.540   3.375   4.434  0.7922  1.8845 -0.6807
 6528SOL     OW31042   1.664   1.162   2.518  0.2903  0.1084 -0.2128
 6528SOL    HW131043   1.738   1.108   2.489  1.8155  0.6219  2.7581
 6528SOL    HW231044   1.703   1.244   2.547 -1.7627  1.0160  0.0010
 6529SOL     OW31045   1.376   2.327   6.017  0.1656 -0.1403  0.0270
 6529SOL    HW131046   1.356   2.285   6.101  1.0146  1.9825  1.2963
 6529SOL    HW231047   1.319   2.282   5.955  1.0307  0.0140 -0.8920
 6530SOL     OW31048   4.587   3.756   6.160  0.2286  0.5023  0.1340
 6530SOL    HW131049   4.655   3.690   6.176 -0.2910 -0.1953 -0.5102
 6530SOL    HW231050   4.521   3.698   6.122 -0.0673  0.0723  1.3147
 6531SOL     OW31051   3.347   1.754  10.022 -0.0271 -0.0093 -0.1640
 6531SOL    HW131052   3.349   1.658  10.017  3.3400 -0.0647  1.9914
 6531SOL    HW231053   3.382   1.778  10.108  1.3419  0.8281 -0.9456
 6532SOL     OW31054   0.167   1.641   2.180 -0.2403  0.1732  0.3217
 6532SOL    HW131055   0.172   1.720   2.235 -0.1283  1.4161 -1.4614
 6532SOL    HW231056   0.217   1.677   2.107 -2.2796 -0.1812 -1.2542
 6533SOL     OW31057   3.578   1.706   7.562 -0.4473  0.1847  0.1121
 6533SOL    HW131058   3.662   1.672   7.593 -0.1751 -1.0032 -1.9295
 6533SOL    HW231059   3.552   1.632   7.508 -1.1446 -0.6204  1.5577
 6534SOL     OW31060   4.304   3.148   4.087  0.8411 -0.4140 -0.2781
 6534SOL    HW131061   4.379   3.144   4.147  0.7130 -0.6891 -0.1377
 6534SOL    HW231062   4.287   3.242   4.092 -0.8172 -0.9093  2.9710
 6535SOL     OW31063   0.905   2.914  17.123 -0.3009 -0.3601  0.0231
 6535SOL    HW131064   0.964   2.939  17.052  0.4435  0.5795  0.9675
 6535SOL    HW231065   0.956   2.850  17.173 -2.1191 -1.6791  0.1596
 6536SOL     OW31066   0.354   2.393  12.009  0.1616 -0.1100  0.0808
 6536SOL    HW131067   0.435   2.414  11.962  0.8839 -0.9160  0.9561
 6536SOL    HW231068   0.374   2.305  12.041 -0.4230  0.2539  1.4450
 6537SOL     OW31069   2.220   2.693   7.183  0.6406 -0.1515 -0.2918
 6537SOL    HW131070   2.215   2.701   7.279  1.2798 -0.0337 -0.2676
 6537SOL    HW231071   2.264   2.608   7.180 -0.2722 -0.6129 -0.4191
 6538SOL     OW31072   3.409   3.328   8.132  0.0743  1.5356 -0.2913
 6538SOL    HW131073   3.378   3.378   8.208 -4.4609 -0.8490 -0.5516
 6538SOL    HW231074   3.385   3.240   8.162 -1.6637  2.1192  0.0473
 6539SOL     OW31075   1.437   0.510   7.285 -0.1705 -0.1535 -0.2995
 6539SOL    HW131076   1.500   0.452   7.328 -1.2895 -0.9189  0.2997
 6539SOL    HW231077   1.483   0.592   7.269  0.8799 -0.8550 -0.8618
 6540SOL     OW31078   2.718   3.145   7.499  0.6316  0.8166 -0.1119
 6540SOL    HW131079   2.733   3.238   7.516  3.3507  0.2576  0.6600
 6540SOL    HW231080   2.744   3.145   7.407 -2.3623 -1.6842 -0.9773
 6541SOL     OW31081   0.505   4.157   5.536 -0.2121  0.2183  0.2501
 6541SOL    HW131082   0.512   4.252   5.530 -1.2644  0.1803 -1.3981
 6541SOL    HW231083   0.592   4.136   5.502 -1.1722 -0.4370 -1.7568
 6542SOL     OW31084   3.408   2.263   7.452  0.1300  0.3997  0.7007
 6542SOL    HW131085   3.480   2.283   7.512  0.1340  2.5726 -0.0366
 6542SOL    HW231086   3.420   2.341   7.398 -1.1372  0.1261  0.0413
 6543SOL     OW31087   0.657   4.572   2.390  0.3250 -0.0434  0.3721
 6543SOL    HW131088   0.595   4.645   2.385 -0.0923 -0.4500 -0.3469
 6543SOL    HW231089   0.615   4.524   2.461  0.0157  0.2911  0.4129
 6544SOL     OW31090   3.973   0.543   3.812  0.3684 -0.3433  0.4846
 6544SOL    HW131091   4.067   0.525   3.816  0.3048 -0.6898  0.4312
 6544SOL    HW231092   3.984   0.630   3.850 -0.5768  0.7613 -1.7624
 6545SOL     OW31093   2.567   3.965   1.288 -0.2214 -0.1533  0.0270
 6545SOL    HW131094   2.559   3.939   1.380 -0.7280 -0.2597 -0.0478
 6545SOL    HW231095   2.482   3.939   1.253  0.4998 -0.1738 -1.6649
 6546SOL     OW31096   4.145   1.958   6.565 -0.4440  0.3729  0.5464
 6546SOL    HW131097   4.103   2.000   6.490  0.4531 -1.9922 -1.3027
 6546SOL    HW231098   4.209   1.915   6.507  0.1477 -1.3920  2.5112
 6547SOL     OW31099   4.059   0.582   6.329 -0.1874  0.0242  0.4107
 6547SOL    HW131100   3.998   0.562   6.400 -1.0134 -0.0724 -0.3321
 6547SOL    HW231101   4.136   0.613   6.378 -0.7805  1.1575  0.6157
 6548SOL     OW31102   1.927   3.775  13.267  0.1796  0.7652 -0.1271
 6548SOL    HW131103   1.956   3.852  13.218  0.0955 -0.0984 -1.5287
 6548SOL    HW231104   2.002   3.717  13.257 -0.9471 -0.8893  1.1598
 6549SOL     OW31105   2.731   3.768  15.649 -0.8658  0.4835 -0.0796
 6549SOL    HW131106   2.650   3.724  15.625  0.7388 -1.7840 -1.3679
 6549SOL    HW231107   2.797   3.715  15.604 -2.8070 -0.7231 -1.4439
 6550SOL     OW31108   1.851   1.914   7.299 -0.1434  0.3173  0.1385
 6550SOL    HW131109   1.801   1.835   7.280  0.2895 -0.0941  0.7131
 6550SOL    HW231110   1.921   1.902   7.234  1.7191  1.7450  1.8670
 6551SOL     OW31111   0.115   2.850  11.878 -0.6591 -0.5615 -0.2942
 6551SOL    HW131112   0.159   2.765  11.877 -2.0751 -1.2989  1.3716
 6551SOL    HW231113   0.082   2.862  11.967  0.6144 -3.0840  0.5063
 6552SOL     OW31114   2.818   1.616   2.274  0.0654  0.1760  0.0651
 6552SOL    HW131115   2.806   1.708   2.251 -1.1709  0.6966  2.8209
 6552SOL    HW231116   2.891   1.592   2.216  0.1975 -0.8741  0.6743
 6553SOL     OW31117   1.566   2.550   6.614  0.2072 -0.3595 -0.9674
 6553SOL    HW131118   1.539   2.541   6.705  0.6944 -0.3428 -0.8233
 6553SOL    HW231119   1.589   2.643   6.611 -2.3473  0.2999 -0.0733
 6554SOL     OW31120   1.562   0.656   4.084 -0.5995 -0.4951  0.0098
 6554SOL    HW131121   1.638   0.599   4.077 -0.5072 -0.3005 -0.6301
 6554SOL    HW231122   1.594   0.739   4.046 -0.5626 -0.3948  0.2595
 6555SOL     OW31123   3.137   4.243   5.211 -0.0189 -0.5928 -0.4137
 6555SOL    HW131124   3.074   4.315   5.218  0.8312  0.0397  0.5940
 6555SOL    HW231125   3.189   4.272   5.136 -1.1989  0.5602 -0.7886
 6556SOL     OW31126   4.580   3.949  17.605 -0.3353 -0.1593 -1.0131
 6556SOL    HW131127   4.635   4.014  17.649 -2.7325  2.0328 -1.2316
 6556SOL    HW231128   4.526   4.006  17.549 -0.5981  0.8838  0.3110
 6557SOL     OW31129   4.554   3.944   8.813  0.2544  0.0096  0.2699
 6557SOL    HW131130   4.559   3.851   8.835  1.3614  0.5068  2.0569
 6557SOL    HW231131   4.495   3.964   8.886 -1.0090  1.0524 -1.0342
 6558SOL     OW31132   3.834   3.982   7.215 -0.7581  0.6042  0.1194
 6558SOL    HW131133   3.777   3.905   7.213  0.2611 -0.1396 -0.1282
 6558SOL    HW231134   3.861   3.989   7.307  0.4368 -1.7891 -0.0713
 6559SOL     OW31135   4.474   1.821   8.932  0.3513  0.6172  0.3329
 6559SOL    HW131136   4.456   1.882   9.004  0.5723 -0.7519  1.5263
 6559SOL    HW231137   4.558   1.791   8.964  0.8386 -1.0246 -2.5528
 6560SOL     OW31138   4.117   0.260   7.931  0.7713  0.0656  0.4003
 6560SOL    HW131139   4.122   0.311   7.850 -2.8837 -0.9986 -0.4798
 6560SOL    HW231140   4.168   0.186   7.896  2.1022  0.3731  1.6864
 6561SOL     OW31141   3.749   0.963   3.728  0.0287  0.3542 -0.2140
 6561SOL    HW131142   3.672   0.910   3.749 -0.1445  0.7749  0.2028
 6561SOL    HW231143   3.816   0.903   3.760 -1.2538  0.7933  3.3126
 6562SOL     OW31144   2.863   2.961  12.898 -0.5913  0.0102  0.0194
 6562SOL    HW131145   2.858   3.029  12.966  3.6865 -0.1349  0.4781
 6562SOL    HW231146   2.879   2.886  12.956 -1.4415  1.5394  2.2101
 6563SOL     OW31147   3.565   1.639   5.096 -0.5281  0.4188  0.1615
 6563SOL    HW131148   3.531   1.636   5.006  1.5073 -0.3070 -0.5925
 6563SOL    HW231149   3.568   1.543   5.094 -1.4951  0.3735  1.4715
 6564SOL     OW31150   4.705   0.840  10.855  0.0350 -0.0146 -0.2410
 6564SOL    HW131151   0.037   0.861  10.929 -0.2093 -1.0694  0.2497
 6564SOL    HW231152   4.693   0.927  10.817 -1.7091  0.1350  0.6363
 6565SOL     OW31153   4.527   4.471   1.507  0.1872  0.0427 -0.0408
 6565SOL    HW131154   4.498   4.454   1.417 -0.0587  0.6072 -0.0741
 6565SOL    HW231155   4.474   4.403   1.548 -0.8048  1.0161  0.3128
 6566SOL     OW31156   1.044   4.392   2.236  0.4328  0.0141 -0.3037
 6566SOL    HW131157   1.011   4.373   2.323  0.8373  0.1686 -0.1165
 6566SOL    HW231158   1.130   4.352   2.246  0.2359 -0.1070  0.9314
 6567SOL     OW31159   4.080   1.606  12.163 -0.5321 -0.0159  0.2717
 6567SOL    HW131160   4.156   1.664  12.154  1.1077 -2.4904 -2.0892
 6567SOL    HW231161   4.051   1.592  12.072  0.9172 -2.1207  0.1375
 6568SOL     OW31162   4.394   0.645   1.566  0.0222 -0.3576  0.5884
 6568SOL    HW131163   4.470   0.591   1.588  0.0278 -0.3113  0.6809
 6568SOL    HW231164   4.312   0.600   1.588 -0.1961 -0.0405  0.4371
 6569SOL     OW31165   1.765   3.640   4.626 -0.0883  0.1211  0.1095
 6569SOL    HW131166   1.843   3.588   4.607  1.4429  2.6293 -0.6110
 6569SOL    HW231167   1.705   3.579   4.583 -1.2876  2.0285 -0.9224
 6570SOL     OW31168   0.764   4.569   4.606  0.1600 -0.0293  0.1469
 6570SOL    HW131169   0.787   4.487   4.649 -1.8287 -1.9107 -2.4038
 6570SOL    HW231170   0.736   4.627   4.677  0.5101  0.0350  0.2359
 6571SOL     OW31171   4.275   3.387   6.675 -0.5477 -0.4769  0.3216
 6571SOL    HW131172   4.213   3.454   6.648 -0.5869  0.0060  1.5815
 6571SOL    HW231173   4.207   3.321   6.662  0.6813 -1.4319 -1.2353
 6572SOL     OW31174   3.580   2.235   0.407  0.9197 -0.0785 -0.3561
 6572SOL    HW131175   3.488   2.254   0.428  1.0964 -0.5659  0.8830
 6572SOL    HW231176   3.573   2.140   0.396  1.5822 -0.2415  0.6634
 6573SOL     OW31177   1.079   0.525   5.311  0.0021 -0.6060  0.2614
 6573SOL    HW131178   1.000   0.470   5.306  0.4309 -1.4282  2.7368
 6573SOL    HW231179   1.103   0.528   5.218  0.2371  0.5950  0.3668
 6574SOL     OW31180   4.619   4.172  16.052  0.2167 -0.1332  0.1630
 6574SOL    HW131181   4.587   4.116  15.982 -1.5998  0.8865  0.1851
 6574SOL    HW231182   4.714   4.165  16.038  0.6192  0.3269  2.6023
 6575SOL     OW31183   2.584   4.259   8.444 -0.4495  0.5626  0.3346
 6575SOL    HW131184   2.636   4.182   8.469 -1.8354 -0.7192 -0.7296
 6575SOL    HW231185   2.500   4.238   8.484 -0.6879 -0.5576 -0.7592
 6576SOL     OW31186   3.816   2.640   6.052  0.1383  0.1171 -0.2050
 6576SOL    HW131187   3.784   2.586   6.124 -1.1722  0.9831 -0.1305
 6576SOL    HW231188   3.736   2.693   6.046  0.7235  1.0742  0.4650
 6577SOL     OW31189   1.820   3.382   4.224  0.0409  0.1591 -0.0090
 6577SOL    HW131190   1.807   3.319   4.153 -0.8026 -0.4967  0.7391
 6577SOL    HW231191   1.850   3.462   4.180 -0.3769 -0.0599 -0.6892
 6578SOL     OW31192   0.975   0.958  14.942 -0.1342 -0.3081 -0.1295
 6578SOL    HW131193   1.002   1.038  14.985  0.2458 -1.5899  2.0355
 6578SOL    HW231194   0.911   0.995  14.882  0.1972 -1.3429 -1.1221
 6579SOL     OW31195   2.769   1.294   5.323  0.9440 -0.0236 -0.2383
 6579SOL    HW131196   2.703   1.275   5.257 -0.7740 -1.5567  1.9254
 6579SOL    HW231197   2.738   1.374   5.366 -0.4422  0.3617 -1.9735
 6580SOL     OW31198   0.622   3.798   3.446 -0.3293  0.3999 -0.4662
 6580SOL    HW131199   0.628   3.781   3.540  0.9528  0.5687 -0.5177
 6580SOL    HW231200   0.673   3.728   3.404 -0.6890 -0.9387  1.3141
 6581SOL     OW31201   3.178   1.311   6.405  0.2547 -0.4996  0.2993
 6581SOL    HW131202   3.198   1.280   6.316  0.8484  1.6957 -0.3295
 6581SOL    HW231203   3.087   1.292   6.430 -0.0619 -2.0336 -1.9659
 6582SOL     OW31204   1.785   2.306   0.557 -0.5405 -0.3901  0.2663
 6582SOL    HW131205   1.843   2.236   0.587 -1.2102 -1.2121 -0.3596
 6582SOL    HW231206   1.764   2.281   0.467 -0.0055 -2.6386  0.7744
 6583SOL     OW31207   4.338   4.359   4.104  0.2644  0.0424  0.1071
 6583SOL    HW131208   4.302   4.279   4.066 -1.6757  0.8019  0.3741
 6583SOL    HW231209   4.281   4.378   4.179  0.4453 -0.2984  0.3303
 6584SOL     OW31210   2.517   1.343   5.960 -0.1342 -0.3398 -0.5273
 6584SOL    HW131211   2.491   1.348   5.868 -1.5589  1.2312 -0.0238
 6584SOL    HW231212   2.545   1.251   5.965  2.2416  0.5675  2.8881
 6585SOL     OW31213   3.173   4.547   5.404  0.3114 -0.3232 -0.3278
 6585SOL    HW131214   3.132   4.491   5.470  0.8967 -0.0639  0.2599
 6585SOL    HW231215   3.160   4.634   5.443  1.9455 -0.1177 -0.2248
 6586SOL     OW31216   2.425   1.407   2.446  0.1313  0.2771 -0.7115
 6586SOL    HW131217   2.479   1.333   2.473 -2.8080 -1.6504 -0.1278
 6586SOL    HW231218   2.480   1.477   2.482  1.4924 -0.5945 -1.0782
 6587SOL     OW31219   2.119   3.296   6.057  0.1518  0.1782 -0.4059
 6587SOL    HW131220   2.190   3.276   5.996  0.9521 -1.0724  0.9153
 6587SOL    HW231221   2.117   3.392   6.054 -1.8617  0.2572  2.7773
 6588SOL     OW31222   0.790   2.656   6.538 -0.5768  0.0515 -0.1659
 6588SOL    HW131223   0.777   2.742   6.497  0.1974 -0.3102 -1.1652
 6588SOL    HW231224   0.701   2.625   6.553 -0.2619 -1.6370 -1.7253
 6589SOL     OW31225   3.995   3.299   5.118  0.0618 -0.3347 -0.4639
 6589SOL    HW131226   3.952   3.239   5.180  0.4088 -0.4393 -0.3207
 6589SOL    HW231227   4.084   3.265   5.115 -0.0549 -0.7660  0.8581
 6590SOL     OW31228   2.945   2.196   1.878  0.1264 -0.2395 -0.0785
 6590SOL    HW131229   3.002   2.266   1.910 -0.3028 -0.3746  0.9558
 6590SOL    HW231230   2.956   2.211   1.783  1.5978 -0.0996  0.1121
 6591SOL     OW31231   4.542   2.521  15.275  0.5924  0.1614  0.0351
 6591SOL    HW131232   4.499   2.543  15.192 -0.5991  1.0085  0.8956
 6591SOL    HW231233   4.618   2.578  15.265 -0.0023  1.1939  1.5048
 6592SOL     OW31234   1.628   1.632   2.366 -0.0953 -0.5267 -0.1134
 6592SOL    HW131235   1.615   1.569   2.438 -0.0521 -1.3672 -0.8425
 6592SOL    HW231236   1.717   1.612   2.336 -0.9868 -1.2433 -2.2125
 6593SOL     OW31237   0.404   0.120   6.386 -0.0411 -0.0409 -0.4741
 6593SOL    HW131238   0.370   0.071   6.461  0.1775  1.2478  0.4694
 6593SOL    HW231239   0.371   0.208   6.404  0.5455  0.2577 -0.8822
 6594SOL     OW31240   4.592   2.741   7.938 -0.2206 -0.4188  0.1443
 6594SOL    HW131241   4.512   2.710   7.895 -1.5432 -0.2573  2.4921
 6594SOL    HW231242   4.607   2.833   7.916  0.8913 -0.3768  1.0829
 6595SOL     OW31243   1.548   1.483   5.930  0.5664 -0.5045  0.0945
 6595SOL    HW131244   1.591   1.415   5.879  1.0978 -0.2958  0.2602
 6595SOL    HW231245   1.617   1.515   5.990 -0.8837  3.3373 -0.2529
 6596SOL     OW31246   3.254   0.533  12.091 -1.0226  0.0027 -0.3860
 6596SOL    HW131247   3.312   0.526  12.167  1.0210 -0.5704 -1.9899
 6596SOL    HW231248   3.179   0.481  12.119 -1.1623  1.0988  1.2555
 6597SOL     OW31249   2.780   3.040   4.701 -1.1240 -0.3068  0.4944
 6597SOL    HW131250   2.830   2.959   4.691  0.8236  0.7608  1.6655
 6597SOL    HW231251   2.723   3.016   4.774 -1.9696  0.3428  0.0400
 6598SOL     OW31252   3.105   0.610  11.025  0.4701 -0.0009  0.1554
 6598SOL    HW131253   3.022   0.565  11.043  0.1665  1.4226  2.3182
 6598SOL    HW231254   3.068   0.678  10.968 -1.8035  0.4652  2.1860
 6599SOL     OW31255   0.174   3.068   9.242  0.0346  0.2846 -0.3519
 6599SOL    HW131256   0.107   3.002   9.229  0.2841 -0.0200 -0.0940
 6599SOL    HW231257   0.150   3.090   9.332  0.5155  0.7576 -0.3380
 6600SOL     OW31258   1.784   4.357   3.085 -0.3116 -0.3254 -0.0007
 6600SOL    HW131259   1.762   4.284   3.028 -0.2502  1.1357 -1.8935
 6600SOL    HW231260   1.712   4.351   3.147 -1.0988  1.3439 -0.7333
 6601SOL     OW31261   0.922   2.626   5.868  0.3791  0.0866  0.4061
 6601SOL    HW131262   1.003   2.574   5.869 -0.5745 -1.5268 -3.8153
 6601SOL    HW231263   0.888   2.621   5.957  1.9006  2.8636  1.1265
 6602SOL     OW31264   3.548   0.940  11.756  0.0992  0.2485 -0.1318
 6602SOL    HW131265   3.486   0.869  11.772  0.0751  0.0792 -0.9959
 6602SOL    HW231266   3.516   1.019  11.799 -0.2467 -0.6549  1.2578
 6603SOL     OW31267   1.883   2.521  12.733 -0.3513 -0.4311  0.1073
 6603SOL    HW131268   1.793   2.493  12.751 -0.6113  0.8830  0.8919
 6603SOL    HW231269   1.862   2.586  12.666 -1.2839 -2.2739 -1.3441
 6604SOL     OW31270   2.044   0.594   6.812 -0.2018 -0.1344 -0.0072
 6604SOL    HW131271   1.993   0.662   6.768 -0.7465  0.0720  0.9548
 6604SOL    HW231272   2.013   0.525   6.753  0.1839 -0.1127 -0.2385
 6605SOL     OW31273   2.301   1.840   2.535  0.3312  0.7897  0.2634
 6605SOL    HW131274   2.366   1.888   2.483 -1.7240  0.4376 -2.6350
 6605SOL    HW231275   2.237   1.823   2.466  0.8387  0.0369 -0.0204
 6606SOL     OW31276   4.058   3.948   4.120 -0.1623 -0.2084  0.0641
 6606SOL    HW131277   4.040   3.872   4.176  0.4219 -0.4898 -0.1266
 6606SOL    HW231278   4.032   4.015   4.184 -0.8360 -1.6095  1.2619
 6607SOL     OW31279   1.807   1.091  13.679 -0.2287  0.2704  0.0809
 6607SOL    HW131280   1.787   1.184  13.691 -1.5372  0.4521 -3.5600
 6607SOL    HW231281   1.727   1.055  13.717  0.5126 -0.8971  0.5404
 6608SOL     OW31282   3.734   4.000   1.099  0.5542 -0.2357 -0.6587
 6608SOL    HW131283   3.703   4.079   1.142  2.5334  0.6558 -0.8591
 6608SOL    HW231284   3.658   3.986   1.042  0.1474  0.0128 -0.1793
 6609SOL     OW31285   1.618   1.570   4.695  0.1612  0.1802  0.2692
 6609SOL    HW131286   1.591   1.484   4.661  1.3253 -0.6371  1.4112
 6609SOL    HW231287   1.703   1.542   4.728 -0.3029 -1.9961 -0.3731
 6610SOL     OW31288   4.009   2.335   6.266  0.1633 -0.1482 -0.5744
 6610SOL    HW131289   4.030   2.290   6.184  1.5247 -1.0416  0.2608
 6610SOL    HW231290   4.039   2.271   6.330  1.2891 -0.9705 -1.9294
 6611SOL     OW31291   4.445   0.460  14.852  0.4021 -0.3835 -0.8911
 6611SOL    HW131292   4.423   0.551  14.830 -0.0298 -0.1981  0.3066
 6611SOL    HW231293   4.403   0.419  14.776  0.2965 -2.1977  0.1594
 6612SOL     OW31294   1.253   0.157   6.755  0.3316 -0.1061 -0.6337
 6612SOL    HW131295   1.233   0.072   6.716  1.3159 -1.0915  1.0197
 6612SOL    HW231296   1.217   0.224   6.696 -1.4657  2.1753  3.0651
 6613SOL     OW31297   1.154   3.871   8.206 -0.0579  0.0763 -0.1645
 6613SOL    HW131298   1.156   3.961   8.241  0.0567  0.1266 -0.3016
 6613SOL    HW231299   1.188   3.827   8.284 -1.1983 -2.0031 -0.8347
 6614SOL     OW31300   2.379   0.815   4.193 -0.9724  0.2566 -0.6421
 6614SOL    HW131301   2.415   0.889   4.242  2.9569 -1.3490 -1.1180
 6614SOL    HW231302   2.420   0.822   4.107 -1.3421  0.5051 -0.7998
 6615SOL     OW31303   2.185   3.138   2.565 -0.2167 -0.8835  0.7539
 6615SOL    HW131304   2.145   3.101   2.644 -0.2326 -1.2499  0.5728
 6615SOL    HW231305   2.207   3.061   2.514  3.4588 -0.0593  1.0654
 6616SOL     OW31306   0.130   0.621   3.944  0.5115  0.0631  0.1644
 6616SOL    HW131307   0.052   0.565   3.947  1.2418 -0.9226  0.8256
 6616SOL    HW231308   0.108   0.687   4.009  0.4340 -0.5140  0.7185
 6617SOL     OW31309   0.075   2.494  13.353  0.5701 -0.3052  0.7779
 6617SOL    HW131310   0.119   2.476  13.436  0.2288  2.2804  1.5218
 6617SOL    HW231311   0.126   2.436  13.297  0.2610  1.0662 -0.9019
 6618SOL     OW31312   3.499   1.374   9.023 -0.0028  0.8005 -0.2279
 6618SOL    HW131313   3.559   1.353   8.951  0.4761 -1.5778  0.8689
 6618SOL    HW231314   3.419   1.350   8.977  0.2637 -1.1248  0.3135
 6619SOL     OW31315   0.090   1.313   4.251  0.0737  0.2782  0.4012
 6619SOL    HW131316   0.064   1.386   4.308  0.1510  1.1328 -0.6534
 6619SOL    HW231317   0.085   1.229   4.297 -0.9398 -1.0038 -2.0290
 6620SOL     OW31318   4.464   3.300  15.764  0.4585 -0.2611 -0.0953
 6620SOL    HW131319   4.537   3.297  15.826 -0.0772  1.0177  0.5958
 6620SOL    HW231320   4.391   3.319  15.823  0.0432  0.1060 -0.7372
 6621SOL     OW31321   2.353   0.122   5.315  0.2629  0.0333 -0.3379
 6621SOL    HW131322   2.380   0.031   5.325  1.0406  0.1840 -1.0996
 6621SOL    HW231323   2.392   0.156   5.395  0.4346  1.2137 -0.9163
 6622SOL     OW31324   1.448   4.603   7.886 -0.0437  0.4560  0.2916
 6622SOL    HW131325   1.478   4.564   7.803  0.0761 -3.3274  2.1020
 6622SOL    HW231326   1.439   4.696   7.869  2.0484  0.2215 -2.1582
 6623SOL     OW31327   0.732   1.599   2.291 -0.2817 -0.6867  0.0512
 6623SOL    HW131328   0.653   1.653   2.297 -0.9985 -1.5383 -1.7133
 6623SOL    HW231329   0.748   1.578   2.199 -0.8750 -2.0196  0.2574
 6624SOL     OW31330   1.228   2.007  16.995 -0.4766 -0.1905  0.0815
 6624SOL    HW131331   1.315   1.969  16.985  0.1570  1.5873 -1.2441
 6624SOL    HW231332   1.169   1.958  16.936  1.0019  0.2025 -1.7204
 6625SOL     OW31333   3.825   2.340   1.398 -0.3290  0.2057  0.0155
 6625SOL    HW131334   3.858   2.254   1.422 -0.2524 -0.3808 -2.2698
 6625SOL    HW231335   3.900   2.398   1.405 -1.3256  1.1298  3.1695
 6626SOL     OW31336   1.887   2.156  13.152 -0.3610 -0.4921  0.6365
 6626SOL    HW131337   1.835   2.197  13.083  2.1555  0.6566 -0.5846
 6626SOL    HW231338   1.907   2.216  13.223 -1.7309 -0.4302  0.9727
 6627SOL     OW31339   3.188   3.823  16.788  0.0644 -0.0983 -0.0430
 6627SOL    HW131340   3.267   3.835  16.840 -0.0871 -2.2412  0.6500
 6627SOL    HW231341   3.222   3.764  16.721 -3.5191 -2.2314  0.0060
 6628SOL     OW31342   2.255   1.920   8.982  0.3989 -0.8727  0.0195
 6628SOL    HW131343   2.249   1.826   8.968  0.6441 -0.6931 -1.2572
 6628SOL    HW231344   2.245   1.928   9.077 -0.6340 -2.0669  0.0141
 6629SOL     OW31345   2.488   4.374  10.301 -0.1841 -0.1443 -0.3907
 6629SOL    HW131346   2.516   4.447  10.356 -2.3984 -0.0268  0.6147
 6629SOL    HW231347   2.419   4.333  10.354 -1.6511  2.2862 -0.3937
 6630SOL     OW31348   3.024   3.183   2.496  0.0747  0.0470  0.8219
 6630SOL    HW131349   2.976   3.228   2.427 -0.3934  0.3823  1.3641
 6630SOL    HW231350   2.961   3.117   2.524 -0.5626 -0.5040 -1.9314
 6631SOL     OW31351   0.678   1.844   9.231 -0.2505 -0.6496  0.3485
 6631SOL    HW131352   0.750   1.906   9.242 -0.8893  0.1574 -0.0192
 6631SOL    HW231353   0.635   1.869   9.312  1.3241 -0.4067  1.1061
 6632SOL     OW31354   4.026   3.819   7.119 -0.2339 -0.3968 -0.4181
 6632SOL    HW131355   4.087   3.877   7.164 -1.9322  2.5304 -1.9402
 6632SOL    HW231356   3.953   3.881   7.116 -0.3513 -0.6462 -2.6046
 6633SOL     OW31357   4.441   2.397   1.852 -0.2113 -0.1121  0.2289
 6633SOL    HW131358   4.488   2.476   1.881  3.6139 -1.5652 -2.1338
 6633SOL    HW231359   4.499   2.331   1.890 -0.0192 -0.9877 -1.6079
 6634SOL     OW31360   3.097   4.209   4.839  0.3849 -0.2759  0.1654
 6634SOL    HW131361   3.037   4.262   4.891 -2.6990 -1.2862 -2.4160
 6634SOL    HW231362   3.074   4.221   4.747  0.2862  0.3483  0.2709
 6635SOL     OW31363   1.264   1.338  16.201  0.0157  0.1069 -0.1908
 6635SOL    HW131364   1.224   1.395  16.266 -0.6557 -1.8019  1.0529
 6635SOL    HW231365   1.304   1.284  16.269 -2.1670  1.8415  2.4171
 6636SOL     OW31366   1.620   1.508  11.548  0.2700 -0.6213 -0.2813
 6636SOL    HW131367   1.583   1.564  11.480 -1.9606 -1.0247  0.6208
 6636SOL    HW231368   1.712   1.490  11.526  1.0873  1.6952  1.2450
 6637SOL     OW31369   0.426   2.830   2.631  0.1301 -0.2322 -0.0647
 6637SOL    HW131370   0.494   2.861   2.691  1.2376  0.5492 -1.7170
 6637SOL    HW231371   0.463   2.866   2.551 -3.3476  0.3493 -1.3991
 6638SOL     OW31372   3.763   4.390   6.239  0.5061 -0.2230 -0.3550
 6638SOL    HW131373   3.823   4.460   6.262 -0.5715  0.3282  0.8175
 6638SOL    HW231374   3.795   4.313   6.286  2.1321  2.0441  2.1918
 6639SOL     OW31375   4.424   1.165   1.240 -0.0100 -0.3112 -0.2129
 6639SOL    HW131376   4.507   1.189   1.199 -1.3202  0.4008 -2.4493
 6639SOL    HW231377   4.400   1.078   1.207 -0.4490  0.4105 -1.7884
 6640SOL     OW31378   2.695   2.232   4.800 -0.1675 -0.3542 -0.0397
 6640SOL    HW131379   2.643   2.265   4.874  0.0203  2.1988 -1.0422
 6640SOL    HW231380   2.654   2.151   4.768  1.8577 -2.0451  1.6511
 6641SOL     OW31381   1.884   1.938   6.349  0.5554  0.3544  0.2258
 6641SOL    HW131382   1.846   1.895   6.272  0.2898  0.3860  0.3389
 6641SOL    HW231383   1.889   1.866   6.412  0.5859  0.4504  0.3325
 6642SOL     OW31384   0.791   4.280   9.143  0.0490 -0.9379 -0.3925
 6642SOL    HW131385   0.754   4.358   9.104  0.8342 -0.2126  0.3137
 6642SOL    HW231386   0.710   4.247   9.183 -0.3122 -0.2490 -0.5672
 6643SOL     OW31387   1.093   4.562   6.885  0.0156  0.6207 -0.2779
 6643SOL    HW131388   1.140   4.606   6.814  1.0663 -0.8454 -0.4849
 6643SOL    HW231389   1.154   4.573   6.958 -0.8856 -0.5508  0.6730
 6644SOL     OW31390   4.462   1.551   4.627  0.1898 -0.7386 -0.2788
 6644SOL    HW131391   4.419   1.465   4.628 -1.3166  0.0078 -1.2162
 6644SOL    HW231392   4.426   1.586   4.708  0.5563  1.8305 -1.2116
 6645SOL     OW31393   2.373   2.811   8.902 -0.1295 -0.1742 -0.1559
 6645SOL    HW131394   2.409   2.776   8.984 -4.0760 -1.0114  1.2605
 6645SOL    HW231395   2.292   2.761   8.892 -0.3610  0.1594  0.0450
 6646SOL     OW31396   3.917   3.665   8.556  0.0126 -0.3161  0.2938
 6646SOL    HW131397   3.884   3.739   8.504 -1.0343  0.4220  1.9912
 6646SOL    HW231398   3.998   3.701   8.592 -0.0397 -0.2181  0.3135
 6647SOL     OW31399   1.750   3.068  14.354  0.2243 -0.4298 -0.4621
 6647SOL    HW131400   1.681   3.100  14.296 -0.0357 -1.1466 -0.5446
 6647SOL    HW231401   1.826   3.056  14.298  0.8503 -1.0847  0.5275
 6648SOL     OW31402   1.011   1.380  14.801 -0.2528 -0.2678 -0.1560
 6648SOL    HW131403   0.946   1.310  14.795 -2.1946  1.6081 -0.9210
 6648SOL    HW231404   0.974   1.448  14.745  0.5182  0.6051  0.3892
 6649SOL     OW31405   2.974   2.060   3.617  0.3873 -0.1867 -0.4013
 6649SOL    HW131406   2.905   2.023   3.672  0.5501  0.1695  0.0368
 6649SOL    HW231407   2.959   2.153   3.599  0.3932 -0.0192  0.4407
 6650SOL     OW31408   3.036   0.392   0.932  0.1150 -0.4084 -0.3522
 6650SOL    HW131409   3.057   0.420   0.843  0.2023  0.1097 -0.1641
 6650SOL    HW231410   2.952   0.437   0.944 -0.5522 -1.8135  0.2854
 6651SOL     OW31411   2.478   1.688   8.726  0.2278  0.4429  0.1592
 6651SOL    HW131412   2.517   1.716   8.809 -0.9934 -0.7039  1.1190
 6651SOL    HW231413   2.388   1.687   8.760  0.7925 -0.0791  1.6483
 6652SOL     OW31414   4.335   2.747  15.696 -0.5765  0.1072  0.3309
 6652SOL    HW131415   4.399   2.704  15.640 -0.6663  1.5355 -0.8686
 6652SOL    HW231416   4.253   2.734  15.648  0.5383 -2.3721 -0.8651
 6653SOL     OW31417   4.236   0.002  11.297 -0.0794 -0.5593 -0.0184
 6653SOL    HW131418   4.215   0.095  11.295 -1.3046 -0.7776  1.9773
 6653SOL    HW231419   4.159   4.695  11.346 -0.5688  3.0331  1.5353
 6654SOL     OW31420   2.329   2.178   6.410 -0.1471 -0.0425  0.4877
 6654SOL    HW131421   2.402   2.117   6.400 -1.2876 -0.9371 -2.2718
 6654SOL    HW231422   2.271   2.125   6.358  0.8532 -1.0654  0.4193
 6655SOL     OW31423   2.450   0.620  16.413  0.3324  0.2614  0.2864
 6655SOL    HW131424   2.520   0.555  16.418 -0.8775 -0.9559  1.1770
 6655SOL    HW231425   2.385   0.552  16.430  1.3673 -1.4022 -2.4349
 6656SOL     OW31426   0.031   1.454   4.902 -0.2246  0.2769 -0.0791
 6656SOL    HW131427   0.041   1.542   4.868 -1.0628 -0.0098 -1.0753
 6656SOL    HW231428   0.030   1.466   4.997  0.6495 -3.2562  0.3986
 6657SOL     OW31429   1.505   3.985  14.235  0.0830 -0.3796  0.1292
 6657SOL    HW131430   1.536   4.058  14.289 -1.7933 -0.1491  0.8578
 6657SOL    HW231431   1.427   3.957  14.282 -1.8076  2.1668 -1.5016
 6658SOL     OW31432   3.225   0.741  14.998 -0.1178 -0.4047 -0.1868
 6658SOL    HW131433   3.294   0.808  14.993 -1.9784  1.4824 -0.6341
 6658SOL    HW231434   3.175   0.797  15.058  2.0606  1.3022  0.0271
 6659SOL     OW31435   3.136   2.900   0.614 -0.3886  0.3440  0.0915
 6659SOL    HW131436   3.097   2.964   0.554 -1.0712  1.3075  1.5303
 6659SOL    HW231437   3.222   2.892   0.574 -0.5991 -1.7077  0.0614
 6660SOL     OW31438   0.757   2.072   4.993  0.3942 -0.0081  0.4468
 6660SOL    HW131439   0.819   2.005   4.964  2.3459  2.4142 -1.0431
 6660SOL    HW231440   0.769   2.131   4.919  2.3610  2.0034  2.3427
 6661SOL     OW31441   3.798   3.226  14.468  1.2363 -0.0339 -0.4807
 6661SOL    HW131442   3.708   3.242  14.441  1.1614 -1.3747 -1.0173
 6661SOL    HW231443   3.839   3.312  14.467 -0.2392  0.6899  0.6313
 6662SOL     OW31444   1.572   0.875   3.009  0.0183 -0.4314  0.2719
 6662SOL    HW131445   1.535   0.791   2.983  0.5350 -0.7523  0.5625
 6662SOL    HW231446   1.662   0.856   2.984  0.3472  0.2682  0.9145
 6663SOL     OW31447   2.972   2.734   3.813 -0.0774 -0.0544  0.3703
 6663SOL    HW131448   2.941   2.663   3.756  0.8799 -1.5983  1.7896
 6663SOL    HW231449   2.945   2.813   3.765  1.5036  0.7476  0.8061
 6664SOL     OW31450   2.472   3.407   6.150 -0.6417  0.5239  0.2353
 6664SOL    HW131451   2.504   3.389   6.238 -1.5620  1.7054  0.8096
 6664SOL    HW231452   2.453   3.320   6.115 -0.9856  1.4850 -1.9840
 6665SOL     OW31453   3.688   2.267   0.889  0.5321  0.0033  0.0755
 6665SOL    HW131454   3.618   2.318   0.849  1.9756  1.8244 -0.0956
 6665SOL    HW231455   3.708   2.326   0.961  1.8377 -2.1723  1.4916
 6666SOL     OW31456   3.960   1.778  16.723  0.1119 -0.1988 -0.2557
 6666SOL    HW131457   4.041   1.830  16.722  0.4139 -0.6596  0.4991
 6666SOL    HW231458   3.891   1.810  16.664  0.1515 -0.5447 -0.4893
 6667SOL     OW31459   2.610   0.685   8.518 -0.2701  0.0979 -0.2819
 6667SOL    HW131460   2.524   0.687   8.476 -0.3950 -1.1886 -0.0772
 6667SOL    HW231461   2.660   0.670   8.437 -0.1852  1.3280 -0.4536
 6668SOL     OW31462   2.419   4.274  14.567 -0.0828 -0.3870  0.3927
 6668SOL    HW131463   2.399   4.298  14.477 -2.1476  0.9762  1.2243
 6668SOL    HW231464   2.394   4.358  14.605  1.4758 -0.7388  2.1898
 6669SOL     OW31465   3.046   2.507   3.105  0.0302 -0.3001 -0.3838
 6669SOL    HW131466   3.081   2.504   3.194 -1.8427 -1.6952  0.3099
 6669SOL    HW231467   3.054   2.600   3.082 -2.2702  0.2205  0.9227
 6670SOL     OW31468   3.507   3.855  16.511 -0.3422  0.3951 -0.4556
 6670SOL    HW131469   3.460   3.781  16.550 -0.0800  0.4012 -0.1212
 6670SOL    HW231470   3.487   3.929  16.568 -0.9654  1.5007 -2.1421
 6671SOL     OW31471   1.737   4.605   8.459  0.1513  0.3429 -0.5570
 6671SOL    HW131472   1.740   4.635   8.368  2.4398 -3.3501 -1.6993
 6671SOL    HW231473   1.656   4.647   8.486  1.3447  1.6118  1.0287
 6672SOL     OW31474   2.789   4.655   6.280  0.4495 -0.8647 -0.3768
 6672SOL    HW131475   2.790   0.024   6.261 -0.4337 -0.5499  1.1728
 6672SOL    HW231476   2.768   4.654   6.373  1.3328 -2.1084 -0.1782
 6673SOL     OW31477   1.330   1.109   4.600  0.0038 -0.5993  1.0388
 6673SOL    HW131478   1.366   1.117   4.689 -1.5138 -1.0071  1.6719
 6673SOL    HW231479   1.257   1.051   4.616  0.0453 -0.9561 -0.0800
 6674SOL     OW31480   3.184   0.977   5.266  0.1697 -0.0895  0.0517
 6674SOL    HW131481   3.278   0.990   5.276 -0.0555  0.7567  1.1286
 6674SOL    HW231482   3.172   0.908   5.330 -0.0008 -0.8444 -0.7895
 6675SOL     OW31483   3.178   0.587  16.202  0.3436  0.1075  0.7165
 6675SOL    HW131484   3.141   0.501  16.181  0.2168  1.1998 -3.4813
 6675SOL    HW231485   3.194   0.580  16.296  2.7806  1.3396  0.3766
 6676SOL     OW31486   2.064   0.437   4.139  0.3653 -0.8547 -0.3284
 6676SOL    HW131487   2.154   0.435   4.171 -0.6243 -2.7579  2.3206
 6676SOL    HW231488   2.083   0.477   4.054 -0.1281  0.4142  0.1625
 6677SOL     OW31489   3.998   1.153  10.210  0.3350  0.2384 -0.2222
 6677SOL    HW131490   3.995   1.103  10.292 -0.4254  2.3447  1.0203
 6677SOL    HW231491   4.079   1.198  10.236  0.8531 -1.0196  0.3958
 6678SOL     OW31492   0.508   2.385   2.601  0.0576 -0.2870  0.0669
 6678SOL    HW131493   0.603   2.396   2.598 -0.0215 -0.1630 -2.0822
 6678SOL    HW231494   0.497   2.306   2.654 -1.5150 -0.8066 -1.0106
 6679SOL     OW31495   3.009   0.884   4.795 -0.4801  0.3080  0.6509
 6679SOL    HW131496   2.962   0.944   4.853 -0.7147 -0.2666  1.0574
 6679SOL    HW231497   3.094   0.882   4.839 -0.1879 -1.4855 -0.0282
 6680SOL     OW31498   1.636   0.369   7.382  0.4316  0.7519 -0.0742
 6680SOL    HW131499   1.730   0.381   7.366  0.5413 -1.3800 -1.0198
 6680SOL    HW231500   1.615   0.277   7.398  0.4137  0.5774 -1.0780
 6681SOL     OW31501   4.610   4.415   8.115  0.1634 -0.2794 -0.1048
 6681SOL    HW131502   4.612   4.321   8.098  0.3717 -0.2792 -0.0875
 6681SOL    HW231503   4.522   4.420   8.078  0.2364 -0.5693 -0.3226
 6682SOL     OW31504   4.186   2.184   7.449  0.0830  0.1973 -0.1925
 6682SOL    HW131505   4.200   2.175   7.354 -0.6635  0.1491 -0.2976
 6682SOL    HW231506   4.228   2.108   7.489  0.6841  0.3503 -0.5381
 6683SOL     OW31507   0.798   0.321  11.549 -0.0465  0.0396  0.4067
 6683SOL    HW131508   0.877   0.358  11.588 -0.5137  1.6451 -0.1594
 6683SOL    HW231509   0.738   0.305  11.621 -0.7881 -1.9659 -0.6422
 6684SOL     OW31510   0.353   2.624   4.654 -0.0165 -0.4472 -0.5695
 6684SOL    HW131511   0.428   2.583   4.696 -0.5984 -0.6021  0.3425
 6684SOL    HW231512   0.374   2.614   4.561  0.0885 -1.7728 -0.4007
 6685SOL     OW31513   2.198   2.395   6.555  0.0774 -0.0678 -0.0422
 6685SOL    HW131514   2.208   2.301   6.539 -0.4577  0.3516 -2.8204
 6685SOL    HW231515   2.161   2.429   6.474 -1.7178  2.0107  1.6489
 6686SOL     OW31516   3.446   3.588   1.023 -0.4078 -0.0650 -0.1740
 6686SOL    HW131517   3.424   3.501   0.990 -0.2212  0.2320 -1.0812
 6686SOL    HW231518   3.508   3.627   0.961 -2.1953 -0.3369 -2.1077
 6687SOL     OW31519   3.011   0.420   4.410 -0.0024  0.3065  0.3325
 6687SOL    HW131520   3.036   0.511   4.425  0.7551  0.3682 -1.2922
 6687SOL    HW231521   2.923   0.437   4.377  0.3671  0.9091 -0.3274
 6688SOL     OW31522   1.602   4.299   5.532  0.2626 -0.2608  0.0168
 6688SOL    HW131523   1.608   4.371   5.595  1.5442 -0.8298  0.5432
 6688SOL    HW231524   1.515   4.264   5.551  0.6802 -1.2497  0.0713
 6689SOL     OW31525   4.631   0.892  17.415  0.0282  0.5628  0.0740
 6689SOL    HW131526   4.601   0.983  17.414 -0.9068  0.2667  0.3186
 6689SOL    HW231527   4.691   0.887  17.490 -0.4064  0.5158  0.4230
 6690SOL     OW31528   3.646   0.379   3.534  0.1449 -0.3238  0.1773
 6690SOL    HW131529   3.724   0.347   3.580 -0.7961 -1.4959  0.9474
 6690SOL    HW231530   3.648   0.472   3.554  1.1667  0.0913 -1.9123
 6691SOL     OW31531   1.038   4.236  10.882  0.0103  0.4142  0.4493
 6691SOL    HW131532   0.975   4.251  10.953 -1.5610  1.1911 -1.0977
 6691SOL    HW231533   1.088   4.165  10.921  1.0133 -0.1424 -1.8641
 6692SOL     OW31534   3.955   4.377   4.855 -0.7538  0.7031  0.0752
 6692SOL    HW131535   3.949   4.414   4.943  1.3377  0.6069  0.2639
 6692SOL    HW231536   4.018   4.437   4.813  2.1792 -1.1921  1.7608
 6693SOL     OW31537   2.533   2.112   6.091 -0.6098  0.3743 -0.1251
 6693SOL    HW131538   2.621   2.090   6.061 -0.9191 -0.3424 -0.5103
 6693SOL    HW231539   2.472   2.044   6.063 -0.9749  1.4607 -1.9271
 6694SOL     OW31540   2.265   1.668   4.620 -0.0019  0.3861 -0.2367
 6694SOL    HW131541   2.292   1.596   4.564  1.8524  0.9057 -0.0117
 6694SOL    HW231542   2.170   1.675   4.616 -0.1929 -0.1285  3.3108
 6695SOL     OW31543   1.663   4.170  13.842 -0.1334  0.1687 -0.5891
 6695SOL    HW131544   1.649   4.263  13.861 -2.5122 -0.4352  0.6987
 6695SOL    HW231545   1.725   4.158  13.914 -0.3707  1.7081 -0.1366
 6696SOL     OW31546   2.717   2.515  14.489 -0.3419 -0.4312  0.3086
 6696SOL    HW131547   2.661   2.482  14.418  0.8508 -0.6509 -0.5325
 6696SOL    HW231548   2.777   2.567  14.436 -0.8318 -2.0885 -1.9241
 6697SOL     OW31549   3.581   4.039  17.173 -0.0301 -0.1674  0.3873
 6697SOL    HW131550   3.517   4.046  17.244  0.0602  0.0963  0.4412
 6697SOL    HW231551   3.533   3.986  17.109  3.7438 -0.4810 -2.1696
 6698SOL     OW31552   3.269   1.570  16.673  0.2770 -0.6190  0.0840
 6698SOL    HW131553   3.322   1.626  16.616  2.6360 -1.4609  1.4188
 6698SOL    HW231554   3.228   1.626  16.738  0.1816 -1.1964  0.5192
 6699SOL     OW31555   0.681   3.115   3.335  0.2097 -0.0650  0.8857
 6699SOL    HW131556   0.695   3.038   3.391 -0.9051 -1.8357 -1.3022
 6699SOL    HW231557   0.590   3.128   3.361 -1.3096 -0.7043 -4.1536
 6700SOL     OW31558   2.682   4.244   6.313  0.0169  0.3600 -0.3759
 6700SOL    HW131559   2.774   4.262   6.294 -0.3187  0.7995 -1.5388
 6700SOL    HW231560   2.673   4.273   6.404 -1.2502  2.4501 -1.1767
 6701SOL     OW31561   0.492   3.824   5.110  0.6182  0.4637 -0.0169
 6701SOL    HW131562   0.419   3.770   5.079  0.1007  1.2503 -0.1484
 6701SOL    HW231563   0.557   3.810   5.041  0.8618  2.5897 -0.2158
 6702SOL     OW31564   2.416   0.687   3.713  0.0104  0.5401 -0.0148
 6702SOL    HW131565   2.369   0.610   3.679  0.7379  0.8738 -1.7862
 6702SOL    HW231566   2.489   0.699   3.652  0.0392 -0.4479 -0.1795
 6703SOL     OW31567   2.748   4.163  10.909  0.0512  0.5204  0.1450
 6703SOL    HW131568   2.774   4.144  11.000 -0.6584 -0.9332  0.0468
 6703SOL    HW231569   2.663   4.119  10.908  0.6352 -0.5989 -0.0709
 6704SOL     OW31570   3.534   4.298   6.815 -0.2160  0.4262  0.4282
 6704SOL    HW131571   3.580   4.253   6.744 -1.5203 -0.0472 -0.1101
 6704SOL    HW231572   3.602   4.346   6.862  1.0742 -0.7190 -0.2931
 6705SOL     OW31573   2.538   1.143   1.669  0.7125  0.2602  0.8213
 6705SOL    HW131574   2.541   1.058   1.626 -2.2380  0.7603 -0.3601
 6705SOL    HW231575   2.463   1.174   1.618 -0.4410 -1.3756  1.4980
 6706SOL     OW31576   3.541   3.806  10.929 -0.2266  0.4095  0.0061
 6706SOL    HW131577   3.623   3.778  10.890 -0.5334  1.7551 -1.6332
 6706SOL    HW231578   3.500   3.861  10.862 -3.1165 -0.2939  1.1689
 6707SOL     OW31579   3.541   2.034   2.600  0.0159 -0.2397 -0.9178
 6707SOL    HW131580   3.630   2.032   2.635 -0.3774 -3.6188 -0.0888
 6707SOL    HW231581   3.553   2.000   2.512  1.2993 -1.9716 -0.0752
 6708SOL     OW31582   1.550   3.549   2.182 -0.7709 -0.5508  0.3294
 6708SOL    HW131583   1.628   3.604   2.194  0.2188 -1.8100 -0.3698
 6708SOL    HW231584   1.486   3.597   2.234 -1.0165  0.3826 -0.8434
 6709SOL     OW31585   2.729   3.935   7.923 -0.2485  0.5256 -0.2123
 6709SOL    HW131586   2.642   3.922   7.961 -1.5496  1.8959 -2.7434
 6709SOL    HW231587   2.784   3.949   8.001  0.9765 -0.2900 -0.9263
 6710SOL     OW31588   4.257   4.563   5.027 -0.0912  0.5431 -0.5029
 6710SOL    HW131589   4.225   4.475   5.006  1.7465  0.4107 -2.6709
 6710SOL    HW231590   4.318   4.580   4.956  1.4456  2.1503  1.2133
 6711SOL     OW31591   1.160   1.925   6.905  0.3402  0.1902  0.5086
 6711SOL    HW131592   1.251   1.912   6.931  0.7652 -0.9071 -1.5497
 6711SOL    HW231593   1.154   1.862   6.834  1.5917  0.4133  0.2185
 6712SOL     OW31594   2.272   3.555  10.142  0.2430 -0.6676 -0.4628
 6712SOL    HW131595   2.366   3.540  10.156  0.2475  1.4538  1.6497
 6712SOL    HW231596   2.245   3.471  10.180  0.4035 -0.7344 -0.4932
 6713SOL     OW31597   2.491   2.088   5.561  0.7380  0.4641  0.1350
 6713SOL    HW131598   2.498   2.020   5.627  0.2204 -0.3566 -0.6587
 6713SOL    HW231599   2.452   2.162   5.608 -0.9822 -1.1196  1.1829
 6714SOL     OW31600   1.218   0.003   3.042  0.2719  0.4910 -0.7086
 6714SOL    HW131601   1.218   4.632   3.051  2.7913  0.6044  0.4060
 6714SOL    HW231602   1.167   0.027   3.120 -0.6390 -0.3014 -1.0620
 6715SOL     OW31603   4.627   2.250   5.833 -0.3356 -0.2284 -0.0544
 6715SOL    HW131604   4.711   2.259   5.787 -0.7960 -0.8090 -1.0088
 6715SOL    HW231605   4.576   2.295   5.765  0.1133 -0.4944 -0.5749
 6716SOL     OW31606   3.884   3.424  12.590 -0.4918 -0.0241  0.4077
 6716SOL    HW131607   3.944   3.400  12.661 -1.2541 -1.9061  0.4191
 6716SOL    HW231608   3.835   3.344  12.571  1.2412  0.0777 -4.3590
 6717SOL     OW31609   1.994   4.573  10.872  0.3392  0.5693  0.3007
 6717SOL    HW131610   2.044   4.495  10.898 -0.4048  1.2043  3.7034
 6717SOL    HW231611   1.946   4.599  10.951 -0.1903  1.2731 -0.2581
 6718SOL     OW31612   0.413   4.079  11.536  0.1869 -0.1868  0.1342
 6718SOL    HW131613   0.336   4.094  11.481  0.0665 -0.0937  0.3284
 6718SOL    HW231614   0.387   4.044  11.621  4.1396 -0.7753  1.0986
 6719SOL     OW31615   1.668   2.737   2.490  0.3556  0.1187 -0.6184
 6719SOL    HW131616   1.574   2.750   2.484  0.6447  2.8443  0.8372
 6719SOL    HW231617   1.684   2.719   2.398 -0.9659  0.2446 -0.8577
 6720SOL     OW31618   2.994   3.025   2.963  0.2477  0.5264  0.2535
 6720SOL    HW131619   2.973   3.118   2.956  0.1034  0.6532  2.3023
 6720SOL    HW231620   3.004   3.012   3.057 -0.8574  1.1263  0.4584
 6721SOL     OW31621   2.496   2.683   0.622  0.9012  0.1226 -0.0240
 6721SOL    HW131622   2.492   2.767   0.669  0.1082  0.7138 -1.1444
 6721SOL    HW231623   2.491   2.613   0.686 -1.2079 -0.2823 -0.6483
 6722SOL     OW31624   0.221   4.491   7.700  0.5167  0.2722 -0.0038
 6722SOL    HW131625   0.237   4.586   7.694 -1.8074  0.6875  0.1446
 6722SOL    HW231626   0.198   4.499   7.793 -1.0949 -1.7993 -0.2359
 6723SOL     OW31627   2.202   2.768   6.272 -0.0183 -0.5214 -0.6572
 6723SOL    HW131628   2.155   2.685   6.270  0.3570 -0.7114 -1.4218
 6723SOL    HW231629   2.245   2.761   6.187 -2.1641  0.1181 -1.7938
 6724SOL     OW31630   0.806   1.379   8.353 -0.1356 -0.1752 -0.0779
 6724SOL    HW131631   0.803   1.370   8.258  1.4469  0.0662 -0.1611
 6724SOL    HW231632   0.891   1.423   8.362  0.0034 -0.6429  0.9164
 6725SOL     OW31633   1.581   2.709   1.093  0.2779  0.2025 -0.5274
 6725SOL    HW131634   1.504   2.759   1.065 -0.0156 -0.1404 -0.3345
 6725SOL    HW231635   1.538   2.645   1.149  0.9500 -0.9256 -1.2909
 6726SOL     OW31636   1.989   1.536   1.104 -0.0359  0.3042 -0.2960
 6726SOL    HW131637   1.929   1.547   1.030  0.3999  1.3365 -0.4838
 6726SOL    HW231638   1.930   1.516   1.177  2.3332  0.1606  1.5817
 6727SOL     OW31639   2.702   4.193   5.993  0.2045  0.8710  0.1481
 6727SOL    HW131640   2.660   4.243   6.064  0.0963 -1.0368  1.4348
 6727SOL    HW231641   2.679   4.101   6.007  0.5782  0.5179 -1.5512
 6728SOL     OW31642   4.700   0.470   5.742 -0.3195 -0.1192 -0.0704
 6728SOL    HW131643   4.686   0.540   5.806  2.7217 -0.4669  0.9663
 6728SOL    HW231644   0.040   0.412   5.783 -1.8198 -1.3847  0.5256
 6729SOL     OW31645   0.848   0.663  11.258 -0.3774 -0.3535 -0.0177
 6729SOL    HW131646   0.814   0.704  11.338  2.2248 -2.0412  1.9914
 6729SOL    HW231647   0.821   0.572  11.267 -1.6318 -0.0137 -0.3618
 6730SOL     OW31648   3.560   3.025   8.296  0.2712  0.3342 -0.1032
 6730SOL    HW131649   3.585   3.031   8.388 -0.4211  0.5572  0.0766
 6730SOL    HW231650   3.473   3.063   8.310  0.3436  0.2669  0.5279
 6731SOL     OW31651   3.609   0.998   6.555  0.7632  0.5401  0.5301
 6731SOL    HW131652   3.674   1.043   6.610  1.1288  0.6612 -0.0007
 6731SOL    HW231653   3.663   0.958   6.487 -3.2916 -0.4340 -2.0714
 6732SOL     OW31654   3.239   0.891   4.498 -0.1517  0.8275 -0.1431
 6732SOL    HW131655   3.276   0.822   4.554  0.6088  3.0648  2.1015
 6732SOL    HW231656   3.259   0.970   4.547 -0.9846  1.4114 -0.7581
 6733SOL     OW31657   0.834   2.014   0.196  0.1097 -0.0730  0.3058
 6733SOL    HW131658   0.825   2.109   0.208  1.5238  0.1581 -0.5430
 6733SOL    HW231659   0.927   2.010   0.174  0.1488 -1.8766  0.8329
 6734SOL     OW31660   1.362   4.269   3.650 -0.4284  0.4196 -0.4270
 6734SOL    HW131661   1.274   4.265   3.611 -0.0826 -0.5322 -1.1335
 6734SOL    HW231662   1.412   4.327   3.593 -1.5156  2.9500  1.2173
 6735SOL     OW31663   0.168   0.223   5.572 -0.4247 -0.2521  0.3312
 6735SOL    HW131664   0.165   0.234   5.667  1.4187 -1.3175  0.5308
 6735SOL    HW231665   0.080   0.194   5.548  0.3423 -1.1222 -1.4459
 6736SOL     OW31666   0.303   0.950   7.237  0.2738 -0.0209  0.1091
 6736SOL    HW131667   0.308   1.044   7.218 -3.7720 -0.0951 -1.3897
 6736SOL    HW231668   0.305   0.916   7.147  0.2397 -1.1807  0.5539
 6737SOL     OW31669   2.617   4.607   4.365  0.0235  0.2629 -0.4078
 6737SOL    HW131670   2.707   4.597   4.394 -0.1541 -1.1467 -0.3065
 6737SOL    HW231671   2.620   4.580   4.274 -2.9624 -3.3705  0.5351
 6738SOL     OW31672   0.179   3.177   3.176 -0.5357 -0.0880 -0.0600
 6738SOL    HW131673   0.184   3.216   3.088  1.8026 -0.8948 -0.2843
 6738SOL    HW231674   0.272   3.154   3.164 -1.3550 -3.4806  0.1862
 6739SOL     OW31675   2.434   1.272   1.133  0.5037  0.5319 -0.0867
 6739SOL    HW131676   2.501   1.341   1.134  3.1777 -2.1072  4.6197
 6739SOL    HW231677   2.355   1.317   1.163 -0.7811 -2.5569  1.1576
 6740SOL     OW31678   3.448   2.479   4.509 -0.2925 -0.2452  0.2471
 6740SOL    HW131679   3.443   2.540   4.583  1.5894 -0.0620  0.2083
 6740SOL    HW231680   3.540   2.497   4.492 -1.1505  1.5136 -2.4543
 6741SOL     OW31681   2.730   3.136   0.669  0.4169  0.2704  0.2861
 6741SOL    HW131682   2.679   3.070   0.715  2.2345  0.3130  2.3812
 6741SOL    HW231683   2.808   3.146   0.723  1.7210 -0.6966 -1.4027
 6742SOL     OW31684   0.057   1.507   2.552 -0.2195 -0.3452 -0.2131
 6742SOL    HW131685   4.716   1.563   2.594  0.5351  0.8336 -0.6013
 6742SOL    HW231686   0.078   1.442   2.619 -0.5019 -0.4272 -0.2043
 6743SOL     OW31687   1.861   3.485   9.288 -0.3463  0.0166  0.6381
 6743SOL    HW131688   1.920   3.477   9.213 -0.5325  1.1882  0.3752
 6743SOL    HW231689   1.779   3.489   9.238  0.1837 -4.2922 -0.5900
 6744SOL     OW31690   4.193   3.308  10.277  0.1793  0.5196 -0.1679
 6744SOL    HW131691   4.246   3.346  10.207  0.6554 -0.0940 -0.1382
 6744SOL    HW231692   4.115   3.364  10.273 -0.0429  0.2754  0.7937
 6745SOL     OW31693   1.657   2.010   4.066 -0.0564  0.0063 -0.2831
 6745SOL    HW131694   1.567   1.977   4.068  0.2291 -0.7374  0.2457
 6745SOL    HW231695   1.688   2.007   4.156 -0.1464 -0.3606 -0.2635
 6746SOL     OW31696   2.202   3.304   7.278  0.2595 -0.0347  0.5746
 6746SOL    HW131697   2.222   3.341   7.192 -2.8513 -0.8378 -0.5075
 6746SOL    HW231698   2.127   3.248   7.255  0.4875  0.7536 -2.0942
 6747SOL     OW31699   0.676   2.246   0.859 -0.2030 -0.0864  0.0338
 6747SOL    HW131700   0.609   2.183   0.887 -0.8079 -0.3180 -1.9553
 6747SOL    HW231701   0.612   2.316   0.846 -0.3710  0.0506  1.5988
 6748SOL     OW31702   3.284   1.315   8.395  0.4090  0.1230  0.2879
 6748SOL    HW131703   3.249   1.385   8.339  2.5264  0.0630 -1.1022
 6748SOL    HW231704   3.231   1.325   8.475 -0.0326  0.1632 -0.0089
 6749SOL     OW31705   4.081   1.192   2.159  0.0649  0.3455  0.1861
 6749SOL    HW131706   4.056   1.100   2.155  1.0883  0.0742  0.1313
 6749SOL    HW231707   4.158   1.196   2.103 -0.5637 -0.7035 -0.7615
 6750SOL     OW31708   0.318   2.735   9.183  0.2612  0.2663  0.5947
 6750SOL    HW131709   0.413   2.718   9.180  0.3872  0.7200  1.7734
 6750SOL    HW231710   0.308   2.730   9.278  1.1963 -0.0889  0.6771
 6751SOL     OW31711   0.968   4.499   8.753 -0.2051  0.3284 -0.3524
 6751SOL    HW131712   0.926   4.541   8.829  1.2190  2.9312 -1.0264
 6751SOL    HW231713   0.889   4.475   8.705 -0.7675 -0.2825  0.8850
 6752SOL     OW31714   2.933   0.430   7.441 -0.0100  0.3127 -0.1371
 6752SOL    HW131715   2.913   0.402   7.530 -0.6400 -0.3908 -0.5044
 6752SOL    HW231716   2.856   0.480   7.414 -2.1653 -2.5719  0.7149
 6753SOL     OW31717   3.582   4.484   7.178 -0.0248  0.0462 -0.1182
 6753SOL    HW131718   3.647   4.435   7.128  2.1524  0.5273  2.2878
 6753SOL    HW231719   3.584   4.444   7.265 -1.6047  3.1127  1.3267
 6754SOL     OW31720   3.930   3.023   8.653  0.4319  0.0391 -0.0955
 6754SOL    HW131721   4.019   3.052   8.634  0.9979 -0.7310  1.4506
 6754SOL    HW231722   3.943   2.966   8.729 -1.6798  0.7473  0.7900
 6755SOL     OW31723   0.652   0.587   4.491  0.1667  0.4657  0.3399
 6755SOL    HW131724   0.700   0.518   4.536 -0.1508 -0.5490 -0.8871
 6755SOL    HW231725   0.629   0.533   4.415  1.2947 -0.2909  0.5392
 6756SOL     OW31726   4.533   1.548  15.155  0.2043 -0.3815  0.1356
 6756SOL    HW131727   4.461   1.598  15.116  1.4904  1.1850 -0.2406
 6756SOL    HW231728   4.598   1.618  15.165 -1.1256  0.6838  1.1459
 6757SOL     OW31729   0.163   4.671   3.545 -0.3346  0.1304  0.1267
 6757SOL    HW131730   0.166   4.653   3.450  0.5634 -1.2477  0.4183
 6757SOL    HW231731   0.132   0.036   3.550  0.8464  0.5763 -0.5536
 6758SOL     OW31732   0.643   2.670  15.285 -0.1816 -0.4511  0.9906
 6758SOL    HW131733   0.608   2.587  15.253 -0.7169 -0.4342  1.5328
 6758SOL    HW231734   0.583   2.730  15.242  1.0040 -0.6950 -1.0117
 6759SOL     OW31735   2.647   3.210   7.126 -0.0124  0.4742  0.3860
 6759SOL    HW131736   2.609   3.295   7.148 -0.5714  0.3381 -0.0773
 6759SOL    HW231737   2.734   3.213   7.165 -0.2580 -2.8179  1.2419
 6760SOL     OW31738   2.855   1.186  17.060 -0.3731 -0.2565 -0.2418
 6760SOL    HW131739   2.763   1.158  17.060 -1.0018  1.8516  1.5405
 6760SOL    HW231740   2.894   1.132  17.129 -0.1898 -0.7636 -0.7462
 6761SOL     OW31741   0.441   4.259   1.647 -0.7773  0.0535 -0.1339
 6761SOL    HW131742   0.394   4.306   1.578 -0.3042  0.2944 -0.2956
 6761SOL    HW231743   0.513   4.316   1.671 -0.0960 -1.6247  1.8205
 6762SOL     OW31744   3.519   1.431   7.941 -0.2009  0.0841  0.6277
 6762SOL    HW131745   3.473   1.358   7.899  0.9087 -0.4381  0.3238
 6762SOL    HW231746   3.453   1.500   7.932  1.8161  1.8963 -0.3913
 6763SOL     OW31747   3.651   2.712  12.611 -0.2552 -0.8164  0.4647
 6763SOL    HW131748   3.610   2.678  12.531 -1.0215  0.1116  0.4659
 6763SOL    HW231749   3.632   2.635  12.665 -1.7050 -1.2408 -0.6259
 6764SOL     OW31750   2.560   2.836  12.457 -0.4396  0.3730 -0.3438
 6764SOL    HW131751   2.627   2.898  12.486 -3.6978  2.7191  2.1604
 6764SOL    HW231752   2.546   2.874  12.370  1.1504  4.2446  1.0429
 6765SOL     OW31753   0.562   3.830   5.379 -0.2402  0.7019 -0.0512
 6765SOL    HW131754   0.563   3.814   5.285 -0.3434  1.1609 -0.1291
 6765SOL    HW231755   0.523   3.917   5.381 -2.2653 -0.1939 -0.3067
 6766SOL     OW31756   2.221   0.715   0.999  0.0948 -0.4291  0.0909
 6766SOL    HW131757   2.206   0.765   0.918 -0.1551 -0.4977  0.0931
 6766SOL    HW231758   2.184   0.627   0.984 -1.0472  0.1084 -0.2725
 6767SOL     OW31759   0.880   4.094   3.101 -0.1058 -0.0643  0.1691
 6767SOL    HW131760   0.960   4.053   3.134  0.4838  0.5900 -0.4371
 6767SOL    HW231761   0.878   4.178   3.147 -0.3201  0.4354 -0.7558
 6768SOL     OW31762   0.206   4.023   7.685 -0.4988 -0.0417  0.3859
 6768SOL    HW131763   0.131   4.079   7.705  1.7126  3.7909 -2.1365
 6768SOL    HW231764   0.277   4.067   7.732  0.0169  1.4784 -1.8130
 6769SOL     OW31765   4.323   2.657   7.474 -0.0756 -0.2286 -0.0773
 6769SOL    HW131766   4.252   2.656   7.537 -1.7461  0.6774 -1.9454
 6769SOL    HW231767   4.302   2.595   7.403 -1.6164 -0.7530  0.8429
 6770SOL     OW31768   3.685   1.576   7.183 -0.0209  0.0786 -0.2751
 6770SOL    HW131769   3.602   1.531   7.174 -0.0766 -0.2003  1.6935
 6770SOL    HW231770   3.736   1.500   7.211 -1.2393  0.0191  1.7543
 6771SOL     OW31771   3.237   3.838   1.071 -0.2637 -0.4991 -0.1836
 6771SOL    HW131772   3.289   3.763   1.101 -0.5291 -1.1127 -1.2560
 6771SOL    HW231773   3.150   3.815   1.104 -0.6019 -0.0367 -0.7473
 6772SOL     OW31774   2.417   0.042   3.298 -0.2624  0.0822 -0.0529
 6772SOL    HW131775   2.437   0.114   3.238  0.0941  0.5406  0.6085
 6772SOL    HW231776   2.332   0.013   3.266 -0.5727  1.1762 -0.2100
 6773SOL     OW31777   4.116   2.863   5.563 -0.0634  0.2276 -0.0776
 6773SOL    HW131778   4.063   2.942   5.571 -0.0919  0.1399  0.6039
 6773SOL    HW231779   4.186   2.871   5.628 -2.3031 -0.0836  2.4102
 6774SOL     OW31780   0.446   4.570   8.645 -0.0214 -0.7339  0.2970
 6774SOL    HW131781   0.409   4.493   8.603  1.7475 -0.8765 -1.0267
 6774SOL    HW231782   0.399   4.565   8.728  3.0606  0.3113  2.0983
 6775SOL     OW31783   2.191   2.068   8.273 -0.3811  0.4541  0.6025
 6775SOL    HW131784   2.204   2.156   8.237 -0.1908  0.3190  0.3405
 6775SOL    HW231785   2.165   2.094   8.362 -2.1915 -2.2551  0.8437
 6776SOL     OW31786   4.580   3.961   1.669 -0.2717 -0.1442  0.4692
 6776SOL    HW131787   4.594   4.031   1.732 -2.5622 -1.1935  2.1593
 6776SOL    HW231788   4.562   3.892   1.734 -0.5225  0.4401  1.0150
 6777SOL     OW31789   2.630   2.425   3.753  0.5470  0.0312  0.0155
 6777SOL    HW131790   2.595   2.504   3.712  3.6277  1.7683  0.7622
 6777SOL    HW231791   2.586   2.432   3.838  0.1562  0.4494 -0.2158
 6778SOL     OW31792   3.090   0.694   8.989 -0.9317 -0.7649  0.6100
 6778SOL    HW131793   3.148   0.625   9.021  0.0339 -0.0982  0.3285
 6778SOL    HW231794   3.128   0.714   8.903 -1.3493  0.7681  0.7751
 6779SOL     OW31795   1.728   4.602  17.611 -0.2829  0.1791 -0.4156
 6779SOL    HW131796   1.755   4.669  17.548  1.8528 -0.4111 -0.1289
 6779SOL    HW231797   1.642   4.588  17.572 -1.9432  1.4738  2.7432
 6780SOL     OW31798   2.911   2.545  11.038  0.0095  0.2425  0.0193
 6780SOL    HW131799   2.941   2.548  11.129 -0.1774  0.3429  0.0796
 6780SOL    HW231800   2.824   2.582  11.052  0.6145  1.4535  0.5125
 6781SOL     OW31801   2.110   4.134   8.623 -0.4757  0.5260 -0.2525
 6781SOL    HW131802   2.157   4.070   8.677 -1.6314 -1.2630 -1.3685
 6781SOL    HW231803   2.032   4.138   8.677 -0.9717 -2.8561 -0.6963
 6782SOL     OW31804   1.971   0.169   3.376  0.6034  0.1071 -0.5730
 6782SOL    HW131805   2.047   0.220   3.345  1.3380 -1.8477 -2.0015
 6782SOL    HW231806   1.914   0.197   3.304 -1.5042 -1.8005  0.3609
 6783SOL     OW31807   2.653   0.950   3.010 -0.3386 -0.6151 -0.2667
 6783SOL    HW131808   2.718   0.894   2.968  0.9120  0.1932  0.6033
 6783SOL    HW231809   2.695   0.997   3.083  0.1824 -0.9063 -0.3769
 6784SOL     OW31810   3.518   4.007   2.584  0.0307  0.3819  0.1484
 6784SOL    HW131811   3.540   4.100   2.585  1.2040  0.1040 -0.5041
 6784SOL    HW231812   3.545   3.982   2.673 -0.4321  0.1071  0.2110
 6785SOL     OW31813   1.474   0.282   3.552 -0.4764 -0.5967  0.1471
 6785SOL    HW131814   1.478   0.326   3.637 -3.4899  1.7570 -0.9114
 6785SOL    HW231815   1.472   0.355   3.491 -2.3564 -0.7633 -0.0023
 6786SOL     OW31816   1.927   4.171   9.703  0.1857  0.1551 -0.4023
 6786SOL    HW131817   1.854   4.124   9.744  0.2740  2.3049  2.2375
 6786SOL    HW231818   1.979   4.107   9.655  1.0600 -0.6133  1.5510
 6787SOL     OW31819   0.763   0.978  11.247  0.4815 -0.1187 -0.1435
 6787SOL    HW131820   0.782   1.053  11.191  0.5752  1.5505  2.1520
 6787SOL    HW231821   0.823   0.911  11.214  0.1365 -1.1682  1.3549
 6788SOL     OW31822   1.683   0.698  14.172  0.0710 -0.0125 -0.3324
 6788SOL    HW131823   1.633   0.646  14.235  0.1453 -0.3236 -0.5309
 6788SOL    HW231824   1.618   0.767  14.158 -0.9751 -1.2497 -1.5868
 6789SOL     OW31825   4.448   4.602   5.267  0.0057  0.3950  0.1458
 6789SOL    HW131826   4.383   4.613   5.336 -0.0943  2.4132 -0.2526
 6789SOL    HW231827   4.394   4.568   5.196  1.2386  1.1460 -1.1496
 6790SOL     OW31828   3.399   3.726   0.085 -0.3159 -0.2602  0.7061
 6790SOL    HW131829   3.355   3.645   0.059  0.0052  0.2009 -1.3137
 6790SOL    HW231830   3.491   3.700   0.081 -0.0971  0.8013 -1.2376
 6791SOL     OW31831   0.430   0.584   4.219 -0.1699 -0.5853 -0.3341
 6791SOL    HW131832   0.381   0.607   4.298  0.3816  0.4676 -0.3065
 6791SOL    HW231833   0.434   0.668   4.173 -3.0885 -0.3403 -0.1248
 6792SOL     OW31834   4.337   2.079  14.532 -0.3294 -0.4257 -0.0575
 6792SOL    HW131835   4.391   2.005  14.502  0.1449 -0.2518  0.3640
 6792SOL    HW231836   4.374   2.150  14.481  0.8051 -0.3853  0.8185
 6793SOL     OW31837   1.526   3.689   8.296 -0.0509  0.0977 -0.0135
 6793SOL    HW131838   1.485   3.654   8.375  0.9312  1.8820  1.2764
 6793SOL    HW231839   1.549   3.613   8.242  1.6818 -0.1018  0.9929
 6794SOL     OW31840   0.037   0.769   8.177  0.1646  0.1589 -0.3914
 6794SOL    HW131841   0.128   0.768   8.148  0.9014 -0.7237  2.0091
 6794SOL    HW231842   4.719   0.731   8.100 -2.2969  0.8296  0.6645
 6795SOL     OW31843   4.412   4.047  14.747 -0.0857 -0.6490  0.7913
 6795SOL    HW131844   4.499   4.048  14.787  1.0513 -2.0826 -1.6469
 6795SOL    HW231845   4.420   4.099  14.667 -0.2992  0.4476  1.4832
 6796SOL     OW31846   3.042   2.244   8.016 -0.5066  0.3134  0.2900
 6796SOL    HW131847   3.088   2.179   8.068 -1.6167 -1.9542 -1.5771
 6796SOL    HW231848   3.027   2.318   8.075 -1.2465  1.9938 -1.9679
 6797SOL     OW31849   1.569   0.274   6.611  0.0690  0.4664 -0.2975
 6797SOL    HW131850   1.599   0.253   6.523  2.0200  1.1451  0.2031
 6797SOL    HW231851   1.491   0.326   6.591  0.4671  1.5161  0.8476
 6798SOL     OW31852   1.140   1.306  16.878  0.0761  0.0793 -0.5621
 6798SOL    HW131853   1.208   1.260  16.829 -0.4784  0.3374 -1.5679
 6798SOL    HW231854   1.098   1.232  16.922  0.8554  0.6524  1.1295
 6799SOL     OW31855   1.478   3.311   4.197  0.7516 -0.6780 -0.6694
 6799SOL    HW131856   1.442   3.290   4.283  1.2328  3.6158  0.5859
 6799SOL    HW231857   1.485   3.224   4.159 -0.3253 -0.3852 -1.5430
 6800SOL     OW31858   4.480   4.588  16.108 -0.2709 -0.1767 -0.2265
 6800SOL    HW131859   4.429   4.667  16.127  1.3348  0.7373  0.2417
 6800SOL    HW231860   4.412   4.536  16.066 -1.0631  1.3845 -0.9008
 6801SOL     OW31861   2.221   4.454   6.823  0.7762 -0.0462 -0.2787
 6801SOL    HW131862   2.126   4.462   6.828  0.7101 -1.7605  1.5571
 6801SOL    HW231863   2.229   4.454   6.728  1.4598  1.1403 -0.2145
 6802SOL     OW31864   4.569   3.125  12.189  0.3704  0.0413 -0.4090
 6802SOL    HW131865   4.487   3.102  12.232 -0.0948  1.5016 -0.5149
 6802SOL    HW231866   4.556   3.154  12.098  1.5669  0.8088 -0.3369
 6803SOL     OW31867   2.795   0.551   4.279 -0.2771 -0.2184 -0.4023
 6803SOL    HW131868   2.792   0.527   4.187 -1.1096 -2.4214  0.2024
 6803SOL    HW231869   2.737   0.626   4.287 -0.0488  0.0417 -1.2077
 6804SOL     OW31870   1.977   3.021   5.146  0.5864  0.3466  0.3791
 6804SOL    HW131871   1.998   3.110   5.175  2.6800  0.2269 -0.7711
 6804SOL    HW231872   1.888   3.011   5.180  1.4757  1.4961  3.0344
 6805SOL     OW31873   4.717   0.145   6.007  0.5097  0.4663 -0.2942
 6805SOL    HW131874   4.641   0.088   5.991  0.5897  0.0857  0.7016
 6805SOL    HW231875   0.047   0.076   6.044 -0.0041  1.0206  1.4750
 6806SOL     OW31876   3.786   1.276   3.214 -0.0001 -0.6786 -0.3748
 6806SOL    HW131877   3.716   1.236   3.266  1.3425  1.2438  2.9090
 6806SOL    HW231878   3.742   1.278   3.129  0.5407 -0.5000 -0.6523
 6807SOL     OW31879   1.333   0.998   3.862  0.0454 -0.3635 -0.4492
 6807SOL    HW131880   1.380   1.063   3.915 -0.3950 -1.6639  1.5286
 6807SOL    HW231881   1.271   0.966   3.928 -0.2990 -0.1421 -0.6662
 6808SOL     OW31882   0.405   3.369   1.940  0.0296  0.4577 -0.0869
 6808SOL    HW131883   0.426   3.425   1.866 -1.9318  2.3368  0.7735
 6808SOL    HW231884   0.356   3.296   1.903 -2.6537  2.2116  0.0303
 6809SOL     OW31885   0.548   1.257   0.272 -0.0379 -0.4139  0.0229
 6809SOL    HW131886   0.602   1.249   0.350 -1.2945 -0.7466  0.8576
 6809SOL    HW231887   0.517   1.347   0.279  1.5804  0.2695 -1.6375
 6810SOL     OW31888   1.787   3.732  14.906  0.0461 -0.2485  0.7685
 6810SOL    HW131889   1.836   3.814  14.905  0.3706 -0.4657 -0.4496
 6810SOL    HW231890   1.842   3.666  14.865  1.9143  0.6385  1.8274
 6811SOL     OW31891   1.478   2.966  11.399 -0.4610 -0.1751 -0.6227
 6811SOL    HW131892   1.509   2.879  11.425 -1.1577 -0.5200 -0.9414
 6811SOL    HW231893   1.434   2.990  11.481  2.3090 -3.2023  1.7805
 6812SOL     OW31894   3.266   0.750   2.855  0.1065  0.1919  0.0044
 6812SOL    HW131895   3.238   0.670   2.810 -3.3596  0.6707  1.3539
 6812SOL    HW231896   3.350   0.766   2.811  0.9843 -0.0228  1.6056
 6813SOL     OW31897   1.963   0.850  10.341 -0.0128 -0.4871 -0.2240
 6813SOL    HW131898   1.962   0.909  10.265  3.0478  1.2926  1.1092
 6813SOL    HW231899   2.048   0.805  10.341 -0.8083 -2.0040 -0.8783
 6814SOL     OW31900   2.828   3.898   1.916  0.1216 -0.1884 -0.0020
 6814SOL    HW131901   2.736   3.912   1.894  1.1508 -2.9442 -5.9269
 6814SOL    HW231902   2.832   3.817   1.965  0.1014 -0.4298 -0.3983
 6815SOL     OW31903   1.247   0.311   7.694 -0.1189 -0.8380  0.4227
 6815SOL    HW131904   1.260   0.252   7.619  0.8946 -1.2028  0.8965
 6815SOL    HW231905   1.293   0.388   7.661 -1.6317 -0.0902  0.0207
 6816SOL     OW31906   2.928   1.693   1.681 -0.2709 -0.1790  0.1817
 6816SOL    HW131907   2.884   1.731   1.605  0.0691  0.2497  0.1957
 6816SOL    HW231908   2.928   1.766   1.744  0.8264 -0.0296  0.0110
 6817SOL     OW31909   3.024   4.278   6.365  0.7355 -0.0492 -0.4912
 6817SOL    HW131910   3.001   4.186   6.373  1.8840 -0.1889  1.1996
 6817SOL    HW231911   2.989   4.286   6.277 -1.8454 -0.3915  0.5089
 6818SOL     OW31912   3.461   3.787   5.276 -0.0685 -0.5353 -0.3989
 6818SOL    HW131913   3.462   3.837   5.193 -0.9747  0.1829  0.0296
 6818SOL    HW231914   3.376   3.750   5.254 -1.1001  1.8261 -0.3850
 6819SOL     OW31915   0.404   1.619   1.228 -0.2487  0.5508  0.1455
 6819SOL    HW131916   0.478   1.675   1.208  0.7373 -0.3565  1.2304
 6819SOL    HW231917   0.401   1.627   1.323 -0.3073  1.1000  0.0960
 6820SOL     OW31918   1.749   2.319   0.277  0.3425  0.3857  0.7409
 6820SOL    HW131919   1.794   2.402   0.292 -2.0708  1.8406 -0.1139
 6820SOL    HW231920   1.769   2.305   0.185  1.1675 -3.7552  1.5196
 6821SOL     OW31921   3.217   2.919   0.872  0.1488 -0.1044  0.4720
 6821SOL    HW131922   3.294   2.976   0.860 -0.1699 -0.1556 -1.9605
 6821SOL    HW231923   3.180   2.904   0.785  1.5515  0.9728 -0.3187
 6822SOL     OW31924   2.937   3.507  17.400  0.7153  0.0364  0.1892
 6822SOL    HW131925   2.955   3.534  17.310  0.3724  1.7782  0.6515
 6822SOL    HW231926   2.987   3.425  17.405  0.5370  0.0420  2.1866
 6823SOL     OW31927   0.325   3.849   7.231 -0.2280  0.5892  0.1893
 6823SOL    HW131928   0.333   3.827   7.324  3.7657 -2.4891 -0.8460
 6823SOL    HW231929   0.289   3.938   7.231 -1.9195 -0.0972  1.3879
 6824SOL     OW31930   4.431   2.907  14.047 -0.0302 -0.0571 -0.0289
 6824SOL    HW131931   4.508   2.860  14.015  0.2404  1.2616 -1.3805
 6824SOL    HW231932   4.356   2.870  14.000 -0.4613 -0.3366  0.8773
 6825SOL     OW31933   2.419   1.541   3.099 -0.3109 -0.4931 -0.3655
 6825SOL    HW131934   2.480   1.469   3.082  1.9278  1.3390 -0.0553
 6825SOL    HW231935   2.418   1.543   3.194 -4.3737  3.1541 -0.4658
 6826SOL     OW31936   2.824   4.289   9.279  0.6618  0.2391  0.0772
 6826SOL    HW131937   2.901   4.332   9.242 -0.0112  0.3798 -1.1387
 6826SOL    HW231938   2.784   4.253   9.200  0.9607  1.0958 -0.4631
 6827SOL     OW31939   2.168   4.069   3.007 -0.5076 -0.0485 -0.3420
 6827SOL    HW131940   2.133   4.142   2.954  0.4504 -0.3897 -1.4393
 6827SOL    HW231941   2.263   4.075   3.001 -0.2497 -3.0893  0.9658
 6828SOL     OW31942   4.453   2.170   2.740  0.3246  0.1461  0.0430
 6828SOL    HW131943   4.399   2.226   2.794  1.2368 -0.2907  1.3979
 6828SOL    HW231944   4.530   2.162   2.796 -0.0300  2.5902  0.8616
 6829SOL     OW31945   3.432   2.088   5.755 -0.2413  0.1907  0.7922
 6829SOL    HW131946   3.452   2.023   5.822 -1.1787 -1.0439 -0.1234
 6829SOL    HW231947   3.390   2.161   5.800 -0.2246 -0.4356  1.8238
 6830SOL     OW31948   4.647   4.656   7.210  0.2260 -0.2220 -0.0390
 6830SOL    HW131949   4.567   4.616   7.178  0.4883 -0.4876 -0.3693
 6830SOL    HW231950   4.659   4.723   7.142 -0.4873 -1.0798 -1.0011
 6831SOL     OW31951   4.217   0.801   8.563  0.6209  0.1247 -0.2248
 6831SOL    HW131952   4.297   0.806   8.511  2.2014  0.3109  2.1857
 6831SOL    HW231953   4.157   0.851   8.508 -1.3773 -0.6154  1.2715
 6832SOL     OW31954   0.271   1.538   6.039  0.0359  0.5243  0.0859
 6832SOL    HW131955   0.251   1.447   6.061 -2.8789  0.4531 -2.8444
 6832SOL    HW231956   0.366   1.540   6.027  0.0323 -0.7339 -0.1288
 6833SOL     OW31957   2.853   0.235   5.707 -0.0391  0.2661 -0.6096
 6833SOL    HW131958   2.841   0.288   5.629  1.5142  1.1147 -0.2867
 6833SOL    HW231959   2.922   0.287   5.748 -0.2757 -0.9486  1.3468
 6834SOL     OW31960   3.795   2.851   2.058 -0.9358 -0.0521  0.2717
 6834SOL    HW131961   3.799   2.944   2.038  0.6201 -0.3983 -0.9440
 6834SOL    HW231962   3.711   2.837   2.102  0.5297 -1.1747  2.7350
 6835SOL     OW31963   0.014   1.280   8.301  0.0715 -0.1282  0.2565
 6835SOL    HW131964   0.032   1.346   8.368 -1.3348 -1.1828  1.6832
 6835SOL    HW231965   4.674   1.225   8.346 -1.6529 -0.3693 -2.5028
 6836SOL     OW31966   4.657   0.371   6.148  0.5893 -0.3573  0.1803
 6836SOL    HW131967   0.024   0.351   6.169  0.1154 -0.5543  2.0315
 6836SOL    HW231968   4.644   0.308   6.077 -0.9158  0.5398 -0.3319
 6837SOL     OW31969   2.519   2.783   8.453 -0.0618  0.0027 -0.1697
 6837SOL    HW131970   2.490   2.859   8.502  0.4399 -1.4874  2.4134
 6837SOL    HW231971   2.604   2.763   8.493  0.4712  1.3560 -0.6303
 6838SOL     OW31972   2.233   2.700   7.459  0.2580 -0.4354 -0.2115
 6838SOL    HW131973   2.219   2.708   7.554  0.4656 -1.7138 -0.0638
 6838SOL    HW231974   2.304   2.636   7.463  0.7645 -0.0097 -2.6862
 6839SOL     OW31975   1.909   1.334   5.186 -0.5444 -0.3019 -0.4250
 6839SOL    HW131976   1.873   1.279   5.256  1.0302 -1.6085 -0.6463
 6839SOL    HW231977   1.981   1.378   5.230  0.6604 -0.5951 -2.1083
 6840SOL     OW31978   1.533   1.685   5.330 -0.0987  0.3207  0.0775
 6840SOL    HW131979   1.548   1.777   5.352 -0.9638  0.3809  0.3941
 6840SOL    HW231980   1.444   1.673   5.362 -0.4618  0.5626 -0.8348
 6841SOL     OW31981   0.553   3.738   1.880  0.0860 -0.1515 -0.3937
 6841SOL    HW131982   0.574   3.654   1.840  0.4148  0.0689 -0.6839
 6841SOL    HW231983   0.551   3.790   1.800  0.8102  2.2451  1.1590
 6842SOL     OW31984   3.021   1.486  16.514  0.0868  0.3604 -0.1990
 6842SOL    HW131985   2.950   1.546  16.537 -0.3983 -0.4293  0.3707
 6842SOL    HW231986   3.095   1.538  16.546  0.4977  0.1127 -0.7570
 6843SOL     OW31987   1.830   4.249  14.071 -0.5413 -0.5897 -0.1770
 6843SOL    HW131988   1.810   4.341  14.087 -0.4388 -0.4366 -0.9269
 6843SOL    HW231989   1.925   4.242  14.080 -0.5029  2.0216  1.4037
 6844SOL     OW31990   0.311   3.393   1.224 -0.2691  0.0200 -0.5892
 6844SOL    HW131991   0.331   3.457   1.292 -2.0060  0.7747 -0.7831
 6844SOL    HW231992   0.356   3.316   1.259  2.5062  1.9722  0.0969
 6845SOL     OW31993   3.754   2.588   0.015 -0.3200 -0.4688  0.1157
 6845SOL    HW131994   3.823   2.622  17.659  0.1856 -0.4977  0.7106
 6845SOL    HW231995   3.716   2.670   0.047  1.2894  0.9892 -1.7224
 6846SOL     OW31996   1.332   2.619  11.751 -0.2137  0.3219  0.2142
 6846SOL    HW131997   1.291   2.701  11.721 -0.5076  0.5556  1.2473
 6846SOL    HW231998   1.405   2.607  11.691  1.2361  0.9572  1.8497
 6847SOL     OW31999   3.674   0.559   5.334 -0.6341  0.0825 -0.2959
 6847SOL    HW132000   3.749   0.605   5.297 -0.7284  0.1669 -0.3794
 6847SOL    HW232001   3.645   0.519   5.252 -1.0301  0.0929 -0.1610
 6848SOL     OW32002   2.641   2.078  12.658  0.5742  0.3854  0.0857
 6848SOL    HW132003   2.646   2.154  12.600  0.7505 -0.2000 -0.6479
 6848SOL    HW232004   2.590   2.016  12.606 -0.3534  2.1053 -1.0519
 6849SOL     OW32005   3.138   3.375   8.298 -0.1110  0.3622 -0.4359
 6849SOL    HW132006   3.205   3.309   8.318  0.6515  1.1494 -0.3972
 6849SOL    HW232007   3.114   3.412   8.382 -1.2315  1.7526 -1.3876
 6850SOL     OW32008   0.327   2.085  15.076 -0.4609  0.0142 -0.0963
 6850SOL    HW132009   0.388   2.117  15.010 -0.2102  2.2298  1.2016
 6850SOL    HW232010   0.269   2.160  15.087 -1.1600 -0.7277  1.3055
 6851SOL     OW32011   3.578   4.519   4.341 -0.5614 -0.1583  0.3254
 6851SOL    HW132012   3.543   4.606   4.358  1.0959  0.7681 -0.9928
 6851SOL    HW232013   3.551   4.465   4.415 -1.4633  0.2823  0.3061
 6852SOL     OW32014   3.727   0.243   5.571  0.0498  0.5497  0.1169
 6852SOL    HW132015   3.711   0.183   5.644  2.1512 -0.5483 -0.3203
 6852SOL    HW232016   3.816   0.216   5.550 -0.8576 -0.9770 -1.8613
 6853SOL     OW32017   3.180   3.563   4.268 -0.3396 -0.1656  0.2304
 6853SOL    HW132018   3.104   3.608   4.306 -2.0679 -3.3866  0.5924
 6853SOL    HW232019   3.229   3.641   4.244 -0.9267  0.1040 -0.0968
 6854SOL     OW32020   4.552   3.290   6.506  0.1911  0.2724  1.0433
 6854SOL    HW132021   4.524   3.361   6.563  0.8956 -0.0909  1.8464
 6854SOL    HW232022   4.647   3.288   6.515  0.4577  0.5618 -1.8267
 6855SOL     OW32023   2.983   3.823  11.515  0.3554  0.4121 -0.2611
 6855SOL    HW132024   2.948   3.744  11.556 -0.2501 -0.4183 -2.4050
 6855SOL    HW232025   3.077   3.829  11.536  0.1251  1.0156  0.5887
 6856SOL     OW32026   3.820   2.591   1.837  0.1422 -0.3033  0.3107
 6856SOL    HW132027   3.841   2.684   1.837 -0.4097 -0.2026  2.7517
 6856SOL    HW232028   3.900   2.571   1.788 -0.5908 -1.2556 -0.5035
 6857SOL     OW32029   4.163   3.028   1.310  0.4601  0.3619  0.8562
 6857SOL    HW132030   4.165   2.955   1.248  0.4213 -0.9489  2.3815
 6857SOL    HW232031   4.134   3.100   1.254  0.5907 -0.3152 -0.0897
 6858SOL     OW32032   2.219   1.358   2.596  0.1015 -0.4023  0.0425
 6858SOL    HW132033   2.291   1.339   2.536  0.6474 -0.4430  0.6977
 6858SOL    HW232034   2.215   1.277   2.648  2.4230  0.7070  1.9234
 6859SOL     OW32035   3.417   1.848  10.287 -0.2090  0.2659  0.7233
 6859SOL    HW132036   3.398   1.805  10.370 -3.7674 -0.2157 -0.3694
 6859SOL    HW232037   3.357   1.922  10.298 -0.6063  0.0044  0.3156
 6860SOL     OW32038   0.135   2.441   2.525 -0.5874 -0.0980 -0.3405
 6860SOL    HW132039   0.138   2.533   2.551  2.1023 -0.8638  2.0880
 6860SOL    HW232040   0.192   2.448   2.449  0.0657  0.3044  0.1913
 6861SOL     OW32041   1.361   2.925   7.086 -0.0346 -0.5901  0.3069
 6861SOL    HW132042   1.290   2.986   7.065  0.9093  1.2354  2.3873
 6861SOL    HW232043   1.429   2.980   7.046 -0.0698  0.3014  1.4910
 6862SOL     OW32044   3.613   2.815   9.816 -0.0859 -0.7942  0.5855
 6862SOL    HW132045   3.575   2.854   9.894  0.6834 -0.6612  0.8902
 6862SOL    HW232046   3.564   2.733   9.805  1.6693 -2.1333  2.9352
 6863SOL     OW32047   0.975   4.181  16.436 -0.0714  0.7839 -0.0445
 6863SOL    HW132048   1.045   4.238  16.405 -1.4239  0.6559 -3.3552
 6863SOL    HW232049   1.020   4.134  16.506  1.0810 -2.3424 -2.8626
 6864SOL     OW32050   1.175   3.918   4.757 -1.1990 -0.0841  0.2745
 6864SOL    HW132051   1.154   3.825   4.767  0.9597 -0.5518  0.4172
 6864SOL    HW232052   1.177   3.949   4.847  1.5689 -1.4010  0.6608
 6865SOL     OW32053   0.003   2.107  16.772  0.3085 -0.5154  0.3794
 6865SOL    HW132054   4.710   2.158  16.694  2.6202  0.2169  0.3095
 6865SOL    HW232055   0.082   2.149  16.807 -0.1907 -0.4269  1.4032
 6866SOL     OW32056   3.527   0.356   9.184 -0.6575  0.2526 -0.2089
 6866SOL    HW132057   3.571   0.394   9.260 -1.1881 -0.0952  0.2727
 6866SOL    HW232058   3.454   0.308   9.224  0.3793 -1.3944 -0.3368
 6867SOL     OW32059   2.741   2.323   2.342 -0.7749  0.4015  0.2173
 6867SOL    HW132060   2.826   2.288   2.370 -0.7178  0.1493 -0.2621
 6867SOL    HW232061   2.736   2.283   2.254 -1.6895 -0.1466  0.5199
 6868SOL     OW32062   3.489   2.682  15.391 -0.8225 -0.0716 -0.4944
 6868SOL    HW132063   3.584   2.689  15.377 -0.3311  1.2448  3.4639
 6868SOL    HW232064   3.473   2.776  15.385 -1.3292 -0.1525 -0.3862
 6869SOL     OW32065   2.533   3.095   2.650  0.2724  0.2675  0.3485
 6869SOL    HW132066   2.460   3.094   2.712 -1.7286  0.3463 -2.0117
 6869SOL    HW232067   2.517   3.018   2.597  1.6473 -0.0166  0.3445
 6870SOL     OW32068   2.176   0.569   1.971  0.1665  0.4240  0.1904
 6870SOL    HW132069   2.093   0.526   1.952 -1.0137  3.7268 -2.2322
 6870SOL    HW232070   2.152   0.651   1.928 -1.5749  1.2374  2.7199
 6871SOL     OW32071   2.240   1.692   1.594 -0.1756  0.4935 -0.1708
 6871SOL    HW132072   2.247   1.760   1.527 -0.1721  1.5368  0.8917
 6871SOL    HW232073   2.292   1.722   1.668  0.2216 -2.8449  0.8583
 6872SOL     OW32074   0.088   3.029  10.809  0.3658  0.0650  0.4634
 6872SOL    HW132075   0.160   2.968  10.793  0.2431  0.2803 -0.9126
 6872SOL    HW232076   0.105   3.091  10.738  3.1457 -0.9611  0.2246
 6873SOL     OW32077   4.130   1.734   4.134  0.3684 -0.0510 -0.5811
 6873SOL    HW132078   4.221   1.753   4.157 -0.1804  1.3951  0.4008
 6873SOL    HW232079   4.085   1.789   4.199  0.9896 -1.2767  0.8997
 6874SOL     OW32080   4.383   0.031  15.801  0.4191 -0.1841 -0.3212
 6874SOL    HW132081   4.403   0.124  15.809 -1.3765 -0.0120  1.9355
 6874SOL    HW232082   4.318   0.026  15.871  0.3287 -0.0455 -0.3950
 6875SOL     OW32083   1.742   1.892  16.669 -0.4581  0.0867 -0.2878
 6875SOL    HW132084   1.769   1.978  16.700  0.5125 -0.1059 -0.5916
 6875SOL    HW232085   1.750   1.905  16.575  0.1585  2.1492  0.0492
 6876SOL     OW32086   0.923   1.247  10.529  0.6774 -0.5167 -0.1891
 6876SOL    HW132087   0.916   1.327  10.476 -0.5268  0.6960  1.7955
 6876SOL    HW232088   0.835   1.209  10.526  1.0602 -1.5932  2.3894
 6877SOL     OW32089   1.795   2.626   2.687 -0.4368  0.0992 -0.4292
 6877SOL    HW132090   1.753   2.681   2.620  0.1725 -0.5485 -1.3284
 6877SOL    HW232091   1.818   2.549   2.636  0.5559 -0.0916  0.3055
 6878SOL     OW32092   3.420   2.211   4.734 -0.5658 -0.6108  0.4518
 6878SOL    HW132093   3.446   2.121   4.716  2.3866  0.4185 -0.5347
 6878SOL    HW232094   3.372   2.204   4.816 -1.9853  1.7000 -0.1919
 6879SOL     OW32095   1.844   0.702   8.311  0.2820  0.0155 -0.5596
 6879SOL    HW132096   1.828   0.654   8.230 -2.6666  1.5276 -0.8330
 6879SOL    HW232097   1.786   0.777   8.300  1.5096  0.9555 -0.5924
 6880SOL     OW32098   1.737   0.133  10.915 -0.1574  0.2754 -0.6018
 6880SOL    HW132099   1.775   0.072  10.979 -1.5827  1.5396  1.4409
 6880SOL    HW232100   1.814   0.139  10.858  1.7432  0.4925  1.9795
 6881SOL     OW32101   2.349   2.223   5.274  0.1131 -0.3243 -0.3881
 6881SOL    HW132102   2.262   2.243   5.237  1.9018  4.9745 -1.8217
 6881SOL    HW232103   2.324   2.164   5.345  0.1265  1.3845  1.0309
 6882SOL     OW32104   0.762   3.157   3.641 -0.9300 -0.3190  0.1437
 6882SOL    HW132105   0.785   3.070   3.609  0.8681  0.0243  0.4543
 6882SOL    HW232106   0.843   3.191   3.680 -1.0261  1.7291 -1.4834
 6883SOL     OW32107   3.849   1.939   5.901 -0.2010  0.1294  0.2921
 6883SOL    HW132108   3.823   2.021   5.943  0.6004  1.4461 -1.7906
 6883SOL    HW232109   3.815   1.875   5.963  1.6060  0.0938  1.2544
 6884SOL     OW32110   0.469   1.537   2.976  0.8937  0.0653  0.2095
 6884SOL    HW132111   0.393   1.499   2.932 -0.5617  0.7092  2.1442
 6884SOL    HW232112   0.532   1.483   2.928 -0.4399  0.4822 -2.0333
 6885SOL     OW32113   2.553   3.841  13.027  0.7226 -0.1963 -0.0719
 6885SOL    HW132114   2.487   3.908  13.012  0.0294 -0.6893  0.7720
 6885SOL    HW232115   2.523   3.772  13.086 -1.1259  2.2353  1.8324
 6886SOL     OW32116   3.504   4.168   2.992 -0.0240 -0.1788  0.5227
 6886SOL    HW132117   3.480   4.116   3.069  1.5720 -0.1134  1.0586
 6886SOL    HW232118   3.503   4.098   2.927  1.7845  0.3139 -0.0072
 6887SOL     OW32119   0.764   3.350   6.563  0.2011  0.2640 -0.0180
 6887SOL    HW132120   0.692   3.381   6.508 -0.9295 -1.7591  0.3371
 6887SOL    HW232121   0.797   3.292   6.494  1.9811  1.6705 -0.3555
 6888SOL     OW32122   2.618   0.396   2.685 -0.0597  0.3253  0.1197
 6888SOL    HW132123   2.545   0.342   2.717  0.7102 -0.2604  0.8986
 6888SOL    HW232124   2.595   0.482   2.720  1.1039  1.0154 -0.8480
 6889SOL     OW32125   3.253   4.719  14.138 -0.3053  0.4197 -0.0678
 6889SOL    HW132126   3.317   0.065  14.140 -0.1773  0.3268 -0.8739
 6889SOL    HW232127   3.224   4.717  14.047  1.9264 -0.4142 -0.7437
 6890SOL     OW32128   1.010   1.034   3.170  0.2566 -0.4242  0.7762
 6890SOL    HW132129   1.061   0.990   3.238 -2.3656 -2.0630  1.6610
 6890SOL    HW232130   1.021   1.128   3.188 -0.4503 -0.3169  0.6753
 6891SOL     OW32131   4.130   2.961  15.243  0.1778 -0.3956  0.7988
 6891SOL    HW132132   4.050   2.919  15.274 -0.0310 -1.2748 -0.9240
 6891SOL    HW232133   4.118   2.968  15.149 -0.2290  1.9440  1.0345
 6892SOL     OW32134   1.485   3.306   3.861 -0.1833  0.2090  0.0777
 6892SOL    HW132135   1.471   3.306   3.767 -1.4392 -0.7040  0.2625
 6892SOL    HW232136   1.425   3.368   3.902  1.8717  2.8131 -0.9012
 6893SOL     OW32137   0.356   0.114   1.056 -0.2117  0.3699 -0.3004
 6893SOL    HW132138   0.444   0.105   1.019  0.6354 -2.0223  2.3160
 6893SOL    HW232139   0.316   0.033   1.022  1.0601 -0.5916  0.4818
 6894SOL     OW32140   2.873   3.859  15.858 -0.3701  0.4255 -0.6950
 6894SOL    HW132141   2.841   3.859  15.768 -2.4071 -2.6085  0.0315
 6894SOL    HW232142   2.812   3.798  15.899 -1.6759  2.3074  0.1956
 6895SOL     OW32143   0.129   1.812   7.931 -0.2956  1.0550 -0.0356
 6895SOL    HW132144   0.137   1.747   8.000  0.3208  0.1637 -0.9554
 6895SOL    HW232145   0.219   1.808   7.900  0.4744  0.2451  2.3283
 6896SOL     OW32146   3.922   1.908  12.599 -0.7556  0.7964 -0.2608
 6896SOL    HW132147   3.951   1.856  12.674  0.5940 -0.0761 -1.4181
 6896SOL    HW232148   4.002   1.917  12.549  0.8487 -2.3876  1.7474
 6897SOL     OW32149   2.425   3.110  12.422  0.1733  1.2502 -0.6365
 6897SOL    HW132150   2.442   3.115  12.516  0.9837 -0.3025 -0.6958
 6897SOL    HW232151   2.449   3.194  12.385  1.8762  1.2256  0.3943
 6898SOL     OW32152   0.849   2.826   2.989  0.0704  0.0524 -0.0558
 6898SOL    HW132153   0.849   2.759   3.057  2.4744 -1.2554 -1.3463
 6898SOL    HW232154   0.941   2.815   2.963 -0.5914 -0.0534 -2.3452
 6899SOL     OW32155   2.758   4.581   2.206 -0.2220 -0.2463  0.1379
 6899SOL    HW132156   2.802   4.657   2.167 -0.5584 -0.5314 -0.8007
 6899SOL    HW232157   2.769   4.515   2.137  0.4372 -0.6243  0.6026
 6900SOL     OW32158   3.741   0.550  13.071 -0.3028 -0.0500  0.0403
 6900SOL    HW132159   3.730   0.515  12.983 -3.4244  2.5635 -0.6223
 6900SOL    HW232160   3.811   0.615  13.067  0.3498 -0.6857  1.2752
 6901SOL     OW32161   3.330   2.277   6.941  0.8692  0.7280 -0.5284
 6901SOL    HW132162   3.310   2.367   6.912  0.5710  1.1099  0.8739
 6901SOL    HW232163   3.245   2.237   6.927  0.1952  1.8407  0.4376
 6902SOL     OW32164   1.960   2.791   2.128 -0.1990 -0.1867 -0.4186
 6902SOL    HW132165   2.020   2.729   2.086  1.5604  1.1320  0.1446
 6902SOL    HW232166   2.016   2.852   2.177 -0.9462  0.7417 -0.7181
 6903SOL     OW32167   3.482   4.452   2.189  0.5917  0.3318  0.6127
 6903SOL    HW132168   3.537   4.513   2.140 -3.8737  3.3847 -0.6532
 6903SOL    HW232169   3.517   4.456   2.277  1.3745  0.6559  0.2883
 6904SOL     OW32170   2.074   3.398  10.794 -0.7485  0.1915 -0.3241
 6904SOL    HW132171   2.114   3.435  10.873  0.8932  0.9136 -1.4901
 6904SOL    HW232172   2.154   3.389  10.743  0.4961  1.3901  1.3944
 6905SOL     OW32173   4.152   3.725   9.126 -0.8584 -0.1858 -0.3964
 6905SOL    HW132174   4.068   3.699   9.089 -0.7365  0.0603 -0.8446
 6905SOL    HW232175   4.157   3.817   9.102 -0.1062  0.0706  0.7117
 6906SOL     OW32176   1.877   0.926   0.085 -0.3899  0.1969  0.0422
 6906SOL    HW132177   1.868   0.833   0.104  0.4173 -0.1030 -1.0395
 6906SOL    HW232178   1.888   0.956   0.175 -3.5392  1.9555 -0.1749
 6907SOL     OW32179   1.004   3.498   6.218  0.2235 -0.2254  0.6937
 6907SOL    HW132180   1.017   3.557   6.143 -2.0100  2.6447  2.6146
 6907SOL    HW232181   0.921   3.528   6.253  0.5315  0.2972  0.9729
 6908SOL     OW32182   0.031   4.554   5.002  0.0226 -0.4455  0.1446
 6908SOL    HW132183   4.720   4.600   4.925 -0.5683 -2.1102 -0.5818
 6908SOL    HW232184   0.120   4.525   4.982  0.7723  1.8306  0.1400
 6909SOL     OW32185   4.680   3.475   7.311 -0.5045 -0.0351  0.4535
 6909SOL    HW132186   0.008   3.529   7.252  1.7677 -2.2844  0.4012
 6909SOL    HW232187   0.018   3.446   7.378 -1.9833 -3.6530  0.2996
 6910SOL     OW32188   1.858   4.635  11.080  0.3966 -0.1910 -0.2540
 6910SOL    HW132189   1.838   4.706  11.141 -0.5026 -0.8040  0.1585
 6910SOL    HW232190   1.791   4.572  11.106  0.4957 -0.4307 -0.5759
 6911SOL     OW32191   4.404   0.700   2.353  0.3739 -0.4063 -0.4418
 6911SOL    HW132192   4.337   0.768   2.346  0.6820 -0.1004 -0.4737
 6911SOL    HW232193   4.415   0.686   2.259  1.6414  0.3017 -0.4099
 6912SOL     OW32194   4.334   2.274  14.101 -1.0013  0.0295 -0.2679
 6912SOL    HW132195   4.425   2.276  14.071 -0.3122  0.6651  1.8071
 6912SOL    HW232196   4.306   2.210  14.037  1.1481  0.3720 -1.5652
 6913SOL     OW32197   1.055   2.304   7.909 -0.5054 -0.0334 -0.0618
 6913SOL    HW132198   1.093   2.383   7.870  2.4959  0.2984  3.4979
 6913SOL    HW232199   1.054   2.240   7.838 -2.1977 -1.5912  1.3694
 6914SOL     OW32200   3.956   4.083  14.995  0.6311  0.6742  0.5780
 6914SOL    HW132201   4.039   4.086  14.947  0.2584  0.2252 -0.0914
 6914SOL    HW232202   3.961   4.172  15.029 -2.2053  1.5133 -1.2360
 6915SOL     OW32203   1.376   3.040  11.691 -0.2355 -0.2460 -0.4198
 6915SOL    HW132204   1.428   3.023  11.769 -1.2638 -2.6727 -0.2829
 6915SOL    HW232205   1.292   3.005  11.717 -0.2001  1.2692  1.7218
 6916SOL     OW32206   3.747   2.808   4.216 -0.3065 -0.5753  0.6031
 6916SOL    HW132207   3.687   2.882   4.207  0.8087  0.2538  0.0779
 6916SOL    HW232208   3.751   2.800   4.312 -0.4882 -0.6925  0.6001
 6917SOL     OW32209   2.478   2.295   0.554 -0.2185 -0.0874 -0.3050
 6917SOL    HW132210   2.502   2.332   0.639 -1.1712 -0.1573 -0.0151
 6917SOL    HW232211   2.387   2.320   0.544 -0.0616  0.8294  0.6384
 6918SOL     OW32212   1.744   2.764   5.302  0.0399 -0.2829  0.0113
 6918SOL    HW132213   1.732   2.714   5.221 -0.9758 -0.8184  0.5070
 6918SOL    HW232214   1.681   2.836   5.300  2.3628  1.7528  0.0558
 6919SOL     OW32215   0.041   3.714   7.615 -0.8430 -0.4481  0.3213
 6919SOL    HW132216   0.043   3.733   7.709  1.8156  3.2724 -0.4841
 6919SOL    HW232217   0.061   3.621   7.626  0.0760 -0.3402 -0.4354
 6920SOL     OW32218   3.340   1.190   1.086  0.2649 -0.6160  0.2504
 6920SOL    HW132219   3.266   1.246   1.110  0.6936 -0.0669  0.2757
 6920SOL    HW232220   3.360   1.158   1.173 -1.1744 -0.1557  0.7576
 6921SOL     OW32221   4.533   2.843   5.950 -0.2392 -0.0112 -0.0430
 6921SOL    HW132222   4.449   2.801   5.931 -0.0270 -0.4290 -0.0507
 6921SOL    HW232223   4.558   2.801   6.033  0.2002  0.0574 -0.1432
 6922SOL     OW32224   1.051   3.892   0.306 -0.5133 -0.1882  0.1425
 6922SOL    HW132225   0.959   3.915   0.314 -0.3022  1.2174 -1.4921
 6922SOL    HW232226   1.086   3.953   0.371 -0.9139  1.9931 -1.6951
 6923SOL     OW32227   1.283   1.572  15.697 -0.0991 -0.2765 -0.5305
 6923SOL    HW132228   1.281   1.628  15.620 -1.7135 -0.8880 -0.9193
 6923SOL    HW232229   1.200   1.588  15.741 -1.4057  0.9532 -3.4648
 6924SOL     OW32230   3.817   4.598   4.236  0.4568 -0.5067  0.4319
 6924SOL    HW132231   3.826   4.525   4.175  2.0573  0.9014 -1.0189
 6924SOL    HW232232   3.731   4.569   4.265 -0.1085  0.2474 -0.4816
 6925SOL     OW32233   1.423   3.262   3.064 -0.5255  0.1585 -0.2189
 6925SOL    HW132234   1.450   3.354   3.068  1.8020 -0.4051 -3.4775
 6925SOL    HW232235   1.345   3.273   3.118  0.4317  2.6245  0.7029
 6926SOL     OW32236   1.592   3.771   9.337 -0.1406 -0.4877 -0.4419
 6926SOL    HW132237   1.640   3.800   9.260  0.1735  2.8350  1.0060
 6926SOL    HW232238   1.511   3.821   9.326 -0.0948 -0.0282  1.2877
 6927SOL     OW32239   1.115   1.385  10.692  0.4519  0.3580  0.4842
 6927SOL    HW132240   1.144   1.449  10.628 -1.0845  2.1727  1.6013
 6927SOL    HW232241   1.039   1.342  10.653  0.9313 -1.5103  1.5823
 6928SOL     OW32242   0.918   3.629  16.606  0.5530 -0.4851 -0.2228
 6928SOL    HW132243   0.865   3.550  16.592 -0.6833  0.0356  1.5655
 6928SOL    HW232244   0.856   3.691  16.645  0.8972  0.6768 -1.5142
 6929SOL     OW32245   0.841   1.138   0.283 -0.2983  0.3978  0.0698
 6929SOL    HW132246   0.784   1.195   0.335  0.5086  1.0902  0.2006
 6929SOL    HW232247   0.907   1.128   0.351  0.0964  0.3381 -0.3254
 6930SOL     OW32248   3.047   0.458   9.129 -0.0366 -0.1825  0.5166
 6930SOL    HW132249   2.966   0.449   9.180 -0.1236  0.4461  0.4972
 6930SOL    HW232250   3.009   0.491   9.047 -0.5175 -1.4404  0.2398
 6931SOL     OW32251   3.544   1.729   6.827 -0.4475 -0.0825 -0.2023
 6931SOL    HW132252   3.560   1.810   6.877 -0.6341  0.2040 -0.6114
 6931SOL    HW232253   3.450   1.714   6.837 -0.4179 -1.3355 -1.9380
 6932SOL     OW32254   1.429   0.278   8.660 -0.2023 -0.1277 -0.6140
 6932SOL    HW132255   1.419   0.289   8.755  0.2362 -1.3151 -0.4280
 6932SOL    HW232256   1.338   0.300   8.642 -0.2617 -0.6528 -0.9580
 6933SOL     OW32257   1.239   4.714   2.473  0.0800 -0.2483 -0.4691
 6933SOL    HW132258   1.205   4.643   2.528  1.9686  0.0657  1.1187
 6933SOL    HW232259   1.172   4.709   2.404 -0.7217  0.8995  0.2390
 6934SOL     OW32260   4.514   2.378  10.534 -0.1927 -0.0106 -0.5550
 6934SOL    HW132261   4.572   2.314  10.575 -0.4496 -1.2261 -2.0998
 6934SOL    HW232262   4.572   2.446  10.501  1.1077 -0.8090  0.0743
 6935SOL     OW32263   0.415   2.254   6.751 -0.0950  0.3550  0.5319
 6935SOL    HW132264   0.397   2.293   6.666 -2.8006 -1.6752  0.1639
 6935SOL    HW232265   0.350   2.183   6.747 -0.5390  0.7354  0.9408
 6936SOL     OW32266   0.747   4.554   6.962  0.4632 -0.0098 -0.4201
 6936SOL    HW132267   0.772   4.576   7.052  0.7923  0.7529 -0.6940
 6936SOL    HW232268   0.814   4.492   6.932 -1.0910 -0.1946 -3.4976
 6937SOL     OW32269   4.683   2.387  13.049  0.3338 -0.2972  0.4448
 6937SOL    HW132270   4.678   2.473  13.093 -0.5960  0.2548 -0.7321
 6937SOL    HW232271   4.607   2.345  13.090 -0.8649 -0.7178 -2.2384
 6938SOL     OW32272   0.647   0.823  12.068 -0.3752  0.4652  0.2363
 6938SOL    HW132273   0.709   0.892  12.093 -0.6331  0.3792  1.0917
 6938SOL    HW232274   0.621   0.858  11.983 -2.4339 -0.9609  0.3005
 6939SOL     OW32275   0.746   2.295   4.251  1.0291 -0.4543  0.0915
 6939SOL    HW132276   0.692   2.306   4.173  1.3962  3.0276  0.3273
 6939SOL    HW232277   0.772   2.203   4.247  0.1090 -0.6788 -0.6532
 6940SOL     OW32278   3.473   2.543   3.467  0.1272 -0.1640  0.1168
 6940SOL    HW132279   3.472   2.501   3.552  0.1517 -0.1947  0.1019
 6940SOL    HW232280   3.551   2.597   3.475 -0.4751  0.4226  1.8989
 6941SOL     OW32281   0.748   2.033   6.450 -0.1976  0.2434 -0.2302
 6941SOL    HW132282   0.669   2.083   6.472 -0.5143  0.6641 -2.2780
 6941SOL    HW232283   0.779   2.002   6.534  1.6641 -1.4528 -1.5641
 6942SOL     OW32284   2.480   2.899   6.421 -0.4229  0.2004  0.1981
 6942SOL    HW132285   2.400   2.859   6.457 -2.1577  4.7375  1.3142
 6942SOL    HW232286   2.522   2.943   6.494 -1.0521 -0.3229  0.8828
 6943SOL     OW32287   0.452   0.503  15.786 -0.5754  0.0169  0.2971
 6943SOL    HW132288   0.474   0.494  15.694 -0.7665 -3.5741  0.6247
 6943SOL    HW232289   0.494   0.588  15.800 -1.0473  0.2002  0.6127
 6944SOL     OW32290   3.843   2.399  12.526 -0.2032 -0.0960  0.6596
 6944SOL    HW132291   3.904   2.457  12.573 -0.6848 -0.9757  2.3556
 6944SOL    HW232292   3.812   2.446  12.448  2.4167 -0.2028 -0.4554
 6945SOL     OW32293   4.722   2.907   2.502  0.1143 -0.1729  0.0556
 6945SOL    HW132294   0.077   2.951   2.472 -0.6213  1.8655  1.1100
 6945SOL    HW232295   4.705   2.859   2.420 -1.5760 -1.9659  1.4463
 6946SOL     OW32296   4.703   0.224   8.594 -0.4863 -0.1994 -0.2558
 6946SOL    HW132297   4.647   0.271   8.657 -2.3217 -0.6330 -1.5613
 6946SOL    HW232298   4.719   0.147   8.650 -2.7737 -0.7747 -0.3743
 6947SOL     OW32299   0.710   0.916   5.471  0.4002 -0.0578  0.2171
 6947SOL    HW132300   0.690   0.843   5.413 -2.4636  0.2284  0.8172
 6947SOL    HW232301   0.638   0.971   5.439 -0.9529 -2.7027 -1.2695
 6948SOL     OW32302   2.077   0.343  10.960 -0.7342  0.3804 -0.1937
 6948SOL    HW132303   2.040   0.343  11.048  0.8219  0.3323  0.4735
 6948SOL    HW232304   2.058   0.253  10.931  1.8541 -0.1825 -0.2033
 6949SOL     OW32305   2.931   2.252   4.920  0.3816 -0.0451 -0.7751
 6949SOL    HW132306   2.857   2.269   4.861  1.1619 -1.1079 -2.0392
 6949SOL    HW232307   2.925   2.158   4.934  0.1815  0.1802  0.7095
 6950SOL     OW32308   0.830   2.555  14.264  0.0320 -0.2385  0.1272
 6950SOL    HW132309   0.833   2.509  14.349  2.9826  1.7584  1.0951
 6950SOL    HW232310   0.803   2.487  14.202 -1.6419 -1.4015  2.0950
 6951SOL     OW32311   1.930   2.123  16.305  0.2906 -0.1055 -0.1052
 6951SOL    HW132312   1.944   2.214  16.330 -1.9557 -0.2208  1.4578
 6951SOL    HW232313   1.887   2.137  16.221  0.3503 -3.5959 -0.7396
 6952SOL     OW32314   1.879   2.310   8.904 -0.2920  0.5826  0.1678
 6952SOL    HW132315   1.857   2.285   8.814 -0.5522  1.0759  0.0973
 6952SOL    HW232316   1.970   2.339   8.902  0.7963 -2.7603 -0.0715
 6953SOL     OW32317   0.171   3.699   9.086  0.5321  0.2482 -0.0215
 6953SOL    HW132318   0.076   3.686   9.085  0.8653 -2.0240  0.0314
 6953SOL    HW232319   0.185   3.732   9.175  0.6012  1.1033 -0.3435
 6954SOL     OW32320   2.253   1.605   5.553  0.7916  0.1175  0.0320
 6954SOL    HW132321   2.250   1.700   5.561  1.1424  0.1132  0.1755
 6954SOL    HW232322   2.271   1.592   5.460 -1.3799 -1.0309 -0.2449
 6955SOL     OW32323   3.733   1.325   2.427  0.1956  0.7583  0.1446
 6955SOL    HW132324   3.736   1.314   2.332  0.9929 -0.3954  0.2949
 6955SOL    HW232325   3.680   1.401   2.447 -1.0108  0.6619 -2.6623
 6956SOL     OW32326   3.650   1.348  12.443 -0.3555  0.4303 -0.0631
 6956SOL    HW132327   3.719   1.288  12.472  0.7074 -0.5531 -4.6095
 6956SOL    HW232328   3.583   1.347  12.512 -1.6371 -0.7289 -1.3236
 6957SOL     OW32329   4.182   3.773   0.881  0.3471 -0.5143 -0.0169
 6957SOL    HW132330   4.093   3.756   0.912  0.3746 -0.7833 -0.0929
 6957SOL    HW232331   4.179   3.797   0.789 -0.1234  1.3513  0.4735
 6958SOL     OW32332   3.716   4.514  11.518  0.5727 -0.1636  0.6073
 6958SOL    HW132333   3.737   4.607  11.529 -1.7827  0.4978 -0.3993
 6958SOL    HW232334   3.683   4.501  11.607  0.5104 -0.3727  0.5528
 6959SOL     OW32335   2.138   2.413   3.658 -0.4596  0.2741 -0.1502
 6959SOL    HW132336   2.043   2.399   3.657 -0.2849 -1.0715  0.6165
 6959SOL    HW232337   2.151   2.406   3.753 -1.2883 -2.8562 -0.2494
 6960SOL     OW32338   0.337   4.313   4.407 -0.3815  0.4236  0.4211
 6960SOL    HW132339   0.334   4.314   4.312  0.6288  2.3609  0.4111
 6960SOL    HW232340   0.277   4.239   4.415  0.2458 -0.2115 -0.7566
 6961SOL     OW32341   1.749   0.575   4.814  0.1662  0.2344  0.2165
 6961SOL    HW132342   1.672   0.538   4.769  0.2652 -0.0415  0.2767
 6961SOL    HW232343   1.744   0.542   4.904 -0.3336 -3.1063 -1.0395
 6962SOL     OW32344   3.341   2.950   0.423 -0.5779 -0.2262  0.5078
 6962SOL    HW132345   3.367   3.041   0.431 -0.9003 -0.0078 -0.9474
 6962SOL    HW232346   3.427   2.911   0.410  0.2681  1.8207  0.1409
 6963SOL     OW32347   4.357   4.484  10.706  0.0668 -0.0041  0.1601
 6963SOL    HW132348   4.394   4.573  10.706  2.8074 -1.1500 -0.9716
 6963SOL    HW232349   4.341   4.485  10.611 -1.5178  2.3097  0.4520
 6964SOL     OW32350   2.906   3.237   9.375  0.6420 -0.4968  0.1256
 6964SOL    HW132351   2.981   3.202   9.327  1.2010  1.3164 -0.3652
 6964SOL    HW232352   2.943   3.270   9.457 -1.7338  1.4523  0.3908
 6965SOL     OW32353   3.389   3.934   9.458  0.2292  0.3537 -0.1470
 6965SOL    HW132354   3.463   3.925   9.518 -0.6922 -1.4813  0.6988
 6965SOL    HW232355   3.361   3.844   9.445 -1.3221  0.7453  0.5551
 6966SOL     OW32356   2.226   3.951   9.819 -0.2561 -0.2499 -0.2894
 6966SOL    HW132357   2.258   3.861   9.823 -1.8058 -0.7356  1.2340
 6966SOL    HW232358   2.170   3.945   9.897 -0.7895 -0.1529 -0.6641
 6967SOL     OW32359   2.081   3.305   9.876 -0.3186  0.0573  0.2772
 6967SOL    HW132360   2.079   3.233   9.812 -0.5673  0.3611 -0.0593
 6967SOL    HW232361   2.170   3.336   9.861 -0.2407  0.5021  1.6964
 6968SOL     OW32362   0.258   4.213  16.662  0.0513 -0.6930  0.6167
 6968SOL    HW132363   0.241   4.236  16.754 -2.3167 -1.5205  0.3801
 6968SOL    HW232364   0.354   4.206  16.661  0.1963  1.3045  0.7247
 6969SOL     OW32365   3.815   4.286  12.032  0.2838 -0.1077  0.1579
 6969SOL    HW132366   3.853   4.277  11.945 -0.3268  1.6731 -0.3036
 6969SOL    HW232367   3.750   4.353  12.011  1.1104  0.5997 -0.1250
 6970SOL     OW32368   3.257   2.072   5.982 -1.1419 -0.0551 -0.3714
 6970SOL    HW132369   3.195   2.131   6.025 -1.5525 -0.1284 -0.8673
 6970SOL    HW232370   3.339   2.085   6.030 -0.4762 -1.0252 -1.2294
 6971SOL     OW32371   0.493   2.941  14.038  0.7500 -0.5817 -0.0652
 6971SOL    HW132372   0.419   2.975  14.088  1.9999 -1.5978  2.4707
 6971SOL    HW232373   0.568   2.952  14.096  0.1318 -1.0320  0.8194
 6972SOL     OW32374   4.606   1.730  13.254  0.2104  0.5685  0.4341
 6972SOL    HW132375   4.543   1.764  13.190 -1.5204 -2.3341  0.5906
 6972SOL    HW232376   4.666   1.802  13.234 -0.1842  0.6097 -0.6175
 6973SOL     OW32377   2.476   0.383   4.913  0.2026 -0.4892 -0.8559
 6973SOL    HW132378   2.382   0.368   4.904 -0.0914  0.2928  0.8652
 6973SOL    HW232379   2.490   0.368   5.006  0.9608  0.3498 -0.8300
 6974SOL     OW32380   0.382   3.224   5.072  0.3553 -0.0013  0.2376
 6974SOL    HW132381   0.352   3.298   5.124 -1.4909 -0.1697 -0.6022
 6974SOL    HW232382   0.365   3.250   4.982  0.6598  1.5501  0.6363
 6975SOL     OW32383   1.666   4.594  12.241 -0.1779 -0.0836  0.3936
 6975SOL    HW132384   1.682   4.501  12.252 -0.2235 -0.4110 -2.3944
 6975SOL    HW232385   1.744   4.638  12.275  1.1023 -2.5591  0.5936
 6976SOL     OW32386   1.332   3.797  10.986  0.0276  0.2864 -0.4702
 6976SOL    HW132387   1.416   3.753  10.997  0.6946  2.2900  2.4580
 6976SOL    HW232388   1.351   3.830  10.898  0.5789  1.4188  0.0793
 6977SOL     OW32389   4.314   3.303  16.121 -0.0020 -0.2852  0.4597
 6977SOL    HW132390   4.307   3.362  16.046 -0.3919 -0.4832  0.3391
 6977SOL    HW232391   4.315   3.372  16.187  1.0031  1.2103 -1.1066
 6978SOL     OW32392   2.051   3.829   2.955 -0.4706 -0.3984 -0.2922
 6978SOL    HW132393   2.085   3.918   2.963 -0.4883 -0.6383  2.3749
 6978SOL    HW232394   2.100   3.802   2.877  0.8278  0.6829  0.1509
 6979SOL     OW32395   3.307   2.270   9.262 -0.2621  0.0008  0.2164
 6979SOL    HW132396   3.294   2.308   9.348  0.1219 -0.6030  0.5369
 6979SOL    HW232397   3.229   2.215   9.250  0.2972 -0.5298 -0.9997
 6980SOL     OW32398   1.620   3.448   7.041 -0.1089  0.4898  0.4186
 6980SOL    HW132399   1.577   3.420   6.960  3.2629 -3.2685 -0.0948
 6980SOL    HW232400   1.603   3.378   7.104 -1.8618  0.0203 -0.5579
 6981SOL     OW32401   2.606   1.221   2.525 -0.8278  0.4674  0.0138
 6981SOL    HW132402   2.679   1.258   2.476  0.8787 -0.0361  2.2064
 6981SOL    HW232403   2.650   1.161   2.585 -0.0007  0.0170 -1.0564
 6982SOL     OW32404   1.999   4.181   6.745  0.2556 -0.3737  0.3533
 6982SOL    HW132405   2.052   4.114   6.701 -1.4448 -1.5901  0.1787
 6982SOL    HW232406   2.020   4.166   6.837  1.3169 -0.8461  0.0311
 6983SOL     OW32407   4.306   2.235   7.982  0.0911  0.2987  0.1324
 6983SOL    HW132408   4.320   2.328   8.000  1.3251 -0.7007  4.4055
 6983SOL    HW232409   4.302   2.194   8.069 -3.9789 -0.9476 -0.6527
 6984SOL     OW32410   2.370   2.267   8.658  0.2862 -0.2804  0.1905
 6984SOL    HW132411   2.354   2.275   8.752 -1.2219 -1.6959  0.0437
 6984SOL    HW232412   2.370   2.353   8.614 -0.1139  0.3171  1.3562
 6985SOL     OW32413   0.605   1.807   4.879  0.2632  0.0388 -0.4077
 6985SOL    HW132414   0.524   1.774   4.839  1.4699 -1.9021 -1.2432
 6985SOL    HW232415   0.577   1.821   4.969 -2.7789 -1.1129 -1.1765
 6986SOL     OW32416   2.879   1.236   4.669  0.9991 -0.2536  0.1003
 6986SOL    HW132417   2.957   1.209   4.718  1.0413 -1.1549 -0.4666
 6986SOL    HW232418   2.919   1.301   4.611  2.5275 -0.5243  0.8362
 6987SOL     OW32419   4.551   1.601   3.232  0.3075 -0.7343 -0.2987
 6987SOL    HW132420   4.583   1.668   3.292  2.1199  0.2216 -2.3478
 6987SOL    HW232421   4.475   1.649   3.198  1.1838 -0.0443 -1.3039
 6988SOL     OW32422   1.828   2.676   6.619  0.0530 -0.5364  0.0416
 6988SOL    HW132423   1.811   2.594   6.572  1.1256 -0.8276  0.1616
 6988SOL    HW232424   1.805   2.747   6.558  3.4931 -1.7011 -2.6321
 6989SOL     OW32425   3.424   3.017  15.979 -0.1328 -0.2993 -1.0460
 6989SOL    HW132426   3.413   3.007  16.073 -0.2100 -0.3002 -1.0555
 6989SOL    HW232427   3.450   3.108  15.969 -1.3015  0.0400 -1.0025
 6990SOL     OW32428   0.964   0.077   9.301  0.5687  0.0704 -0.1276
 6990SOL    HW132429   0.996   0.057   9.213 -2.9259 -1.4706 -1.0562
 6990SOL    HW232430   0.871   0.068   9.285  0.7795  0.7397 -1.6986
 6991SOL     OW32431   3.906   3.419   8.668  0.3036 -0.0781 -0.5231
 6991SOL    HW132432   3.998   3.395   8.680  0.3191  0.7208  0.9627
 6991SOL    HW232433   3.930   3.502   8.628 -2.1548  1.6638  1.6547
 6992SOL     OW32434   1.654   0.469  14.024 -0.6243 -0.9840 -0.4118
 6992SOL    HW132435   1.667   0.555  14.064 -0.5972 -0.1109 -2.2947
 6992SOL    HW232436   1.595   0.430  14.089  0.4427 -0.7895  0.6632
 6993SOL     OW32437   3.218   3.243   2.969 -0.2938 -0.1450  0.0205
 6993SOL    HW132438   3.140   3.286   2.933  0.4174  0.7709 -0.4200
 6993SOL    HW232439   3.188   3.152   2.966 -1.9209  0.3978 -0.2533
 6994SOL     OW32440   4.096   2.864   5.149  0.1287  0.2087 -0.5442
 6994SOL    HW132441   4.044   2.860   5.228 -0.6942 -0.8075 -1.1437
 6994SOL    HW232442   4.085   2.776   5.113 -0.3423 -0.6506  1.7624
 6995SOL     OW32443   1.369   1.138   7.518 -0.1088  0.2736 -0.2366
 6995SOL    HW132444   1.397   1.209   7.575  0.6513  0.7140 -1.1568
 6995SOL    HW232445   1.276   1.154   7.500 -0.5503  1.7490  3.3934
 6996SOL     OW32446   4.610   3.049   7.255 -0.1974 -0.1451 -0.1761
 6996SOL    HW132447   4.552   3.125   7.247 -1.2508 -0.8992  0.3444
 6996SOL    HW232448   4.692   3.085   7.288  0.1663 -0.2269 -0.9918
 6997SOL     OW32449   4.192   3.088   8.589  0.0763 -0.0549  0.1024
 6997SOL    HW132450   4.257   3.071   8.657  0.9630 -3.5541 -1.6200
 6997SOL    HW232451   4.245   3.055   8.517  1.1023  0.0188  0.8290
 6998SOL     OW32452   2.134   0.737   9.366  0.3088 -0.1132 -0.4835
 6998SOL    HW132453   2.094   0.694   9.290  1.2091 -1.1232 -0.3773
 6998SOL    HW232454   2.218   0.692   9.376  0.3499 -0.2112 -1.2545
 6999SOL     OW32455   3.821   1.845   9.003  0.2305  0.4418 -0.1727
 6999SOL    HW132456   3.884   1.917   9.008 -1.4350  1.8719  0.4562
 6999SOL    HW232457   3.758   1.883   8.941 -1.3547 -1.2371  0.4059
 7000SOL     OW32458   3.225   2.812  12.056 -0.9221  0.6343 -0.0639
 7000SOL    HW132459   3.259   2.740  12.003  0.2087  0.9361  0.2519
 7000SOL    HW232460   3.263   2.790  12.141  0.8335  4.2388  0.0668
 7001SOL     OW32461   4.070   3.007   3.187 -0.3931 -0.1063 -0.7062
 7001SOL    HW132462   4.058   2.934   3.248  1.2069 -0.4487 -0.7927
 7001SOL    HW232463   4.128   2.969   3.121 -0.4291 -0.7486 -0.3692
 7002SOL     OW32464   1.077   4.280   0.655  0.0234 -0.2733 -0.2624
 7002SOL    HW132465   1.011   4.212   0.665 -1.5111  1.3369  0.6617
 7002SOL    HW232466   1.036   4.358   0.693  0.8999 -0.0462  0.2351
 7003SOL     OW32467   0.225   1.541  13.694  0.1592 -0.8916 -0.3520
 7003SOL    HW132468   0.240   1.554  13.601 -0.8424 -2.3664 -0.7187
 7003SOL    HW232469   0.155   1.475  13.699  0.5662 -1.3297 -0.3777
 7004SOL     OW32470   4.236   2.365  12.433 -0.3681  0.2365 -0.0635
 7004SOL    HW132471   4.267   2.455  12.436  1.4368 -0.4448  1.5592
 7004SOL    HW232472   4.160   2.381  12.378 -2.4490 -1.5368  2.2643
 7005SOL     OW32473   1.106   1.216  13.597 -0.2834 -0.1034  0.3187
 7005SOL    HW132474   1.144   1.282  13.655 -0.3840 -0.1752  0.4651
 7005SOL    HW232475   1.147   1.136  13.630  2.0012  0.8003 -0.3091
 7006SOL     OW32476   1.141   2.791   7.856 -0.7102  1.0712 -0.3908
 7006SOL    HW132477   1.119   2.707   7.816  2.0367 -0.2040  0.7486
 7006SOL    HW232478   1.054   2.827   7.871 -1.7743 -1.3479 -0.8300
 7007SOL     OW32479   3.288   2.034   2.334  0.3257 -0.1961 -0.3420
 7007SOL    HW132480   3.203   2.037   2.290 -0.0480 -0.4825  0.3605
 7007SOL    HW232481   3.270   2.106   2.395  0.4986  0.6363 -1.2662
 7008SOL     OW32482   4.711   1.744   5.646 -0.0022 -0.4006 -0.4932
 7008SOL    HW132483   0.035   1.780   5.720 -0.7604 -1.8191  0.7178
 7008SOL    HW232484   4.631   1.796   5.652  0.3295 -0.2437  3.0621
 7009SOL     OW32485   0.321   4.196   8.993  0.4594  0.6114 -0.1893
 7009SOL    HW132486   0.316   4.101   8.997  0.2388  0.6508  0.4553
 7009SOL    HW232487   0.274   4.215   8.912  0.1884 -2.0479 -0.6457
 7010SOL     OW32488   1.269   1.332   3.680 -0.4542 -0.1964 -0.8852
 7010SOL    HW132489   1.334   1.349   3.747 -2.4328  1.2852  0.6547
 7010SOL    HW232490   1.199   1.392   3.703  1.7575  2.2189 -0.4903
 7011SOL     OW32491   1.797   1.677   7.583  0.3193  0.0576  0.3346
 7011SOL    HW132492   1.883   1.694   7.621  1.0317 -1.9358 -0.3969
 7011SOL    HW232493   1.814   1.639   7.497 -2.9173  0.8951 -0.6778
 7012SOL     OW32494   2.076   1.000  15.145 -0.0461 -0.0558  0.1210
 7012SOL    HW132495   2.125   0.969  15.069 -0.1562 -2.6487  1.0987
 7012SOL    HW232496   2.148   1.048  15.185 -0.7221 -0.8064  2.2375
 7013SOL     OW32497   0.396   0.664  17.158  0.3050 -0.0299 -0.4523
 7013SOL    HW132498   0.344   0.625  17.087 -1.5043 -0.0606  0.8905
 7013SOL    HW232499   0.328   0.715  17.202  0.3776  0.8182 -1.3302
 7014SOL     OW32500   2.554   3.137   8.992  0.4032  0.4812 -0.1404
 7014SOL    HW132501   2.626   3.075   9.007 -1.0301 -0.9345  0.9337
 7014SOL    HW232502   2.476   3.098   9.033  0.7744  0.5877  0.6612
 7015SOL     OW32503   0.988   2.106   8.108  0.2269 -0.4233  0.1455
 7015SOL    HW132504   0.991   2.145   8.020 -0.4961  0.7053  0.6139
 7015SOL    HW232505   0.948   2.182   8.151  2.4711  1.5474 -1.1736
 7016SOL     OW32506   1.516   1.108   4.789  0.1886 -0.5331  0.6157
 7016SOL    HW132507   1.504   1.083   4.880  1.5527  0.1800  0.9866
 7016SOL    HW232508   1.611   1.099   4.788  0.2438  0.1338 -0.7221
 7017SOL     OW32509   4.100   3.596   0.445  0.3727  0.1575  0.0679
 7017SOL    HW132510   4.085   3.503   0.432  1.4058  0.5040 -3.6858
 7017SOL    HW232511   4.164   3.617   0.377  1.9896 -1.3602  1.1240
 7018SOL     OW32512   2.649   2.813   2.357  0.5991  0.2508  0.5927
 7018SOL    HW132513   2.568   2.844   2.398 -0.8142  1.6377 -3.2193
 7018SOL    HW232514   2.650   2.720   2.379  1.4588  0.6531  2.2180
 7019SOL     OW32515   3.761   2.277  10.358  0.0422  0.0330  0.6970
 7019SOL    HW132516   3.828   2.346  10.364 -1.6196  1.8964 -2.4522
 7019SOL    HW232517   3.800   2.226  10.288  0.1110 -0.1093  0.8379
 7020SOL     OW32518   3.926   2.204   2.742 -0.4128 -0.9074 -0.3716
 7020SOL    HW132519   3.837   2.239   2.744 -0.4913 -1.0594 -1.1764
 7020SOL    HW232520   3.953   2.192   2.651  0.4830 -2.6546  0.1304
 7021SOL     OW32521   2.499   1.851   8.491  0.0046 -0.4619 -0.1130
 7021SOL    HW132522   2.470   1.805   8.570 -0.0403  0.0466  0.1724
 7021SOL    HW232523   2.590   1.823   8.479 -0.0041 -0.3459 -0.4535
 7022SOL     OW32524   2.298   1.714   7.595 -0.1743 -0.4078  0.3719
 7022SOL    HW132525   2.372   1.741   7.541 -0.5410 -1.5560 -0.7158
 7022SOL    HW232526   2.336   1.644   7.648 -0.0201 -0.0706  0.7108
 7023SOL     OW32527   0.254   4.323   3.558  0.4304 -0.1861  0.3716
 7023SOL    HW132528   0.327   4.339   3.498 -0.5883  2.6873 -0.0851
 7023SOL    HW232529   0.228   4.233   3.537 -3.5179  1.3559 -1.4035
 7024SOL     OW32530   2.673   1.083   6.001  0.3857  0.3570  0.3361
 7024SOL    HW132531   2.664   1.057   5.909  1.0159 -1.2090  0.7262
 7024SOL    HW232532   2.638   1.012   6.055  2.7673 -1.2857 -0.2814
 7025SOL     OW32533   1.988   2.204   6.405  0.3053 -0.0550 -0.1162
 7025SOL    HW132534   1.933   2.132   6.377 -0.4348  1.0418 -1.4983
 7025SOL    HW232535   2.040   2.150   6.465  1.4557 -1.4353 -2.3729
 7026SOL     OW32536   3.327   4.456   8.586 -0.5570  0.3552  0.1599
 7026SOL    HW132537   3.363   4.543   8.603 -0.4853  0.8724 -2.5591
 7026SOL    HW232538   3.386   4.427   8.516 -0.6381 -0.5755  0.4815
 7027SOL     OW32539   3.349   3.990   1.313 -0.5295  0.7117 -0.3593
 7027SOL    HW132540   3.378   3.899   1.317 -0.6612  0.7314  0.9377
 7027SOL    HW232541   3.281   3.991   1.380 -1.3976  4.4425 -1.2970
 7028SOL     OW32542   1.655   2.209   6.244 -0.6762  0.0475  0.4501
 7028SOL    HW132543   1.658   2.303   6.226 -0.9452 -0.2209 -1.0285
 7028SOL    HW232544   1.652   2.174   6.155 -0.7811  0.1523  0.4130
 7029SOL     OW32545   1.992   0.983   9.241  0.0665  0.2129  0.0634
 7029SOL    HW132546   2.048   0.912   9.270  0.6638  1.2882  1.5052
 7029SOL    HW232547   2.061   1.034   9.199 -0.9811  0.8220 -0.9119
 7030SOL     OW32548   1.446   2.726   3.179  0.1142 -0.3418 -0.0620
 7030SOL    HW132549   1.482   2.659   3.122  0.7172 -1.1254  1.2495
 7030SOL    HW232550   1.426   2.796   3.117 -0.5383 -1.3208 -0.9320
 7031SOL     OW32551   1.917   3.615  11.623 -0.4735 -0.3690  0.6704
 7031SOL    HW132552   1.991   3.567  11.587 -0.6053  1.1459 -1.6492
 7031SOL    HW232553   1.841   3.569  11.588 -0.5508 -0.6784  1.2494
 7032SOL     OW32554   0.940   0.589   3.727 -0.4200  0.1837  0.1053
 7032SOL    HW132555   0.974   0.529   3.793  0.7199 -2.3722 -2.7920
 7032SOL    HW232556   1.004   0.592   3.656  0.3641  3.0411  0.9277
 7033SOL     OW32557   3.026   3.483   7.503 -0.2174 -0.3720 -0.0428
 7033SOL    HW132558   2.990   3.556   7.554 -3.1300 -0.3788 -2.0869
 7033SOL    HW232559   3.024   3.518   7.414  0.6044  2.6550  1.1505
 7034SOL     OW32560   3.216   1.582   6.434  0.3755 -0.5813  0.6582
 7034SOL    HW132561   3.179   1.607   6.350 -1.1123 -2.1829  0.8543
 7034SOL    HW232562   3.174   1.497   6.442  1.5426 -1.0386  1.9966
 7035SOL     OW32563   0.420   1.916   8.681 -0.6088 -0.2290 -0.4788
 7035SOL    HW132564   0.345   1.908   8.740  0.0582  0.3132  0.4369
 7035SOL    HW232565   0.449   2.000   8.716  2.4925 -1.8780  0.9377
 7036SOL     OW32566   4.271   3.004   8.133  0.0508  0.3355 -0.2910
 7036SOL    HW132567   4.284   2.914   8.102  2.9263  0.6096  0.1237
 7036SOL    HW232568   4.179   3.012   8.111 -0.2223 -1.9795 -0.0115
 7037SOL     OW32569   4.431   4.093   2.791 -0.0280 -0.0270 -0.1061
 7037SOL    HW132570   4.435   4.179   2.748  1.2394  0.3300  0.7498
 7037SOL    HW232571   4.436   4.116   2.883  1.4449 -0.1456 -0.1671
 7038SOL     OW32572   0.735   0.154  10.505  0.3810  0.3745 -0.3786
 7038SOL    HW132573   0.790   0.230  10.523 -0.1630  0.6199  0.2016
 7038SOL    HW232574   0.770   0.145  10.416  0.5155  2.1982 -0.5020
 7039SOL     OW32575   2.163   3.059   6.581 -0.2600  0.1607  0.3564
 7039SOL    HW132576   2.214   2.979   6.564  1.5444  1.1215  1.2646
 7039SOL    HW232577   2.157   3.105   6.497 -0.4722  2.7824  1.8402
 7040SOL     OW32578   4.341   0.305  15.825 -0.1787  0.3448  0.1249
 7040SOL    HW132579   4.312   0.310  15.916 -1.4993  1.7213 -0.3837
 7040SOL    HW232580   4.345   0.399  15.804 -2.0347  0.4749  0.4019
 7041SOL     OW32581   0.389   1.341   2.103 -0.0456 -0.6831 -0.1952
 7041SOL    HW132582   0.305   1.334   2.057 -0.2843  1.1261 -0.0373
 7041SOL    HW232583   0.397   1.436   2.107 -1.2170 -0.6805  2.1336
 7042SOL     OW32584   0.689   3.621   6.641  0.3415 -0.2311  0.1004
 7042SOL    HW132585   0.726   3.535   6.619 -0.6750  0.1429 -3.0402
 7042SOL    HW232586   0.693   3.605   6.735  2.3812 -0.6494 -0.0677
 7043SOL     OW32587   1.043   1.181   6.365  0.0093 -0.7114  0.1599
 7043SOL    HW132588   0.967   1.227   6.402  0.6997  2.1015 -1.9234
 7043SOL    HW232589   1.047   1.090   6.395 -0.9582 -1.5708 -2.3008
 7044SOL     OW32590   0.539   3.369   2.921  0.1133  0.1832 -0.6252
 7044SOL    HW132591   0.599   3.443   2.909  0.8538 -0.4411 -0.7371
 7044SOL    HW232592   0.605   3.300   2.921 -0.6823 -0.5809  0.4393
 7045SOL     OW32593   1.081   2.804  16.402  0.0193  0.0859  0.2288
 7045SOL    HW132594   1.026   2.789  16.326 -0.2334 -1.4997  0.7313
 7045SOL    HW232595   1.160   2.766  16.364  0.1728  0.7702 -0.1482
 7046SOL     OW32596   3.688   2.428   4.907  0.2422 -0.7695 -0.7557
 7046SOL    HW132597   3.609   2.422   4.854  1.2480 -0.2447 -2.3307
 7046SOL    HW232598   3.740   2.494   4.860 -0.1227 -0.6654 -1.0166
 7047SOL     OW32599   4.452   1.745  16.824 -0.6557  0.4920 -0.2141
 7047SOL    HW132600   4.501   1.740  16.742  3.3603 -0.1923  2.2293
 7047SOL    HW232601   4.457   1.839  16.841 -0.3880  0.7102 -1.5045
 7048SOL     OW32602   4.317   3.774   7.775  0.3942 -0.2179 -0.7449
 7048SOL    HW132603   4.279   3.723   7.703 -0.9878 -0.9904  0.5259
 7048SOL    HW232604   4.317   3.717   7.852 -2.8662  1.7243  0.6992
 7049SOL     OW32605   3.576   3.045   3.642 -0.3878 -0.1865  0.2152
 7049SOL    HW132606   3.554   3.079   3.729  0.8537  1.2677 -0.0508
 7049SOL    HW232607   3.595   3.127   3.597 -0.2514 -0.2643  0.1305
 7050SOL     OW32608   2.155   0.875   2.602  0.3469 -0.3003 -0.3070
 7050SOL    HW132609   2.241   0.910   2.582  0.3111  0.9744  1.8011
 7050SOL    HW232610   2.150   0.790   2.558  2.3961 -0.3111 -0.4965
 7051SOL     OW32611   0.318   2.117   4.447 -0.4136 -0.4238  0.8217
 7051SOL    HW132612   0.229   2.131   4.416  0.7848 -0.2197 -2.4649
 7051SOL    HW232613   0.301   2.132   4.540 -2.6283 -0.3264  0.3999
 7052SOL     OW32614   3.265   3.242   8.758 -0.0503 -0.4280 -0.2696
 7052SOL    HW132615   3.262   3.338   8.749 -0.8556 -0.5308 -1.0581
 7052SOL    HW232616   3.360   3.229   8.759 -0.1439 -0.7706  3.2599
 7053SOL     OW32617   2.906   1.459   1.825  0.4515  0.3668  0.5680
 7053SOL    HW132618   2.942   1.531   1.773 -3.1527  2.0838  0.4629
 7053SOL    HW232619   2.814   1.483   1.824  0.4327  0.1901 -2.5368
 7054SOL     OW32620   4.713   3.848   0.501 -0.3471 -0.2159 -0.1960
 7054SOL    HW132621   4.701   3.941   0.482 -1.5731  0.0078  1.7197
 7054SOL    HW232622   4.636   3.825   0.552 -0.5038  0.6350 -0.0407
 7055SOL     OW32623   0.933   4.568   3.391  0.0747 -0.1325  0.0931
 7055SOL    HW132624   1.027   4.585   3.389  0.3478 -1.6652 -0.2190
 7055SOL    HW232625   0.915   4.576   3.484  1.7512 -2.4530  0.6065
 7056SOL     OW32626   4.670   2.524   2.170 -0.0860  0.3290 -0.2749
 7056SOL    HW132627   0.017   2.462   2.176 -1.2625 -0.7999  2.3792
 7056SOL    HW232628   4.593   2.468   2.180  0.0790  0.2260  0.3956
 7057SOL     OW32629   2.632   4.608   8.540 -0.4817  0.2487  0.1233
 7057SOL    HW132630   2.642   4.554   8.462  0.4963  0.4937  0.0856
 7057SOL    HW232631   2.586   4.551   8.602  2.0607 -2.5555 -0.6133
 7058SOL     OW32632   0.214   1.455   5.431  0.5494  1.1368  0.0634
 7058SOL    HW132633   0.124   1.485   5.419 -0.0034 -0.4120  0.3256
 7058SOL    HW232634   0.230   1.464   5.525  2.4843 -2.3007  0.0527
 7059SOL     OW32635   2.862   2.248   7.809  0.2727  0.1297  0.5389
 7059SOL    HW132636   2.935   2.240   7.871  0.2093  0.9550  0.7180
 7059SOL    HW232637   2.860   2.344   7.808  0.6247  0.1272 -0.6550
 7060SOL     OW32638   0.562   1.281  13.446  0.7240 -0.6263 -0.0495
 7060SOL    HW132639   0.589   1.196  13.481 -3.3051 -2.0690 -0.3845
 7060SOL    HW232640   0.636   1.337  13.469  0.0907  0.0090  0.4368
 7061SOL     OW32641   4.511   3.073   2.416 -0.1873  0.6523 -0.1319
 7061SOL    HW132642   4.544   2.993   2.374  0.2802  1.3582 -1.0884
 7061SOL    HW232643   4.525   3.127   2.339  0.9854  0.7672  0.1583
 7062SOL     OW32644   0.134   4.456  14.309 -0.4204  0.4763  0.4267
 7062SOL    HW132645   0.089   4.508  14.243 -2.2227  0.3668  1.5555
 7062SOL    HW232646   0.221   4.447  14.270  0.0018  0.3142  1.3828
 7063SOL     OW32647   2.264   3.035   3.369 -0.3952  0.0557  0.0622
 7063SOL    HW132648   2.297   2.987   3.293 -0.2744 -0.7377  0.6149
 7063SOL    HW232649   2.291   3.126   3.361 -0.2340  0.0997  1.0109
 7064SOL     OW32650   3.317   0.011   2.839  0.5331 -0.2202  0.1676
 7064SOL    HW132651   3.309   4.675   2.766  1.3932 -0.2471  0.0903
 7064SOL    HW232652   3.324   0.096   2.796 -2.6488  0.0767  0.2813
 7065SOL     OW32653   0.184   0.906   6.959 -0.2777  0.3494 -0.2921
 7065SOL    HW132654   0.195   0.864   6.873 -1.3670  0.1567 -0.3370
 7065SOL    HW232655   0.258   0.966   6.953  0.0309 -0.0965 -0.9264
 7066SOL     OW32656   1.216   4.388   7.600  0.0121 -0.1438 -0.3328
 7066SOL    HW132657   1.185   4.433   7.521  0.5050 -2.0968 -1.6254
 7066SOL    HW232658   1.280   4.321   7.576  0.3455 -0.2698  0.9007
 7067SOL     OW32659   2.381   3.012   9.477 -0.4426 -0.1435  0.5057
 7067SOL    HW132660   2.360   3.097   9.517 -0.9320 -0.2029  0.3814
 7067SOL    HW232661   2.458   2.999   9.532 -1.2999  0.6748  1.9108
 7068SOL     OW32662   2.863   3.576   3.314  0.2398  0.3371 -0.1603
 7068SOL    HW132663   2.938   3.620   3.276  0.8431 -0.5619 -0.0021
 7068SOL    HW232664   2.847   3.636   3.387  0.5566  0.8939 -0.5481
 7069SOL     OW32665   1.236   4.432   5.471 -0.1599 -0.8234  0.5245
 7069SOL    HW132666   1.282   4.508   5.505  0.0328 -1.4150  1.6044
 7069SOL    HW232667   1.275   4.367   5.530  2.6676  0.5648  0.1627
 7070SOL     OW32668   2.772   4.175   2.694  0.1269  0.8859 -0.5173
 7070SOL    HW132669   2.787   4.099   2.638  1.3441 -0.4432  1.6093
 7070SOL    HW232670   2.855   4.173   2.741 -0.5296 -0.1053  0.5795
 7071SOL     OW32671   3.982   0.055   2.926  0.2008 -0.5057  0.0928
 7071SOL    HW132672   3.924   0.001   2.979  2.2471 -2.2767  0.5392
 7071SOL    HW232673   4.062   0.003   2.914  0.3585 -0.1208 -0.5491
 7072SOL     OW32674   4.102   0.337   7.649  0.2372  0.1765 -0.2036
 7072SOL    HW132675   4.126   0.374   7.564  1.2600  1.8710  0.8172
 7072SOL    HW232676   4.098   0.246   7.618 -1.2403  0.2835 -0.3087
 7073SOL     OW32677   2.265   4.327  10.467  0.0055  0.0479 -0.0288
 7073SOL    HW132678   2.222   4.260  10.414 -1.2768  2.8364 -2.5503
 7073SOL    HW232679   2.202   4.322  10.538 -0.2567 -0.3458 -0.2884
 7074SOL     OW32680   0.639   2.796   4.682  0.2622 -0.4110  0.3421
 7074SOL    HW132681   0.609   2.801   4.592  0.9838 -0.6600  0.0848
 7074SOL    HW232682   0.609   2.707   4.699 -0.4952  0.1461  1.9221
 7075SOL     OW32683   1.841   3.907   6.890 -0.4548  1.0861 -0.3581
 7075SOL    HW132684   1.927   3.871   6.869 -0.3552  0.4751  1.0842
 7075SOL    HW232685   1.807   3.829   6.933  0.2711  0.7542 -0.3818
 7076SOL     OW32686   3.154   3.750   0.449 -0.2190  0.1608  0.0792
 7076SOL    HW132687   3.092   3.797   0.394  0.2834  1.1426  0.3627
 7076SOL    HW232688   3.100   3.713   0.519 -0.6422 -1.0171 -0.8654
 7077SOL     OW32689   0.136   2.431  12.723 -0.3426 -0.0376 -0.1788
 7077SOL    HW132690   0.197   2.383  12.667  0.4003  2.4799 -1.5387
 7077SOL    HW232691   0.118   2.509  12.671 -0.2177  0.3809  0.4006
 7078SOL     OW32692   4.664   4.690   1.079 -0.4528  0.0253 -0.7195
 7078SOL    HW132693   4.685   0.028   1.011 -4.2792  2.8109  0.6471
 7078SOL    HW232694   0.005   4.622   1.066 -1.8942 -1.2484 -1.3188
 7079SOL     OW32695   2.452   3.474   9.321 -0.1468  0.0191 -0.4047
 7079SOL    HW132696   2.525   3.431   9.365  0.4127  2.1790  0.7208
 7079SOL    HW232697   2.484   3.461   9.231 -0.3811 -0.9488 -0.3513
 7080SOL     OW32698   1.963   4.631   2.908 -0.0396 -0.0103  0.0635
 7080SOL    HW132699   1.871   4.646   2.930  0.9608  1.6691  3.2634
 7080SOL    HW232700   1.994   4.721   2.921  1.4019 -0.4628 -0.3057
 7081SOL     OW32701   0.903   0.612   6.366  0.2864 -0.3747  0.0083
 7081SOL    HW132702   0.854   0.663   6.301 -0.0015 -0.7697 -0.0870
 7081SOL    HW232703   0.989   0.644   6.338 -1.4746  1.7811 -2.9551
 7082SOL     OW32704   3.391   4.392   1.833  0.0358 -0.1605  0.2649
 7082SOL    HW132705   3.295   4.390   1.831 -0.0237  2.0888  0.7012
 7082SOL    HW232706   3.397   4.318   1.894 -0.2614  0.2027  0.7350
 7083SOL     OW32707   0.945   2.500   4.286 -0.1861  0.2878 -0.1504
 7083SOL    HW132708   0.889   2.525   4.359  0.4889 -1.2758  0.9102
 7083SOL    HW232709   0.907   2.415   4.264  1.8727 -1.0729  1.5689
 7084SOL     OW32710   0.675   4.246   6.331  0.2497  0.8676  0.2181
 7084SOL    HW132711   0.659   4.222   6.422 -1.0325  0.8857  0.0078
 7084SOL    HW232712   0.638   4.165   6.295 -1.3281  0.7219  2.1059
 7085SOL     OW32713   3.258   4.203   9.205  0.6155  0.0318  0.3084
 7085SOL    HW132714   3.324   4.269   9.185  0.5798 -0.0458 -0.0629
 7085SOL    HW232715   3.263   4.198   9.301 -1.0522 -0.8546  0.3590
 7086SOL     OW32716   0.569   4.172   4.463 -0.6154  0.0340 -0.0759
 7086SOL    HW132717   0.518   4.117   4.404 -2.0833  1.9437 -0.5748
 7086SOL    HW232718   0.525   4.256   4.456  0.1214  0.4157 -0.1697
 7087SOL     OW32719   3.834   2.300  17.235 -0.3705  0.1960 -0.2157
 7087SOL    HW132720   3.811   2.217  17.278 -0.4269  0.9684  1.2463
 7087SOL    HW232721   3.879   2.332  17.313  0.8482 -1.2893 -0.2893
 7088SOL     OW32722   3.556   1.472   3.106 -0.1875  0.6563  0.4708
 7088SOL    HW132723   3.502   1.521   3.043  0.0453  1.4256  0.8675
 7088SOL    HW232724   3.642   1.508   3.083  1.0790 -1.5316  1.8447
 7089SOL     OW32725   1.765   4.253   4.098 -0.0094 -0.3036 -0.4447
 7089SOL    HW132726   1.825   4.324   4.117 -1.8888  1.3867 -0.8069
 7089SOL    HW232727   1.700   4.271   4.166 -1.8129 -0.8578 -2.0283
 7090SOL     OW32728   4.079   0.481  15.733 -0.0548  0.2706  1.1214
 7090SOL    HW132729   4.073   0.391  15.767 -0.8459 -0.5554 -1.2272
 7090SOL    HW232730   3.990   0.501  15.706  0.0663 -1.2060 -0.3509
 7091SOL     OW32731   0.127   1.879   2.305 -0.4502 -0.0720  0.5529
 7091SOL    HW132732   0.096   1.937   2.236 -1.9547  0.3664  1.5877
 7091SOL    HW232733   0.150   1.946   2.369 -1.4302  1.6848 -0.9331
 7092SOL     OW32734   0.104   2.199   4.296 -0.4733 -0.0532 -0.2494
 7092SOL    HW132735   0.098   2.134   4.225 -0.8482 -2.5482  2.0791
 7092SOL    HW232736   0.079   2.277   4.246 -1.2084 -0.5946 -0.7198
 7093SOL     OW32737   2.006   3.102   9.695  0.5306 -0.6949  0.6805
 7093SOL    HW132738   1.913   3.083   9.678  0.5281 -0.7536  0.7619
 7093SOL    HW232739   2.014   3.032   9.760 -1.2396 -2.0560 -0.5794
 7094SOL     OW32740   3.719   1.895  16.615 -0.0242 -0.3793 -0.4119
 7094SOL    HW132741   3.769   1.921  16.539  1.9604  0.2975  1.1254
 7094SOL    HW232742   3.678   1.977  16.642  3.5190  1.5610 -1.0597
 7095SOL     OW32743   3.419   2.026   0.733 -0.0745  0.1874 -0.1433
 7095SOL    HW132744   3.413   2.087   0.806  0.0544  0.8464 -0.6857
 7095SOL    HW232745   3.508   2.047   0.706  0.3194 -1.6686 -0.3292
 7096SOL     OW32746   2.153   2.875   9.089  0.3630 -0.1601 -0.6948
 7096SOL    HW132747   2.157   2.800   9.030  0.7600 -2.1211  1.8292
 7096SOL    HW232748   2.061   2.879   9.115  0.2968 -1.2565 -0.7497
 7097SOL     OW32749   0.342   3.488   3.334  0.7352  0.0750  0.1360
 7097SOL    HW132750   0.419   3.474   3.279 -0.1555  0.8917 -1.3139
 7097SOL    HW232751   0.287   3.536   3.273  1.0352  0.5249  0.2189
 7098SOL     OW32752   1.061   1.019  17.256  0.1460 -0.6872  0.4744
 7098SOL    HW132753   1.097   1.107  17.262  1.2434 -1.0987 -0.1159
 7098SOL    HW232754   1.007   1.022  17.177  0.5427  0.4374  0.2539
 7099SOL     OW32755   3.336   0.708   9.626 -0.9098  0.2364  0.5542
 7099SOL    HW132756   3.256   0.742   9.668  0.3996  0.1211  3.1341
 7099SOL    HW232757   3.375   0.664   9.701 -1.1538  0.1935  0.6588
 7100SOL     OW32758   4.328   0.677  14.491 -0.4688  0.4101  0.4695
 7100SOL    HW132759   4.249   0.727  14.511 -1.3806 -1.5957  1.9068
 7100SOL    HW232760   4.370   0.694  14.575 -2.7077  0.0987  1.6500
 7101SOL     OW32761   1.994   2.535   5.984 -0.2938 -0.2290  0.0471
 7101SOL    HW132762   1.908   2.578   5.979  0.3206  0.8271 -1.3696
 7101SOL    HW232763   2.008   2.510   5.893 -2.3268 -0.6487 -0.1542
 7102SOL     OW32764   4.547   0.359   2.811  0.2783  0.3106 -0.1968
 7102SOL    HW132765   4.570   0.346   2.718  1.8132  0.8348  0.1145
 7102SOL    HW232766   4.571   0.451   2.819 -0.9377  0.6945 -0.9039
 7103SOL     OW32767   2.836   2.550   3.387  0.5172  0.0540 -0.2426
 7103SOL    HW132768   2.815   2.580   3.299 -1.6348 -0.4622  0.0879
 7103SOL    HW232769   2.771   2.480   3.388 -0.8022  1.3357  2.1745
 7104SOL     OW32770   0.639   0.960  13.422  0.0064  0.1543 -0.4068
 7104SOL    HW132771   0.708   1.021  13.446 -1.4180  1.7605 -0.4566
 7104SOL    HW232772   0.566   0.968  13.484  0.4538 -0.6773  0.2295
 7105SOL     OW32773   3.806   3.183   6.908  0.4508  0.2902 -0.6366
 7105SOL    HW132774   3.843   3.203   6.822 -1.4078  0.0793 -1.4854
 7105SOL    HW232775   3.805   3.087   6.898  0.5667  0.1547  0.5849
 7106SOL     OW32776   3.006   1.487   2.944  0.2669 -0.0015  0.7658
 7106SOL    HW132777   3.060   1.497   2.866  2.2557 -1.3637  1.9732
 7106SOL    HW232778   2.983   1.577   2.967 -2.6411 -0.6719  0.4299
 7107SOL     OW32779   4.262   2.502   9.785  0.7484  0.1791  0.1692
 7107SOL    HW132780   4.208   2.567   9.741  0.0135  0.1948  1.0967
 7107SOL    HW232781   4.350   2.518   9.751  1.5567 -0.0603  2.1463
 7108SOL     OW32782   3.605   3.821   8.214  0.0440  0.0562 -0.0639
 7108SOL    HW132783   3.650   3.845   8.295  0.6367  0.9461 -0.6592
 7108SOL    HW232784   3.516   3.825   8.251  0.5969 -0.8998  1.3617
 7109SOL     OW32785   1.770   0.250   3.632  0.1750  0.2474 -0.2033
 7109SOL    HW132786   1.757   0.155   3.633  0.5723  0.1826 -0.9157
 7109SOL    HW232787   1.733   0.274   3.547  0.6139 -0.4897 -0.6106
 7110SOL     OW32788   3.331   4.457  14.714  0.2841  0.1497 -0.0698
 7110SOL    HW132789   3.319   4.464  14.809 -1.7610 -0.7690 -0.2726
 7110SOL    HW232790   3.248   4.427  14.677  0.7626  0.7009 -1.5946
 7111SOL     OW32791   4.146   2.640  15.273  0.2202 -0.6804 -0.6941
 7111SOL    HW132792   4.085   2.568  15.257  0.1236 -1.0000  1.1239
 7111SOL    HW232793   4.164   2.680  15.187 -0.4454  1.8732  0.3589
 7112SOL     OW32794   3.679   0.593   3.282  0.3684  0.6695  0.0166
 7112SOL    HW132795   3.717   0.510   3.253  0.7034  1.0672 -0.6765
 7112SOL    HW232796   3.691   0.587   3.377 -1.4472 -2.7330  0.0370
 7113SOL     OW32797   0.859   3.989   7.017 -0.1413  0.5772  0.8585
 7113SOL    HW132798   0.787   4.052   7.021 -0.9427 -0.3165  0.4366
 7113SOL    HW232799   0.813   3.915   6.977 -1.4585  0.4199  2.6616
 7114SOL     OW32800   2.786   0.225   2.799 -0.4228  0.4397  0.3962
 7114SOL    HW132801   2.861   0.282   2.812  0.5903 -0.9337  0.6131
 7114SOL    HW232802   2.726   0.294   2.771 -1.3889 -0.3320  0.5485
 7115SOL     OW32803   1.444   0.807   3.538 -0.1674 -0.1876 -0.2556
 7115SOL    HW132804   1.513   0.842   3.596  0.1043 -1.6030  0.2728
 7115SOL    HW232805   1.460   0.838   3.449 -1.3724 -0.7600 -0.6604
 7116SOL     OW32806   3.394   4.255   7.915 -0.1156  0.3396  0.5958
 7116SOL    HW132807   3.338   4.312   7.968  0.7299 -0.2760  2.1516
 7116SOL    HW232808   3.391   4.169   7.957 -4.0046  0.0329 -0.2856
 7117SOL     OW32809   0.352   0.468   9.022 -0.7211  0.1981  0.4371
 7117SOL    HW132810   0.372   0.463   8.929 -0.0472 -0.5821  0.6130
 7117SOL    HW232811   0.418   0.410   9.060 -0.9197 -0.8218 -0.7618
 7118SOL     OW32812   0.997   3.339  10.024 -0.1407  0.3710  0.1149
 7118SOL    HW132813   0.925   3.291   9.985  0.9823 -0.0940 -1.4070
 7118SOL    HW232814   0.988   3.318  10.117  1.7258  0.2130  0.2779
 7119SOL     OW32815   1.599   2.140   8.992 -0.5876 -0.4883  0.6420
 7119SOL    HW132816   1.584   2.046   8.982  0.6006 -0.4352 -1.4093
 7119SOL    HW232817   1.632   2.164   8.906  0.2066  0.7559  1.2802
 7120SOL     OW32818   4.030   2.831   3.396  0.4244  0.1055  0.3128
 7120SOL    HW132819   3.997   2.742   3.411  0.5372 -0.0437 -0.3442
 7120SOL    HW232820   4.028   2.863   3.487 -0.1437 -0.0441  0.3520
 7121SOL     OW32821   2.532   3.808   2.169  0.4104  0.1800 -0.2666
 7121SOL    HW132822   2.547   3.876   2.103  0.9141 -0.2554 -0.6007
 7121SOL    HW232823   2.597   3.741   2.149 -3.4458 -3.2005 -1.3390
 7122SOL     OW32824   1.169   3.931  13.491  0.0460 -0.2524  0.1038
 7122SOL    HW132825   1.239   3.918  13.427 -1.0449  1.9590 -1.5386
 7122SOL    HW232826   1.119   4.003  13.452  1.5836  0.1072 -1.2178
 7123SOL     OW32827   3.322   2.445   8.696  0.6408  0.3021  0.3723
 7123SOL    HW132828   3.267   2.450   8.618  0.3123  0.7522  0.6311
 7123SOL    HW232829   3.260   2.468   8.765  0.2279  0.1021  0.0690
 7124SOL     OW32830   2.324   2.481   7.068  0.0337 -0.0125  0.0101
 7124SOL    HW132831   2.298   2.496   6.977 -0.8225 -1.0971  0.0853
 7124SOL    HW232832   2.330   2.386   7.074 -1.0599 -0.1278 -0.6761
 7125SOL     OW32833   3.438   3.977   3.203  0.4748  0.3678 -0.2021
 7125SOL    HW132834   3.360   3.931   3.233 -1.3174  2.3657 -1.8436
 7125SOL    HW232835   3.502   3.907   3.192  1.2269  0.6323  2.6441
 7126SOL     OW32836   2.161   1.135   0.412  0.5116  0.1853  0.0243
 7126SOL    HW132837   2.185   1.207   0.354 -1.2235  2.0235  1.6005
 7126SOL    HW232838   2.160   1.057   0.356  2.6834  0.2994 -0.1715
 7127SOL     OW32839   3.164   1.728   9.456  0.5425 -0.2237 -0.1363
 7127SOL    HW132840   3.247   1.701   9.495  0.0283 -1.7565 -0.1261
 7127SOL    HW232841   3.132   1.795   9.517  0.5131  2.4004 -3.0018
 7128SOL     OW32842   3.716   3.607   7.040 -0.2706  0.3801 -0.1742
 7128SOL    HW132843   3.740   3.524   7.081 -0.2949  0.1005 -0.7202
 7128SOL    HW232844   3.759   3.602   6.955 -1.5562 -1.3560 -0.7346
 7129SOL     OW32845   3.401   3.404   9.782 -0.0547 -0.1669  0.3445
 7129SOL    HW132846   3.317   3.359   9.785 -0.3630  0.4447  0.7243
 7129SOL    HW232847   3.397   3.450   9.865 -0.0728  0.7763 -0.1735
 7130SOL     OW32848   2.677   0.081  15.415 -0.6432 -0.4682  0.5878
 7130SOL    HW132849   2.672   4.712  15.401 -2.5272 -0.6448  2.4393
 7130SOL    HW232850   2.682   0.097  15.320 -2.6904  1.5036  0.8020
 7131SOL     OW32851   0.339   0.515  16.937  0.0819  0.4053  0.2747
 7131SOL    HW132852   0.335   0.441  16.876 -1.0984  1.4842 -0.9532
 7131SOL    HW232853   0.314   0.588  16.881  1.0036  0.1784 -0.4338
 7132SOL     OW32854   3.546   0.778   6.735 -0.5282 -0.0268  0.4249
 7132SOL    HW132855   3.482   0.712   6.710 -1.8934  0.9742  1.2638
 7132SOL    HW232856   3.517   0.856   6.687  2.3812  0.5774 -0.3446
 7133SOL     OW32857   0.474   3.316   5.412 -0.2174 -0.0844  0.0401
 7133SOL    HW132858   0.394   3.271   5.385 -0.4084  0.8915 -1.0178
 7133SOL    HW232859   0.454   3.323   5.505  0.0457  1.2486 -0.0055
 7134SOL     OW32860   2.161   0.806   1.868 -0.1283 -0.0400  0.3047
 7134SOL    HW132861   2.207   0.872   1.817 -3.2380  1.1861 -0.9638
 7134SOL    HW232862   2.073   0.844   1.870  0.4280  1.2063  0.6665
 7135SOL     OW32863   0.105   1.027   8.587 -0.1672 -0.4129  0.3689
 7135SOL    HW132864   0.043   1.097   8.606  0.8049  0.5581  0.0230
 7135SOL    HW232865   0.122   0.998   8.676  0.3551 -0.1438  0.3614
 7136SOL     OW32866   4.019   2.124   8.254  0.0849 -0.0513 -0.3572
 7136SOL    HW132867   3.954   2.087   8.194 -0.2103  0.9238 -0.6324
 7136SOL    HW232868   3.962   2.178   8.308 -0.1505  0.2342 -0.8886
 7137SOL     OW32869   2.426   1.371  10.326  0.0267 -0.0926 -0.0081
 7137SOL    HW132870   2.400   1.378  10.417 -2.3054  0.2173 -0.6978
 7137SOL    HW232871   2.421   1.276  10.312  2.2574 -0.3809  1.2687
 7138SOL     OW32872   0.910   2.920   5.450  0.4479  0.2771 -0.0930
 7138SOL    HW132873   0.863   2.858   5.506 -1.2252  0.2045 -1.5540
 7138SOL    HW232874   0.996   2.877   5.443 -0.3243 -1.3537  0.5354
 7139SOL     OW32875   1.047   2.349   5.651  0.2002 -0.2331 -0.0229
 7139SOL    HW132876   0.976   2.289   5.631 -1.9863  2.2028  0.5152
 7139SOL    HW232877   1.039   2.408   5.576 -0.4019 -2.0227 -1.3871
 7140SOL     OW32878   2.921   4.534   8.777 -0.4979  0.2219 -0.4568
 7140SOL    HW132879   2.886   4.445   8.784  0.4729 -0.3013 -2.4225
 7140SOL    HW232880   3.012   4.526   8.805 -0.7457  0.0417  0.2894
 7141SOL     OW32881   3.848   1.038   2.799  0.3050  0.2309  0.5242
 7141SOL    HW132882   3.822   1.047   2.707  0.0184 -2.4887  0.3364
 7141SOL    HW232883   3.850   0.944   2.817  0.4484  0.0552 -0.3922
 7142SOL     OW32884   0.355   0.639   5.324  0.2804 -0.6443 -0.8962
 7142SOL    HW132885   0.312   0.723   5.307  1.0131  0.1705  1.2415
 7142SOL    HW232886   0.359   0.649   5.419 -2.4095  1.7259 -1.0157
 7143SOL     OW32887   0.282   2.244   8.763 -0.0938  0.2209 -0.1669
 7143SOL    HW132888   0.346   2.309   8.734  0.1642  0.4539  0.9479
 7143SOL    HW232889   0.200   2.264   8.718  0.2145  0.7110 -0.5143
 7144SOL     OW32890   2.461   1.515   7.716 -0.0299  0.3695  0.4858
 7144SOL    HW132891   2.436   1.433   7.674  0.7414 -0.5257  1.7601
 7144SOL    HW232892   2.556   1.505   7.709  0.1396  1.7201  0.8267
 7145SOL     OW32893   3.380   3.081   9.109 -0.0974 -0.2870 -0.7454
 7145SOL    HW132894   3.416   3.059   9.195  0.2737  0.9683 -0.5946
 7145SOL    HW232895   3.439   3.152   9.085 -1.4927  0.6016 -1.5265
 7146SOL     OW32896   2.285   3.811  10.316  0.1526  0.0093  0.2660
 7146SOL    HW132897   2.336   3.875  10.267  0.2084 -0.8086 -0.7427
 7146SOL    HW232898   2.324   3.730  10.282 -1.9310 -0.3978 -1.1501
 7147SOL     OW32899   1.103   1.442   3.932 -0.4466 -0.4993 -0.3151
 7147SOL    HW132900   1.012   1.421   3.953 -0.2346  0.3366  1.4799
 7147SOL    HW232901   1.133   1.354   3.955 -2.0884 -0.4424  2.1197
 7148SOL     OW32902   2.027   1.511   5.360 -0.7133  0.3641 -0.1508
 7148SOL    HW132903   2.030   1.571   5.435  0.6396 -1.6229  1.3778
 7148SOL    HW232904   2.116   1.478   5.347 -0.8330 -0.0154 -0.0121
 7149SOL     OW32905   3.140   4.178   2.190  0.6839 -0.4808 -0.2591
 7149SOL    HW132906   3.211   4.150   2.246 -0.9795 -1.7983  1.1962
 7149SOL    HW232907   3.164   4.136   2.108 -0.2433  0.8037 -1.2014
 7150SOL     OW32908   2.249   2.319   7.934  0.4974  0.4757 -0.4368
 7150SOL    HW132909   2.343   2.318   7.953  0.8011 -2.1266 -2.0143
 7150SOL    HW232910   2.205   2.313   8.018 -1.8050  0.4435 -1.6467
 7151SOL     OW32911   0.979   2.190   3.536  0.6882 -0.7178  0.8429
 7151SOL    HW132912   0.937   2.263   3.489  1.9872 -0.1129  0.6293
 7151SOL    HW232913   0.923   2.113   3.523  1.7827 -1.4186  0.3636
 7152SOL     OW32914   0.148   1.099   3.865  0.1200 -0.1250  0.7746
 7152SOL    HW132915   0.209   1.172   3.854  0.6860 -0.4277  1.8164
 7152SOL    HW232916   0.213   1.045   3.820  0.1190  0.3628  0.1986
 7153SOL     OW32917   3.677   3.775   7.420 -0.1484  0.2881 -0.1681
 7153SOL    HW132918   3.673   3.695   7.473  0.4305 -0.3505 -1.0697
 7153SOL    HW232919   3.626   3.836   7.472  0.3921 -1.4324  2.3827
 7154SOL     OW32920   2.770   3.659   2.081 -0.3182 -0.3220  0.4418
 7154SOL    HW132921   2.823   3.628   2.155  0.6266 -0.4855 -0.3048
 7154SOL    HW232922   2.726   3.579   2.052 -0.7768 -0.2830  1.0281
 7155SOL     OW32923   1.119   3.433   7.286 -0.1052 -0.3102 -0.3356
 7155SOL    HW132924   1.047   3.373   7.307  0.3930 -0.6930  0.2835
 7155SOL    HW232925   1.070   3.504   7.245  1.5378  0.0460 -1.6552
 7156SOL     OW32926   1.971   0.903   1.147 -0.1935  0.2370  0.4552
 7156SOL    HW132927   1.989   0.813   1.175  0.4062  0.5037  0.9225
 7156SOL    HW232928   2.044   0.953   1.183 -1.0611  0.9311  1.2399
 7157SOL     OW32929   1.772   2.086  17.282 -0.2034 -0.2814  0.2431
 7157SOL    HW132930   1.851   2.127  17.246  0.2934 -0.6124  0.9699
 7157SOL    HW232931   1.751   2.027  17.209 -0.1596 -0.8346  0.6861
 7158SOL     OW32932   3.800   0.570   4.489  0.0404 -0.2024  0.5023
 7158SOL    HW132933   3.889   0.603   4.504 -0.5284  0.7545  1.7887
 7158SOL    HW232934   3.752   0.623   4.553 -1.9177  0.2170 -1.3195
 7159SOL     OW32935   1.405   0.787   7.485  0.4033 -0.4211 -0.3275
 7159SOL    HW132936   1.428   0.842   7.560 -3.1401  0.8907 -0.2068
 7159SOL    HW232937   1.480   0.729   7.490  0.4179 -0.3470  0.3295
 7160SOL     OW32938   2.595   3.931   3.692 -0.0633 -0.5909  0.0889
 7160SOL    HW132939   2.510   3.913   3.653 -0.6948  0.7636  0.8296
 7160SOL    HW232940   2.576   3.993   3.763 -3.5220 -1.8904  0.2845
 7161SOL     OW32941   3.623   1.250  15.529  0.0510 -0.5480  0.7403
 7161SOL    HW132942   3.640   1.343  15.544  0.3538 -0.1129 -2.3254
 7161SOL    HW232943   3.536   1.256  15.491  1.7245  1.5078 -2.7425
 7162SOL     OW32944   2.542   3.663   1.018 -0.1169  0.0223  1.0804
 7162SOL    HW132945   2.507   3.752   1.014  2.7723  1.0714 -1.3692
 7162SOL    HW232946   2.462   3.612   1.004  0.1139  0.4508 -1.9540
 7163SOL     OW32947   0.009   4.391   2.427  0.1132  0.2328  0.1445
 7163SOL    HW132948   4.697   4.442   2.499 -1.3598  0.4227 -0.7373
 7163SOL    HW232949   0.081   4.341   2.465  0.8352  0.5892 -0.7370
 7164SOL     OW32950   3.977   3.729   7.701 -0.1639 -0.4383  0.2664
 7164SOL    HW132951   3.939   3.650   7.740 -1.4875  0.5307  0.9391
 7164SOL    HW232952   4.042   3.686   7.646 -0.8266 -3.7421  2.0859
 7165SOL     OW32953   0.156   0.445  13.170  0.1449 -0.5703  0.2453
 7165SOL    HW132954   0.136   0.381  13.102  0.3776  0.8498 -1.1519
 7165SOL    HW232955   0.076   0.439  13.222 -0.4083 -2.0709 -0.7542
 7166SOL     OW32956   1.954   0.470  12.929  0.2011 -0.2550  0.5179
 7166SOL    HW132957   1.982   0.548  12.977  2.5353 -1.8369  1.7411
 7166SOL    HW232958   2.025   0.446  12.869  0.4851 -2.0896  1.5868
 7167SOL     OW32959   4.218   1.240   1.049 -0.2768  0.1138 -0.8243
 7167SOL    HW132960   4.284   1.278   1.107 -3.0332  1.8228  1.1564
 7167SOL    HW232961   4.180   1.168   1.100  0.7169  1.4797  1.8736
 7168SOL     OW32962   2.105   0.723   7.510  0.9586 -0.2774 -0.4353
 7168SOL    HW132963   2.152   0.688   7.585  1.8410  0.4023 -0.6760
 7168SOL    HW232964   2.185   0.733   7.459  2.1601 -0.3124  1.4150
 7169SOL     OW32965   1.065   4.357   3.650 -0.6295  0.6094  0.2024
 7169SOL    HW132966   1.139   4.382   3.706 -0.4656 -0.7368  0.5817
 7169SOL    HW232967   0.996   4.414   3.683 -3.3913 -2.9457  0.5910
 7170SOL     OW32968   2.531   3.049   8.545  0.3615  0.6116 -0.4414
 7170SOL    HW132969   2.578   3.062   8.463 -2.2435  0.7156 -1.8946
 7170SOL    HW232970   2.557   3.118   8.607 -0.1876  1.0649 -0.7236
 7171SOL     OW32971   4.499   0.797   5.330  0.5893  0.0169  0.2519
 7171SOL    HW132972   4.432   0.864   5.347  1.6320  0.7105  1.6612
 7171SOL    HW232973   4.446   0.720   5.311 -0.2628  0.7755 -0.4305
 7172SOL     OW32974   2.111   3.251   5.213 -0.2730  0.5461  0.3504
 7172SOL    HW132975   2.201   3.278   5.231  0.4064 -0.5462 -1.4085
 7172SOL    HW232976   2.068   3.329   5.247 -2.3931 -0.6272  0.3876
 7173SOL     OW32977   3.868   0.098   7.774  0.0190  0.3904  0.0657
 7173SOL    HW132978   3.839   0.055   7.855 -1.5557  1.0879 -0.1231
 7173SOL    HW232979   3.963   0.098   7.785 -0.3114 -0.9203  3.0675
 7174SOL     OW32980   4.584   1.015  13.900  0.5324 -0.0274  0.5136
 7174SOL    HW132981   4.660   1.032  13.956  1.0854  1.2207 -0.5966
 7174SOL    HW232982   4.589   1.092  13.843 -0.3334 -1.6714 -1.8031
 7175SOL     OW32983   3.675   2.322   2.628  0.1230 -0.5463  0.2185
 7175SOL    HW132984   3.714   2.290   2.547  0.1533  1.9246 -0.7162
 7175SOL    HW232985   3.666   2.414   2.604  0.3265 -0.5388  0.1666
 7176SOL     OW32986   1.744   2.020   3.063 -0.1945  0.8288  0.3502
 7176SOL    HW132987   1.660   2.052   3.032 -0.7834 -2.0087 -1.0214
 7176SOL    HW232988   1.800   2.091   3.030 -0.6744  0.9565 -0.1942
 7177SOL     OW32989   0.471   1.737   3.797  0.6353  0.0409  0.0201
 7177SOL    HW132990   0.500   1.668   3.738 -1.2504 -0.7410  0.0377
 7177SOL    HW232991   0.419   1.787   3.735 -0.5026 -1.7254 -0.4556
 7178SOL     OW32992   3.717   2.941   0.902 -0.0863 -0.1859  0.2059
 7178SOL    HW132993   3.762   2.922   0.819 -0.4132 -0.1524  0.0184
 7178SOL    HW232994   3.794   2.961   0.955  0.2472 -1.3173  0.1397
 7179SOL     OW32995   0.183   4.466   4.588  0.1110  0.4947 -0.0993
 7179SOL    HW132996   0.234   4.454   4.508  0.2508 -1.1330  0.2384
 7179SOL    HW232997   0.220   4.402   4.650  1.2201 -0.0423 -1.3044
 7180SOL     OW32998   3.759   3.797   6.184  0.3274  0.2036  0.3889
 7180SOL    HW132999   3.679   3.822   6.230 -0.1053 -0.2820 -0.0997
 7180SOL    HW233000   3.725   3.759   6.103  1.0214 -1.0486  0.6883
 7181SOL     OW33001   2.181   2.241   9.740  0.3539  0.7053 -0.0130
 7181SOL    HW133002   2.093   2.210   9.716  0.0232  0.1548  1.8574
 7181SOL    HW233003   2.245   2.215   9.675 -0.1852  1.6433 -0.9274
 7182SOL     OW33004   3.612   4.242   1.644  0.1097 -0.3950  0.2329
 7182SOL    HW133005   3.699   4.282   1.653 -0.9951  2.1909 -0.5744
 7182SOL    HW233006   3.565   4.269   1.723 -2.7764  1.0925 -1.9754
 7183SOL     OW33007   2.102   4.331  14.278  0.3083  0.1748 -0.3991
 7183SOL    HW133008   2.049   4.409  14.266 -3.0697 -1.8071  1.5817
 7183SOL    HW233009   2.055   4.292  14.352  2.4488 -1.0749  0.3137
 7184SOL     OW33010   1.934   1.865   5.628  0.0903  0.0488  0.2041
 7184SOL    HW133011   1.924   1.770   5.639 -1.3770  0.1755 -0.0979
 7184SOL    HW233012   2.028   1.881   5.635  0.2353 -1.8789  2.8294
 7185SOL     OW33013   0.672   1.770   4.003  0.2653  0.1358 -0.5258
 7185SOL    HW133014   0.611   1.759   3.931 -0.6675 -1.4954  0.5222
 7185SOL    HW233015   0.665   1.866   4.001  1.0467  0.2051 -0.1527
 7186SOL     OW33016   3.123   4.045   8.191 -0.2944 -0.0736  0.1381
 7186SOL    HW133017   3.129   4.133   8.228  1.2867  0.9468 -2.5486
 7186SOL    HW233018   3.103   4.070   8.101 -1.7304  0.5324  0.6255
 7187SOL     OW33019   2.484   3.381   7.283 -0.1599 -0.0998 -0.0899
 7187SOL    HW133020   2.393   3.356   7.300  0.3369  0.7117  3.8584
 7187SOL    HW233021   2.529   3.329   7.350  3.3798  3.2401  0.1478
 7188SOL     OW33022   4.646   2.248   2.495  0.3245  0.0444  0.3262
 7188SOL    HW133023   4.711   2.317   2.484 -1.2819  1.6291  0.7465
 7188SOL    HW233024   4.688   2.179   2.546  0.8117 -0.2835 -0.5125
 7189SOL     OW33025   3.384   3.241  11.419  0.7467  0.5365 -0.3692
 7189SOL    HW133026   3.424   3.322  11.387  1.3629  0.1931 -0.4777
 7189SOL    HW233027   3.405   3.173  11.355  2.0260  0.9731 -0.4270
 7190SOL     OW33028   2.249   3.707  12.824  0.4842  0.2884 -0.4651
 7190SOL    HW133029   2.335   3.739  12.850  1.6614 -2.8855 -0.4933
 7190SOL    HW233030   2.199   3.787  12.840 -1.8380 -1.5544  1.6115
 7191SOL     OW33031   3.316   0.447   5.010  0.0801 -0.5369  0.1465
 7191SOL    HW133032   3.255   0.490   4.950  0.7059 -0.4080 -0.3992
 7191SOL    HW233033   3.305   0.501   5.088  0.7693  0.4333 -0.4178
 7192SOL     OW33034   0.078   0.530  11.603 -0.6741  0.4966  0.3603
 7192SOL    HW133035   0.165   0.545  11.639  0.9503 -2.0440 -2.4596
 7192SOL    HW233036   0.032   0.479  11.669  1.0510  0.0278  1.2142
 7193SOL     OW33037   0.143   2.042   8.137  0.1044 -0.3319 -0.1183
 7193SOL    HW133038   0.160   2.124   8.183  2.2063 -1.8543  1.8850
 7193SOL    HW233039   0.228   1.998   8.148 -0.6302 -1.4826  1.0229
 7194SOL     OW33040   1.071   4.539   8.064  0.4563 -0.2101  0.2164
 7194SOL    HW133041   1.085   4.444   8.072  1.2521 -0.0358  0.7698
 7194SOL    HW233042   1.069   4.541   7.968  1.3471 -2.6391  0.1447
 7195SOL     OW33043   3.039   3.591   5.547 -0.5572 -0.2098  0.1223
 7195SOL    HW133044   3.022   3.664   5.488 -1.6308 -0.9032 -0.4255
 7195SOL    HW233045   3.029   3.514   5.491  0.3168  1.3170 -2.0978
 7196SOL     OW33046   2.114   0.856   8.034 -0.3587  0.7655 -0.3073
 7196SOL    HW133047   2.107   0.773   8.082 -1.3252  1.4492  0.7349
 7196SOL    HW233048   2.129   0.911   8.110 -2.3722 -0.9960  1.3928
 7197SOL     OW33049   4.041   2.039   6.327 -0.1560 -0.6787  0.0150
 7197SOL    HW133050   4.121   2.042   6.276  1.1696  0.0136  2.1561
 7197SOL    HW233051   4.005   1.953   6.305 -0.6631  0.1058 -2.2485
 7198SOL     OW33052   1.801   4.584   6.049 -0.2732 -0.1900  0.0540
 7198SOL    HW133053   1.846   4.597   5.966 -3.4795 -0.3798 -1.6954
 7198SOL    HW233054   1.721   4.633   6.032  0.6341  0.9653 -0.8934
 7199SOL     OW33055   2.020   3.422   9.034  0.2395 -0.6213  0.2394
 7199SOL    HW133056   1.948   3.378   8.988  0.5585  0.4227 -1.2281
 7199SOL    HW233057   2.069   3.342   9.054  2.0080  0.4996  0.3593
 7200SOL     OW33058   3.634   1.495  16.583  0.2873  0.2401  0.2816
 7200SOL    HW133059   3.694   1.478  16.656  1.8603 -1.6127 -1.4884
 7200SOL    HW233060   3.588   1.569  16.624  3.0600  0.6568  2.6311
 7201SOL     OW33061   4.266   2.767   5.879 -0.2760 -0.0565 -0.6899
 7201SOL    HW133062   4.252   2.679   5.846  0.4619  0.1800 -1.6373
 7201SOL    HW233063   4.275   2.832   5.809 -1.4016 -0.1844 -0.9447
 7202SOL     OW33064   2.597   3.748   1.798 -0.1810  0.2244  0.3578
 7202SOL    HW133065   2.514   3.760   1.845  0.5761  2.5051  1.0701
 7202SOL    HW233066   2.645   3.678   1.843  0.2972  0.8233  0.7717
 7203SOL     OW33067   0.347   1.672  13.911 -0.2136 -0.1888 -0.0731
 7203SOL    HW133068   0.289   1.646  13.840  1.7140 -1.0502 -1.3432
 7203SOL    HW233069   0.392   1.744  13.868  1.4347 -0.9730  0.3232
 7204SOL     OW33070   2.381   3.294   3.308  0.0884  0.0363 -0.1468
 7204SOL    HW133071   2.462   3.322   3.351 -1.4351  2.1465  1.3572
 7204SOL    HW233072   2.323   3.369   3.323 -0.9004 -0.7769  0.0698
 7205SOL     OW33073   1.549   0.705   4.352 -0.1032 -0.5313 -0.1650
 7205SOL    HW133074   1.505   0.787   4.327  2.9117  0.8965 -0.7724
 7205SOL    HW233075   1.550   0.667   4.264  2.3006 -0.9118  0.0315
 7206SOL     OW33076   0.016   0.280   8.331 -0.0886  0.4178  0.1567
 7206SOL    HW133077   0.004   0.372   8.354  1.6277  0.9380 -1.0829
 7206SOL    HW233078   4.718   0.240   8.416 -1.2993  0.7893  0.0042
 7207SOL     OW33079   0.504   0.703  11.471  0.1359  0.1818  0.2218
 7207SOL    HW133080   0.515   0.630  11.532  1.2847 -0.4840 -0.7898
 7207SOL    HW233081   0.409   0.704  11.478  0.1573  1.9859  0.0628
 7208SOL     OW33082   3.464   0.241   5.419 -0.8975  0.1997  0.0639
 7208SOL    HW133083   3.436   0.220   5.508 -0.6456 -1.9846 -0.3574
 7208SOL    HW233084   3.560   0.244   5.422 -0.9358  1.4865 -0.0012
 7209SOL     OW33085   0.090   0.877   4.071 -0.2230 -0.1551 -0.1586
 7209SOL    HW133086   0.104   0.926   3.990  0.8993 -0.6445 -0.2736
 7209SOL    HW233087   0.125   0.939   4.135  2.4003 -0.9997 -0.7689
 7210SOL     OW33088   3.476   4.641   5.245 -0.4424 -0.4567 -0.0364
 7210SOL    HW133089   3.452   0.005   5.219  0.2158 -0.8877 -2.0964
 7210SOL    HW233090   3.435   4.647   5.332 -0.5119  0.9465 -0.1548
 7211SOL     OW33091   3.405   4.432   6.606  0.4436  0.0836  0.4246
 7211SOL    HW133092   3.437   4.405   6.692  0.9727 -2.5784 -0.5940
 7211SOL    HW233093   3.484   4.461   6.560 -0.1208  1.7501  0.5033
 7212SOL     OW33094   2.400   0.322   1.479 -0.5819 -0.0318 -0.4877
 7212SOL    HW133095   2.399   0.227   1.473  2.8192 -0.0858 -0.1249
 7212SOL    HW233096   2.401   0.335   1.574  0.5972 -2.4766 -0.1528
 7213SOL     OW33097   0.058   3.966  15.491  0.5709 -0.5221  0.5217
 7213SOL    HW133098   0.106   4.032  15.540 -0.8316  1.1402 -0.3201
 7213SOL    HW233099   0.017   4.017  15.421  0.6775 -0.7361  0.3052
 7214SOL     OW33100   0.548   2.591   5.145  0.1568 -0.2371 -0.1241
 7214SOL    HW133101   0.627   2.616   5.193 -0.0151 -2.8131  1.4835
 7214SOL    HW233102   0.570   2.504   5.112 -1.8060 -1.9764  3.1164
 7215SOL     OW33103   3.866   4.651   6.583 -0.7736  0.0554  0.4052
 7215SOL    HW133104   3.914   4.626   6.504  1.6981  2.8879  1.0231
 7215SOL    HW233105   3.874   0.021   6.587  0.6094 -0.0442  0.0237
 7216SOL     OW33106   0.691   3.678   7.298 -0.1104 -0.0610 -0.1539
 7216SOL    HW133107   0.645   3.654   7.379 -0.0568  0.2347 -0.0356
 7216SOL    HW233108   0.660   3.767   7.279 -0.0260  0.4891  2.1731
 7217SOL     OW33109   0.638   1.972   4.599  1.0112  0.3920  0.5714
 7217SOL    HW133110   0.606   1.901   4.543 -0.5024  0.2683  1.5872
 7217SOL    HW233111   0.620   1.928   4.682  0.9786  0.0262  0.3701
 7218SOL     OW33112   4.650   1.714   6.253 -0.1859  0.3785 -0.2301
 7218SOL    HW133113   4.682   1.637   6.301  0.8822 -0.1132 -1.7202
 7218SOL    HW233114   4.573   1.679   6.209  0.9998  1.9629 -3.5951
 7219SOL     OW33115   2.923   2.803   3.456 -0.1326 -0.0391  0.2843
 7219SOL    HW133116   2.831   2.828   3.469 -1.1501 -4.2500  1.3119
 7219SOL    HW233117   2.910   2.709   3.442 -2.2800  0.1856  0.8116
 7220SOL     OW33118   1.080   2.020   9.026  0.0530 -1.0128  0.4773
 7220SOL    HW133119   1.114   2.105   9.053  1.3128 -1.0099 -1.1831
 7220SOL    HW233120   1.072   1.973   9.110  0.5874 -2.3167 -0.2018
 7221SOL     OW33121   4.415   3.595   5.295  0.4985  0.1408 -0.0982
 7221SOL    HW133122   4.436   3.599   5.202 -1.3127 -1.5481 -0.5807
 7221SOL    HW233123   4.356   3.520   5.298  0.7129  0.0082  0.7608
 7222SOL     OW33124   2.541   1.611   2.154 -0.1638 -0.0589  0.5111
 7222SOL    HW133125   2.629   1.622   2.189  0.2793 -1.1536 -0.2554
 7222SOL    HW233126   2.492   1.640   2.231  0.9609  0.9502  0.8462
 7223SOL     OW33127   3.791   2.965   5.067 -0.2084  0.1447  0.3356
 7223SOL    HW133128   3.777   3.042   5.123  0.3571 -0.7354  1.7003
 7223SOL    HW233129   3.814   2.898   5.132  0.1828 -0.0115  0.0348
 7224SOL     OW33130   1.594   3.503   5.706  0.5298 -0.2713 -0.0646
 7224SOL    HW133131   1.656   3.562   5.748  1.2677 -2.4246  1.8349
 7224SOL    HW233132   1.530   3.566   5.672 -0.1434 -0.9923 -0.1228
 7225SOL     OW33133   0.032   2.073   7.762 -0.6549  0.5728 -0.2436
 7225SOL    HW133134   0.041   2.127   7.684  0.5164 -2.1347 -2.0024
 7225SOL    HW233135   0.025   1.986   7.723 -1.5892 -0.6664  2.6609
 7226SOL     OW33136   3.172   2.915   9.901  0.2519 -0.0359 -0.0621
 7226SOL    HW133137   3.080   2.937   9.913  0.1582  0.1858 -1.1667
 7226SOL    HW233138   3.203   2.914   9.991  0.3527 -2.7932 -0.1224
 7227SOL     OW33139   4.194   1.521  16.887 -0.3473 -0.6375  0.4284
 7227SOL    HW133140   4.258   1.456  16.859  1.1539  0.4224  1.3747
 7227SOL    HW233141   4.250   1.598  16.887 -1.1718 -0.0367  0.7121
 7228SOL     OW33142   3.122   4.465   5.672  0.7307 -0.2159 -0.3965
 7228SOL    HW133143   3.179   4.393   5.700  1.9021  0.6703 -0.4571
 7228SOL    HW233144   3.156   4.540   5.722 -0.7397 -0.1137  0.4515
 7229SOL     OW33145   2.873   1.123   7.455  0.2244 -0.2422  0.1256
 7229SOL    HW133146   2.877   1.178   7.533 -2.8317  0.0810  0.0543
 7229SOL    HW233147   2.919   1.046   7.488  0.3808  0.4685  1.5523
 7230SOL     OW33148   1.070   3.861   7.524  0.2219  0.6977 -0.3516
 7230SOL    HW133149   1.047   3.892   7.437 -2.5549 -1.4391 -0.3597
 7230SOL    HW233150   1.119   3.783   7.498 -2.2661 -0.3161 -1.9608
 7231SOL     OW33151   1.162   4.526   7.372  0.0127  0.3602 -0.4214
 7231SOL    HW133152   1.184   4.583   7.298  2.5554 -0.5809 -0.3955
 7231SOL    HW233153   1.127   4.446   7.333  0.0869 -0.1577  0.5671
 7232SOL     OW33154   1.599   2.375   7.766 -0.4694 -0.1026 -0.4918
 7232SOL    HW133155   1.580   2.458   7.722 -0.5346  0.9802  1.5758
 7232SOL    HW233156   1.525   2.323   7.734 -0.8911 -0.7634  1.5217
 7233SOL     OW33157   1.627   2.181   5.977  0.7135 -0.4159  0.1316
 7233SOL    HW133158   1.539   2.219   5.986  1.7071  1.7393  0.7062
 7233SOL    HW233159   1.625   2.124   5.900 -2.2548 -1.2071  0.7881
 7234SOL     OW33160   3.280   1.853  10.563  0.3250  0.4877  0.4424
 7234SOL    HW133161   3.199   1.804  10.580 -0.3908  1.4198 -0.3024
 7234SOL    HW233162   3.241   1.940  10.554  0.9953  0.6170 -1.0285
 7235SOL     OW33163   1.659   3.609   3.892 -0.7876  0.3242  0.4705
 7235SOL    HW133164   1.575   3.587   3.933 -0.1749 -0.2153  1.4295
 7235SOL    HW233165   1.638   3.700   3.867  1.0690  0.6154  0.0028
 7236SOL     OW33166   0.610   2.341   4.482 -0.2978  0.0571  0.6810
 7236SOL    HW133167   0.669   2.329   4.408 -1.8189  0.8015 -0.6468
 7236SOL    HW233168   0.549   2.403   4.443  1.8106  1.5865 -0.1540
 7237SOL     OW33169   3.046   4.277   3.446 -0.2193 -0.2596 -0.8508
 7237SOL    HW133170   3.141   4.274   3.442 -0.1240 -0.1776  1.2240
 7237SOL    HW233171   3.029   4.347   3.509 -1.2008 -0.4626 -0.8935
 7238SOL     OW33172   1.367   4.441   2.004  0.3040  0.4041 -0.0318
 7238SOL    HW133173   1.443   4.399   1.964 -0.6675 -1.2077 -0.2026
 7238SOL    HW233174   1.408   4.517   2.045  5.1063 -2.0361 -0.2705
 7239SOL     OW33175   2.459   0.607   8.205  0.3795 -0.6126 -0.0539
 7239SOL    HW133176   2.433   0.565   8.287 -0.1683  1.5550  0.9054
 7239SOL    HW233177   2.526   0.673   8.223 -0.5803  0.0122  1.2815
 7240SOL     OW33178   0.977   2.345   4.837 -1.0632 -0.2654  0.1591
 7240SOL    HW133179   0.923   2.296   4.775  0.1451  1.5022 -2.3074
 7240SOL    HW233180   1.034   2.281   4.880  1.0353  2.1335  0.9973
 7241SOL     OW33181   4.609   4.339   8.560 -0.5212 -0.3404 -0.2085
 7241SOL    HW133182   4.695   4.319   8.596 -1.5761 -0.6986  2.1507
 7241SOL    HW233183   4.613   4.433   8.543 -0.2949 -0.1910  0.6997
 7242SOL     OW33184   2.353   1.249   5.354  0.5747 -0.1583 -0.4318
 7242SOL    HW133185   2.326   1.326   5.303 -0.8391 -0.0437  0.4923
 7242SOL    HW233186   2.427   1.215   5.303  1.8713  0.4019  1.0625
 7243SOL     OW33187   0.908   2.477   2.242 -0.3105  0.1821  0.4056
 7243SOL    HW133188   0.848   2.409   2.273  0.7327 -1.9881 -2.3949
 7243SOL    HW233189   0.927   2.451   2.152 -1.6278  0.7298 -0.0329
 7244SOL     OW33190   2.645   2.656   6.712 -0.0983  0.4231 -0.3308
 7244SOL    HW133191   2.597   2.574   6.724  2.9292 -1.0696  1.3625
 7244SOL    HW233192   2.570   2.717   6.713  0.9524  1.6550  2.5528
 7245SOL     OW33193   1.758   0.080   5.638 -0.1795 -0.3994 -0.0661
 7245SOL    HW133194   1.820   0.019   5.598  0.0466  1.0165 -1.8666
 7245SOL    HW233195   1.808   0.140   5.693  0.7723 -0.0526 -1.3380
 7246SOL     OW33196   0.459   0.631   2.980 -0.0414  1.2194 -0.1434
 7246SOL    HW133197   0.541   0.679   2.992  1.4568 -1.6093  0.8413
 7246SOL    HW233198   0.397   0.697   3.010 -0.4479  0.8896 -0.2574
 7247SOL     OW33199   3.937   1.182   6.184  0.3946  0.2831 -0.2993
 7247SOL    HW133200   3.941   1.086   6.185  0.7295  0.3005 -0.0119
 7247SOL    HW233201   3.981   1.195   6.100  0.0864  2.8069 -0.0656
 7248SOL     OW33202   2.775   4.591  10.255 -0.0989 -0.0129  0.9727
 7248SOL    HW133203   2.782   4.580  10.160 -0.5234 -1.5696  1.1200
 7248SOL    HW233204   2.773   4.503  10.293 -1.0220 -0.2737  0.3299
 7249SOL     OW33205   3.505   3.944   5.031 -0.2245 -0.1059 -0.2198
 7249SOL    HW133206   3.569   3.959   4.962  0.2463  0.8049  0.4241
 7249SOL    HW233207   3.431   3.982   4.983 -0.1218  1.1425  0.6073
 7250SOL     OW33208   0.256   2.667   8.232 -0.8774  0.8001  0.3914
 7250SOL    HW133209   0.269   2.762   8.228  1.2045  0.4277 -1.5295
 7250SOL    HW233210   0.164   2.660   8.205 -0.3274 -2.5165 -0.5977
 7251SOL     OW33211   4.497   0.320  14.275  0.1895 -0.0458  0.6093
 7251SOL    HW133212   4.496   0.314  14.370  0.0786  0.1367  0.6192
 7251SOL    HW233213   4.591   0.319  14.254 -0.0603 -0.5025 -0.5034
 7252SOL     OW33214   2.030   0.355  15.381 -0.2060 -0.0906 -0.3942
 7252SOL    HW133215   1.991   0.275  15.345  0.3739 -1.2918  1.5931
 7252SOL    HW233216   2.051   0.331  15.472 -0.8915 -3.7354 -1.1724
 7253SOL     OW33217   1.061   2.281   6.077 -0.3262  0.1327  0.3843
 7253SOL    HW133218   1.122   2.208   6.082  0.5553  0.9460  1.2943
 7253SOL    HW233219   1.003   2.251   6.146 -0.3988  1.0057  0.7104
 7254SOL     OW33220   2.919   1.551   9.557  0.1496  0.7310  0.1481
 7254SOL    HW133221   2.894   1.607   9.630 -2.2015  0.3754 -0.3589
 7254SOL    HW233222   2.983   1.597   9.504 -0.5917 -1.4451 -2.6916
 7255SOL     OW33223   2.892   1.756  16.369  0.3858 -1.3790  0.0186
 7255SOL    HW133224   2.822   1.788  16.313 -0.4957 -0.1058  1.8173
 7255SOL    HW233225   2.842   1.701  16.429  0.0784 -1.1411 -0.0188
 7256SOL     OW33226   0.750   1.875   6.224 -0.5369  0.0473 -0.2076
 7256SOL    HW133227   0.834   1.875   6.178 -0.1297 -2.4887  0.4975
 7256SOL    HW233228   0.763   1.923   6.306  3.5571 -1.1369 -0.1255
 7257SOL     OW33229   0.044   3.313   8.404 -0.0054 -0.0983 -0.5803
 7257SOL    HW133230   0.077   3.321   8.315 -1.6696  0.1186 -1.1558
 7257SOL    HW233231   0.127   3.287   8.445  0.4512 -1.2671 -2.2625
 7258SOL     OW33232   1.592   1.657   3.927 -0.3131  0.7489  0.0093
 7258SOL    HW133233   1.590   1.734   3.871  0.1902  0.1784 -0.7997
 7258SOL    HW233234   1.684   1.655   3.953 -0.2550 -2.8624 -0.4001
 7259SOL     OW33235   4.627   3.930  14.220  0.5975 -0.1402  0.6488
 7259SOL    HW133236   4.662   4.012  14.254 -0.3446  0.4923  0.1022
 7259SOL    HW233237   4.707   3.880  14.204  1.3387  1.2810 -0.0417
 7260SOL     OW33238   0.166   0.271   6.989  0.0171 -0.1398 -0.2879
 7260SOL    HW133239   0.226   0.248   6.918  2.4701  2.0135  1.1058
 7260SOL    HW233240   0.209   0.225   7.061  0.4585  0.5612 -0.0967
 7261SOL     OW33241   0.202   4.036   4.386 -0.2991 -0.4324 -0.6199
 7261SOL    HW133242   0.132   4.025   4.451 -0.1874  1.0044 -0.2578
 7261SOL    HW233243   0.152   4.017   4.307 -0.2018  0.8789 -0.9891
 7262SOL     OW33244   0.850   3.337  13.014 -0.1075  0.2715  0.7543
 7262SOL    HW133245   0.884   3.419  13.050 -0.0927  0.7395 -0.3230
 7262SOL    HW233246   0.917   3.269  13.017  0.1677  0.5565  1.1883
 7263SOL     OW33247   1.131   0.469   5.047  0.4601 -0.2461  0.1625
 7263SOL    HW133248   1.131   0.374   5.042  0.1101 -0.2031 -0.7531
 7263SOL    HW233249   1.206   0.494   4.993 -0.6656  2.7784  0.0005
 7264SOL     OW33250   1.048   0.784   0.777 -0.0306 -0.0265  0.2590
 7264SOL    HW133251   1.085   0.721   0.840 -1.9221  0.0648  1.4637
 7264SOL    HW233252   0.954   0.767   0.775 -0.0734  0.4145 -1.3502
 7265SOL     OW33253   2.088   0.503   0.653 -0.2463 -0.1711 -0.0450
 7265SOL    HW133254   2.009   0.554   0.637  0.0179  0.5271  0.8841
 7265SOL    HW233255   2.131   0.504   0.567 -3.2574 -0.7310 -1.5457
 7266SOL     OW33256   4.674   3.610  10.836 -0.1455  0.6192  0.5563
 7266SOL    HW133257   4.681   3.629  10.929 -2.0234  1.5810  0.4959
 7266SOL    HW233258   4.694   3.517  10.837 -2.0146  0.2347  0.3449
 7267SOL     OW33259   4.118   2.973   2.144 -0.5013  0.0161  0.0104
 7267SOL    HW133260   4.054   2.965   2.073 -0.4059  1.0642 -0.2022
 7267SOL    HW233261   4.080   2.905   2.199 -0.8435  2.0258  2.2511
 7268SOL     OW33262   1.027   1.626   7.578  0.0133 -0.3763 -0.3237
 7268SOL    HW133263   1.061   1.713   7.559 -0.5407  0.3321  2.0009
 7268SOL    HW233264   1.104   1.578   7.607 -1.1048 -1.4495  0.9121
 7269SOL     OW33265   1.896   4.221   4.884 -0.0909  0.1054  0.0536
 7269SOL    HW133266   1.803   4.245   4.892 -0.1846  0.1328 -1.0549
 7269SOL    HW233267   1.910   4.180   4.969  1.7805  3.1563  1.2323
 7270SOL     OW33268   0.450   0.994  13.639 -0.2787  0.6680 -0.2001
 7270SOL    HW133269   0.379   1.045  13.678 -2.1816 -1.4222 -0.9232
 7270SOL    HW233270   0.426   0.907  13.673 -0.4171  0.5672 -0.5546
 7271SOL     OW33271   0.314   3.391  13.351 -0.1380 -0.4496 -0.0980
 7271SOL    HW133272   0.363   3.311  13.371 -0.1872 -0.4252  0.1250
 7271SOL    HW233273   0.263   3.407  13.430  0.5498 -0.0311  0.2655
 7272SOL     OW33274   3.009   1.000  13.604  0.2723 -0.1405  0.2025
 7272SOL    HW133275   3.006   0.906  13.586 -1.0726  0.1070 -0.9516
 7272SOL    HW233276   3.062   1.029  13.530  2.0459  3.3300  2.8819
 7273SOL     OW33277   3.374   3.388   0.620 -0.0415 -0.3581  0.0400
 7273SOL    HW133278   3.314   3.461   0.604  1.6187  0.8261 -0.6766
 7273SOL    HW233279   3.355   3.363   0.711 -0.1341 -1.4099 -0.2701
 7274SOL     OW33280   4.696   1.709   9.049 -0.0211 -0.0811  0.0019
 7274SOL    HW133281   0.002   1.651   8.980 -3.2927 -0.7992 -0.8418
 7274SOL    HW233282   4.660   1.647   9.113  0.4469 -2.6430 -2.2481
 7275SOL     OW33283   3.324   1.301   8.799  0.1341  0.5289  0.0427
 7275SOL    HW133284   3.236   1.277   8.768  0.9198 -0.7801 -1.1676
 7275SOL    HW233285   3.361   1.213   8.806 -0.5359  0.1470 -1.3309
 7276SOL     OW33286   4.375   4.023   0.224  0.4948 -0.5344  0.2078
 7276SOL    HW133287   4.449   4.016   0.285 -0.1752  0.2053  1.1021
 7276SOL    HW233288   4.346   3.933   0.210 -0.6847  0.0671 -1.2006
 7277SOL     OW33289   2.283   2.660   3.008 -0.2179  0.1033 -0.0190
 7277SOL    HW133290   2.208   2.614   3.046 -0.2994  1.5218  1.5364
 7277SOL    HW233291   2.285   2.739   3.063 -0.3363  1.2338 -1.6310
 7278SOL     OW33292   0.331   2.164  17.145 -0.2204  0.2333  0.4124
 7278SOL    HW133293   0.385   2.209  17.210  0.0996 -0.0077  0.3163
 7278SOL    HW233294   0.280   2.122  17.214  1.7205 -2.4939  0.1948
 7279SOL     OW33295   3.163   3.240   1.425 -0.3245 -0.0040 -0.0061
 7279SOL    HW133296   3.233   3.299   1.399  0.4523 -0.8968  0.0374
 7279SOL    HW233297   3.208   3.171   1.474 -2.8006 -1.9421 -0.4584
 7280SOL     OW33298   3.708   3.437  14.204  0.2442 -0.7036 -0.0491
 7280SOL    HW133299   3.677   3.485  14.127  4.2461 -1.5486 -2.2019
 7280SOL    HW233300   3.620   3.435  14.240 -0.5784  0.2188 -1.9647
 7281SOL     OW33301   2.121   1.438   7.441  0.2748  0.7603  0.4460
 7281SOL    HW133302   2.077   1.355   7.420 -0.1797  0.5545  2.1732
 7281SOL    HW233303   2.121   1.434   7.537 -1.4740  2.8340  0.5281
 7282SOL     OW33304   3.903   3.929   2.252  0.1583  0.2538 -0.1560
 7282SOL    HW133305   3.943   3.975   2.178 -2.4611  1.4006 -0.8279
 7282SOL    HW233306   3.815   3.910   2.222 -0.2979 -2.5282  2.9952
 7283SOL     OW33307   0.083   4.088  12.007  0.0315  0.0396 -0.1752
 7283SOL    HW133308   0.067   4.047  12.092  1.0149  1.4931  0.7140
 7283SOL    HW233309   0.001   4.136  11.995 -0.7198 -0.9944  0.8345
 7284SOL     OW33310   0.620   3.932   1.036  0.2438 -0.3116  0.3205
 7284SOL    HW133311   0.607   4.017   1.078 -2.8708  0.4163 -2.0910
 7284SOL    HW233312   0.704   3.960   1.000  0.2831 -1.0829 -0.1742
 7285SOL     OW33313   2.694   3.501  13.548 -0.8998  0.0599  0.2105
 7285SOL    HW133314   2.783   3.470  13.533 -1.2067 -1.6132  1.8691
 7285SOL    HW233315   2.646   3.435  13.496  0.5322 -0.7214 -0.1160
 7286SOL     OW33316   3.308   0.199   6.535  0.2794 -0.5161  0.5803
 7286SOL    HW133317   3.288   0.135   6.604 -0.8976  0.5250  1.2055
 7286SOL    HW233318   3.331   0.270   6.593 -0.5133  1.8456 -1.9972
 7287SOL     OW33319   0.048   2.422   7.929 -0.1192 -0.4615 -0.0532
 7287SOL    HW133320   0.037   2.474   7.850  0.6898 -1.3397 -0.7377
 7287SOL    HW233321   0.032   2.482   8.002  0.0926 -0.7468  0.2280
 7288SOL     OW33322   3.911   1.418   5.001  0.5920 -0.0642 -0.1375
 7288SOL    HW133323   4.003   1.448   5.000  0.9940 -1.3204 -0.2969
 7288SOL    HW233324   3.879   1.479   4.935 -2.8679 -0.3613  1.2757
 7289SOL     OW33325   4.600   2.124   0.261 -0.2020  0.1353 -0.0230
 7289SOL    HW133326   4.561   2.039   0.280 -0.6396  0.8604  2.3501
 7289SOL    HW233327   4.572   2.172   0.339  0.5243 -0.1157  0.3902
 7290SOL     OW33328   0.494   1.557  16.810 -0.2220  0.2912  0.3405
 7290SOL    HW133329   0.456   1.637  16.845 -1.3712  0.4849 -1.3047
 7290SOL    HW233330   0.556   1.534  16.878  0.8410 -1.2098 -1.1190
 7291SOL     OW33331   0.777   3.610   6.308 -0.1144  0.0951 -0.0144
 7291SOL    HW133332   0.727   3.530   6.326  0.3687 -0.3382 -0.5783
 7291SOL    HW233333   0.726   3.670   6.253 -0.6649 -0.5552 -0.2156
 7292SOL     OW33334   0.019   1.086   2.618 -0.0114  0.5288 -0.0362
 7292SOL    HW133335   4.653   1.058   2.632 -0.3379  2.1282  1.0424
 7292SOL    HW233336   0.010   1.133   2.535 -1.2249 -1.3293 -0.9488
 7293SOL     OW33337   0.804   1.432   2.515 -0.2385  0.1317  0.1348
 7293SOL    HW133338   0.861   1.461   2.586  0.8770 -1.2090 -0.2163
 7293SOL    HW233339   0.802   1.513   2.464 -1.9946  0.5980  0.9585
 7294SOL     OW33340   2.347   4.366  10.056  0.1162 -0.3850 -0.1479
 7294SOL    HW133341   2.419   4.378  10.117  0.7614 -0.6625 -0.8498
 7294SOL    HW233342   2.384   4.303   9.994 -0.1537  1.5917 -2.3583
 7295SOL     OW33343   2.874   0.533   5.201  0.3522 -0.1209  0.6665
 7295SOL    HW133344   2.886   0.609   5.144 -0.0722 -0.9421 -0.5139
 7295SOL    HW233345   2.851   0.463   5.140 -0.9791 -0.7951  1.9462
 7296SOL     OW33346   2.753   1.960   6.934 -0.2444 -0.0636  0.1639
 7296SOL    HW133347   2.677   1.979   6.988  0.1647  0.1085  0.6788
 7296SOL    HW233348   2.765   2.043   6.886  2.1458 -2.0246 -2.6417
 7297SOL     OW33349   1.710   3.315   7.696  0.6410  0.5158  0.0712
 7297SOL    HW133350   1.625   3.303   7.738  0.9193  1.6554  0.9578
 7297SOL    HW233351   1.715   3.410   7.688 -0.9356  0.5085 -0.8152
 7298SOL     OW33352   3.240   2.270   3.274 -0.4397 -0.0169  0.0486
 7298SOL    HW133353   3.286   2.269   3.191 -1.1761 -0.3642 -0.3549
 7298SOL    HW233354   3.298   2.214   3.325  1.4807  0.3419 -1.7746
 7299SOL     OW33355   4.103   4.416   4.256 -0.1717 -0.3411 -0.1113
 7299SOL    HW133356   4.072   4.428   4.345 -1.8405  0.0178 -0.7432
 7299SOL    HW233357   4.021   4.420   4.208 -0.6344  0.1351  0.7328
 7300SOL     OW33358   2.809   4.060  10.643  0.0866 -0.0103  0.2213
 7300SOL    HW133359   2.790   4.152  10.662 -0.9861 -0.1339 -0.2579
 7300SOL    HW233360   2.895   4.054  10.685  0.1122 -2.6137 -0.1524
 7301SOL     OW33361   2.511   2.984   7.175  0.6717 -0.4620 -0.5235
 7301SOL    HW133362   2.545   3.068   7.144 -0.0070 -0.2714 -0.7526
 7301SOL    HW233363   2.424   3.010   7.147  0.8667 -0.2689 -0.9598
 7302SOL     OW33364   3.741   1.236  10.172  0.2638 -0.0311  0.3287
 7302SOL    HW133365   3.759   1.287  10.250 -0.5464 -0.9060  1.0918
 7302SOL    HW233366   3.815   1.175  10.177 -0.3483 -0.7206  1.0677
 7303SOL     OW33367   4.195   0.884   2.693 -0.4331 -0.5001  0.5794
 7303SOL    HW133368   4.101   0.867   2.694 -0.9147  2.1226 -0.6411
 7303SOL    HW233369   4.212   0.910   2.602  2.0471  1.4906  1.6039
 7304SOL     OW33370   0.728   3.186   8.202  0.2639  0.3364  0.3628
 7304SOL    HW133371   0.751   3.098   8.232 -1.0296  0.1335  0.7613
 7304SOL    HW233372   0.706   3.222   8.288  0.4137 -1.5132  1.1601
 7305SOL     OW33373   4.396   0.880  14.177 -0.0910  0.2852 -0.4984
 7305SOL    HW133374   4.350   0.939  14.235 -3.0476  0.5039 -3.0691
 7305SOL    HW233375   4.483   0.919  14.188 -0.6391  1.6499 -1.0554
 7306SOL     OW33376   3.652   4.021   4.808  0.1834 -0.0095 -0.1104
 7306SOL    HW133377   3.652   3.945   4.749 -0.7974  0.9838 -1.3881
 7306SOL    HW233378   3.730   4.065   4.775  0.9592 -1.4791 -0.2473
 7307SOL     OW33379   0.928   1.592   8.617 -0.3208 -0.4985  0.3179
 7307SOL    HW133380   0.967   1.637   8.542 -1.7186  1.1208  0.5624
 7307SOL    HW233381   0.877   1.664   8.653 -0.2209  0.5770 -1.6786
 7308SOL     OW33382   1.904   4.050   9.002 -0.0476 -0.0954  0.0592
 7308SOL    HW133383   1.951   4.109   9.061  1.6849 -2.4176  1.0085
 7308SOL    HW233384   1.839   4.008   9.058 -0.0709 -0.6597 -0.3816
 7309SOL     OW33385   1.321   1.267   1.920 -0.3715 -0.4240 -0.2710
 7309SOL    HW133386   1.237   1.309   1.905  0.3617  1.2143  0.2115
 7309SOL    HW233387   1.346   1.229   1.836  0.3019  3.8267 -1.9909
 7310SOL     OW33388   2.137   3.330  14.867 -0.1494 -0.4568  0.8406
 7310SOL    HW133389   2.193   3.407  14.859 -0.6304 -0.2835 -0.8806
 7310SOL    HW233390   2.196   3.255  14.861 -3.1964 -2.8537  0.3069
 7311SOL     OW33391   1.852   1.988   3.876 -0.3615 -0.5455 -0.6020
 7311SOL    HW133392   1.787   2.004   3.808 -0.9582 -1.2504 -0.1981
 7311SOL    HW233393   1.796   1.984   3.954  2.7019  0.7368  1.7011
 7312SOL     OW33394   4.614   2.998  15.379 -0.3907 -0.3248 -0.3544
 7312SOL    HW133395   4.551   2.931  15.407  0.3580 -0.6774  0.4992
 7312SOL    HW233396   4.555   3.063  15.341  0.2444  0.3920 -0.1054
 7313SOL     OW33397   1.125   0.739   6.268  0.0015 -0.5803 -0.1589
 7313SOL    HW133398   1.121   0.717   6.175 -1.1502 -0.4604 -0.1367
 7313SOL    HW233399   1.221   0.735   6.271  0.0476  0.6650  0.0345
 7314SOL     OW33400   1.994   2.810  11.539 -0.0079 -0.3657  0.1528
 7314SOL    HW133401   1.987   2.855  11.454  1.7493  2.7783  1.6956
 7314SOL    HW233402   2.048   2.735  11.515  2.3977  0.7905  1.9574
 7315SOL     OW33403   4.360   0.152   4.109  0.4056 -0.3254  0.3769
 7315SOL    HW133404   4.405   0.071   4.132  2.4161  0.4859 -0.7025
 7315SOL    HW233405   4.269   0.129   4.131  0.1448 -0.8236 -1.2125
 7316SOL     OW33406   0.751   4.150   3.662  0.0268 -0.6442  0.4220
 7316SOL    HW133407   0.705   4.200   3.594 -0.3408  1.3489  2.1494
 7316SOL    HW233408   0.691   4.163   3.735  1.2493  1.3403  1.0657
 7317SOL     OW33409   0.257   0.827   6.573 -0.0996  0.4069  0.5193
 7317SOL    HW133410   0.352   0.831   6.583 -0.2830  1.6013  1.8240
 7317SOL    HW233411   0.259   0.801   6.481  1.0325  1.5744  0.2168
 7318SOL     OW33412   0.755   4.649   7.838 -0.2439  0.0803  0.0597
 7318SOL    HW133413   0.790   4.708   7.771 -0.2705 -0.8350 -0.7586
 7318SOL    HW233414   0.826   4.584   7.842 -0.3425 -0.3378 -4.5347
 7319SOL     OW33415   2.714   2.573   2.853  0.1921 -0.0798 -0.2172
 7319SOL    HW133416   2.746   2.500   2.801  3.4340  0.5255  0.9055
 7319SOL    HW233417   2.761   2.653   2.829 -1.2471  0.2651 -1.8457
 7320SOL     OW33418   1.950   2.518  15.333 -0.5253 -0.2022  0.1877
 7320SOL    HW133419   1.937   2.604  15.373 -0.0753 -0.4712  0.9214
 7320SOL    HW233420   2.035   2.529  15.289 -1.7805 -1.7394 -2.6237
 7321SOL     OW33421   3.782   1.576   7.891  0.6260  0.3274  0.3135
 7321SOL    HW133422   3.760   1.571   7.798  0.0743  1.7614  0.3753
 7321SOL    HW233423   3.706   1.541   7.938  3.1026 -2.3563  2.3389
 7322SOL     OW33424   1.673   2.424  11.160 -0.9287 -0.4080  0.1846
 7322SOL    HW133425   1.705   2.511  11.183 -0.3522 -0.9232  1.3333
 7322SOL    HW233426   1.686   2.380  11.244  1.0728  0.6230  0.4141
 7323SOL     OW33427   2.091   2.535   6.258  0.0539  0.1379  0.3274
 7323SOL    HW133428   2.056   2.515   6.171  0.4259  2.4319 -0.3406
 7323SOL    HW233429   2.179   2.497   6.262  0.1480  0.2493 -0.6529
 7324SOL     OW33430   0.120   2.226  11.868 -0.5760  0.2071  0.0083
 7324SOL    HW133431   0.211   2.247  11.891 -1.5155  1.7072  2.4104
 7324SOL    HW233432   0.099   2.161  11.935  1.7037  1.4056  1.9218
 7325SOL     OW33433   2.924   1.375   8.504  0.3710  0.4709 -0.6219
 7325SOL    HW133434   2.838   1.416   8.497 -0.6273 -1.3709  0.7783
 7325SOL    HW233435   2.950   1.386   8.595 -0.1918  0.0413 -0.4068
 7326SOL     OW33436   3.331   1.162   6.965  0.2205 -0.2767  0.5429
 7326SOL    HW133437   3.426   1.171   6.955  0.1641  0.9505  1.1083
 7326SOL    HW233438   3.305   1.248   6.931  3.6658  0.6922  0.3566
 7327SOL     OW33439   4.384   1.978   2.121  0.0099 -0.3537  0.1990
 7327SOL    HW133440   4.294   2.001   2.143  0.8852  1.2013  2.1479
 7327SOL    HW233441   4.415   1.932   2.199 -0.6738 -1.9165 -0.4480
 7328SOL     OW33442   2.282   2.235   2.501 -0.7076 -0.1178  0.2667
 7328SOL    HW133443   2.284   2.172   2.573 -2.8815 -0.4041  0.0827
 7328SOL    HW233444   2.320   2.174   2.437 -0.1930 -1.9190  2.2989
 7329SOL     OW33445   1.276   1.857   3.293  0.8536  0.4920 -0.7280
 7329SOL    HW133446   1.234   1.866   3.379 -1.4810 -0.3114 -1.7928
 7329SOL    HW233447   1.221   1.797   3.243  0.1476 -0.3671  1.0809
 7330SOL     OW33448   2.194   3.544   7.828  0.1973 -0.0277 -0.3468
 7330SOL    HW133449   2.252   3.543   7.904 -0.3015  0.9254  0.0579
 7330SOL    HW233450   2.110   3.565   7.870  0.4376 -1.9081  1.0598
 7331SOL     OW33451   4.400   3.605   6.019  0.8344 -0.2860  0.3716
 7331SOL    HW133452   4.378   3.657   5.942 -1.4842 -0.2002  1.0895
 7331SOL    HW233453   4.406   3.517   5.982 -1.5525  0.3089 -1.4169
 7332SOL     OW33454   3.530   2.655   5.078  0.3418  0.0491  0.2585
 7332SOL    HW133455   3.622   2.678   5.090  0.3426  0.2722 -0.1549
 7332SOL    HW233456   3.547   2.568   5.042 -1.7089 -0.8520  1.4866
 7333SOL     OW33457   1.115   2.549   3.106  0.4486 -0.8180  0.0113
 7333SOL    HW133458   1.156   2.627   3.069 -1.8375 -0.6018 -2.1029
 7333SOL    HW233459   1.043   2.588   3.156  3.0053  2.6310  0.9908
 7334SOL     OW33460   1.511   4.705   2.942  0.4043 -0.3470  0.2357
 7334SOL    HW133461   1.532   4.647   3.016 -1.7950 -1.0532  0.2979
 7334SOL    HW233462   1.443   4.651   2.902  0.4889 -0.2382 -0.0562
 7335SOL     OW33463   3.799   0.206   1.824  0.2265  0.9226 -1.0744
 7335SOL    HW133464   3.837   0.119   1.810 -0.1001  0.6137  0.0044
 7335SOL    HW233465   3.731   0.215   1.758  0.1403  2.8206 -0.7179
 7336SOL     OW33466   3.502   3.197  15.400  0.4571 -0.0960  1.1375
 7336SOL    HW133467   3.569   3.265  15.389  1.6133 -1.0998  2.0064
 7336SOL    HW233468   3.534   3.163  15.483 -1.8174 -1.9915  1.2412
 7337SOL     OW33469   3.441   1.293   0.463  0.0978  0.9386 -0.3620
 7337SOL    HW133470   3.524   1.312   0.507  0.4142  0.2472 -0.6545
 7337SOL    HW233471   3.406   1.223   0.518 -0.5057  0.6413 -1.1292
 7338SOL     OW33472   3.302   2.537   2.733 -0.4048  0.3805 -0.0524
 7338SOL    HW133473   3.386   2.520   2.776 -0.9260 -0.7787  0.5217
 7338SOL    HW233474   3.239   2.485   2.783  0.6253 -1.2559 -0.4283
 7339SOL     OW33475   2.813   3.236  11.321 -0.3272  0.0596 -0.0568
 7339SOL    HW133476   2.878   3.307  11.324 -0.5844  0.3457 -1.1501
 7339SOL    HW233477   2.739   3.281  11.362 -0.7524 -1.3573  0.7229
 7340SOL     OW33478   1.556   3.293   2.223 -0.5871 -0.3745  0.3806
 7340SOL    HW133479   1.559   3.387   2.210  1.0870 -0.4298  0.3729
 7340SOL    HW233480   1.508   3.260   2.147  1.7015 -0.9817 -0.8083
 7341SOL     OW33481   0.497   2.899   6.329 -0.1292 -0.3460  0.3299
 7341SOL    HW133482   0.416   2.865   6.291 -0.8629  1.6824  0.1040
 7341SOL    HW233483   0.465   2.972   6.381  1.5969  0.7524 -0.1654
 7342SOL     OW33484   3.333   3.623  10.669  0.1914 -0.1167 -0.0815
 7342SOL    HW133485   3.367   3.541  10.632 -0.3800 -0.1354 -0.5732
 7342SOL    HW233486   3.245   3.634  10.632 -0.2508 -1.4627  0.5642
 7343SOL     OW33487   4.074   2.234  10.337  0.1711  0.1751  0.7605
 7343SOL    HW133488   4.075   2.193  10.423 -1.2645 -1.4351  0.0219
 7343SOL    HW233489   4.017   2.175  10.287 -1.1384  0.2850  2.1201
 7344SOL     OW33490   4.457   3.292  15.474  0.1717  0.5602 -0.4062
 7344SOL    HW133491   4.363   3.281  15.464 -0.0347 -0.2841  2.4384
 7344SOL    HW233492   4.459   3.299  15.569  0.9783  0.1162 -0.3897
 7345SOL     OW33493   1.239   1.089  10.208  0.4796  0.5287  0.6826
 7345SOL    HW133494   1.206   1.083  10.297 -1.7891 -1.0456 -0.2487
 7345SOL    HW233495   1.314   1.031  10.215 -0.2962 -0.5442  0.1709
 7346SOL     OW33496   4.522   1.917  12.835 -0.0211  0.2895 -0.4524
 7346SOL    HW133497   4.486   1.834  12.803 -3.0882  1.0497  1.0540
 7346SOL    HW233498   4.495   1.920  12.927 -1.1598 -0.7158 -0.7621
 7347SOL     OW33499   3.677   2.939   9.565 -0.2145 -0.6157  0.1036
 7347SOL    HW133500   3.697   3.017   9.617 -0.2635 -1.1005  0.8606
 7347SOL    HW233501   3.651   2.875   9.632  0.6515  0.6772  1.6893
 7348SOL     OW33502   4.055   0.254   6.269 -0.2862  0.0088  0.0146
 7348SOL    HW133503   4.015   0.307   6.199 -1.4613 -0.2805  0.4693
 7348SOL    HW233504   4.090   0.176   6.225 -0.6140  0.0397 -0.2996
 7349SOL     OW33505   3.423   0.222   7.869  0.2013  0.3784  0.1280
 7349SOL    HW133506   3.479   0.290   7.907  0.0302 -0.2477  1.5057
 7349SOL    HW233507   3.491   0.167   7.829 -0.2206  0.7569 -1.1245
 7350SOL     OW33508   1.103   2.953   5.777 -0.1150 -0.1141 -0.2576
 7350SOL    HW133509   1.144   2.873   5.742  0.3922  0.0901 -0.1313
 7350SOL    HW233510   1.161   3.026   5.755 -1.3082 -0.1165 -3.3584
 7351SOL     OW33511   2.903   2.731   6.328 -0.2733 -0.0446 -0.5602
 7351SOL    HW133512   2.991   2.702   6.303  0.2418  0.4994  0.5897
 7351SOL    HW233513   2.848   2.653   6.332  0.9276 -0.8822 -0.2528
 7352SOL     OW33514   0.509   1.369   5.683 -0.1616  0.2831 -0.2960
 7352SOL    HW133515   0.536   1.338   5.770  1.0471  0.3073 -0.6674
 7352SOL    HW233516   0.561   1.309   5.629  0.8400 -0.5756  1.5925
 7353SOL     OW33517   3.301   2.919   5.273 -0.3400 -0.0878  0.2786
 7353SOL    HW133518   3.302   2.856   5.345 -2.1216 -0.6309 -0.1548
 7353SOL    HW233519   3.386   2.959   5.290 -1.2449  1.8861  0.1314
 7354SOL     OW33520   0.286   2.281   4.690 -0.0825 -0.1950 -0.0074
 7354SOL    HW133521   0.216   2.232   4.732  0.7397  0.7472  2.4530
 7354SOL    HW233522   0.248   2.366   4.665  3.5884  1.1250 -1.0851
 7355SOL     OW33523   0.592   3.421  10.651 -0.2494 -0.1107 -0.9109
 7355SOL    HW133524   0.618   3.498  10.701 -1.8053 -0.3397  0.2722
 7355SOL    HW233525   0.636   3.353  10.701 -0.1216  2.3755  2.3867
 7356SOL     OW33526   1.797   3.978   4.997 -0.2675 -0.1189  0.3115
 7356SOL    HW133527   1.826   3.925   4.923  0.5167  2.4310 -1.1916
 7356SOL    HW233528   1.706   3.989   4.968 -0.3870  1.5792  1.3144
 7357SOL     OW33529   3.217   3.670   1.329 -0.0035  0.3872 -0.5152
 7357SOL    HW133530   3.164   3.705   1.400  0.0563 -2.3910  0.9279
 7357SOL    HW233531   3.142   3.640   1.278  0.0007 -1.5620  0.6383
 7358SOL     OW33532   1.401   0.702  12.546 -0.5185  0.1355  0.5455
 7358SOL    HW133533   1.392   0.772  12.610 -0.6832  0.1843  0.4696
 7358SOL    HW233534   1.484   0.665  12.574 -0.9033 -0.9928  0.2202
 7359SOL     OW33535   0.039   2.045   6.454 -0.0643 -0.2292  0.3868
 7359SOL    HW133536   0.113   2.093   6.416 -0.2124 -0.9347 -0.8207
 7359SOL    HW233537   0.083   1.983   6.512 -0.0402 -0.0541  0.5551
 7360SOL     OW33538   3.158   3.772   2.378 -0.1154 -0.4802 -0.2265
 7360SOL    HW133539   3.069   3.806   2.380  0.8109  1.8883  1.2608
 7360SOL    HW233540   3.158   3.744   2.287 -0.1285  2.0884 -1.0303
 7361SOL     OW33541   1.382   0.744   0.488 -0.5600  0.2464 -0.2336
 7361SOL    HW133542   1.386   0.839   0.503 -3.1183  0.6319 -2.0505
 7361SOL    HW233543   1.343   0.749   0.401  1.1024 -0.4111 -0.9973
 7362SOL     OW33544   2.523   3.386  12.377 -0.3661 -0.3596 -0.3830
 7362SOL    HW133545   2.552   3.476  12.391 -1.9791  0.0189  0.6029
 7362SOL    HW233546   2.524   3.356  12.468  1.4527 -0.0258 -0.2883
 7363SOL     OW33547   2.756   2.418   5.326 -0.3073 -0.1381  0.2537
 7363SOL    HW133548   2.844   2.413   5.288 -0.6151 -0.6976 -0.3746
 7363SOL    HW233549   2.728   2.495   5.276  0.9982  0.0450 -0.2094
 7364SOL     OW33550   2.399   3.097  14.960  0.3867  0.1035 -0.1223
 7364SOL    HW133551   2.494   3.105  14.956  0.5225 -1.0990  0.7303
 7364SOL    HW233552   2.372   3.032  14.895  0.8844 -0.4020  0.1790
 7365SOL     OW33553   1.952   1.219   7.273 -0.1565 -0.1968  0.0741
 7365SOL    HW133554   1.942   1.178   7.187 -0.6747 -1.9997  1.0011
 7365SOL    HW233555   1.988   1.143   7.318  1.2078  0.4040  0.0043
 7366SOL     OW33556   3.253   0.894   5.624 -0.3701 -0.0815 -0.0382
 7366SOL    HW133557   3.324   0.898   5.688 -1.5365  2.3007  1.1261
 7366SOL    HW233558   3.233   0.987   5.608 -0.7951 -0.1536  0.0673
 7367SOL     OW33559   3.746   1.424  12.861  0.5788  0.4029 -0.1414
 7367SOL    HW133560   3.656   1.441  12.886  0.6002  0.7737 -0.3032
 7367SOL    HW233561   3.799   1.436  12.940 -1.3710  1.4222  0.9864
 7368SOL     OW33562   0.562   1.957   5.182  0.3058  0.0329  0.4740
 7368SOL    HW133563   0.507   2.035   5.181 -1.2946 -1.0991  1.2822
 7368SOL    HW233564   0.640   1.996   5.143 -0.7969  0.3462 -1.4024
 7369SOL     OW33565   1.929   0.840   0.647  0.0508  0.3496  0.4480
 7369SOL    HW133566   2.004   0.840   0.707  0.7403 -1.5993 -0.4193
 7369SOL    HW233567   1.858   0.855   0.710 -0.5739  0.8161 -0.3701
 7370SOL     OW33568   1.300   3.385   2.737  0.3776 -0.2066  0.4513
 7370SOL    HW133569   1.377   3.328   2.740  0.3916 -0.2553 -0.9307
 7370SOL    HW233570   1.229   3.328   2.768  1.1698 -1.9701 -0.9764
 7371SOL     OW33571   4.705   4.436   7.573  0.1403  0.0898 -0.5380
 7371SOL    HW133572   0.062   4.459   7.618 -1.3949  1.2489  1.6407
 7371SOL    HW233573   4.648   4.502   7.610  1.2937  0.6183  0.3114
 7372SOL     OW33574   3.143   1.869  13.141 -0.0158 -0.1450 -0.2389
 7372SOL    HW133575   3.109   1.819  13.067  1.9282 -0.9640 -0.5916
 7372SOL    HW233576   3.232   1.895  13.118  0.6350 -0.6443  1.7196
 7373SOL     OW33577   4.337   3.798   2.988 -0.6888  0.0987  0.0640
 7373SOL    HW133578   4.272   3.850   2.942 -0.8771  0.1221  0.3570
 7373SOL    HW233579   4.334   3.719   2.934 -1.6503  0.2817 -0.1351
 7374SOL     OW33580   0.099   3.667   2.455  0.0405 -0.3663 -0.1098
 7374SOL    HW133581   0.025   3.619   2.419  1.2784 -3.0499  0.9343
 7374SOL    HW233582   0.094   3.754   2.415 -2.1902 -0.3545  0.2257
 7375SOL     OW33583   3.243   4.545   7.626  0.3887 -0.1894  0.6921
 7375SOL    HW133584   3.263   4.626   7.578 -0.2747 -1.0780 -1.0756
 7375SOL    HW233585   3.320   4.540   7.684 -1.5195  0.0279  3.2566
 7376SOL     OW33586   0.110   3.835  13.187 -0.2794  0.0911  0.0556
 7376SOL    HW133587   0.193   3.875  13.215  0.6180 -2.4900  1.0315
 7376SOL    HW233588   0.054   3.866  13.259  0.4943  2.6335 -0.4077
 7377SOL     OW33589   3.516   0.234   3.964 -0.1010 -0.2851  0.3251
 7377SOL    HW133590   3.472   0.262   3.884 -1.7609 -3.2115  0.2356
 7377SOL    HW233591   3.441   0.204   4.015 -1.0307  1.4908 -0.0097
 7378SOL     OW33592   3.156   3.234   6.443  0.0543 -0.9063 -0.1456
 7378SOL    HW133593   3.176   3.144   6.468  2.0324 -0.1291  1.0187
 7378SOL    HW233594   3.104   3.265   6.518 -0.3462  0.0254 -0.8181
 7379SOL     OW33595   0.772   3.576   8.001 -0.9584 -0.4313  0.0369
 7379SOL    HW133596   0.854   3.616   8.031 -1.6033  0.9178 -0.0092
 7379SOL    HW233597   0.741   3.636   7.933 -0.1173  2.0915  1.8552
 7380SOL     OW33598   3.486   1.304  12.659  0.0575 -0.6082 -0.1986
 7380SOL    HW133599   3.466   1.211  12.650  1.0986 -0.9685  1.1502
 7380SOL    HW233600   3.500   1.313  12.753 -0.6951 -0.6240 -0.0824
 7381SOL     OW33601   3.266   3.195   5.319 -0.5449  0.0086  0.6619
 7381SOL    HW133602   3.335   3.252   5.283 -0.9551  0.0519 -0.0607
 7381SOL    HW233603   3.287   3.108   5.286 -1.8596  0.2598 -0.8346
 7382SOL     OW33604   0.235   0.342  11.136 -0.0878 -0.4054 -0.5268
 7382SOL    HW133605   0.187   0.260  11.127  2.2108 -1.9225  1.2274
 7382SOL    HW233606   0.168   0.404  11.164  1.0461  1.5031 -1.9317
 7383SOL     OW33607   1.488   2.319  11.708  0.4118  0.0176  0.4168
 7383SOL    HW133608   1.540   2.259  11.654  0.0739 -0.0044  0.1099
 7383SOL    HW233609   1.507   2.404  11.669 -1.5104  0.2916  0.0600
 7384SOL     OW33610   0.583   0.151   7.947 -0.0553  0.7913  0.5257
 7384SOL    HW133611   0.622   0.225   7.902  0.3872  0.4570  0.3557
 7384SOL    HW233612   0.655   0.088   7.953  0.6086  1.5961  0.9677
 7385SOL     OW33613   3.754   2.454   7.530  0.9238 -0.2708 -0.2618
 7385SOL    HW133614   3.696   2.382   7.506 -0.5786  0.6517  0.6401
 7385SOL    HW233615   3.832   2.405   7.556 -0.9268 -3.0382  0.0998
 7386SOL     OW33616   1.468   3.241  17.596  0.3345 -0.2245  0.2822
 7386SOL    HW133617   1.425   3.294  17.663 -0.2161 -0.8129  0.3917
 7386SOL    HW233618   1.473   3.155  17.637  0.3025  0.3961  1.6018
 7387SOL     OW33619   4.142   0.512   9.073 -0.0940  0.3579 -0.6060
 7387SOL    HW133620   4.225   0.502   9.025 -0.2233 -1.7157 -0.4343
 7387SOL    HW233621   4.088   0.461   9.012 -0.5000 -0.7766  0.6887
 7388SOL     OW33622   0.937   2.940   8.586 -0.0509 -0.4003 -0.3966
 7388SOL    HW133623   0.941   3.004   8.657 -0.9891 -1.7382  0.8789
 7388SOL    HW233624   1.015   2.887   8.603 -1.4049 -2.4269 -0.4465
 7389SOL     OW33625   3.492   2.541   6.147 -0.2234 -0.0778  0.0571
 7389SOL    HW133626   3.503   2.626   6.106 -1.0334  0.2951  0.6140
 7389SOL    HW233627   3.556   2.494   6.093 -1.2109  0.5468 -1.6573
 7390SOL     OW33628   4.494   0.386   5.510 -0.0524 -0.8289 -0.4974
 7390SOL    HW133629   4.524   0.297   5.529  1.4193  0.0716  1.3382
 7390SOL    HW233630   4.540   0.425   5.584 -1.7616  0.1814  0.0451
 7391SOL     OW33631   1.492   4.207   7.723 -0.4557  0.2394  0.3218
 7391SOL    HW133632   1.443   4.151   7.784 -0.3840 -1.0882 -0.8624
 7391SOL    HW233633   1.510   4.150   7.649 -0.3564  0.2914  0.3060
 7392SOL     OW33634   4.560   2.220   6.979 -0.0621 -0.4427  0.2132
 7392SOL    HW133635   4.590   2.271   7.054 -1.1724 -1.2179  1.1808
 7392SOL    HW233636   4.571   2.129   7.006  0.8595 -1.2737 -3.0113
 7393SOL     OW33637   4.152   3.457  15.318  0.3509  0.0014 -0.2007
 7393SOL    HW133638   4.205   3.444  15.239  0.9843  0.2679  0.1737
 7393SOL    HW233639   4.158   3.367  15.351  0.7363  0.1313  0.0783
 7394SOL     OW33640   2.513   0.847   5.552 -0.2123  0.3784  0.2224
 7394SOL    HW133641   2.585   0.785   5.563  0.6029  1.2084 -0.3757
 7394SOL    HW233642   2.544   0.910   5.617 -0.9075 -0.3098  1.2018
 7395SOL     OW33643   2.799   3.489   3.708 -0.8253 -0.0118  0.5654
 7395SOL    HW133644   2.866   3.556   3.711 -0.2564 -0.5368 -0.2818
 7395SOL    HW233645   2.863   3.434   3.663  0.2800  0.4195  1.6074
 7396SOL     OW33646   1.374   2.008   7.549  0.1068  0.5168 -0.2214
 7396SOL    HW133647   1.420   2.017   7.465 -0.0285 -1.2299 -0.4712
 7396SOL    HW233648   1.423   1.946   7.603 -1.4521 -0.1498  0.4159
 7397SOL     OW33649   2.853   0.931   3.478 -0.2291  0.2424  0.6410
 7397SOL    HW133650   2.872   0.838   3.465  0.7603  0.4248  0.8333
 7397SOL    HW233651   2.772   0.937   3.427 -0.7612 -0.8489  1.3665
 7398SOL     OW33652   0.104   0.748   4.936 -0.3997 -0.2620  0.1445
 7398SOL    HW133653   0.045   0.820   4.961 -1.9123 -1.8194  1.0084
 7398SOL    HW233654   0.168   0.800   4.887 -0.1177  0.2772  1.0812
 7399SOL     OW33655   0.231   1.046   2.769  0.3698  0.6003 -0.1813
 7399SOL    HW133656   0.164   1.089   2.716  0.4278  0.5009 -0.3350
 7399SOL    HW233657   0.209   1.068   2.859 -2.0904 -2.2070 -0.0751
 7400SOL     OW33658   1.568   0.943  17.420 -0.0328  0.1978  0.2843
 7400SOL    HW133659   1.481   0.979  17.432 -0.0359 -0.4136  2.2185
 7400SOL    HW233660   1.598   0.978  17.336 -1.3411  0.1609 -0.1941
 7401SOL     OW33661   1.778   1.361   2.020  0.3131  0.4353  0.3138
 7401SOL    HW133662   1.859   1.322   1.987 -0.2822  0.5401 -1.2335
 7401SOL    HW233663   1.752   1.418   1.948 -0.3936  1.3630  1.2999
 7402SOL     OW33664   2.207   3.198   5.736  0.1770 -0.2823  0.0070
 7402SOL    HW133665   2.161   3.148   5.669 -2.8729 -0.8919  2.5211
 7402SOL    HW233666   2.137   3.262   5.748 -0.4398 -1.5708  3.3359
 7403SOL     OW33667   2.889   3.959  17.642 -0.0561 -0.1604  0.2140
 7403SOL    HW133668   2.911   3.869  17.664 -0.9190 -0.2198  0.8586
 7403SOL    HW233669   2.839   3.934  17.565  0.2003  2.1379 -0.7123
 7404SOL     OW33670   2.839   0.932   5.241  0.2790  0.2196 -0.0669
 7404SOL    HW133671   2.909   0.866   5.247  0.3261  0.3673  1.1147
 7404SOL    HW233672   2.765   0.874   5.225  0.7476 -0.0867 -1.0958
 7405SOL     OW33673   0.305   1.408   2.827  0.7200 -0.6275 -0.4380
 7405SOL    HW133674   0.361   1.340   2.788 -0.8858 -1.6528 -0.9727
 7405SOL    HW233675   0.222   1.362   2.818 -0.0009  0.5318  0.3241
 7406SOL     OW33676   2.166   3.272   7.537  0.0188 -0.0516 -0.5001
 7406SOL    HW133677   2.174   3.299   7.445  3.4246  2.2638  0.4500
 7406SOL    HW233678   2.084   3.225   7.551  0.3085 -0.6944 -0.9814
 7407SOL     OW33679   3.314   3.059   8.561  0.1932  0.2794  0.5116
 7407SOL    HW133680   3.309   3.129   8.496 -0.6928 -1.2496 -1.0740
 7407SOL    HW233681   3.297   3.103   8.644 -2.1962 -0.3645  0.3513
 7408SOL     OW33682   3.900   4.630  15.071 -0.5934 -0.3254 -0.2618
 7408SOL    HW133683   3.895   4.534  15.070  1.3415 -0.4014 -2.3779
 7408SOL    HW233684   3.897   4.649  14.977  1.6250  1.5707  0.0548
 7409SOL     OW33685   4.655   4.375  14.520  0.6379  0.7243 -0.6343
 7409SOL    HW133686   4.694   4.397  14.605 -0.1035 -0.4975  0.0231
 7409SOL    HW233687   4.652   4.459  14.475 -1.6472  1.3801  0.7882
 7410SOL     OW33688   2.375   3.140   2.247 -0.8118  0.7635 -0.2496
 7410SOL    HW133689   2.324   3.084   2.306  1.9788 -1.0468  0.4198
 7410SOL    HW233690   2.454   3.161   2.297 -0.8967  0.3380  0.0648
 7411SOL     OW33691   0.527   2.147   8.346  0.1333  0.9075 -0.4710
 7411SOL    HW133692   0.607   2.111   8.385 -0.7495  0.2103  0.7146
 7411SOL    HW233693   0.505   2.072   8.290  0.4050 -0.3680  1.1337
 7412SOL     OW33694   3.648   0.726   7.813  0.2574  0.2174 -0.5046
 7412SOL    HW133695   3.670   0.688   7.727 -0.9689 -2.1937  0.2441
 7412SOL    HW233696   3.720   0.789   7.810  1.9691 -1.7575 -1.0476
 7413SOL     OW33697   0.856   3.536   4.798 -0.2240 -0.5290 -0.4374
 7413SOL    HW133698   0.788   3.552   4.733 -1.1060 -0.5323  0.4872
 7413SOL    HW233699   0.870   3.441   4.788  0.9144 -0.3867 -0.2011
 7414SOL     OW33700   0.248   3.589   3.818  0.3758 -0.1015 -0.4464
 7414SOL    HW133701   0.231   3.681   3.799  2.0068  0.2741 -0.0981
 7414SOL    HW233702   0.314   3.583   3.748 -0.9588 -1.8333 -1.5510
 7415SOL     OW33703   1.522   0.731  14.733  0.1177 -0.4812  0.1468
 7415SOL    HW133704   1.506   0.704  14.642  0.9631  1.3321 -0.5320
 7415SOL    HW233705   1.609   0.768  14.730 -0.5816  0.9884 -1.9992
 7416SOL     OW33706   0.888   0.700   9.056  0.6568 -0.4165  0.6749
 7416SOL    HW133707   0.877   0.725   9.148  0.9197 -0.3843  0.6979
 7416SOL    HW233708   0.897   0.787   9.017 -1.5564  0.1026  1.2909
 7417SOL     OW33709   1.831   0.428   2.335  0.5628  0.1228 -0.7921
 7417SOL    HW133710   1.913   0.478   2.331  1.8141 -1.9610 -1.2535
 7417SOL    HW233711   1.841   0.388   2.421  1.6894  0.9217 -0.5450
 7418SOL     OW33712   1.856   4.366  10.574  0.1096 -0.4466 -0.4920
 7418SOL    HW133713   1.943   4.341  10.604 -0.7600 -2.4767  0.3698
 7418SOL    HW233714   1.849   4.335  10.483 -2.1368  1.4722 -0.9614
 7419SOL     OW33715   2.535   3.160   5.803  0.0976  0.1417  0.0445
 7419SOL    HW133716   2.603   3.118   5.750 -2.0156 -2.0078 -0.9946
 7419SOL    HW233717   2.485   3.222   5.751 -1.2183 -0.6811  0.3367
 7420SOL     OW33718   2.124   4.496   4.980 -0.0642  0.2107  0.2748
 7420SOL    HW133719   2.138   4.580   5.023  1.0500  1.1235 -1.8630
 7420SOL    HW233720   2.035   4.470   5.004  0.7214 -0.4040  2.4806
 7421SOL     OW33721   4.316   1.164   3.024 -0.9286 -0.6247 -0.4649
 7421SOL    HW133722   4.374   1.239   3.016 -0.4814 -1.0228 -0.9182
 7421SOL    HW233723   4.230   1.205   3.037 -0.7762  0.0976 -1.7942
 7422SOL     OW33724   1.037   4.018   4.545  0.3631  0.1064  0.3198
 7422SOL    HW133725   1.085   3.969   4.612 -0.6748 -0.4801  0.6170
 7422SOL    HW233726   0.949   4.035   4.577  0.7920  0.2822  1.4312
 7423SOL     OW33727   4.514   3.724   3.908  0.4097  0.0088 -0.2270
 7423SOL    HW133728   4.581   3.679   3.857 -1.2452  0.0294 -2.3958
 7423SOL    HW233729   4.544   3.814   3.895  1.1846 -0.0275  1.2126
 7424SOL     OW33730   1.467   0.036   8.499  0.1038 -0.2471  0.1980
 7424SOL    HW133731   1.483   0.087   8.579  1.4286 -0.7203  0.2328
 7424SOL    HW233732   1.376   0.010   8.511 -0.1149  0.5872  0.3901
 7425SOL     OW33733   0.980   3.539   2.393 -0.0664 -0.4120  0.1806
 7425SOL    HW133734   0.993   3.607   2.460  0.9484 -0.4395  0.0075
 7425SOL    HW233735   1.069   3.505   2.390  0.8653  2.0040 -0.1278
 7426SOL     OW33736   3.217   0.036  17.646 -0.1007 -0.2837 -0.4605
 7426SOL    HW133737   3.182   0.031  17.557  1.7494  3.1542 -1.3861
 7426SOL    HW233738   3.299   0.081  17.627  0.8788 -0.8953  2.2807
 7427SOL     OW33739   1.112   4.071   8.655 -0.0253 -0.3655 -0.0835
 7427SOL    HW133740   1.078   3.983   8.665 -0.0930 -0.3567 -0.2347
 7427SOL    HW233741   1.042   4.131   8.681  0.4822  0.7423 -1.2329
 7428SOL     OW33742   3.419   1.497   8.658  0.1861 -0.2202 -0.0804
 7428SOL    HW133743   3.334   1.540   8.667  0.3261 -0.0149  0.2500
 7428SOL    HW233744   3.405   1.420   8.713  1.4772 -1.9737 -2.2005
 7429SOL     OW33745   2.669   0.790   4.346 -0.2065  0.0969  0.7213
 7429SOL    HW133746   2.680   0.757   4.435  2.8877 -0.3170  0.1897
 7429SOL    HW233747   2.600   0.856   4.347 -0.5216 -0.1789 -1.8687
 7430SOL     OW33748   2.869   1.395   8.213 -0.0151  0.3532 -0.3202
 7430SOL    HW133749   2.952   1.396   8.164  0.4031 -1.3803  0.3554
 7430SOL    HW233750   2.898   1.364   8.298 -0.0067  2.1361  0.3136
 7431SOL     OW33751   4.022   1.453   2.154 -0.0249  0.4510  0.0022
 7431SOL    HW133752   4.032   1.362   2.183  4.3066  0.1913 -2.3031
 7431SOL    HW233753   4.112   1.471   2.127 -0.4203 -1.5144 -2.7036
 7432SOL     OW33754   4.659   2.270  10.735  0.0075 -0.4742  0.3619
 7432SOL    HW133755   0.021   2.250  10.699 -0.1326 -1.5903  0.6630
 7432SOL    HW233756   4.647   2.196  10.793  0.4550  0.2121  1.3304
 7433SOL     OW33757   1.851   1.626  12.920 -0.5859  0.1877  0.0153
 7433SOL    HW133758   1.854   1.533  12.896  1.0205  0.2642 -0.0180
 7433SOL    HW233759   1.816   1.656  12.836 -1.4068 -0.8469 -0.0114
 7434SOL     OW33760   0.306   0.472  15.205 -0.0690 -0.1288  0.7402
 7434SOL    HW133761   0.292   0.447  15.114 -0.3042 -0.7071  0.9383
 7434SOL    HW233762   0.248   0.407  15.243 -1.0424  0.2890 -0.0347
 7435SOL     OW33763   1.046   1.131   4.332  0.0469  0.0932  0.1984
 7435SOL    HW133764   0.991   1.053   4.322 -1.1206  0.9577 -0.0966
 7435SOL    HW233765   0.993   1.183   4.392  0.5802  0.7516  0.1003
 7436SOL     OW33766   1.286   0.660   3.717 -0.1129 -0.2068 -0.0795
 7436SOL    HW133767   1.272   0.713   3.796 -1.6667 -0.1175 -0.4122
 7436SOL    HW233768   1.340   0.717   3.661 -1.7601  1.3884 -0.0554
 7437SOL     OW33769   2.579   2.357   5.049 -0.5604 -0.1378  0.2021
 7437SOL    HW133770   2.653   2.416   5.060  2.3584 -3.5175 -1.5166
 7437SOL    HW233771   2.513   2.426   5.047  1.9331  2.1730 -2.1842
 7438SOL     OW33772   2.089   2.427   7.445  0.4624  0.3150  0.0715
 7438SOL    HW133773   2.006   2.389   7.475 -0.2710  0.9062 -1.1746
 7438SOL    HW233774   2.115   2.496   7.506  0.6814  0.7513 -0.5180
 7439SOL     OW33775   3.215   1.575   7.244  0.3093  0.0313  0.0681
 7439SOL    HW133776   3.291   1.628   7.269  1.7171 -0.9104 -2.2688
 7439SOL    HW233777   3.179   1.643   7.187  1.1802 -0.2395 -0.8129
 7440SOL     OW33778   2.590   2.173   9.556  0.2085 -0.1372 -0.4242
 7440SOL    HW133779   2.613   2.210   9.642  0.5007  0.8678 -0.9351
 7440SOL    HW233780   2.662   2.212   9.508  0.7616  1.1359  1.4029
 7441SOL     OW33781   0.807   1.445   5.473  0.5426 -0.4038  0.4423
 7441SOL    HW133782   0.738   1.472   5.411  1.1873  2.0258  0.8106
 7441SOL    HW233783   0.768   1.371   5.520 -0.5442 -0.2101 -0.1487
 7442SOL     OW33784   3.771   2.861   9.092 -0.5560 -0.0152 -0.1970
 7442SOL    HW133785   3.711   2.918   9.140  1.2184  0.0657  1.9299
 7442SOL    HW233786   3.770   2.779   9.142 -2.5008 -0.6213 -1.2394
 7443SOL     OW33787   3.597   0.190  16.469  0.2012 -0.2634  0.2455
 7443SOL    HW133788   3.690   0.168  16.472  0.2706  0.3852  2.3594
 7443SOL    HW233789   3.566   0.115  16.418 -0.2665 -1.1926  1.9060
 7444SOL     OW33790   4.407   3.865   2.660 -0.3080  0.2469 -0.0166
 7444SOL    HW133791   4.438   3.942   2.707  0.7884  1.6155 -2.9513
 7444SOL    HW233792   4.452   3.791   2.701  0.6995  1.6903  1.4851
 7445SOL     OW33793   0.802   2.644  11.248 -0.9496 -0.4251  0.0157
 7445SOL    HW133794   0.895   2.642  11.225 -1.0254 -2.8211 -0.0512
 7445SOL    HW233795   0.771   2.726  11.211  0.3558  0.1152  0.1241
 7446SOL     OW33796   0.647   0.089   8.720 -0.0394 -0.0949  0.3380
 7446SOL    HW133797   0.603   0.005   8.706  0.3889 -0.2892  0.1314
 7446SOL    HW233798   0.647   0.087   8.816 -0.7826  3.1034  0.3909
 7447SOL     OW33799   0.894   0.679  10.542 -0.0943 -0.3950 -0.0899
 7447SOL    HW133800   0.978   0.720  10.523 -0.5449 -0.2733 -1.8758
 7447SOL    HW233801   0.842   0.757  10.524  0.5718  0.2073  0.6433
 7448SOL     OW33802   0.598   1.373   5.120 -0.6587 -0.2805  0.0618
 7448SOL    HW133803   0.516   1.344   5.159  0.4421 -1.3794  1.5740
 7448SOL    HW233804   0.608   1.463   5.152 -1.3002  0.1176 -0.8542
 7449SOL     OW33805   2.641   2.456  14.209  0.2874  0.3013 -0.0986
 7449SOL    HW133806   2.689   2.373  14.210  1.2377  0.8363 -1.2186
 7449SOL    HW233807   2.594   2.449  14.126 -1.5207 -2.9924  1.1991
 7450SOL     OW33808   1.002   3.861  15.568 -0.7401 -0.1449 -0.2581
 7450SOL    HW133809   1.073   3.811  15.530  0.1619  1.3292 -0.4943
 7450SOL    HW233810   1.039   3.949  15.565  1.2652 -0.9132  1.8458
 7451SOL     OW33811   4.707   2.737  15.160 -0.4444 -0.4248 -0.4039
 7451SOL    HW133812   0.064   2.695  15.184  0.3759  1.5162  0.2169
 7451SOL    HW233813   4.716   2.820  15.206 -0.5765  1.3658 -3.5935
 7452SOL     OW33814   1.580   4.429   8.717  0.0566  0.7063 -0.0873
 7452SOL    HW133815   1.524   4.409   8.642  0.0843  0.3076 -0.0001
 7452SOL    HW233816   1.548   4.369   8.784  0.5607  1.6298  0.9952
 7453SOL     OW33817   0.023   4.504  12.769  0.0612  0.3807 -0.6537
 7453SOL    HW133818   0.044   4.412  12.787 -1.1069  0.2960  0.2143
 7453SOL    HW233819   4.658   4.508  12.798  0.2869 -0.8979  0.2263
 7454SOL     OW33820   1.687   1.912  17.085  0.6578  0.2015  0.1248
 7454SOL    HW133821   1.732   1.831  17.062  0.5750  0.5925 -1.4520
 7454SOL    HW233822   1.622   1.922  17.015  0.8479  1.9493  0.1777
 7455SOL     OW33823   4.623   0.616   5.976 -0.3013 -0.0188  0.3827
 7455SOL    HW133824   4.678   0.603   6.054  1.5989 -0.7911 -1.0833
 7455SOL    HW233825   4.554   0.551   5.990 -1.7626  1.1915 -1.1729
 7456SOL     OW33826   2.629   0.404  11.375  0.1306 -0.2106 -0.2391
 7456SOL    HW133827   2.723   0.421  11.364 -0.4122  1.9780 -1.4755
 7456SOL    HW233828   2.601   0.470  11.438  4.0851  1.2718 -0.0626
 7457SOL     OW33829   4.492   3.217   7.818 -0.5747  0.3612 -0.3278
 7457SOL    HW133830   4.428   3.283   7.790 -0.3744  0.3877 -0.7223
 7457SOL    HW233831   4.490   3.220   7.914  0.0681  0.2265 -0.3147
 7458SOL     OW33832   0.866   0.982   7.591  0.1425 -0.0137  0.5137
 7458SOL    HW133833   0.931   0.941   7.534 -1.1185 -2.6463  0.9785
 7458SOL    HW233834   0.916   0.992   7.671  0.8677  0.9083 -0.0529
 7459SOL     OW33835   1.291   1.710   8.539  0.4385  0.2191  0.2483
 7459SOL    HW133836   1.292   1.646   8.469 -1.8957 -0.8521  1.2001
 7459SOL    HW233837   1.249   1.666   8.613 -0.7235  0.8032 -0.0599
 7460SOL     OW33838   4.307   3.560   0.254 -0.2567  0.2160  0.0700
 7460SOL    HW133839   4.347   3.646   0.260  0.7735 -0.4077  2.1211
 7460SOL    HW233840   4.352   3.521   0.179 -0.2175  0.6176 -0.1142
 7461SOL     OW33841   1.717   1.833   4.769 -0.1223 -0.2993  0.2590
 7461SOL    HW133842   1.687   1.744   4.748 -0.6766 -0.2074  0.6621
 7461SOL    HW233843   1.794   1.808   4.820  1.8992  2.5189 -1.3982
 7462SOL     OW33844   3.877   1.499   6.045  0.4720 -0.0700  0.0594
 7462SOL    HW133845   3.930   1.472   5.969 -1.6380 -2.1340 -0.6798
 7462SOL    HW233846   3.806   1.542   5.997  0.3284 -0.0715  0.2739
 7463SOL     OW33847   3.436   0.859   7.914 -0.1314  0.2614 -0.0779
 7463SOL    HW133848   3.493   0.793   7.875  0.3996  0.9807 -0.5299
 7463SOL    HW233849   3.479   0.897   7.990  0.1563  0.9240 -0.5662
 7464SOL     OW33850   2.236   2.100  11.238 -0.1073 -0.4151  0.0188
 7464SOL    HW133851   2.174   2.159  11.280 -0.4142 -0.7835  0.0866
 7464SOL    HW233852   2.269   2.148  11.162  0.3735 -0.3315  0.2813
 7465SOL     OW33853   4.005   2.470   1.681 -0.1762 -0.1736 -0.4875
 7465SOL    HW133854   4.080   2.411   1.681  0.5950  0.8210  0.1601
 7465SOL    HW233855   3.982   2.485   1.589  1.4751  0.3472 -0.8207
 7466SOL     OW33856   1.238   4.633   8.607  0.3338  0.3909 -0.0654
 7466SOL    HW133857   1.152   4.676   8.610 -0.4189 -1.1542  0.3880
 7466SOL    HW233858   1.231   4.603   8.698  0.5942  1.0343  0.1638
 7467SOL     OW33859   3.751   2.014   5.442  0.0709  0.1826  0.2938
 7467SOL    HW133860   3.732   2.037   5.351 -1.0980 -1.5239  0.1110
 7467SOL    HW233861   3.657   2.002   5.458  0.2304 -0.3563  0.8511
 7468SOL     OW33862   3.964   2.093   2.518  0.6013 -0.0574  0.2236
 7468SOL    HW133863   3.943   2.128   2.431 -2.2078 -1.6540  0.2244
 7468SOL    HW233864   4.043   2.041   2.504  0.7386  0.1446  0.2497
 7469SOL     OW33865   3.445   2.940   8.034 -0.0038 -0.0753  0.2383
 7469SOL    HW133866   3.473   2.967   7.946  0.5031 -3.3471 -0.6048
 7469SOL    HW233867   3.506   2.993   8.085  4.0626 -2.0076 -2.5318
 7470SOL     OW33868   4.395   2.736   5.046  0.0564 -0.4231  0.1899
 7470SOL    HW133869   4.384   2.644   5.021  2.1645 -0.1982 -1.5573
 7470SOL    HW233870   4.452   2.731   5.123  0.7246 -0.2297 -0.2953
 7471SOL     OW33871   2.336   0.841   4.647 -0.0463  0.2746  0.2780
 7471SOL    HW133872   2.347   0.927   4.688 -1.5439 -0.1294  1.4991
 7471SOL    HW233873   2.352   0.778   4.717 -0.9611 -0.7031 -0.3879
 7472SOL     OW33874   4.565   4.166   9.997  0.0941 -0.0901  0.3160
 7472SOL    HW133875   4.616   4.222  10.056 -0.3633 -0.3626  0.9680
 7472SOL    HW233876   4.503   4.229   9.960  0.7919  1.1421  1.2300
 7473SOL     OW33877   3.646   0.699  12.177  0.4104 -0.3485  0.0590
 7473SOL    HW133878   3.734   0.728  12.199  0.9725  0.0945 -2.8117
 7473SOL    HW233879   3.628   0.625  12.235  0.3615 -1.3428 -1.2199
 7474SOL     OW33880   4.434   1.359   3.263 -0.2887  0.1974  0.3949
 7474SOL    HW133881   4.462   1.450   3.257 -0.9101  0.3631  0.1056
 7474SOL    HW233882   4.484   1.336   3.342 -2.2102 -0.4517  1.4353
 7475SOL     OW33883   1.960   0.396   6.982  0.1756  0.2912  0.1241
 7475SOL    HW133884   1.985   0.486   6.958  0.2809  0.0683 -0.6038
 7475SOL    HW233885   1.916   0.371   6.901 -1.6591  3.0691  0.2697
 7476SOL     OW33886   2.684   0.912  16.612  0.0338  0.2090 -0.5165
 7476SOL    HW133887   2.726   0.983  16.564  1.1393 -0.4094 -0.4895
 7476SOL    HW233888   2.607   0.905  16.556  0.8051 -0.2052 -1.5198
 7477SOL     OW33889   1.673   0.795   5.739 -0.3491  0.4096  1.0637
 7477SOL    HW133890   1.701   0.802   5.830  1.4721 -2.9901  0.7634
 7477SOL    HW233891   1.610   0.867   5.741  0.0618  0.7833  0.6872
 7478SOL     OW33892   4.294   1.080   1.881  0.0929 -0.1119 -0.0311
 7478SOL    HW133893   4.320   1.090   1.789 -1.1816  1.2967 -0.2383
 7478SOL    HW233894   4.230   1.149   1.897  0.5684  0.5747 -1.0335
 7479SOL     OW33895   3.593   0.465   5.066 -0.0721  0.0974 -0.1794
 7479SOL    HW133896   3.500   0.462   5.045  0.1987  1.1648 -1.4955
 7479SOL    HW233897   3.635   0.401   5.009  0.3236 -0.4476  0.7115
 7480SOL     OW33898   2.582   2.348   7.946  0.4466 -0.3978  0.2029
 7480SOL    HW133899   2.594   2.402   8.024 -0.4266  0.4691 -0.2785
 7480SOL    HW233900   2.586   2.412   7.876  0.0147 -0.1475  0.4079
 7481SOL     OW33901   0.350   3.033   8.738  0.0741 -0.6252  0.3202
 7481SOL    HW133902   0.332   2.973   8.811  2.2095  0.7221  1.9418
 7481SOL    HW233903   0.289   3.018   8.666 -1.0107  0.2902  1.0427
 7482SOL     OW33904   1.872   0.254   7.221  1.2394  0.2530 -0.1526
 7482SOL    HW133905   1.809   0.191   7.188 -0.7673  2.7883 -1.2094
 7482SOL    HW233906   1.900   0.298   7.140 -1.1417 -0.7871 -1.5321
 7483SOL     OW33907   1.311   0.450  16.534 -0.4706  0.2055 -0.2042
 7483SOL    HW133908   1.347   0.536  16.513 -0.4729  0.6433  1.6454
 7483SOL    HW233909   1.222   0.442  16.498 -0.1057  1.3460 -1.3608
 7484SOL     OW33910   0.779   2.310   3.177 -0.1474 -0.6244  0.1121
 7484SOL    HW133911   0.727   2.353   3.245 -3.0921 -0.5495 -2.2170
 7484SOL    HW233912   0.774   2.376   3.108  0.4430 -0.7563 -0.0593
 7485SOL     OW33913   2.167   0.687  12.540 -0.1632  0.1640 -0.1715
 7485SOL    HW133914   2.191   0.681  12.633 -0.6633  0.2827 -0.0304
 7485SOL    HW233915   2.112   0.608  12.536 -0.6977  0.4225  1.7401
 7486SOL     OW33916   2.271   1.109   7.224  0.0202  0.2142 -0.1589
 7486SOL    HW133917   2.232   1.197   7.227 -0.0597  0.1268  1.1775
 7486SOL    HW233918   2.303   1.101   7.314  2.6562 -0.6690 -1.1755
 7487SOL     OW33919   2.110   3.591   6.260  0.1934  0.1313  0.2353
 7487SOL    HW133920   2.062   3.531   6.318  0.6071  0.1694  0.6141
 7487SOL    HW233921   2.192   3.581   6.307  1.3142 -0.4946 -1.8705
 7488SOL     OW33922   2.252   2.839   5.019  0.1248 -0.7896  0.0594
 7488SOL    HW133923   2.239   2.893   5.097  3.8803  0.7137 -0.3607
 7488SOL    HW233924   2.316   2.775   5.052  1.4919  0.4368 -0.2099
 7489SOL     OW33925   0.203   2.120  12.667 -1.0547 -0.3807  0.2138
 7489SOL    HW133926   0.221   2.082  12.753  0.8035 -0.3377 -0.1707
 7489SOL    HW233927   0.274   2.179  12.642 -3.8785  2.5554 -0.9078
 7490SOL     OW33928   3.132   2.176   5.465 -0.1772 -1.2472  0.3374
 7490SOL    HW133929   3.122   2.244   5.532 -3.5584 -1.5190  0.1196
 7490SOL    HW233930   3.052   2.127   5.485 -1.6639  0.2600 -1.8928
 7491SOL     OW33931   2.082   2.750   5.272 -0.0045  0.3270  0.0495
 7491SOL    HW133932   2.032   2.797   5.206 -0.0707  0.5654  0.2650
 7491SOL    HW233933   2.027   2.672   5.270 -2.0284  1.7326  0.8391
 7492SOL     OW33934   4.288   3.162  13.848  0.4040 -0.2708 -0.4204
 7492SOL    HW133935   4.373   3.187  13.812  0.3326  0.9709  0.2572
 7492SOL    HW233936   4.221   3.216  13.807  1.2943  0.1734 -1.2871
 7493SOL     OW33937   3.243   2.454  17.547 -0.0838  0.2641 -0.7264
 7493SOL    HW133938   3.178   2.477  17.480 -2.2496  0.1784  1.3328
 7493SOL    HW233939   3.287   2.393  17.487 -1.2421 -0.1509 -1.1615
 7494SOL     OW33940   3.265   1.045   4.136 -0.5129 -0.4055  0.6516
 7494SOL    HW133941   3.303   1.059   4.223  0.3271  1.7111 -0.0463
 7494SOL    HW233942   3.258   0.950   4.130  0.3940 -0.3777 -0.7759
 7495SOL     OW33943   1.327   0.637   9.498  0.2238 -0.4792  0.3489
 7495SOL    HW133944   1.322   0.541   9.498 -0.7377 -0.4371 -1.1544
 7495SOL    HW233945   1.254   0.654   9.437 -0.2115 -1.9051  0.4731
 7496SOL     OW33946   0.114   3.621  15.567 -0.1321 -0.3464 -0.4426
 7496SOL    HW133947   0.028   3.578  15.565 -0.3438  0.1159 -1.1385
 7496SOL    HW233948   0.135   3.621  15.660  0.4628  0.7215 -0.5742
 7497SOL     OW33949   1.160   2.494   8.686  0.0143  0.0394  0.2737
 7497SOL    HW133950   1.122   2.462   8.768  0.9951  0.5760  0.9326
 7497SOL    HW233951   1.215   2.418   8.669 -0.4893 -0.0658 -0.9474
 7498SOL     OW33952   4.191   3.974   7.294  0.2961 -0.7740  0.0083
 7498SOL    HW133953   4.141   4.030   7.353 -0.9595  0.4201 -2.1685
 7498SOL    HW233954   4.275   3.974   7.339  0.4912 -0.8832 -0.3570
 7499SOL     OW33955   1.093   0.929   6.474 -0.1945 -0.0775 -0.0892
 7499SOL    HW133956   1.075   0.878   6.395 -0.3035  0.1994 -0.2443
 7499SOL    HW233957   1.099   0.867   6.546  0.7676 -0.5831 -0.6100
 7500SOL     OW33958   4.581   2.206  17.660  0.2939 -0.1501 -0.0644
 7500SOL    HW133959   4.572   2.188   0.052 -2.2001  0.5277 -0.1748
 7500SOL    HW233960   4.618   2.121  17.638 -0.6323 -0.8080  0.9398
 7501SOL     OW33961   4.063   2.707   9.721  0.2482 -0.8769  0.0752
 7501SOL    HW133962   3.996   2.665   9.667 -1.0947 -0.0607  1.1168
 7501SOL    HW233963   4.015   2.760   9.784 -0.1371  0.5794 -1.4500
 7502SOL     OW33964   0.953   0.967   6.914  0.3597 -0.6256  0.3479
 7502SOL    HW133965   0.981   0.890   6.963  0.0899 -1.1731 -0.3616
 7502SOL    HW233966   0.919   1.017   6.988 -1.4683  0.7431 -1.4162
 7503SOL     OW33967   3.603   2.100   6.636 -0.3358 -0.0959 -0.7390
 7503SOL    HW133968   3.603   2.140   6.724 -1.9129 -1.5541 -0.0689
 7503SOL    HW233969   3.679   2.042   6.629 -1.1720 -0.6179 -5.1860
 7504SOL     OW33970   2.943   3.567   6.044 -0.0913 -0.2026 -0.1099
 7504SOL    HW133971   2.901   3.527   6.121  3.0391 -2.3593  0.4506
 7504SOL    HW233972   2.873   3.571   5.978 -1.4913 -1.8737  1.2483
 7505SOL     OW33973   1.852   3.321  14.437  0.2386  0.3900 -0.6022
 7505SOL    HW133974   1.788   3.250  14.437  1.9268 -1.1257  2.0737
 7505SOL    HW233975   1.802   3.393  14.475 -0.9751 -0.0694 -1.3095
 7506SOL     OW33976   1.338   3.657   2.300 -0.0918 -0.1756 -0.8169
 7506SOL    HW133977   1.292   3.643   2.383 -0.8419  1.4891 -0.9591
 7506SOL    HW233978   1.354   3.751   2.299  2.2821 -0.5839 -2.7559
 7507SOL     OW33979   2.598   2.163   3.676 -0.9899  0.1358  0.1855
 7507SOL    HW133980   2.509   2.199   3.675 -0.1990  2.1938  1.5756
 7507SOL    HW233981   2.634   2.212   3.751 -1.0412  1.1510 -0.4614
 7508SOL     OW33982   4.079   0.955   3.172  0.6390 -0.6688 -0.3476
 7508SOL    HW133983   4.102   1.014   3.100 -2.1500 -0.9313 -1.4158
 7508SOL    HW233984   4.068   1.019   3.242 -2.0633 -0.7288 -0.7302
 7509SOL     OW33985   4.692   1.652   6.756  0.3231 -0.0689 -0.1104
 7509SOL    HW133986   4.647   1.694   6.682 -0.6667  3.0085  2.2445
 7509SOL    HW233987   4.644   1.570   6.745 -0.1986 -0.0860  2.3446
 7510SOL     OW33988   3.452   3.203   0.442  0.2825  0.3695  0.5436
 7510SOL    HW133989   3.414   3.250   0.516 -1.8058 -0.4636 -0.0101
 7510SOL    HW233990   3.508   3.278   0.420  1.2033 -0.1059  1.2538
 7511SOL     OW33991   4.423   4.480  16.694 -0.0512  0.3193 -0.1879
 7511SOL    HW133992   4.481   4.550  16.725  0.5873 -1.0650  1.7336
 7511SOL    HW233993   4.339   4.521  16.715 -0.4414 -0.1731 -0.8062
 7512SOL     OW33994   1.594   2.664   2.919  0.2251 -0.1814  0.3803
 7512SOL    HW133995   1.675   2.678   2.870 -0.3834 -0.9925 -0.8826
 7512SOL    HW233996   1.531   2.714   2.867 -2.4921 -3.5258  0.3826
 7513SOL     OW33997   4.507   0.680   2.117 -0.9885  0.8329 -0.4268
 7513SOL    HW133998   4.455   0.716   2.045 -0.0164 -1.4061 -2.2603
 7513SOL    HW233999   4.579   0.741   2.102 -0.3805  0.3781  0.6877
 7514SOL     OW34000   2.390   2.524   4.471  0.4086  0.1654 -0.1240
 7514SOL    HW134001   2.381   2.438   4.511 -1.6510 -0.5207 -2.0895
 7514SOL    HW234002   2.332   2.511   4.396  0.4673  1.3039 -0.3697
 7515SOL     OW34003   3.540   0.948   8.359  0.1459 -0.1581 -0.0244
 7515SOL    HW134004   3.535   0.968   8.453 -0.9316 -0.0898 -0.0958
 7515SOL    HW234005   3.615   0.995   8.324  1.1815 -1.3791  0.5380
 7516SOL     OW34006   4.132   2.662  15.538  0.1605 -0.1599  0.2534
 7516SOL    HW134007   4.149   2.672  15.444 -0.5044 -1.4814  0.0035
 7516SOL    HW234008   4.050   2.614  15.536  0.2886 -0.3363 -0.5999
 7517SOL     OW34009   0.982   1.483   2.724 -0.1320 -0.2315 -0.4590
 7517SOL    HW134010   0.980   1.574   2.752  0.5641 -0.1018 -0.8305
 7517SOL    HW234011   1.049   1.480   2.656  1.2805  0.2300  0.9272
 7518SOL     OW34012   1.651   4.049   2.629 -0.2000  0.0788 -0.1833
 7518SOL    HW134013   1.558   4.053   2.609 -0.5985  1.1567  1.8843
 7518SOL    HW234014   1.658   3.973   2.687 -1.5637 -0.5502 -0.8433
 7519SOL     OW34015   2.223   1.113   2.740 -0.8373  0.4394  0.3366
 7519SOL    HW134016   2.171   1.049   2.691 -1.0399  0.8635 -0.0040
 7519SOL    HW234017   2.301   1.060   2.755 -1.1934 -0.2210 -0.1363
 7520SOL     OW34018   2.496   4.069   0.627 -0.4083 -0.2530  0.1340
 7520SOL    HW134019   2.435   4.140   0.650  0.4391  0.2410  0.8487
 7520SOL    HW234020   2.492   4.048   0.720 -0.0943  0.7983  0.3835
 7521SOL     OW34021   4.148   0.598   2.075  0.1826  0.4484  0.1254
 7521SOL    HW134022   4.146   0.633   1.986 -0.8305 -0.1671 -0.0870
 7521SOL    HW234023   4.159   0.503   2.069 -0.2098  0.3937  0.2576
 7522SOL     OW34024   4.449   2.250   9.690  0.1895 -0.1674 -0.4035
 7522SOL    HW134025   4.512   2.187   9.725  2.5053  1.1195 -2.2558
 7522SOL    HW234026   4.381   2.233   9.756  0.2055  0.5096 -0.2094
 7523SOL     OW34027   1.050   1.467   9.391  0.2019  0.7206 -0.4369
 7523SOL    HW134028   1.019   1.377   9.377  0.7050  0.4624  0.0779
 7523SOL    HW234029   0.984   1.517   9.345 -0.1543 -1.0893 -1.8995
 7524SOL     OW34030   0.531   1.966  14.677 -0.2758 -0.1855  0.0033
 7524SOL    HW134031   0.490   1.961  14.591  0.4811  0.9738 -0.4277
 7524SOL    HW234032   0.525   1.873  14.699  2.4489  0.5439  3.7684
 7525SOL     OW34033   2.491   2.088   4.037 -0.3415 -0.1915 -0.2412
 7525SOL    HW134034   2.569   2.044   4.072 -1.1898 -1.4839  0.0617
 7525SOL    HW234035   2.486   2.049   3.950  0.2808 -0.9607  0.0691
 7526SOL     OW34036   3.745   1.948   8.448 -0.3801  0.9323  0.0941
 7526SOL    HW134037   3.656   1.980   8.430 -1.0261 -0.9881 -0.1156
 7526SOL    HW234038   3.778   1.980   8.365 -2.6788  0.3236 -1.0641
 7527SOL     OW34039   3.178   3.666   2.134  1.0443 -0.2528 -0.2503
 7527SOL    HW134040   3.261   3.620   2.118  1.1203 -0.1463 -0.1661
 7527SOL    HW234041   3.154   3.674   2.041 -1.9103  0.1111  0.5733
 7528SOL     OW34042   0.614   0.913   1.769 -0.0047  0.5855  0.1560
 7528SOL    HW134043   0.547   0.870   1.715  0.0314 -1.2714  1.5783
 7528SOL    HW234044   0.665   0.930   1.690  0.9772  0.4638  0.7733
 7529SOL     OW34045   2.591   0.048   2.356  0.2508  0.3294 -0.1535
 7529SOL    HW134046   2.645   4.694   2.358  2.9841  2.1323 -2.5101
 7529SOL    HW234047   2.521   0.021   2.296 -0.0758  4.2487 -1.5345
 7530SOL     OW34048   2.387   1.228   5.624  0.1969 -0.4975 -0.4429
 7530SOL    HW134049   2.387   1.244   5.529  0.0187 -1.1976 -0.5554
 7530SOL    HW234050   2.477   1.222   5.655  0.0679  0.0010  0.0377
 7531SOL     OW34051   3.026   1.012   4.345  0.2320  0.4477 -0.0789
 7531SOL    HW134052   3.089   0.975   4.405 -1.1515 -2.1921 -0.2622
 7531SOL    HW234053   3.057   1.100   4.321 -1.8683  1.1558 -0.2596
 7532SOL     OW34054   4.455   0.580  15.818 -0.5920  0.3701  0.0313
 7532SOL    HW134055   4.475   0.583  15.911  1.7482  0.8121 -0.4840
 7532SOL    HW234056   4.533   0.620  15.778  0.1859 -1.2156 -0.0232
 7533SOL     OW34057   4.675   0.121   2.051 -0.3926 -1.0147  0.0728
 7533SOL    HW134058   4.591   0.165   2.067 -0.1619 -0.8526  0.8585
 7533SOL    HW234059   4.708   0.129   2.141  0.0376  1.1309 -0.2695
 7534SOL     OW34060   3.257   2.494   8.381  0.1380 -0.2237  0.0418
 7534SOL    HW134061   3.212   2.578   8.376  0.0569 -0.1261  2.4581
 7534SOL    HW234062   3.318   2.487   8.307 -0.7639  1.8598 -0.9002
 7535SOL     OW34063   1.003   3.516   3.511 -0.3830 -0.3196  0.1431
 7535SOL    HW134064   1.030   3.499   3.420  1.7003  1.4753  0.4409
 7535SOL    HW234065   0.919   3.469   3.506  0.5537 -1.9203 -0.4670
 7536SOL     OW34066   2.951   2.624   7.250 -0.0173 -0.5676  0.2594
 7536SOL    HW134067   2.872   2.578   7.275 -1.4622  3.0614  2.3081
 7536SOL    HW234068   2.941   2.716   7.275 -1.6245 -1.2925  2.2187
 7537SOL     OW34069   3.717   2.877  11.693 -0.7003  0.2802  0.2848
 7537SOL    HW134070   3.697   2.967  11.667 -2.5961 -0.0171  0.7749
 7537SOL    HW234071   3.693   2.821  11.620 -0.4619 -0.1114  0.5097
 7538SOL     OW34072   0.264   4.687   4.172  0.1059 -0.2197 -0.4399
 7538SOL    HW134073   0.259   4.716   4.263 -0.0791  0.2409 -0.5970
 7538SOL    HW234074   0.208   0.023   4.125  0.0489 -0.1312 -0.2582
 7539SOL     OW34075   2.602   0.591   6.308  0.4202 -0.0828 -0.0686
 7539SOL    HW134076   2.512   0.560   6.320  0.7797  0.3030  3.6248
 7539SOL    HW234077   2.620   0.636   6.391  0.8308  0.2209 -0.3256
 7540SOL     OW34078   2.759   2.564   5.108  0.6443 -1.0919  0.1218
 7540SOL    HW134079   2.768   2.655   5.137 -0.9513 -0.9243  0.1052
 7540SOL    HW234080   2.842   2.546   5.064  1.5240  1.7866  0.6187
 7541SOL     OW34081   3.471   0.005   0.205 -0.1184 -0.2823  0.2204
 7541SOL    HW134082   3.522   4.656   0.238  0.4855  0.2835  0.5613
 7541SOL    HW234083   3.451   4.688   0.122 -0.5876  2.5975 -1.1245
 7542SOL     OW34084   3.497   2.297   2.836 -0.6064  0.3896 -0.1908
 7542SOL    HW134085   3.522   2.206   2.850 -2.1861  0.0485  0.4175
 7542SOL    HW234086   3.558   2.321   2.767 -1.9975  3.6116 -0.3206
 7543SOL     OW34087   2.320   3.574   4.697  0.0015 -0.1471  0.2803
 7543SOL    HW134088   2.402   3.547   4.740 -0.6480 -0.6612  1.1772
 7543SOL    HW234089   2.287   3.486   4.680 -0.7083  0.0721  0.5536
 7544SOL     OW34090   1.761   2.732   0.710 -0.2942  0.1042  0.6445
 7544SOL    HW134091   1.786   2.692   0.794  1.9925  0.9721  0.3719
 7544SOL    HW234092   1.784   2.663   0.647  0.4901  0.3100  0.7032
 7545SOL     OW34093   3.281   2.984   6.427 -0.0062 -0.3018 -0.4065
 7545SOL    HW134094   3.264   2.894   6.456  1.9151 -0.2715  0.8051
 7545SOL    HW234095   3.352   2.964   6.366 -1.3450  0.1370 -2.1111
 7546SOL     OW34096   4.414   1.427   5.917 -0.0303  0.5572  0.2313
 7546SOL    HW134097   4.509   1.430   5.923  0.0690 -1.7419 -0.2276
 7546SOL    HW234098   4.400   1.451   5.825  0.4695  0.0046  0.0133
 7547SOL     OW34099   2.388   0.317  10.588 -0.3928 -0.0921  0.1903
 7547SOL    HW134100   2.334   0.395  10.592 -0.5504 -0.2361  0.9561
 7547SOL    HW234101   2.448   0.327  10.663  0.4810  2.1923 -0.8167
 7548SOL     OW34102   1.996   3.363   2.957  0.3957  0.6167 -0.0361
 7548SOL    HW134103   2.013   3.357   2.863 -0.8960  0.8841 -0.2829
 7548SOL    HW234104   1.902   3.344   2.960  0.3576  0.8923  0.4885
 7549SOL     OW34105   0.348   1.769  16.916  0.0097 -0.2223 -0.3197
 7549SOL    HW134106   0.398   1.851  16.922 -1.6675  0.9668 -2.2307
 7549SOL    HW234107   0.266   1.804  16.880  0.5498  0.1839 -1.1688
 7550SOL     OW34108   1.964   0.761   2.155 -0.0003 -0.1889 -0.5653
 7550SOL    HW134109   2.053   0.740   2.184 -0.6612 -0.1675  1.4865
 7550SOL    HW234110   1.973   0.855   2.136 -1.6863  0.0789 -0.0482
 7551SOL     OW34111   1.369   0.528  10.287  0.0289 -0.1349 -0.0991
 7551SOL    HW134112   1.363   0.433  10.292  1.0235 -0.0401  3.1776
 7551SOL    HW234113   1.367   0.543  10.192 -0.9543  0.5792  0.0340
 7552SOL     OW34114   4.448   3.735   3.556 -0.3344 -0.2083 -0.4864
 7552SOL    HW134115   4.429   3.666   3.620  1.5823 -0.2797 -0.0015
 7552SOL    HW234116   4.473   3.676   3.485  1.5712  0.7445 -0.5919
 7553SOL     OW34117   2.143   3.489   4.915 -0.1264 -0.5951  1.0740
 7553SOL    HW134118   2.159   3.572   4.870  1.3091 -0.4232  1.9309
 7553SOL    HW234119   2.086   3.520   4.986 -0.6451  0.8921  0.0320
 7554SOL     OW34120   3.047   0.087   2.621  0.0233 -0.5758 -0.0713
 7554SOL    HW134121   3.123   0.141   2.643 -0.2413 -0.7442  1.2782
 7554SOL    HW234122   3.019   0.136   2.544 -0.0195 -0.8690 -0.2418
 7555SOL     OW34123   0.671   2.170  17.213 -0.1738  0.1730  0.4823
 7555SOL    HW134124   0.604   2.108  17.242 -1.7699  0.7645 -1.8545
 7555SOL    HW234125   0.622   2.253  17.211 -0.8079 -0.2226 -0.4176
 7556SOL     OW34126   1.463   0.265   3.952  0.2329 -0.3969  0.6224
 7556SOL    HW134127   1.504   0.296   4.033  1.4970 -2.2207  0.6746
 7556SOL    HW234128   1.490   0.335   3.892  2.3915  1.2648  3.5329
 7557SOL     OW34129   0.073   3.944   7.012 -0.1621 -0.4239 -0.1588
 7557SOL    HW134130   0.015   3.871   7.034 -0.8311 -0.5675 -2.4132
 7557SOL    HW234131   0.051   4.020   7.065 -0.2979 -1.8209  1.8095
 7558SOL     OW34132   2.077   3.473  12.141 -0.1666 -0.3338 -0.1246
 7558SOL    HW134133   1.990   3.437  12.159  0.1000 -2.1534 -2.4601
 7558SOL    HW234134   2.090   3.530  12.217  0.5802 -0.4201 -0.1868
 7559SOL     OW34135   4.534   1.874   7.893  0.3970 -0.3124 -0.2044
 7559SOL    HW134136   4.516   1.780   7.890  1.1714 -0.4212 -1.7235
 7559SOL    HW234137   4.555   1.902   7.804  1.4627 -2.4410 -0.6371
 7560SOL     OW34138   3.600   3.268   7.898 -0.4526  0.2371 -0.0206
 7560SOL    HW134139   3.555   3.342   7.858  0.6708  0.8793 -0.0859
 7560SOL    HW234140   3.606   3.291   7.991  1.0956  2.2774 -0.6342
 7561SOL     OW34141   2.673   3.758  10.940 -0.1778 -0.1158  0.1433
 7561SOL    HW134142   2.719   3.701  11.001 -0.9901 -1.2984 -0.3484
 7561SOL    HW234143   2.587   3.765  10.981 -0.0648  2.2964 -0.0229
 7562SOL     OW34144   3.380   1.388  16.122 -0.4961 -0.6686  0.0586
 7562SOL    HW134145   3.320   1.315  16.140 -0.9013 -0.3403  0.0478
 7562SOL    HW234146   3.430   1.394  16.204  2.0358 -1.3532 -1.4470
 7563SOL     OW34147   0.375   1.340   3.236 -0.1504 -0.0183  0.5875
 7563SOL    HW134148   0.430   1.415   3.213  0.2300  0.1430  2.0730
 7563SOL    HW234149   0.390   1.286   3.158 -0.4180  2.2457 -1.0406
 7564SOL     OW34150   0.335   1.829   1.972 -0.2074 -0.0269 -0.5621
 7564SOL    HW134151   0.287   1.898   1.927  1.8724  0.2373 -2.3971
 7564SOL    HW234152   0.356   1.869   2.056  0.1938 -0.4135 -0.4772
 7565SOL     OW34153   4.722   4.173   4.824  0.0717 -0.2899 -0.0724
 7565SOL    HW134154   4.627   4.169   4.832 -0.0877  1.3981 -1.1697
 7565SOL    HW234155   0.014   4.165   4.918  1.0885 -0.3799 -0.2611
 7566SOL     OW34156   3.929   2.774  11.072 -0.0671  0.5466  0.1262
 7566SOL    HW134157   3.890   2.762  11.159 -0.6466 -0.2233 -0.2400
 7566SOL    HW234158   3.999   2.838  11.083  1.0863 -1.0712  2.1305
 7567SOL     OW34159   2.400   2.660   1.862  0.4673 -0.2431 -0.1282
 7567SOL    HW134160   2.421   2.614   1.943 -2.6994 -0.5734  0.5394
 7567SOL    HW234161   2.439   2.746   1.870  1.4792 -0.6996 -0.1883
 7568SOL     OW34162   3.579   2.203   6.886  0.3395 -0.0178  0.9075
 7568SOL    HW134163   3.609   2.186   6.975  0.1482  0.3506  1.0442
 7568SOL    HW234164   3.488   2.229   6.903  0.5603  0.5724  1.1875
 7569SOL     OW34165   0.215   4.591   3.802 -0.0226  0.1208  0.0312
 7569SOL    HW134166   0.130   4.561   3.833 -0.2903  0.2914 -0.5274
 7569SOL    HW234167   0.194   4.622   3.713 -2.2879 -0.9485  0.1787
 7570SOL     OW34168   1.972   1.253  16.471 -0.0114  0.2701 -0.5533
 7570SOL    HW134169   1.898   1.210  16.428 -1.2878  2.8821 -0.9910
 7570SOL    HW234170   2.045   1.215  16.423  0.0760  0.5738 -0.6612
 7571SOL     OW34171   0.512   0.936   8.581  0.1856 -0.0429  0.4292
 7571SOL    HW134172   0.443   0.907   8.521 -1.1588  1.0658  1.4451
 7571SOL    HW234173   0.468   0.896   8.657 -0.4593 -0.4988 -0.1839
 7572SOL     OW34174   1.619   3.905   2.397 -0.7911 -0.2094 -0.1361
 7572SOL    HW134175   1.671   3.942   2.469 -0.5516 -0.3003 -0.2648
 7572SOL    HW234176   1.642   3.813   2.395  3.0012  0.7555 -0.5087
 7573SOL     OW34177   2.309   2.221   3.576 -0.1930  1.0001  0.1337
 7573SOL    HW134178   2.247   2.281   3.617 -1.7596 -2.1739  2.4027
 7573SOL    HW234179   2.284   2.147   3.630 -0.2917  0.7507 -0.2547
 7574SOL     OW34180   0.949   1.691  11.128  0.1235  0.0646  0.2767
 7574SOL    HW134181   0.950   1.714  11.221 -1.7503  1.5894 -0.0788
 7574SOL    HW234182   1.041   1.707  11.108  0.0016 -1.0015 -1.1830
 7575SOL     OW34183   2.150   0.214   8.445 -0.0215 -0.1736 -0.6123
 7575SOL    HW134184   2.244   0.198   8.448 -0.1472 -0.9395 -0.8445
 7575SOL    HW234185   2.150   0.306   8.472  1.9855 -0.8220  1.5955
 7576SOL     OW34186   1.861   0.816   4.981  0.5352 -0.1390 -0.5852
 7576SOL    HW134187   1.856   0.793   4.888  0.7435  1.8346 -1.0708
 7576SOL    HW234188   1.927   0.885   4.982 -3.0874  3.3530 -1.6604
 7577SOL     OW34189   2.132   4.543  14.038  0.1969  0.0559  0.0496
 7577SOL    HW134190   2.214   4.568  14.080 -0.6932 -0.5714  2.1779
 7577SOL    HW234191   2.074   4.529  14.113 -0.7700  1.1697 -0.4937
 7578SOL     OW34192   3.834   3.493   7.823  0.1828 -0.1323  0.1844
 7578SOL    HW134193   3.840   3.398   7.831  0.4591 -0.2405 -1.3232
 7578SOL    HW234194   3.789   3.509   7.906 -1.1011 -1.4300 -0.2475
 7579SOL     OW34195   4.444   1.194   3.607  0.1305 -0.4555 -0.4642
 7579SOL    HW134196   4.400   1.126   3.557  2.1408 -1.9668 -0.1754
 7579SOL    HW234197   4.494   1.152   3.678 -1.6101 -0.4926  0.7324
 7580SOL     OW34198   0.669   0.516   5.586  0.2719 -0.3890 -0.0159
 7580SOL    HW134199   0.735   0.474   5.641  1.6356  1.7106 -0.0305
 7580SOL    HW234200   0.621   0.442   5.549  1.7120 -1.0495 -0.5779
 7581SOL     OW34201   0.403   2.075   8.955 -0.2964  0.0428 -0.1059
 7581SOL    HW134202   0.351   2.134   8.900 -0.9883 -2.8922 -2.5986
 7581SOL    HW234203   0.336   2.031   9.008  0.1529  2.0163  2.0664
 7582SOL     OW34204   4.552   3.872   7.903 -0.2105 -0.2721  0.8053
 7582SOL    HW134205   4.497   3.837   7.833  2.5985 -2.4293 -0.3173
 7582SOL    HW234206   4.629   3.817   7.894 -1.4578 -1.5489 -1.9398
 7583SOL     OW34207   0.771   2.035   6.760  0.4183  1.1522  0.0193
 7583SOL    HW134208   0.774   1.954   6.811 -0.1476  0.3766 -1.1911
 7583SOL    HW234209   0.861   2.053   6.733  0.0467  4.0454  0.7238
 7584SOL     OW34210   3.768   3.480  12.014 -0.1515  0.1504 -0.2004
 7584SOL    HW134211   3.771   3.441  12.101  1.8697  0.1163 -0.2901
 7584SOL    HW234212   3.696   3.434  11.970  1.2035 -0.9302 -1.2922
 7585SOL     OW34213   1.332   0.510   4.881  0.1944 -0.3325  0.1126
 7585SOL    HW134214   1.412   0.496   4.830  1.5674  1.4056  1.7848
 7585SOL    HW234215   1.302   0.589   4.836 -0.5493  1.2924  3.4921
 7586SOL     OW34216   2.920   2.695   8.055 -0.2112  0.0048 -0.2250
 7586SOL    HW134217   3.008   2.725   8.032 -0.4390  1.2172  0.5066
 7586SOL    HW234218   2.878   2.764   8.107 -1.1061 -0.0519 -0.8701
 7587SOL     OW34219   1.726   0.486   2.820 -0.2884 -0.1497  0.4370
 7587SOL    HW134220   1.667   0.532   2.761 -0.8828 -1.7331 -0.1953
 7587SOL    HW234221   1.672   0.418   2.860  0.1305 -1.5870 -1.4215
 7588SOL     OW34222   1.457   1.337   8.206 -0.0864 -0.0018  0.1980
 7588SOL    HW134223   1.420   1.292   8.131 -1.3308  2.9471 -0.9769
 7588SOL    HW234224   1.501   1.264   8.249  0.1424  0.0154 -0.0125
 7589SOL     OW34225   2.792   1.522   5.954  0.6134  0.1172 -0.4961
 7589SOL    HW134226   2.860   1.589   5.950 -0.0108  0.7831  0.1080
 7589SOL    HW234227   2.828   1.463   5.888 -2.6210  0.1709 -2.3030
 7590SOL     OW34228   2.086   1.493   3.648  0.2247 -0.2250 -0.0317
 7590SOL    HW134229   2.101   1.463   3.558 -0.2865  0.0833 -0.2172
 7590SOL    HW234230   1.994   1.518   3.636 -1.0680 -3.8208  2.2539
 7591SOL     OW34231   0.772   2.373   7.886 -0.1933 -0.2913  0.3261
 7591SOL    HW134232   0.843   2.340   7.941  0.8951  0.1848 -0.8241
 7591SOL    HW234233   0.705   2.306   7.903 -1.8319  0.8803 -1.5390
 7592SOL     OW34234   3.119   0.383  12.396  0.8380 -0.6536  0.2946
 7592SOL    HW134235   3.112   0.379  12.301 -0.9844 -0.4545  0.4120
 7592SOL    HW234236   3.026   0.392  12.419  1.1289  1.4524  0.6381
 7593SOL     OW34237   1.595   1.854   8.968  0.6216 -1.3260 -0.3142
 7593SOL    HW134238   1.505   1.822   8.970 -0.0698  0.4476 -4.0554
 7593SOL    HW234239   1.643   1.783   9.009 -0.4980 -0.8074  1.8959
 7594SOL     OW34240   3.166   1.222   4.454 -0.1555  0.7680 -0.2780
 7594SOL    HW134241   3.259   1.208   4.442 -0.2951 -0.0890 -0.3707
 7594SOL    HW234242   3.147   1.200   4.545  0.7118  0.5020 -0.1693
 7595SOL     OW34243   1.658   3.858   9.091 -0.1086 -0.5009 -0.6037
 7595SOL    HW134244   1.669   3.843   8.997  0.9844 -3.7874  0.0772
 7595SOL    HW234245   1.574   3.905   9.090 -0.5889 -1.3611 -0.8923
 7596SOL     OW34246   0.981   3.514  16.168 -0.2372 -0.3952 -0.0598
 7596SOL    HW134247   0.934   3.592  16.140 -0.2137 -0.5928 -0.6376
 7596SOL    HW234248   1.049   3.543  16.229 -1.6821  0.5368  1.0964
 7597SOL     OW34249   4.391   0.984  10.383  0.0863 -0.0471  0.0033
 7597SOL    HW134250   4.342   1.047  10.330  1.2740  0.0166 -1.0209
 7597SOL    HW234251   4.358   0.900  10.352 -0.9837  0.5673 -0.5069
 7598SOL     OW34252   2.274   4.547  10.705 -0.0970  0.1338  0.4270
 7598SOL    HW134253   2.203   4.506  10.754  0.4413  1.6281  2.4393
 7598SOL    HW234254   2.229   4.608  10.646 -1.6173  0.2948  1.7478
 7599SOL     OW34255   2.975   0.915   6.042  0.1366  0.0293 -0.1593
 7599SOL    HW134256   3.035   0.961   5.983 -0.2528 -0.5550 -1.0081
 7599SOL    HW234257   3.041   0.868   6.095  2.6208  2.4908 -1.0599
 7600SOL     OW34258   1.411   0.793   7.071 -0.6558  0.6060 -0.0738
 7600SOL    HW134259   1.484   0.828   7.122 -0.2832 -2.9946  1.8314
 7600SOL    HW234260   1.341   0.792   7.136 -0.4261  1.0328  0.1831
 7601SOL     OW34261   4.628   2.755   2.296  0.2299 -0.4544 -0.4400
 7601SOL    HW134262   4.532   2.765   2.298  0.3280  0.4479  0.0130
 7601SOL    HW234263   4.639   2.670   2.254 -0.4205 -0.2849 -0.9699
 7602SOL     OW34264   0.603   2.690   0.528 -0.6623  0.2892 -0.4999
 7602SOL    HW134265   0.602   2.739   0.446 -1.1630  0.7131 -0.2367
 7602SOL    HW234266   0.691   2.717   0.554 -0.7628  1.0121 -0.9214
 7603SOL     OW34267   1.907   3.568  16.849  0.2512 -0.7159 -0.1097
 7603SOL    HW134268   1.891   3.555  16.755 -0.3954  0.2908 -0.1475
 7603SOL    HW234269   1.964   3.645  16.847 -2.1359  1.1003  2.1913
 7604SOL     OW34270   1.681   2.856   8.856 -0.0986  0.9521 -0.0418
 7604SOL    HW134271   1.596   2.823   8.826 -0.7695  0.5912  2.3309
 7604SOL    HW234272   1.679   2.828   8.947  4.4314 -0.1330 -0.2718
 7605SOL     OW34273   0.672   0.587  16.482 -0.0937 -0.3186 -0.5214
 7605SOL    HW134274   0.641   0.657  16.538 -0.4567 -1.2007  0.3687
 7605SOL    HW234275   0.704   0.643  16.411  0.3550  0.4647  0.3040
 7606SOL     OW34276   3.075   2.874   1.094  0.2883  0.2112 -0.4656
 7606SOL    HW134277   3.131   2.925   1.152 -1.4486 -0.1133  1.4972
 7606SOL    HW234278   3.124   2.891   1.013 -1.0010 -0.4314 -1.3876
 7607SOL     OW34279   1.897   0.390   6.678  0.2958  0.4302 -0.3003
 7607SOL    HW134280   1.943   0.374   6.595 -0.0155  0.4257 -0.4717
 7607SOL    HW234281   1.839   0.314   6.683  1.7900 -0.7321 -0.4550
 7608SOL     OW34282   2.912   1.765   6.832 -0.3823  0.1480 -0.1175
 7608SOL    HW134283   2.841   1.700   6.840 -1.8830  1.7284 -0.5144
 7608SOL    HW234284   2.863   1.843   6.857  0.0382  0.1755  0.6195
 7609SOL     OW34285   3.270   3.178   4.099 -0.0551  0.1857 -0.2273
 7609SOL    HW134286   3.229   3.196   4.015 -1.7326 -1.0213  0.3381
 7609SOL    HW234287   3.227   3.241   4.157 -0.0240 -0.4616  0.4980
 7610SOL     OW34288   2.807   1.084   5.493  0.0278  0.1764  0.1641
 7610SOL    HW134289   2.840   1.032   5.419 -0.3367  0.5078 -0.2352
 7610SOL    HW234290   2.778   1.155   5.435  0.5674  0.2214 -0.0537
 7611SOL     OW34291   4.662   0.369   6.637 -0.5605  0.0875 -0.1719
 7611SOL    HW134292   4.714   0.447   6.615 -0.5333  0.4337  1.0966
 7611SOL    HW234293   4.601   0.372   6.564 -1.7713  1.5053  0.9000
 7612SOL     OW34294   2.549   1.756   8.017 -0.6684  0.1781  0.9806
 7612SOL    HW134295   2.485   1.827   8.016 -0.2599  0.4850 -2.1011
 7612SOL    HW234296   2.514   1.713   8.096  0.4689  1.1027  1.9889
 7613SOL     OW34297   4.496   4.654   5.682 -0.2313  0.5231 -0.1991
 7613SOL    HW134298   4.582   4.614   5.701  0.9891  2.7291 -1.1208
 7613SOL    HW234299   4.461   4.580   5.632  1.1430 -1.4367  1.7174
 7614SOL     OW34300   0.707   4.149  16.384 -0.4283 -0.5150  0.5816
 7614SOL    HW134301   0.709   4.080  16.318 -1.0125  1.0624 -1.1274
 7614SOL    HW234302   0.801   4.149  16.401 -0.2428  1.8178 -0.3797
 7615SOL     OW34303   3.358   2.376   4.055  0.1020 -0.0934 -0.2711
 7615SOL    HW134304   3.320   2.459   4.029 -2.1441 -0.7510  0.9655
 7615SOL    HW234305   3.289   2.317   4.025 -0.9726  0.1315  1.7674
 7616SOL     OW34306   3.969   4.172  17.577  0.0612  0.2624 -0.2777
 7616SOL    HW134307   3.924   4.250  17.610  1.6669 -0.1264  2.8823
 7616SOL    HW234308   3.897   4.128  17.532  1.8579 -0.6090 -2.2663
 7617SOL     OW34309   0.234   4.346   5.060  0.2229 -0.8293 -0.4369
 7617SOL    HW134310   0.278   4.293   5.127 -1.2876  1.1599  2.1305
 7617SOL    HW234311   0.143   4.316   5.063 -0.2763  0.6792 -0.7416
 7618SOL     OW34312   0.015   2.099   2.207 -0.5713 -0.3553 -0.1603
 7618SOL    HW134313   0.065   2.178   2.226  0.2731 -0.6970 -0.9639
 7618SOL    HW234314   4.670   2.097   2.273  0.8243  2.7081  1.4070
 7619SOL     OW34315   4.521   1.131   7.126  0.8821 -0.0605 -0.1608
 7619SOL    HW134316   4.577   1.166   7.196 -0.9233 -0.3941  1.4415
 7619SOL    HW234317   4.585   1.131   7.054  0.1648  2.1321 -0.8169
 7620SOL     OW34318   4.066   1.936   7.893 -0.4556  0.2076 -0.3951
 7620SOL    HW134319   4.102   1.856   7.854  1.1768  1.3081 -1.1488
 7620SOL    HW234320   4.145   1.952   7.945  0.5223  1.2278 -2.2274
 7621SOL     OW34321   2.507   2.011  17.253 -0.4875 -1.3009  0.4525
 7621SOL    HW134322   2.477   1.928  17.290  1.8170 -1.9921  0.7394
 7621SOL    HW234323   2.515   2.060  17.335 -1.6493 -0.2007 -0.0839
 7622SOL     OW34324   3.504   3.144   6.853 -0.6520 -0.5293 -0.3103
 7622SOL    HW134325   3.536   3.060   6.888  1.6457  1.0498  1.3517
 7622SOL    HW234326   3.510   3.200   6.930 -1.7191 -0.5634 -0.2106
 7623SOL     OW34327   4.624   3.685  17.648  0.0358 -0.0129 -0.5050
 7623SOL    HW134328   4.663   3.688   0.033 -1.4898 -0.7104  0.2080
 7623SOL    HW234329   4.608   3.778  17.631 -0.4730 -0.2348 -1.2403
 7624SOL     OW34330   2.367   4.210  10.882 -0.0717 -0.0118  0.0144
 7624SOL    HW134331   2.416   4.142  10.927 -1.1327 -0.4246  0.5551
 7624SOL    HW234332   2.405   4.210  10.794 -0.3002  1.1171 -0.0883
 7625SOL     OW34333   0.655   2.998   4.255 -0.1970 -1.1347 -0.3122
 7625SOL    HW134334   0.724   2.949   4.299  0.4781 -0.7459 -0.9374
 7625SOL    HW234335   0.677   2.990   4.163  0.2857  2.2619 -0.4848
 7626SOL     OW34336   0.637   0.056  17.061  0.3095  0.4055 -0.4138
 7626SOL    HW134337   0.627   0.067  17.155 -1.5889 -2.2750 -0.2925
 7626SOL    HW234338   0.561   0.110  17.036  1.1862  1.9579  0.3147
 7627SOL     OW34339   3.846   2.748   5.237  0.5580 -0.2223 -0.1613
 7627SOL    HW134340   3.846   2.658   5.269 -1.5231 -0.0937  0.1770
 7627SOL    HW234341   3.813   2.797   5.312  1.4152 -0.7982  0.5980
 7628SOL     OW34342   1.269   4.385  17.665  0.6081 -0.0463 -0.0595
 7628SOL    HW134343   1.250   4.469  17.624  0.0610 -0.2289 -0.1770
 7628SOL    HW234344   1.248   4.422   0.050  0.3724  1.0741 -0.5995
 7629SOL     OW34345   3.669   2.015   7.750  0.1152  0.6769 -0.4738
 7629SOL    HW134346   3.748   1.965   7.772 -0.9199 -0.9174 -0.3657
 7629SOL    HW234347   3.604   1.944   7.749  0.4973  0.3204 -0.1987
 7630SOL     OW34348   0.164   0.186   9.470 -0.0734  0.3980 -1.2430
 7630SOL    HW134349   0.185   0.168   9.378  1.2097  1.5516 -1.1744
 7630SOL    HW234350   0.240   0.147   9.515 -0.2044 -1.2700 -2.4587
 7631SOL     OW34351   0.156   2.467   7.430  0.1208 -0.2060 -0.2658
 7631SOL    HW134352   0.078   2.465   7.375 -0.1480 -0.8886  0.1387
 7631SOL    HW234353   0.197   2.546   7.394  1.8612  0.1467  2.5066
 7632SOL     OW34354   0.940   3.011  13.831 -0.1861  0.6714 -0.2382
 7632SOL    HW134355   0.945   2.927  13.876 -2.0945  0.5109 -0.3299
 7632SOL    HW234356   0.917   3.078  13.896 -3.8026 -0.4031 -0.4127
 7633SOL     OW34357   2.080   0.972   5.040 -0.7365  0.3000  0.1748
 7633SOL    HW134358   2.120   0.995   5.124  0.1226  0.2642 -0.2316
 7633SOL    HW234359   2.148   1.013   4.987 -0.8328 -1.3299 -1.1876
 7634SOL     OW34360   4.210   2.747   6.863 -0.6110  0.2202  0.1216
 7634SOL    HW134361   4.267   2.822   6.852 -0.2836 -0.2477 -1.3221
 7634SOL    HW234362   4.201   2.738   6.958  0.6326 -1.8194  0.0428
 7635SOL     OW34363   2.245   2.818   2.787  0.7564  0.3601  0.2151
 7635SOL    HW134364   2.301   2.888   2.820  0.2632  0.2727  1.2299
 7635SOL    HW234365   2.259   2.744   2.846 -2.0333 -0.4753 -0.1959
 7636SOL     OW34366   1.959   1.099  10.075 -0.0346 -0.4718  0.3121
 7636SOL    HW134367   1.990   1.171  10.019 -1.2559 -0.4810 -0.3712
 7636SOL    HW234368   1.866   1.105  10.054  0.0371 -1.1069 -0.2105
 7637SOL     OW34369   2.304   1.850  13.180 -0.3795 -0.4721  0.1800
 7637SOL    HW134370   2.343   1.808  13.104 -0.1505  1.8860 -0.9991
 7637SOL    HW234371   2.215   1.877  13.155  0.2156  1.0645 -0.2214
 7638SOL     OW34372   2.082   0.869   7.124  0.1862 -0.1135 -0.5038
 7638SOL    HW134373   2.131   0.937   7.171 -0.6765 -0.7537  1.3447
 7638SOL    HW234374   2.148   0.846   7.059 -0.1243  1.9246 -1.5210
 7639SOL     OW34375   1.132   4.710   7.580 -0.1700  0.2742 -0.0826
 7639SOL    HW134376   1.197   0.050   7.552  0.0004 -0.2239 -0.8617
 7639SOL    HW234377   1.132   4.641   7.513  2.0539 -1.5158  1.7553
 7640SOL     OW34378   1.584   4.451   9.928 -0.3524 -0.2312  0.2901
 7640SOL    HW134379   1.664   4.430   9.881 -1.0226  1.2261 -1.4956
 7640SOL    HW234380   1.525   4.461   9.853  1.0662 -2.7168 -1.1382
 7641SOL     OW34381   3.922   4.134   3.236  0.4690  0.3442 -0.5430
 7641SOL    HW134382   3.934   4.048   3.275 -0.9826  0.2130 -0.3832
 7641SOL    HW234383   3.911   4.116   3.142  3.4158  1.2851 -1.0841
 7642SOL     OW34384   1.678   0.902   3.959  0.0076  0.5096 -0.3292
 7642SOL    HW134385   1.622   0.926   3.885  1.1773 -0.5343 -1.5492
 7642SOL    HW234386   1.767   0.923   3.928  0.8038 -1.2211  0.7920
 7643SOL     OW34387   4.204   0.112   2.355 -0.0997  0.0416  0.5963
 7643SOL    HW134388   4.223   0.023   2.384 -3.9835 -0.3712  1.9873
 7643SOL    HW234389   4.208   0.155   2.440  0.8227  0.0540  0.5461
 7644SOL     OW34390   0.876   2.089   3.810  0.2243  0.7138 -0.2509
 7644SOL    HW134391   0.935   2.078   3.736  0.7917  1.4535  0.0903
 7644SOL    HW234392   0.848   2.001   3.834 -1.0932  1.6332  1.6063
 7645SOL     OW34393   3.905   0.244   0.502 -0.2503 -0.5427  0.4396
 7645SOL    HW134394   3.991   0.280   0.483 -0.0768 -1.5510 -0.6624
 7645SOL    HW234395   3.851   0.323   0.499  2.2246  1.1156 -0.4594
 7646SOL     OW34396   2.399   0.364   8.828  0.1023  0.2878  0.4426
 7646SOL    HW134397   2.439   0.287   8.788  1.3671  1.6888 -0.9969
 7646SOL    HW234398   2.408   0.338   8.920  1.0029 -2.3175 -0.3713
 7647SOL     OW34399   2.524   2.018  14.979  0.3953  0.1302  0.1550
 7647SOL    HW134400   2.538   2.064  15.061 -0.6394  0.8704 -0.0872
 7647SOL    HW234401   2.505   1.930  15.012  2.0057  0.3583  1.6716
 7648SOL     OW34402   4.241   4.155   4.724 -0.6258 -0.0746 -0.1530
 7648SOL    HW134403   4.281   4.213   4.659 -0.3550  0.4961  0.5262
 7648SOL    HW234404   4.199   4.088   4.669 -0.7743 -0.9225  1.0009
 7649SOL     OW34405   0.993   3.784   3.901  0.2496  0.3884  0.0367
 7649SOL    HW134406   1.047   3.859   3.877 -0.7876  0.8919 -0.7284
 7649SOL    HW234407   0.922   3.802   3.839  1.7970 -0.2517 -1.9211
 7650SOL     OW34408   4.704   4.110   8.106  0.6194 -0.7268 -0.2549
 7650SOL    HW134409   4.695   4.014   8.108 -1.6464 -0.5640 -2.8450
 7650SOL    HW234410   4.688   4.126   8.198 -1.0505  0.7715 -0.8025
 7651SOL     OW34411   1.988   0.956   5.421 -0.1019  0.0704 -0.1772
 7651SOL    HW134412   2.063   0.987   5.370  0.2373 -0.4481  0.0095
 7651SOL    HW234413   1.914   1.004   5.383 -1.1178 -0.9841  0.4939
 7652SOL     OW34414   3.272   0.533  13.393  0.1582 -0.0861  0.1849
 7652SOL    HW134415   3.323   0.493  13.323  0.2815  1.0000 -0.3402
 7652SOL    HW234416   3.310   0.612  13.431  0.3149  0.0868 -0.3433
 7653SOL     OW34417   2.431   3.775   5.170 -0.1167  0.1043  0.2252
 7653SOL    HW134418   2.512   3.773   5.118 -0.6322 -0.5653 -0.5458
 7653SOL    HW234419   2.370   3.737   5.107 -0.5684  2.4865 -0.7876
 7654SOL     OW34420   3.236   3.237  10.704 -0.2066 -0.4218 -0.1370
 7654SOL    HW134421   3.245   3.276  10.790 -0.4240 -0.4544 -0.1004
 7654SOL    HW234422   3.311   3.270  10.655 -0.4123 -2.1051 -1.5733
 7655SOL     OW34423   1.499   1.446   3.786  0.1646 -0.3777  0.1896
 7655SOL    HW134424   1.534   1.525   3.828 -1.2281  1.2115 -1.5896
 7655SOL    HW234425   1.524   1.465   3.695  1.5851 -1.7703  0.2997
 7656SOL     OW34426   2.838   1.912   4.416 -0.3420  0.2155 -0.3630
 7656SOL    HW134427   2.825   1.965   4.494 -2.1675 -0.2787 -0.3300
 7656SOL    HW234428   2.799   1.827   4.436  0.8186 -0.4142 -0.7009
 7657SOL     OW34429   2.367   0.701  10.509 -0.0294  0.5365 -0.0548
 7657SOL    HW134430   2.347   0.639  10.579  0.9395 -2.6766 -2.6085
 7657SOL    HW234431   2.343   0.788  10.541  1.7711  0.7764  0.6514
 7658SOL     OW34432   1.619   4.598  17.289  0.3003 -0.6589 -0.0313
 7658SOL    HW134433   1.655   4.659  17.354  0.5695 -2.3625  1.4229
 7658SOL    HW234434   1.664   4.628  17.210  0.7858 -0.6444  0.2448
 7659SOL     OW34435   4.432   0.666   9.234 -0.1212 -0.1842  0.2743
 7659SOL    HW134436   4.501   0.725   9.264  0.4206 -0.5531 -0.2531
 7659SOL    HW234437   4.356   0.725   9.234  0.9621  1.1924 -2.2045
 7660SOL     OW34438   0.006   0.290   7.682 -0.4455 -0.3694  0.9226
 7660SOL    HW134439   0.000   0.301   7.777 -0.6351  0.2197  0.8412
 7660SOL    HW234440   4.713   0.198   7.663  1.7803 -0.8278  0.9947
 7661SOL     OW34441   4.004   1.599   6.464  0.2953 -0.2354  0.8020
 7661SOL    HW134442   3.954   1.518   6.473  0.0989 -0.2425 -0.4766
 7661SOL    HW234443   4.033   1.608   6.555 -0.9217  2.4243  0.9619
 7662SOL     OW34444   2.473   3.986   7.155 -0.0326 -0.5852  0.4289
 7662SOL    HW134445   2.514   3.928   7.219  0.8799  0.4900  0.8041
 7662SOL    HW234446   2.529   4.063   7.153 -0.6197 -0.1214  1.8435
 7663SOL     OW34447   0.870   2.815   1.281 -0.1022  0.1878  0.3790
 7663SOL    HW134448   0.859   2.866   1.361 -1.8845  2.9610 -1.6642
 7663SOL    HW234449   0.904   2.734   1.320 -1.3077 -0.7780 -0.5866
 7664SOL     OW34450   2.532   4.204  17.064  0.6434  0.4724 -0.3194
 7664SOL    HW134451   2.588   4.268  17.020  1.1406  0.2976  0.0581
 7664SOL    HW234452   2.440   4.224  17.047  0.7261  0.8884 -0.2971
 7665SOL     OW34453   0.884   4.667   4.170  0.1538  0.6955  0.6810
 7665SOL    HW134454   0.801   4.637   4.134  0.1164 -1.5711  2.5971
 7665SOL    HW234455   0.874   4.618   4.252 -0.0762 -1.2804 -0.5295
 7666SOL     OW34456   1.514   2.209   2.746 -0.2641 -0.4815 -0.0387
 7666SOL    HW134457   1.494   2.185   2.836 -0.2505  1.8368  0.5765
 7666SOL    HW234458   1.454   2.146   2.706  0.5149 -0.8071 -0.6991
 7667SOL     OW34459   4.611   4.350   3.671 -0.8874  0.0951 -0.0207
 7667SOL    HW134460   4.689   4.299   3.651 -0.8408 -0.5502  1.8171
 7667SOL    HW234461   4.571   4.364   3.586 -0.3159  0.4525 -0.2282
 7668SOL     OW34462   2.292   3.604  13.804  0.0740  0.1674 -0.3247
 7668SOL    HW134463   2.234   3.531  13.826 -0.0477  0.5294  0.5381
 7668SOL    HW234464   2.238   3.645  13.736 -0.6310 -0.8499 -0.3753
 7669SOL     OW34465   4.050   4.199   7.440  0.0368 -0.5514  0.1141
 7669SOL    HW134466   4.127   4.212   7.495  0.5534  0.0572 -0.7755
 7669SOL    HW234467   4.058   4.269   7.375 -1.9581  1.5222  2.0665
 7670SOL     OW34468   4.336   0.916   6.818  0.4004  0.4042  0.2943
 7670SOL    HW134469   4.349   0.911   6.913  0.1280 -3.0777  0.1335
 7670SOL    HW234470   4.246   0.947   6.811  0.0931 -0.5622  0.0140
 7671SOL     OW34471   2.634   3.508   4.823  0.2000 -0.2567  1.0590
 7671SOL    HW134472   2.618   3.439   4.759 -1.2993  1.6447 -0.6315
 7671SOL    HW234473   2.555   3.489   4.874  1.3903 -2.8264  1.9075
 7672SOL     OW34474   1.125   0.789   3.075  0.1145 -0.0567 -0.1488
 7672SOL    HW134475   1.100   0.868   3.026 -0.9687 -0.0847  0.3486
 7672SOL    HW234476   1.054   0.773   3.137  1.5840 -0.7452  1.3261
 7673SOL     OW34477   0.478   2.725  16.135 -0.4240 -0.6731  0.7738
 7673SOL    HW134478   0.492   2.650  16.077 -1.7677 -2.6646  3.0187
 7673SOL    HW234479   0.521   2.795  16.086  0.5125 -2.1965 -0.5959
 7674SOL     OW34480   3.564   4.645   1.325 -0.1400 -0.0252  0.8760
 7674SOL    HW134481   3.629   4.576   1.312  1.2752  1.6980 -1.1406
 7674SOL    HW234482   3.612   4.700   1.387  0.0058  1.0118 -0.1438
 7675SOL     OW34483   2.740   3.723  10.650  0.2712 -0.0093 -0.1844
 7675SOL    HW134484   2.832   3.704  10.629  1.0688  1.3422  2.0797
 7675SOL    HW234485   2.733   3.751  10.741 -2.4450  0.8526 -0.6531
 7676SOL     OW34486   2.781   3.413   6.205  0.4030 -0.4128  0.2061
 7676SOL    HW134487   2.845   3.342   6.195 -0.3385 -0.9973 -0.3486
 7676SOL    HW234488   2.731   3.375   6.278 -1.1378 -1.1394 -1.2331
 7677SOL     OW34489   3.146   2.935   4.032 -0.4646 -0.3969 -0.1288
 7677SOL    HW134490   3.214   2.993   4.066 -1.3494  0.7543 -0.3221
 7677SOL    HW234491   3.193   2.910   3.952 -2.2253 -0.1652 -1.2301
 7678SOL     OW34492   0.060   0.363   7.949  0.4691 -0.3153 -0.8465
 7678SOL    HW134493   0.090   0.312   8.025  1.9412  2.0710  0.1598
 7678SOL    HW234494   0.141   0.414   7.949  0.2391  0.0389  0.6699
 7679SOL     OW34495   3.895   4.396  14.760  0.5468 -0.1573 -0.3489
 7679SOL    HW134496   3.990   4.400  14.770  0.7915 -3.0404 -1.6516
 7679SOL    HW234497   3.858   4.383  14.847  0.6139  1.9652  0.0164
 7680SOL     OW34498   4.246   0.477  12.662  0.0770  0.0605 -0.6944
 7680SOL    HW134499   4.339   0.478  12.641  0.5870  0.2262  1.5472
 7680SOL    HW234500   4.251   0.462  12.757  0.7902  2.8422 -0.3113
 7681SOL     OW34501   2.530   4.150  15.241  0.2215  0.0090  0.2822
 7681SOL    HW134502   2.572   4.071  15.273  0.6146 -0.6211 -1.8489
 7681SOL    HW234503   2.567   4.224  15.290 -0.4285 -0.6777  1.8242
 7682SOL     OW34504   2.746   3.601   4.529 -0.4498  0.4919  0.1935
 7682SOL    HW134505   2.720   3.522   4.576  0.1193  0.4139  0.3875
 7682SOL    HW234506   2.672   3.617   4.470  0.4415  1.0866 -0.7747
 7683SOL     OW34507   2.958   3.373  13.008  0.2310 -0.3632 -0.2105
 7683SOL    HW134508   2.959   3.421  12.926  0.4427  0.9419  0.5443
 7683SOL    HW234509   3.051   3.375  13.032 -0.1085  1.1792  1.0246
 7684SOL     OW34510   1.481   0.505   5.648  0.0077 -0.4101 -0.1019
 7684SOL    HW134511   1.560   0.530   5.600 -0.2878  0.0985 -0.3368
 7684SOL    HW234512   1.433   0.455   5.581  0.6943 -0.7735 -0.3171
 7685SOL     OW34513   1.175   4.019  10.989  0.0029  0.3422 -0.0501
 7685SOL    HW134514   1.107   3.984  11.046 -1.4835  2.1379 -0.7418
 7685SOL    HW234515   1.224   3.938  10.975 -0.3705 -0.0411  0.9091
 7686SOL     OW34516   4.410   3.881   7.140 -0.2622  0.2556 -0.5656
 7686SOL    HW134517   4.339   3.825   7.168  0.6954 -0.3334  0.6687
 7686SOL    HW234518   4.406   3.947   7.209 -0.9556 -1.4094  0.9516
 7687SOL     OW34519   0.411   2.237   0.733  0.0473 -0.3620 -0.0006
 7687SOL    HW134520   0.427   2.329   0.755 -3.2656  0.4161 -0.8527
 7687SOL    HW234521   0.366   2.246   0.650 -1.2772 -1.6326  0.5934
 7688SOL     OW34522   4.647   2.415   8.349  0.7254 -0.1651 -0.7663
 7688SOL    HW134523   4.684   2.450   8.430 -1.7325 -0.0181  0.2933
 7688SOL    HW234524   0.001   2.418   8.295  2.1178  0.0800  1.3181
 7689SOL     OW34525   2.817   4.234  17.559 -0.4805 -0.0742 -0.2525
 7689SOL    HW134526   2.804   4.311  17.503 -0.1071  0.8660  0.9497
 7689SOL    HW234527   2.739   4.183  17.539  0.9196 -2.5061  0.5080
 7690SOL     OW34528   1.507   0.473   3.752  0.1683  0.0943  0.4056
 7690SOL    HW134529   1.421   0.515   3.763  0.5049  0.8223  0.2407
 7690SOL    HW234530   1.574   0.541   3.747 -0.5124  0.7008 -0.6038
 7691SOL     OW34531   0.095   2.661  12.515  0.2823 -0.1605  0.5489
 7691SOL    HW134532   0.130   2.733  12.463  0.8555 -0.5179  0.4436
 7691SOL    HW234533   0.089   2.593  12.448  0.5290  1.3334 -0.9913
 7692SOL     OW34534   3.220   0.691   2.136  0.3387  0.3918  0.4103
 7692SOL    HW134535   3.149   0.750   2.112 -1.8555 -2.7715 -0.8844
 7692SOL    HW234536   3.232   0.712   2.229  0.2065  3.0458 -0.1643
 7693SOL     OW34537   3.104   4.673   1.659  0.5229  0.2284 -0.5463
 7693SOL    HW134538   3.172   0.014   1.669  1.5673 -0.9230 -0.1355
 7693SOL    HW234539   3.122   4.637   1.573 -0.4874 -1.5071 -0.0210
 7694SOL     OW34540   0.861   1.595   2.998  0.4182 -0.1741  0.2099
 7694SOL    HW134541   0.805   1.660   3.041 -1.1069 -0.1441 -1.7964
 7694SOL    HW234542   0.943   1.639   3.019 -0.2728  0.5107  1.4819
 7695SOL     OW34543   3.777   4.019   5.819  0.3440  0.3021  0.4650
 7695SOL    HW134544   3.689   4.049   5.793  0.1285 -1.0873 -0.3664
 7695SOL    HW234545   3.827   4.088   5.776 -0.1624 -1.2088 -2.5050
 7696SOL     OW34546   2.933   3.303   3.375  0.3364 -0.6674 -0.6318
 7696SOL    HW134547   3.024   3.333   3.370  0.6508 -1.6493 -0.9123
 7696SOL    HW234548   2.890   3.360   3.312 -0.2429 -1.1663 -0.6878
 7697SOL     OW34549   2.224   0.200   7.133  0.5229  0.0407 -0.4096
 7697SOL    HW134550   2.199   0.287   7.100  1.4390 -0.5924 -2.7911
 7697SOL    HW234551   2.161   0.141   7.091 -1.0084  2.1082 -1.0275
 7698SOL     OW34552   4.686   2.282   3.774 -0.1098 -0.5360  0.1224
 7698SOL    HW134553   4.678   2.347   3.844 -0.1802 -2.5718  2.0302
 7698SOL    HW234554   0.033   2.224   3.798 -0.5909 -0.5499  1.5645
 7699SOL     OW34555   2.912   3.159   0.878 -0.2113 -0.1805 -1.1897
 7699SOL    HW134556   3.000   3.127   0.859 -0.7200 -2.1894 -0.1933
 7699SOL    HW234557   2.883   3.096   0.944  0.4048  0.0769 -0.6822
 7700SOL     OW34558   0.628   1.207   3.071  0.5259 -0.5766 -0.1031
 7700SOL    HW134559   0.547   1.158   3.058 -0.8750  1.6335  0.1411
 7700SOL    HW234560   0.693   1.149   3.032 -0.4719 -1.2240 -0.8160
 7701SOL     OW34561   3.614   1.647   8.804 -0.2917 -0.9913  0.0118
 7701SOL    HW134562   3.554   1.592   8.754 -2.2541  2.4825 -1.4706
 7701SOL    HW234563   3.568   1.663   8.887  0.5077  0.9195  0.0886
 7702SOL     OW34564   1.375   1.826   5.803 -0.0038 -0.3623  0.0898
 7702SOL    HW134565   1.317   1.804   5.730 -0.4851  2.2761 -0.3011
 7702SOL    HW234566   1.455   1.776   5.785 -0.4316 -0.2539 -2.0650
 7703SOL     OW34567   1.099   2.850   6.892  0.0137 -0.2355 -0.2215
 7703SOL    HW134568   1.051   2.799   6.957  1.4864 -0.9415  0.3089
 7703SOL    HW234569   1.091   2.936   6.934 -2.5135 -0.9780  0.8328
 7704SOL     OW34570   2.757   1.968   6.042  0.3601  0.1971 -0.4106
 7704SOL    HW134571   2.799   1.980   6.127 -1.5281 -0.9681  0.6923
 7704SOL    HW234572   2.737   1.874   6.040 -0.0933  0.3003 -0.5593
 7705SOL     OW34573   1.657   2.904  11.635  0.3786 -0.4986  0.0120
 7705SOL    HW134574   1.656   2.863  11.549  3.1677  0.3061 -0.3955
 7705SOL    HW234575   1.613   2.839  11.691  2.0951  0.2599  2.2469
 7706SOL     OW34576   4.025   1.199   3.339 -0.2729  0.8556  0.0695
 7706SOL    HW134577   3.954   1.201   3.275 -0.9855  2.4090  0.9139
 7706SOL    HW234578   3.975   1.190   3.420 -1.8278  2.5952 -0.7132
 7707SOL     OW34579   2.610   2.173   5.302  0.3957 -0.0994  0.2951
 7707SOL    HW134580   2.516   2.181   5.287  0.1035  1.2553  2.8219
 7707SOL    HW234581   2.640   2.264   5.309  0.8166 -0.2653  0.6428
 7708SOL     OW34582   3.912   4.103   1.505 -0.5133 -0.2070  0.3898
 7708SOL    HW134583   3.894   4.187   1.548  0.7285  1.2356 -1.8992
 7708SOL    HW234584   3.826   4.064   1.487  0.6821 -2.7960  0.3573
 7709SOL     OW34585   2.043   0.157   2.920 -0.2758  0.0197  0.6140
 7709SOL    HW134586   2.131   0.179   2.950 -0.8801  0.9821  1.6735
 7709SOL    HW234587   1.990   0.233   2.943 -0.2279 -0.1013  1.1174
 7710SOL     OW34588   1.888   4.405   8.572  0.0376 -0.2139 -0.1671
 7710SOL    HW134589   1.859   4.376   8.658  1.3013  0.3334  0.4511
 7710SOL    HW234590   1.841   4.487   8.559  0.4223 -0.1852 -1.3308
 7711SOL     OW34591   1.948   3.946  14.900  0.1633  0.0197  0.3840
 7711SOL    HW134592   1.977   4.037  14.898  1.7638 -0.5174 -1.1139
 7711SOL    HW234593   2.025   3.909  14.944  1.4249  2.8405  0.5008
 7712SOL     OW34594   3.150   3.420   2.544  0.2386  0.0520 -0.7724
 7712SOL    HW134595   3.082   3.476   2.581  1.3914  1.1294 -0.3029
 7712SOL    HW234596   3.113   3.331   2.549 -1.8671  0.8221 -2.3118
 7713SOL     OW34597   3.443   0.696  16.073  0.5490  0.2010 -0.3321
 7713SOL    HW134598   3.363   0.668  16.117  1.5294  0.1061  1.4089
 7713SOL    HW234599   3.462   0.612  16.032 -0.6158 -0.1486 -0.1501
 7714SOL     OW34600   2.172   0.267   7.478 -0.3700  0.0941 -0.3399
 7714SOL    HW134601   2.216   0.186   7.452 -0.9921 -1.1528  2.3439
 7714SOL    HW234602   2.180   0.268   7.574 -0.7904  1.3222 -0.3213
 7715SOL     OW34603   0.454   3.907  11.847  0.5546  0.3379  0.0600
 7715SOL    HW134604   0.419   3.845  11.911 -0.1189  0.9295  0.2652
 7715SOL    HW234605   0.526   3.950  11.893  0.7541 -0.2492  0.2973
 7716SOL     OW34606   2.796   4.153   1.251 -0.0433 -0.1256  0.3764
 7716SOL    HW134607   2.743   4.077   1.274 -0.5773  0.3719  0.7671
 7716SOL    HW234608   2.798   4.195   1.337  0.9989 -0.8798  0.7220
 7717SOL     OW34609   0.297   1.657   6.290 -0.1487  0.0495  0.4271
 7717SOL    HW134610   0.264   1.610   6.213  0.0234 -1.2745  1.1684
 7717SOL    HW234611   0.347   1.589   6.335 -0.0019 -0.4377 -0.4588
 7718SOL     OW34612   3.482   2.555  13.814  0.3312  0.4685 -0.3031
 7718SOL    HW134613   3.519   2.500  13.883 -0.5872  2.9534  2.1316
 7718SOL    HW234614   3.531   2.637  13.820 -1.9543  1.8542 -0.3780
 7719SOL     OW34615   0.408   0.001  16.276  0.3591  0.2760  0.1649
 7719SOL    HW134616   0.447   4.643  16.247  0.5706  0.2159  0.6154
 7719SOL    HW234617   0.417   0.055  16.198 -0.3361 -2.3071 -1.6858
 7720SOL     OW34618   4.695   2.564  10.452 -0.1865 -0.5629 -0.5840
 7720SOL    HW134619   0.049   2.541  10.502  1.0561  0.2513 -2.2120
 7720SOL    HW234620   4.697   2.659  10.462 -2.9117 -0.7663  1.9073
 7721SOL     OW34621   2.643   3.229  12.191  0.4908  0.1467  0.2080
 7721SOL    HW134622   2.667   3.155  12.246  0.0096  1.1196  1.7113
 7721SOL    HW234623   2.593   3.277  12.256  0.6805 -0.1669  0.5818
 7722SOL     OW34624   2.201   4.582   3.502 -0.0857 -0.1719  0.6959
 7722SOL    HW134625   2.106   4.582   3.485  0.2008  1.0544 -0.8914
 7722SOL    HW234626   2.227   4.541   3.419 -3.1684 -0.3412 -0.2238
 7723SOL     OW34627   0.654   2.366  14.710 -0.3379  0.1912 -0.0035
 7723SOL    HW134628   0.659   2.395  14.801 -0.9856 -0.2636  0.1735
 7723SOL    HW234629   0.706   2.287  14.725 -2.0174 -0.8800  0.1218
 7724SOL     OW34630   0.218   2.679   2.988  0.4831  0.2286 -0.1957
 7724SOL    HW134631   0.236   2.767   2.953  1.6713  0.9960  2.3785
 7724SOL    HW234632   0.273   2.629   2.928  0.2619  0.5073 -0.6355
 7725SOL     OW34633   4.057   2.506   1.420 -0.1373 -0.1964  0.7409
 7725SOL    HW134634   4.134   2.460   1.386  0.4679  1.5675 -0.2782
 7725SOL    HW234635   4.076   2.595   1.391  2.1901 -0.1725  2.2934
 7726SOL     OW34636   4.255   4.226   2.109  0.2646  0.0613  0.9297
 7726SOL    HW134637   4.269   4.139   2.145 -1.7300  0.2317  2.0954
 7726SOL    HW234638   4.311   4.274   2.171 -0.0931  1.0197  0.5045
 7727SOL     OW34639   1.166   4.595  16.636  0.2904 -0.3465 -0.3989
 7727SOL    HW134640   1.092   4.546  16.600  1.2418 -1.9137 -0.2210
 7727SOL    HW234641   1.242   4.549  16.600 -1.7362 -3.0861 -1.2012
 7728SOL     OW34642   2.016   1.399   8.625  0.2889 -0.6303  0.1019
 7728SOL    HW134643   2.025   1.306   8.604  0.3906 -0.2334 -1.6316
 7728SOL    HW234644   2.033   1.439   8.539  2.5302 -0.9710  0.3901
 7729SOL     OW34645   0.644   0.852   2.993 -0.8644  0.5640 -0.1485
 7729SOL    HW134646   0.723   0.901   3.016 -1.4696  2.7503 -2.7755
 7729SOL    HW234647   0.635   0.897   2.909 -2.4867 -0.3345 -0.4644
 7730SOL     OW34648   4.210   0.944   2.419  0.2884 -0.0308  0.1468
 7730SOL    HW134649   4.155   0.915   2.346 -1.2854  1.7706  0.6159
 7730SOL    HW234650   4.216   1.035   2.391  0.9505 -0.1007  0.0678
 7731SOL     OW34651   0.149   3.768   5.861 -0.1249  0.2656  0.3859
 7731SOL    HW134652   0.154   3.728   5.948 -1.7574 -1.0246 -0.1065
 7731SOL    HW234653   0.126   3.699   5.799  1.0755  0.4935 -0.3024
 7732SOL     OW34654   3.119   0.826   0.254  0.1286 -0.2382 -0.6699
 7732SOL    HW134655   3.156   0.909   0.285 -0.9531 -0.1196  0.3159
 7732SOL    HW234656   3.078   0.847   0.169  1.7135 -2.0093 -1.8525
 7733SOL     OW34657   4.471   4.380   2.346  0.6096  0.5184 -0.1802
 7733SOL    HW134658   4.472   4.414   2.257  1.2883  1.6609  0.2540
 7733SOL    HW234659   4.562   4.386   2.375  0.2549  1.6389  0.7101
 7734SOL     OW34660   2.814   0.547   0.974 -0.5206 -0.1632  0.8987
 7734SOL    HW134661   2.873   0.619   0.995 -2.8971  1.7460  1.1225
 7734SOL    HW234662   2.731   0.592   0.992  0.7511  1.5585  2.4758
 7735SOL     OW34663   3.969   4.642  12.074  0.0753  0.2314 -0.5113
 7735SOL    HW134664   3.937   4.641  11.983  0.3683 -1.9543 -0.5942
 7735SOL    HW234665   4.063   4.633  12.061  0.1544  1.3481 -0.6915
 7736SOL     OW34666   3.443   2.722   0.919  0.3029  0.3981 -0.0356
 7736SOL    HW134667   3.353   2.751   0.907  0.0995 -0.2740 -0.1252
 7736SOL    HW234668   3.496   2.801   0.928 -0.3250  0.6328  1.5125
 7737SOL     OW34669   3.036   3.519   5.133  0.1751  0.5755 -0.0457
 7737SOL    HW134670   2.960   3.572   5.157  0.3265  0.5514  0.4978
 7737SOL    HW234671   3.002   3.483   5.051 -0.7111  0.8652  0.1912
 7738SOL     OW34672   2.159   1.545   5.963 -0.4387  0.6097 -0.6384
 7738SOL    HW134673   2.068   1.569   5.945  0.2510  2.9148 -1.1125
 7738SOL    HW234674   2.180   1.513   5.875 -2.4790 -0.1001 -0.8866
 7739SOL     OW34675   2.610   3.036   8.279 -0.4308  0.0132  0.6183
 7739SOL    HW134676   2.560   3.112   8.250 -0.5028  0.2710  1.4079
 7739SOL    HW234677   2.573   2.958   8.237  0.1802  1.1714 -2.0921
 7740SOL     OW34678   1.093   2.725   4.252 -0.1851  0.2416  1.0770
 7740SOL    HW134679   1.048   2.642   4.271 -0.4196  0.3404  0.9634
 7740SOL    HW234680   1.100   2.734   4.157  1.3039  3.0954  1.4715
 7741SOL     OW34681   2.769   2.525  11.323  0.0018 -0.3070 -0.3528
 7741SOL    HW134682   2.814   2.460  11.377  0.9354  0.2955 -0.3975
 7741SOL    HW234683   2.828   2.599  11.340 -0.1832 -0.4706  0.9276
 7742SOL     OW34684   1.073   2.325   7.167  0.2292  0.0277 -0.6100
 7742SOL    HW134685   1.126   2.386   7.116  2.3656 -1.8718 -0.6982
 7742SOL    HW234686   1.021   2.284   7.097  2.0661 -0.2265 -1.8256
 7743SOL     OW34687   0.168   4.017   1.879 -0.1965 -0.2383 -0.4880
 7743SOL    HW134688   0.261   4.017   1.856 -0.1678  2.2027 -0.4073
 7743SOL    HW234689   0.153   4.112   1.872  0.2440 -0.1373 -0.0257
 7744SOL     OW34690   2.459   3.125   6.078  0.2502 -0.5351  0.0300
 7744SOL    HW134691   2.527   3.066   6.111 -0.2555 -0.0730  1.9091
 7744SOL    HW234692   2.487   3.139   5.988 -0.7708  1.7667  0.0569
 7745SOL     OW34693   0.584   2.988   5.725 -0.2363  0.0056  0.0574
 7745SOL    HW134694   0.549   2.907   5.689 -2.5424  0.3134  1.6070
 7745SOL    HW234695   0.673   2.956   5.738  0.4909  3.0528  2.6482
 7746SOL     OW34696   1.940   2.134   9.625  0.2213 -0.0342 -0.5281
 7746SOL    HW134697   1.888   2.069   9.673  0.6748  0.9220  1.2366
 7746SOL    HW234698   1.970   2.086   9.548  0.4117  0.2509 -0.6319
 7747SOL     OW34699   2.720   2.196  10.065  0.1100 -0.1993 -1.0472
 7747SOL    HW134700   2.680   2.260  10.123  3.8837 -0.7663  2.1518
 7747SOL    HW234701   2.682   2.114  10.097  3.1234 -1.0179  0.4261
 7748SOL     OW34702   0.398   1.745   8.480 -0.6980  0.1888 -0.1710
 7748SOL    HW134703   0.481   1.777   8.444  0.1873 -0.4225  1.2989
 7748SOL    HW234704   0.398   1.808   8.553  0.3123 -0.5317  0.4483
 7749SOL     OW34705   2.878   0.362   3.439  0.1869 -0.1916  0.5078
 7749SOL    HW134706   2.922   0.362   3.524  0.0518 -0.5617  0.5767
 7749SOL    HW234707   2.788   0.342   3.463 -0.4841 -0.3849 -2.2529
 7750SOL     OW34708   3.662   3.841  13.843 -0.1093 -0.0499  0.1219
 7750SOL    HW134709   3.607   3.918  13.829 -0.5841 -0.2509  0.8286
 7750SOL    HW234710   3.739   3.857  13.788  1.0628  0.3964  1.8756
 7751SOL     OW34711   3.636   4.363   8.271  0.1119  0.0395  0.1930
 7751SOL    HW134712   3.595   4.428   8.329  0.0059 -0.4883  0.7117
 7751SOL    HW234713   3.573   4.294   8.289  0.1924 -0.5975 -2.0329
 7752SOL     OW34714   1.570   3.503   9.452 -0.2809 -0.4979 -0.3162
 7752SOL    HW134715   1.475   3.491   9.458 -0.1880 -1.3155 -0.4761
 7752SOL    HW234716   1.581   3.577   9.392  1.0453 -0.5726 -0.1667
 7753SOL     OW34717   2.413   0.810  10.798 -0.0895  0.1238 -0.2124
 7753SOL    HW134718   2.465   0.885  10.768 -1.9226  1.3001 -0.4596
 7753SOL    HW234719   2.333   0.858  10.821  1.4234  1.5316  2.1244
 7754SOL     OW34720   2.511   1.268  11.882  0.0899  0.4778  0.4134
 7754SOL    HW134721   2.446   1.294  11.948  0.2261 -1.4753  1.3260
 7754SOL    HW234722   2.469   1.324  11.817  0.7959  0.2794 -0.2001
 7755SOL     OW34723   3.645   3.266   7.519 -0.0421 -0.3439  0.1928
 7755SOL    HW134724   3.602   3.228   7.442  0.8225 -2.3103  0.6665
 7755SOL    HW234725   3.684   3.191   7.566 -0.0947  1.3646  2.9605
 7756SOL     OW34726   3.557   0.743   4.440  0.2181  0.3122  0.6564
 7756SOL    HW134727   3.636   0.762   4.389 -0.8735 -0.1467 -1.2351
 7756SOL    HW234728   3.489   0.735   4.372  0.2632  2.0580  0.4017
 7757SOL     OW34729   1.401   1.905   4.047  0.3469  1.1746  0.2966
 7757SOL    HW134730   1.360   1.819   4.050  0.5215  1.0933  0.3559
 7757SOL    HW234731   1.346   1.966   3.999 -0.3569  0.2216 -0.0944
 7758SOL     OW34732   2.693   4.277   9.857  0.7620  0.1497  0.2750
 7758SOL    HW134733   2.613   4.327   9.839 -0.6309 -2.1801  0.0008
 7758SOL    HW234734   2.713   4.281   9.950  1.7716  2.4016 -0.0532
 7759SOL     OW34735   4.207   2.817   2.747  0.1677  0.6551 -0.4845
 7759SOL    HW134736   4.237   2.879   2.680  1.4326 -0.5376 -1.0428
 7759SOL    HW234737   4.118   2.852   2.750 -0.6757 -1.4140 -1.1452
 7760SOL     OW34738   1.028   4.255  15.142  0.0545  0.1147  0.0120
 7760SOL    HW134739   0.951   4.273  15.088 -0.9894 -3.0502  0.4227
 7760SOL    HW234740   0.999   4.180  15.194 -0.6736  0.9463  0.7922
 7761SOL     OW34741   1.017   2.203   3.168  0.3887 -0.1435  0.2077
 7761SOL    HW134742   0.931   2.230   3.200  0.2882  0.1125 -0.2773
 7761SOL    HW234743   1.077   2.260   3.216  1.1402  0.2817 -1.2305
 7762SOL     OW34744   0.125   0.408   4.182  0.5295  0.2270  0.4917
 7762SOL    HW134745   0.211   0.388   4.222  1.0056 -0.5761 -0.9354
 7762SOL    HW234746   0.154   0.480   4.127  2.8223  0.2367  1.6666
 7763SOL     OW34747   3.310   1.225   2.813  0.1425 -0.3350 -0.2303
 7763SOL    HW134748   3.345   1.198   2.898  2.7282  3.7998  0.0303
 7763SOL    HW234749   3.269   1.145   2.781 -1.4615  0.9487 -1.3717
 7764SOL     OW34750   4.261   1.712   5.095  0.1810 -0.3126 -0.2769
 7764SOL    HW134751   4.281   1.803   5.071 -1.3935  0.0265 -0.2607
 7764SOL    HW234752   4.191   1.735   5.155  0.3996  0.4753 -0.3251
 7765SOL     OW34753   4.257   3.413   9.882  0.1286 -0.2960  0.2608
 7765SOL    HW134754   4.192   3.433   9.949  0.8767 -2.1184  1.5248
 7765SOL    HW234755   4.334   3.395   9.937 -0.2594 -1.7969  0.2939
 7766SOL     OW34756   0.718   1.072  16.471  0.1490 -0.0899  0.4105
 7766SOL    HW134757   0.747   1.054  16.382 -2.9948  0.3321 -0.7228
 7766SOL    HW234758   0.794   1.048  16.523 -0.0166 -1.9697 -0.1941
 7767SOL     OW34759   1.274   3.622  16.015  0.9555 -0.1669 -0.0923
 7767SOL    HW134760   1.238   3.594  16.099 -0.3734 -0.0885 -0.6185
 7767SOL    HW234761   1.307   3.711  16.023  0.4802  0.1116 -1.2005
 7768SOL     OW34762   1.300   0.563  12.920 -0.5191 -0.1581  0.3608
 7768SOL    HW134763   1.264   0.642  12.960  0.1087 -0.2166  1.0427
 7768SOL    HW234764   1.244   0.497  12.962  0.2660 -1.0103  0.0787
 7769SOL     OW34765   4.204   2.643   1.800  0.2083  0.4702  0.2871
 7769SOL    HW134766   4.268   2.573   1.811  0.3637  0.3342 -1.3988
 7769SOL    HW234767   4.124   2.591   1.789  0.0079  1.4804 -3.3351
 7770SOL     OW34768   2.687   3.851   9.360 -0.7417 -0.2657  0.2356
 7770SOL    HW134769   2.618   3.819   9.417  0.8099 -1.2550  1.5765
 7770SOL    HW234770   2.760   3.814   9.411  2.0150  1.2330 -2.5834
 7771SOL     OW34771   3.636   3.353   1.245  0.1167 -0.4238  0.2876
 7771SOL    HW134772   3.543   3.361   1.224 -0.5470 -0.4039  3.1679
 7771SOL    HW234773   3.644   3.364   1.340 -0.1279  0.5953  0.1915
 7772SOL     OW34774   2.879   3.354   8.840 -0.0315  0.5185  0.0244
 7772SOL    HW134775   2.928   3.360   8.922  0.4519  2.9022 -0.4239
 7772SOL    HW234776   2.903   3.268   8.808  0.3398  1.0874 -1.2160
 7773SOL     OW34777   1.406   2.518   6.224  0.2540  0.1087 -0.3149
 7773SOL    HW134778   1.392   2.475   6.140 -1.1560 -2.5333  1.2892
 7773SOL    HW234779   1.441   2.450   6.283  1.1037  0.6344 -0.2034
 7774SOL     OW34780   0.634   1.112  11.968  0.2604  0.1531  0.2623
 7774SOL    HW134781   0.577   1.155  12.032 -1.2280 -0.9049 -0.3464
 7774SOL    HW234782   0.575   1.082  11.898 -2.0119 -0.5145  2.4725
 7775SOL     OW34783   0.803   2.111   2.808  0.1330 -0.5719 -0.2602
 7775SOL    HW134784   0.798   2.160   2.726 -2.0235 -1.8653 -0.9180
 7775SOL    HW234785   0.728   2.145   2.856  1.6824  1.8833  0.4286
 7776SOL     OW34786   4.291   0.644   6.471 -0.0719 -0.3836  0.1817
 7776SOL    HW134787   4.362   0.647   6.534 -2.2728  0.4599  2.6423
 7776SOL    HW234788   4.332   0.620   6.388  1.7966  1.5312  0.5775
 7777SOL     OW34789   1.272   3.124   6.376  0.2536 -0.7742 -0.9673
 7777SOL    HW134790   1.205   3.107   6.441  0.2983  2.9586  0.0573
 7777SOL    HW234791   1.219   3.178   6.318 -1.8853 -1.4925  0.3553
 7778SOL     OW34792   4.457   2.171  15.563  0.5765 -0.4822 -0.2726
 7778SOL    HW134793   4.483   2.090  15.608 -0.7926 -0.2636  0.9455
 7778SOL    HW234794   4.493   2.239  15.621 -2.2227  0.8823 -0.1317
 7779SOL     OW34795   1.555   1.730   1.575 -0.2302 -0.0411 -0.2166
 7779SOL    HW134796   1.590   1.682   1.501 -2.1758 -0.8491 -0.6152
 7779SOL    HW234797   1.461   1.731   1.555 -0.8527 -2.9734  2.4694
 7780SOL     OW34798   3.370   3.544   5.394 -0.4394 -0.2967  0.2813
 7780SOL    HW134799   3.304   3.599   5.353 -0.6927 -1.0722 -0.3539
 7780SOL    HW234800   3.427   3.511   5.325 -0.4652 -0.7032  0.4498
 7781SOL     OW34801   4.143   0.507   1.581  0.2122 -0.3360 -0.4480
 7781SOL    HW134802   4.080   0.567   1.541  0.0417 -0.0802  0.1934
 7781SOL    HW234803   4.076   0.446   1.612 -0.4944  0.4363 -0.4651
 7782SOL     OW34804   1.099   1.569   3.227  0.8788 -0.0066  0.0848
 7782SOL    HW134805   1.155   1.495   3.203 -1.1576 -2.3245  2.5053
 7782SOL    HW234806   1.100   1.618   3.145  2.0930  0.8002  0.5965
 7783SOL     OW34807   2.063   1.710   1.925  0.2884 -0.7380  0.1123
 7783SOL    HW134808   1.998   1.732   1.992  1.6120  0.0552  1.1409
 7783SOL    HW234809   2.021   1.745   1.846  1.4843 -1.7139 -0.9542
 7784SOL     OW34810   2.312   0.637   9.125  0.2629 -0.5507 -0.3883
 7784SOL    HW134811   2.393   0.602   9.089  1.2493  0.0665  1.2351
 7784SOL    HW234812   2.281   0.705   9.065 -0.9472 -0.5198  0.2615
 7785SOL     OW34813   3.740   3.801   3.463  0.7674 -0.2174  0.3179
 7785SOL    HW134814   3.652   3.832   3.443  0.4341 -1.2436  0.2398
 7785SOL    HW234815   3.722   3.758   3.547 -3.0069 -0.0896 -0.4164
 7786SOL     OW34816   2.471   4.006   3.006  0.1288  0.0715 -0.0583
 7786SOL    HW134817   2.565   3.991   3.000  0.1188  0.4403 -1.0884
 7786SOL    HW234818   2.447   4.004   2.914  0.1636  1.5811 -0.1077
 7787SOL     OW34819   3.773   4.702   2.673  0.1298 -0.4868 -0.0730
 7787SOL    HW134820   3.846   0.039   2.667 -0.3414  0.1521  0.7921
 7787SOL    HW234821   3.724   0.001   2.595  0.9088 -0.9223 -0.6992
 7788SOL     OW34822   3.374   0.011   3.244  0.7580  0.3754  0.0528
 7788SOL    HW134823   3.361   4.712   3.335 -0.1266 -1.1389 -0.4745
 7788SOL    HW234824   3.283   0.009   3.212  0.2514  0.3576  1.5128
 7789SOL     OW34825   1.015   4.543   7.769  0.0757 -0.3287  0.4005
 7789SOL    HW134826   1.065   4.616   7.735 -1.0133  0.2473  0.0299
 7789SOL    HW234827   1.053   4.474   7.716  0.3712  0.1947 -0.0590
 7790SOL     OW34828   1.861   3.065  10.472 -0.5243 -0.1645  0.1353
 7790SOL    HW134829   1.884   3.143  10.422 -0.1569  0.7827  1.7906
 7790SOL    HW234830   1.892   2.987  10.426  0.5239  1.1916 -1.4553
 7791SOL     OW34831   4.689   1.155   7.583 -0.6506 -0.5646  0.5753
 7791SOL    HW134832   4.663   1.064   7.571  0.6099 -0.5936 -2.0981
 7791SOL    HW234833   4.607   1.194   7.553 -0.6270  0.4675  1.8247
 7792SOL     OW34834   2.564   0.084  13.923  0.0844 -0.2532  0.0442
 7792SOL    HW134835   2.478   0.057  13.890  0.2777 -1.9814  0.9546
 7792SOL    HW234836   2.567   0.178  13.906 -0.7627 -0.2586 -0.1783
 7793SOL     OW34837   1.975   2.463   1.738 -0.2189  0.0527  0.2739
 7793SOL    HW134838   2.013   2.417   1.813  3.2145  1.8880 -0.3652
 7793SOL    HW234839   2.020   2.547   1.745 -0.7932  0.2332  1.6856
 7794SOL     OW34840   0.177   4.184  15.937  0.2969 -0.2139 -0.3050
 7794SOL    HW134841   0.260   4.137  15.945  0.4154  0.0615  0.0780
 7794SOL    HW234842   0.197   4.270  15.974 -0.1056  0.1579 -0.9494
 7795SOL     OW34843   0.624   3.997   7.836  1.0556 -0.2549 -0.8708
 7795SOL    HW134844   0.667   3.957   7.761 -1.4825 -0.2055 -2.3483
 7795SOL    HW234845   0.672   4.078   7.850 -0.9908  0.4960  1.7825
 7796SOL     OW34846   2.149   0.466   0.936 -0.4549 -0.3433 -0.4058
 7796SOL    HW134847   2.175   0.463   0.845  2.0176 -0.2848  0.3080
 7796SOL    HW234848   2.066   0.417   0.928  0.3515 -1.4442 -2.0344
 7797SOL     OW34849   3.588   2.543   7.940  0.1146 -0.0628 -0.4100
 7797SOL    HW134850   3.626   2.460   7.912 -2.0178 -0.5734 -1.7985
 7797SOL    HW234851   3.552   2.576   7.858  4.5025  2.3379 -1.3425
 7798SOL     OW34852   2.303   3.430   3.915 -0.0043  0.2142 -0.2294
 7798SOL    HW134853   2.300   3.354   3.973  1.2478  1.2870  1.2261
 7798SOL    HW234854   2.363   3.486   3.964 -1.3264 -1.7125  3.5246
 7799SOL     OW34855   0.515   1.478  14.262 -0.0322 -0.5892  0.2819
 7799SOL    HW134856   0.490   1.466  14.170  3.2972  2.0647 -0.9637
 7799SOL    HW234857   0.554   1.565  14.250 -0.8570 -0.1714  0.6225
 7800SOL     OW34858   2.943   1.468   4.462  0.1473  0.1563 -0.2418
 7800SOL    HW134859   3.026   1.453   4.416 -0.5241 -0.4253 -1.2603
 7800SOL    HW234860   2.882   1.446   4.392  0.4100  1.6597 -0.9336
 7801SOL     OW34861   0.799   0.731   6.141 -0.2840  0.1728 -0.1171
 7801SOL    HW134862   0.748   0.671   6.087  1.2803 -1.0413 -0.2220
 7801SOL    HW234863   0.864   0.771   6.083 -2.0471  0.2992 -2.0237
 7802SOL     OW34864   3.319   3.546   2.688 -0.2687  0.5294  0.4981
 7802SOL    HW134865   3.256   3.544   2.759  0.0516  0.4161  0.7754
 7802SOL    HW234866   3.266   3.501   2.622 -0.6675 -1.4725  2.2064
 7803SOL     OW34867   0.263   2.018  16.030  0.1370 -0.4288  0.1807
 7803SOL    HW134868   0.318   2.096  16.031 -0.1337 -0.2682  3.0624
 7803SOL    HW234869   0.324   1.950  16.000 -0.1550 -1.9374  2.9836
 7804SOL     OW34870   4.215   3.547   2.899  0.5255 -0.2532  0.0494
 7804SOL    HW134871   4.275   3.509   2.963 -1.0573 -1.3063  0.9130
 7804SOL    HW234872   4.211   3.482   2.828 -1.3257 -0.3863  0.2655
 7805SOL     OW34873   2.900   2.690  12.997  0.0878 -0.9276 -0.4605
 7805SOL    HW134874   2.866   2.626  13.059  1.2939  0.3644  1.5239
 7805SOL    HW234875   2.981   2.653  12.963  0.9348 -0.7229  1.3909
 7806SOL     OW34876   3.604   2.600   2.589 -0.1954  0.0798  0.1303
 7806SOL    HW134877   3.542   2.660   2.547 -0.8368 -2.0814 -2.0304
 7806SOL    HW234878   3.604   2.626   2.681  3.7583 -1.9784  0.7106
 7807SOL     OW34879   2.182   1.923   6.325  0.6428 -0.2461  0.0903
 7807SOL    HW134880   2.210   1.896   6.413 -1.7414 -2.1247  0.2854
 7807SOL    HW234881   2.087   1.929   6.338  0.6412  0.4387 -0.2482
 7808SOL     OW34882   2.541   1.256   7.919  0.1237  0.1624  0.5714
 7808SOL    HW134883   2.461   1.291   7.959 -0.4448  1.9286 -2.1033
 7808SOL    HW234884   2.602   1.323   7.949  3.0938 -2.1778 -0.1768
 7809SOL     OW34885   1.116   4.312   4.511 -0.3320 -0.2041 -0.1363
 7809SOL    HW134886   1.170   4.351   4.442  0.3496 -0.4470  0.2612
 7809SOL    HW234887   1.167   4.233   4.529 -2.6158 -2.2454 -2.6177
 7810SOL     OW34888   2.417   3.440   4.957 -0.4986 -0.4058  0.1327
 7810SOL    HW134889   2.322   3.446   4.945 -0.4628  0.7679  0.4956
 7810SOL    HW234890   2.431   3.427   5.051  1.6824  1.1068  0.0154
 7811SOL     OW34891   2.596   4.640  14.188 -0.2518  0.0774  0.0757
 7811SOL    HW134892   2.612   4.688  14.106 -0.5623  1.3852  0.7900
 7811SOL    HW234893   2.505   4.612  14.177  0.7934 -3.0370 -0.5888
 7812SOL     OW34894   1.488   4.654   2.122 -0.0256 -0.2902  0.0812
 7812SOL    HW134895   1.522   4.671   2.210  0.5351  1.8371 -0.5385
 7812SOL    HW234896   1.488   0.017   2.083  1.4719  0.5054  1.8992
 7813SOL     OW34897   4.113   3.222   2.212  0.0022 -0.1174  0.0245
 7813SOL    HW134898   4.055   3.215   2.136  1.7845  0.9287 -1.4650
 7813SOL    HW234899   4.160   3.139   2.215  0.0348 -0.1648 -1.7286
 7814SOL     OW34900   1.908   2.989   0.920 -0.2534 -0.2621  0.5466
 7814SOL    HW134901   1.930   2.907   0.963 -2.1268 -1.1777 -0.2183
 7814SOL    HW234902   1.970   3.052   0.956 -0.0743  0.1739 -0.5178
 7815SOL     OW34903   4.271   0.475   4.833 -0.7449 -0.4100  0.2245
 7815SOL    HW134904   4.307   0.397   4.876 -0.2111 -0.9782 -1.2745
 7815SOL    HW234905   4.331   0.543   4.865 -0.2301 -1.8703  2.4542
 7816SOL     OW34906   4.639   4.555   3.059 -0.2134 -0.0572  0.1661
 7816SOL    HW134907   4.682   4.512   3.133 -1.1157  0.9352  1.2588
 7816SOL    HW234908   4.720   4.589   3.021  2.1051 -3.2554  2.2106
 7817SOL     OW34909   4.338   4.646   4.394  0.2131 -0.1924  0.1098
 7817SOL    HW134910   4.320   4.552   4.402  2.9962 -0.9205 -2.1880
 7817SOL    HW234911   4.392   4.643   4.315  0.3325  2.4102  0.0869
 7818SOL     OW34912   3.865   2.085   7.302 -0.2171  0.3991 -0.1595
 7818SOL    HW134913   3.823   1.999   7.294  0.5318 -0.0912  1.0856
 7818SOL    HW234914   3.880   2.079   7.397  0.8954  1.2302 -0.2865
 7819SOL     OW34915   0.972   1.194   7.819 -0.0039  0.1950 -0.1237
 7819SOL    HW134916   0.975   1.242   7.901 -0.5613 -1.4395  0.8590
 7819SOL    HW234917   0.907   1.127   7.843  0.9626  0.8706  4.4143
 7820SOL     OW34918   3.575   3.512  13.004  0.9700  0.6366 -0.0913
 7820SOL    HW134919   3.573   3.563  13.085  0.2167  1.1062 -0.4061
 7820SOL    HW234920   3.538   3.429  13.036  0.2990  0.9516 -0.0558
 7821SOL     OW34921   4.060   2.832   4.397  0.0181 -0.5533  0.2019
 7821SOL    HW134922   4.030   2.909   4.443  1.7477 -0.5430  1.3173
 7821SOL    HW234923   4.089   2.873   4.316  0.0388 -0.8235  0.0714
 7822SOL     OW34924   2.159   3.632   7.425 -0.3615  0.7476  0.1193
 7822SOL    HW134925   2.247   3.604   7.399 -0.1465  1.2532  0.2868
 7822SOL    HW234926   2.181   3.725   7.431 -0.4380  0.8665 -1.3902
 7823SOL     OW34927   3.914   0.426  11.249 -0.3124 -0.1837  0.1870
 7823SOL    HW134928   3.842   0.442  11.187  2.5375  1.6408 -2.6133
 7823SOL    HW234929   3.970   0.502  11.234  0.6310 -0.7636  0.8595
 7824SOL     OW34930   2.743   3.690  16.798  0.5192  0.5755  0.1951
 7824SOL    HW134931   2.801   3.684  16.722 -0.4073  1.4291 -0.5757
 7824SOL    HW234932   2.667   3.734  16.759  0.6981  0.5746 -0.1605
 7825SOL     OW34933   4.664   3.076  10.468 -0.5069 -0.2027  0.7662
 7825SOL    HW134934   4.583   3.024  10.465 -0.4066 -0.4813  2.6669
 7825SOL    HW234935   4.637   3.149  10.523 -1.2700 -0.9320  1.3751
 7826SOL     OW34936   1.093   4.291   5.086 -0.2973  0.0088 -0.9631
 7826SOL    HW134937   1.067   4.338   5.165  1.5004  0.4673 -0.6377
 7826SOL    HW234938   1.016   4.307   5.032 -0.4169  1.7034 -0.2782
 7827SOL     OW34939   0.298   3.079  14.197  0.3033 -0.0639  0.2215
 7827SOL    HW134940   0.229   3.130  14.155  1.1741  1.3391  0.4710
 7827SOL    HW234941   0.363   3.143  14.226  1.7911 -1.2979 -0.3854
 7828SOL     OW34942   1.661   3.525   2.764  0.0350 -0.5362  0.2865
 7828SOL    HW134943   1.697   3.460   2.704  1.0682  0.0877  0.2296
 7828SOL    HW234944   1.725   3.530   2.835  1.4717 -1.6825 -0.9368
 7829SOL     OW34945   2.984   4.509   9.515  0.0258  0.0195 -0.6105
 7829SOL    HW134946   2.992   4.546   9.603  1.5486  0.6497 -1.0098
 7829SOL    HW234947   2.891   4.528   9.498 -0.2006 -2.2582 -1.8739
 7830SOL     OW34948   2.136   0.649   8.210 -0.7275 -0.6198 -0.1767
 7830SOL    HW134949   2.080   0.577   8.180 -1.0927  0.2568 -1.6204
 7830SOL    HW234950   2.115   0.630   8.301 -0.8814 -1.1762 -0.3319
 7831SOL     OW34951   1.750   0.732   8.770  0.2637 -0.2113  0.2438
 7831SOL    HW134952   1.751   0.824   8.797 -0.1142  0.3391 -1.5552
 7831SOL    HW234953   1.749   0.685   8.853 -1.9358 -0.7637 -0.0980
 7832SOL     OW34954   3.985   2.573   2.496  0.1747 -0.6099 -0.3142
 7832SOL    HW134955   4.071   2.536   2.475  0.0519 -2.9112  3.1032
 7832SOL    HW234956   3.988   2.554   2.590  1.8055 -1.3261 -0.5085
 7833SOL     OW34957   1.487   0.602   0.908  0.0535 -0.7299  0.4599
 7833SOL    HW134958   1.411   0.574   0.960  0.0095 -1.5145 -0.0262
 7833SOL    HW234959   1.563   0.546   0.923  1.4115  0.5403 -1.7679
 7834SOL     OW34960   2.332   4.182   4.074 -0.2158  0.3220  0.3885
 7834SOL    HW134961   2.273   4.227   4.014  0.8699  0.4846 -0.5586
 7834SOL    HW234962   2.414   4.229   4.055 -0.3327  0.3070 -0.1511
 7835SOL     OW34963   4.430   0.407  16.588 -0.0948  0.1139  0.3779
 7835SOL    HW134964   4.417   0.364  16.673 -0.5678 -0.8699 -0.1954
 7835SOL    HW234965   4.444   0.340  16.521 -1.2595  0.2420  0.0144
 7836SOL     OW34966   2.325   0.138  10.399  0.0730  0.0165  0.2254
 7836SOL    HW134967   2.357   0.200  10.464 -0.4941  1.5972 -0.9868
 7836SOL    HW234968   2.400   0.086  10.370 -1.7687 -1.6319 -1.6425
 7837SOL     OW34969   0.406   2.293   3.037 -0.5503 -0.2035  0.1840
 7837SOL    HW134970   0.318   2.321   3.010  0.0029 -1.5241 -2.9854
 7837SOL    HW234971   0.456   2.365   3.077  2.0192 -0.7213 -2.1572
 7838SOL     OW34972   3.611   3.164  17.592  0.1698  0.1487 -0.6879
 7838SOL    HW134973   3.681   3.185  17.654 -0.1276  0.1717 -0.3656
 7838SOL    HW234974   3.617   3.069  17.587 -1.0489  0.2060 -3.3697
 7839SOL     OW34975   2.924   3.775  16.608 -0.2635 -0.5207  0.7449
 7839SOL    HW134976   2.992   3.723  16.566  1.4328  2.5340 -0.2694
 7839SOL    HW234977   2.889   3.820  16.531 -0.4071  0.7357  1.5435
 7840SOL     OW34978   4.038   4.010   8.280 -0.2655 -0.0376  0.1297
 7840SOL    HW134979   4.090   4.008   8.360  1.1718 -1.3428 -0.8394
 7840SOL    HW234980   4.066   4.092   8.239  1.9288 -0.0328  1.6807
 7841SOL     OW34981   1.555   3.942   8.381 -0.1649 -0.2567  0.2515
 7841SOL    HW134982   1.557   3.859   8.334  2.9498 -3.1509  5.5181
 7841SOL    HW234983   1.481   3.931   8.441 -1.5100  2.7645 -0.8110
 7842SOL     OW34984   3.393   2.382   9.815 -0.3254 -0.1088  0.0936
 7842SOL    HW134985   3.353   2.411   9.897  0.7640 -1.0625  0.9665
 7842SOL    HW234986   3.477   2.428   9.816  1.4173 -3.2052 -2.1333
 7843SOL     OW34987   2.276   1.551   8.339  0.2825  0.4025 -0.4670
 7843SOL    HW134988   2.191   1.574   8.377  1.2247  1.1585  1.1520
 7843SOL    HW234989   2.305   1.639   8.313  1.8549  0.4323  1.4157
 7844SOL     OW34990   1.139   2.512   9.089 -0.0517 -0.8792 -0.4841
 7844SOL    HW134991   1.106   2.481   9.173  1.8177 -0.1553  0.5209
 7844SOL    HW234992   1.230   2.532   9.110  0.9223 -2.0077 -3.5638
 7845SOL     OW34993   0.965   2.473   6.431 -0.1724 -0.0671 -0.1044
 7845SOL    HW134994   0.911   2.534   6.481  0.9889  1.0715 -0.2253
 7845SOL    HW234995   1.052   2.508   6.449 -1.4190  2.8079  0.3329
 7846SOL     OW34996   0.542   3.888  11.362 -0.3314 -0.1956 -0.2668
 7846SOL    HW134997   0.464   3.840  11.389 -1.2093  2.7257  2.3131
 7846SOL    HW234998   0.520   3.962  11.418 -2.0728 -2.2309  1.7536
 7847SOL     OW34999   2.544   3.096   1.208  0.1519  0.1519  0.1831
 7847SOL    HW135000   2.591   3.159   1.263  1.4708  0.2254 -1.0330
 7847SOL    HW235001   2.462   3.142   1.189  0.0701  0.4535  1.2271
 7848SOL     OW35002   0.362   3.732  16.345 -0.2179  0.1718 -0.0316
 7848SOL    HW135003   0.397   3.771  16.426 -0.3793 -0.9507  0.5817
 7848SOL    HW235004   0.438   3.687  16.310  2.0693  3.8900  0.1417
 7849SOL     OW35005   1.437   3.862   4.513 -0.1432  0.5969  0.4184
 7849SOL    HW135006   1.365   3.820   4.465  1.1565 -0.0161 -0.9755
 7849SOL    HW235007   1.514   3.835   4.464 -1.3052 -0.3533 -0.8971
 7850SOL     OW35008   2.613   1.692   5.248  0.2393 -0.2978 -0.2101
 7850SOL    HW135009   2.700   1.653   5.241 -0.0106 -0.7380 -0.8801
 7850SOL    HW235010   2.619   1.764   5.311  1.9971 -1.0075  0.4102
 7851SOL     OW35011   1.562   0.642   2.663 -0.3664  0.3977 -0.3059
 7851SOL    HW135012   1.526   0.718   2.708 -0.5600 -0.0187  0.2477
 7851SOL    HW235013   1.585   0.685   2.581  0.0663 -1.4161 -1.1375
 7852SOL     OW35014   4.587   2.123   5.194  0.9312 -0.5681 -0.5969
 7852SOL    HW135015   4.509   2.132   5.138  0.3270 -0.3863  0.2696
 7852SOL    HW235016   4.599   2.216   5.215 -0.9689 -0.6303  0.7898
 7853SOL     OW35017   1.835   1.898   5.075  0.4686  0.0250  0.0557
 7853SOL    HW135018   1.834   1.818   5.129 -2.0997 -0.8902 -1.3434
 7853SOL    HW235019   1.894   1.857   5.011  0.8904 -0.7523  0.9303
 7854SOL     OW35020   0.461   3.468  13.767  0.4592  0.2631 -0.3235
 7854SOL    HW135021   0.421   3.512  13.691  0.8734 -0.3580 -0.9031
 7854SOL    HW235022   0.465   3.539  13.831 -0.9405  0.0124  0.0400
 7855SOL     OW35023   2.226   0.579   8.752  0.6092 -0.0531  0.2332
 7855SOL    HW135024   2.245   0.638   8.825  1.1576 -2.2213  1.8611
 7855SOL    HW235025   2.266   0.500   8.790  0.5553  0.3527  1.1419
 7856SOL     OW35026   0.599   2.896  14.295  0.4684  0.0913  0.0653
 7856SOL    HW135027   0.535   2.827  14.279  0.3336 -0.0086  1.0778
 7856SOL    HW235028   0.563   2.942  14.371 -1.9241 -2.5341  0.5245
 7857SOL     OW35029   1.845   2.476  15.591 -0.6826  0.9578 -0.4039
 7857SOL    HW135030   1.883   2.563  15.583 -0.7580  0.6799 -3.8182
 7857SOL    HW235031   1.863   2.446  15.502 -2.8604  0.2050 -0.5826
 7858SOL     OW35032   3.757   2.476   2.387 -0.4746  0.3031 -0.0280
 7858SOL    HW135033   3.700   2.529   2.443  0.0554 -0.3759  1.1465
 7858SOL    HW235034   3.839   2.523   2.401 -0.4177 -0.5833  2.6940
 7859SOL     OW35035   3.128   0.433   2.237  0.2816 -0.3349 -0.0889
 7859SOL    HW135036   3.057   0.400   2.183  0.8800  2.3837 -2.5076
 7859SOL    HW235037   3.165   0.504   2.186 -0.5281 -0.4007 -0.7654
 7860SOL     OW35038   3.903   1.451  15.412 -0.4867  0.8199 -0.1290
 7860SOL    HW135039   3.913   1.483  15.322  1.6738  0.3752 -0.0462
 7860SOL    HW235040   3.832   1.513  15.431 -1.2209 -0.2054  0.4499
 7861SOL     OW35041   1.723   3.147   8.074  0.6485  0.6275 -0.2568
 7861SOL    HW135042   1.642   3.157   8.122 -0.8650  0.2303 -2.7211
 7861SOL    HW235043   1.700   3.073   8.018  2.0833 -0.8642  1.1167
 7862SOL     OW35044   3.375   0.353   3.765 -1.4038  0.2817 -0.1494
 7862SOL    HW135045   3.381   0.430   3.709  2.8328 -2.8125 -3.8469
 7862SOL    HW235046   3.282   0.346   3.785 -0.8859  0.0021  2.2460
 7863SOL     OW35047   0.414   2.736   9.967  0.0961  0.3296 -0.2331
 7863SOL    HW135048   0.338   2.795   9.962 -0.7763 -0.7851 -0.2886
 7863SOL    HW235049   0.370   2.651   9.971 -0.7229  0.6001 -2.9918
 7864SOL     OW35050   1.845   4.272  10.328 -0.1138  0.1416 -0.3356
 7864SOL    HW135051   1.855   4.366  10.312 -2.4003  0.1344 -1.8020
 7864SOL    HW235052   1.802   4.242  10.248 -1.2363  0.2695  0.2192
 7865SOL     OW35053   0.223   4.005   3.004 -0.6052 -0.6414  0.2192
 7865SOL    HW135054   0.190   3.925   2.964  0.5748  0.3544 -2.7700
 7865SOL    HW235055   0.146   4.063   3.000 -0.0460  0.1905  1.5088
 7866SOL     OW35056   0.649   2.590   9.504  0.1743  0.1850 -0.3125
 7866SOL    HW135057   0.591   2.624   9.572  0.7731  1.0638 -0.2510
 7866SOL    HW235058   0.594   2.531   9.452 -1.9975  0.7057  1.3998
 7867SOL     OW35059   2.735   0.267  14.683  0.0122 -0.8157 -0.3294
 7867SOL    HW135060   2.817   0.311  14.704 -0.7485  0.4041  0.1073
 7867SOL    HW235061   2.759   0.192  14.629  1.0541  0.4659 -1.6390
 7868SOL     OW35062   1.055   1.596  16.994  0.4459 -0.4803 -0.2560
 7868SOL    HW135063   1.081   1.671  16.941  1.4098 -0.1023  0.7581
 7868SOL    HW235064   1.008   1.638  17.067  1.0845 -0.0468 -0.0974
 7869SOL     OW35065   2.908   0.632   6.709 -0.3133 -0.0135  0.3208
 7869SOL    HW135066   2.884   0.724   6.698  0.4570  0.0723 -0.6113
 7869SOL    HW235067   2.993   0.647   6.749 -0.2326  0.5356 -0.0574
 7870SOL     OW35068   3.002   4.618   3.222  0.1696  0.5287  0.0466
 7870SOL    HW135069   3.069   4.637   3.156  0.6201  0.0363  0.3534
 7870SOL    HW235070   3.002   4.701   3.269 -0.9918  0.4294  0.2137
 7871SOL     OW35071   2.287   4.682   7.610 -0.3208  0.3575 -0.4350
 7871SOL    HW135072   2.254   4.715   7.526  0.6269 -0.7941 -1.2472
 7871SOL    HW235073   2.225   4.610   7.622  1.3896 -1.4072 -2.2089
 7872SOL     OW35074   4.163   1.743  15.590  0.0532  0.3364 -0.0777
 7872SOL    HW135075   4.257   1.750  15.608 -0.0982  0.0352  0.8190
 7872SOL    HW235076   4.156   1.821  15.536 -1.4420 -0.1251 -0.5262
 7873SOL     OW35077   1.608   1.710   5.766 -0.3008 -0.5947  0.3363
 7873SOL    HW135078   1.587   1.622   5.798  0.6132 -0.7546  0.4852
 7873SOL    HW235079   1.639   1.687   5.679 -0.9658  2.2697 -0.6501
 7874SOL     OW35080   3.833   1.678   8.548 -0.3541  0.4894 -0.8505
 7874SOL    HW135081   3.845   1.764   8.588 -3.2484  0.1620  0.7480
 7874SOL    HW235082   3.741   1.655   8.564  0.0785 -1.8515 -1.7290
 7875SOL     OW35083   0.596   2.406   8.254 -0.2610 -0.1528  0.2295
 7875SOL    HW135084   0.517   2.413   8.200 -0.2247 -2.1768 -0.0894
 7875SOL    HW235085   0.588   2.322   8.297 -0.1507  0.7409  1.9887
 7876SOL     OW35086   0.306   4.529   7.053 -0.4851  0.1824  0.7111
 7876SOL    HW135087   0.323   4.440   7.086  1.2668  0.9325  1.8797
 7876SOL    HW235088   0.230   4.507   7.000 -0.9046 -1.3250  1.9169
 7877SOL     OW35089   2.781   0.772  12.329  0.2354 -0.3443  0.3584
 7877SOL    HW135090   2.768   0.696  12.386 -0.4631  1.6701  2.8703
 7877SOL    HW235091   2.825   0.736  12.252 -1.4092 -0.1763 -0.6573
 7878SOL     OW35092   0.885   3.962   2.265 -0.1592  0.5373 -0.2507
 7878SOL    HW135093   0.843   3.971   2.180  0.3781 -2.3847 -0.8474
 7878SOL    HW235094   0.874   3.868   2.280  0.0613  0.3746 -1.1498
 7879SOL     OW35095   1.398   3.399   3.583 -0.0980  0.1384 -0.0178
 7879SOL    HW135096   1.354   3.481   3.562  0.0109 -0.0205 -0.8659
 7879SOL    HW235097   1.490   3.423   3.590  0.0331 -0.4714  0.3811
 7880SOL     OW35098   1.068   2.118   5.299 -0.1198  0.2407 -0.4507
 7880SOL    HW135099   0.976   2.139   5.283 -0.0326 -1.6000 -3.3141
 7880SOL    HW235100   1.111   2.195   5.336  0.2018 -0.1300 -0.0533
 7881SOL     OW35101   2.102   4.126  10.419  0.0348  0.5346  0.3833
 7881SOL    HW135102   2.046   4.172  10.356 -0.3896 -1.5205 -0.7365
 7881SOL    HW235103   2.052   4.054  10.457 -1.4848  1.1150 -0.5235
 7882SOL     OW35104   4.199   1.745   7.748  0.1940  0.0342 -0.2885
 7882SOL    HW135105   4.141   1.670   7.735 -0.8632  0.9599 -0.9016
 7882SOL    HW235106   4.275   1.701   7.788  1.5952  2.2487 -0.5115
 7883SOL     OW35107   0.966   0.384   3.378  0.3516 -0.6119 -0.3546
 7883SOL    HW135108   1.054   0.408   3.408  0.0332  0.3574 -0.1804
 7883SOL    HW235109   0.930   0.358   3.463 -3.0894  3.5985 -0.4996
 7884SOL     OW35110   1.352   1.149   9.682 -0.2690  0.5357 -0.7207
 7884SOL    HW135111   1.295   1.095   9.737  0.4340 -0.0829 -0.6033
 7884SOL    HW235112   1.442   1.124   9.703 -0.5837 -0.7051 -0.8368
 7885SOL     OW35113   2.890   2.874   0.699  0.0484  0.3788  1.0665
 7885SOL    HW135114   2.858   2.863   0.609 -1.2997  0.9184  1.4813
 7885SOL    HW235115   2.986   2.872   0.693 -0.0736 -0.8482 -0.7370
 7886SOL     OW35116   2.097   2.131   8.509  0.0429 -0.2540  0.4578
 7886SOL    HW135117   2.120   2.223   8.510  2.2378 -0.7727 -1.7064
 7886SOL    HW235118   2.110   2.112   8.602 -1.3850 -3.5567  0.0010
 7887SOL     OW35119   4.423   1.666  15.932 -0.2166 -0.3402  0.0065
 7887SOL    HW135120   4.363   1.621  15.990 -0.1311 -0.4572  0.0045
 7887SOL    HW235121   4.496   1.604  15.928  0.2475  0.0103  3.0447
 7888SOL     OW35122   3.941   2.546   0.331 -0.3054  0.0489  0.2525
 7888SOL    HW135123   3.871   2.516   0.273  0.4403 -1.2906  0.0514
 7888SOL    HW235124   3.919   2.491   0.407 -0.3748  1.1508  1.0252
 7889SOL     OW35125   0.018   1.384   4.002 -0.4998  0.0881 -0.0763
 7889SOL    HW135126   0.027   1.301   3.954 -4.2095  0.0045 -0.6657
 7889SOL    HW235127   0.046   1.356   4.089  0.4926 -1.0958 -0.7665
 7890SOL     OW35128   2.342   4.253   8.569 -0.2754  0.4194 -0.1591
 7890SOL    HW135129   2.256   4.212   8.562  0.5642 -1.0684 -1.8753
 7890SOL    HW235130   2.338   4.308   8.647  2.2035  0.5337 -0.1133
 7891SOL     OW35131   1.926   4.673   9.900  0.4949  0.0688  0.4317
 7891SOL    HW135132   1.884   4.660   9.985  0.9105  0.9482  0.7704
 7891SOL    HW235133   1.970   4.589   9.888 -0.0938 -0.1560 -0.1714
 7892SOL     OW35134   2.331   0.124   6.673  0.0482  0.4793 -0.5340
 7892SOL    HW135135   2.253   0.069   6.673  1.9753 -2.2973 -3.0104
 7892SOL    HW235136   2.306   0.211   6.705  0.3962  0.7811 -1.0699
 7893SOL     OW35137   4.627   2.695   8.383  0.2671  0.2812  0.0036
 7893SOL    HW135138   4.662   2.637   8.450 -1.6335 -0.4938  0.3249
 7893SOL    HW235139   4.538   2.660   8.380 -0.3827  1.8663  0.9299
 7894SOL     OW35140   1.331   1.221   5.582 -0.0609  0.2542 -0.0909
 7894SOL    HW135141   1.325   1.148   5.519 -0.5902 -0.5147  0.8532
 7894SOL    HW235142   1.240   1.250   5.593  0.6622  3.2073 -1.7331
 7895SOL     OW35143   0.614   2.930   0.730  0.1943  0.0027  0.2884
 7895SOL    HW135144   0.671   2.864   0.690  0.1170  0.6006 -0.7862
 7895SOL    HW235145   0.643   3.003   0.676 -2.0539  0.5421 -0.1800
 7896SOL     OW35146   1.458   0.831   8.337  0.4720 -0.0813 -0.1708
 7896SOL    HW135147   1.514   0.844   8.261  3.2127 -1.5658  1.6124
 7896SOL    HW235148   1.525   0.819   8.404 -0.8209 -0.1262  1.1339
 7897SOL     OW35149   1.002   2.679   8.927  0.0837 -0.2484 -0.3509
 7897SOL    HW135150   0.944   2.611   8.894  1.0107 -0.6106 -1.2318
 7897SOL    HW235151   1.037   2.626   8.999 -0.3657  0.1334  0.1559
 7898SOL     OW35152   1.059   2.381  14.724 -0.3463  0.4026 -0.4133
 7898SOL    HW135153   1.132   2.320  14.706  2.0145  2.3532  2.5084
 7898SOL    HW235154   1.094   2.445  14.786  0.1076  0.6615 -0.9316
 7899SOL     OW35155   0.851   3.999   5.046 -0.1732 -0.2980  0.1861
 7899SOL    HW135156   0.940   3.999   5.081 -0.3922 -2.1160  0.7523
 7899SOL    HW235157   0.839   3.907   5.022 -1.1425  0.1079 -0.9110
 7900SOL     OW35158   1.909   1.681  16.731  0.4105  0.4141 -0.0325
 7900SOL    HW135159   1.851   1.753  16.704 -2.8799 -2.2864 -0.0858
 7900SOL    HW235160   1.968   1.672  16.656  0.1050  2.4493 -0.5214
 7901SOL     OW35161   0.093   1.029   6.684 -0.3919 -0.1362  0.5824
 7901SOL    HW135162   0.163   0.973   6.651 -1.4182 -0.1857 -1.5011
 7901SOL    HW235163   0.024   1.014   6.619  1.1988  0.9972 -1.3549
 7902SOL     OW35164   1.560   0.640   0.229  0.8193  0.6117  0.0205
 7902SOL    HW135165   1.486   0.587   0.198 -0.0198  2.3950 -0.9907
 7902SOL    HW235166   1.515   0.724   0.217  0.8430  0.2294 -2.7614
 7903SOL     OW35167   2.510   4.560   6.307 -0.1421 -0.3264 -0.6360
 7903SOL    HW135168   2.596   4.552   6.266  0.9389 -1.9280  1.9883
 7903SOL    HW235169   2.466   4.478   6.285 -1.4632  0.2452 -0.1491
 7904SOL     OW35170   1.487   2.038   2.985  0.0758 -0.1268  0.5842
 7904SOL    HW135171   1.471   1.947   2.962  1.3605 -0.2118  0.0227
 7904SOL    HW235172   1.403   2.063   3.022 -0.0528  0.5523 -0.1604
 7905SOL     OW35173   4.551   1.196   4.497 -0.0065  0.0122 -0.1163
 7905SOL    HW135174   4.539   1.187   4.591 -2.8058  0.1911 -0.4631
 7905SOL    HW235175   4.628   1.252   4.506  0.3213  0.3031 -4.4123
 7906SOL     OW35176   2.294   2.986   7.476 -0.0841 -0.9150 -0.2143
 7906SOL    HW135177   2.388   2.970   7.473  0.3999  2.0700 -0.7198
 7906SOL    HW235178   2.256   2.900   7.457 -1.4221 -0.2823 -0.3876
 7907SOL     OW35179   4.328   4.248  16.630 -0.1404 -0.8498 -0.3145
 7907SOL    HW135180   4.385   4.187  16.677  2.0312 -1.3826 -3.6928
 7907SOL    HW235181   4.370   4.333  16.643 -1.9444  0.1435 -0.9035
 7908SOL     OW35182   2.670   2.633   7.298  0.1906  0.3157 -0.4740
 7908SOL    HW135183   2.607   2.630   7.225 -0.6377  0.8581  0.2088
 7908SOL    HW235184   2.626   2.583   7.367 -1.1914  0.3706 -1.3102
 7909SOL     OW35185   4.559   4.006   4.006  0.0864 -0.5484 -0.0633
 7909SOL    HW135186   4.633   4.060   4.035  0.3052 -0.8192 -0.1181
 7909SOL    HW235187   4.536   4.065   3.934 -0.8631 -0.4237  0.3462
 7910SOL     OW35188   1.324   1.137   3.174  0.1757 -0.4167 -0.2269
 7910SOL    HW135189   1.312   1.055   3.222 -0.9616  1.1612  2.1875
 7910SOL    HW235190   1.244   1.176   3.209  0.5544 -0.3921  0.6117
 7911SOL     OW35191   3.842   0.581   8.076 -0.6190 -0.5428  0.0061
 7911SOL    HW135192   3.838   0.668   8.035 -0.6443 -0.3818  0.3546
 7911SOL    HW235193   3.803   0.597   8.162 -0.6590 -1.8298  0.2181
 7912SOL     OW35194   3.312   4.093   2.398 -0.3947  0.1724  0.4835
 7912SOL    HW135195   3.399   4.087   2.437 -0.3068 -0.4343  0.1891
 7912SOL    HW235196   3.281   4.005   2.419  0.3448 -0.1899  0.0686
 7913SOL     OW35197   1.958   3.043   8.309  0.2369 -0.1658 -0.4174
 7913SOL    HW135198   1.990   2.966   8.357  0.9423  0.3329 -0.0768
 7913SOL    HW235199   1.886   2.999   8.263 -1.0786  0.1860  1.3226
 7914SOL     OW35200   3.830   2.922   1.403 -0.5651  0.6191  0.0272
 7914SOL    HW135201   3.918   2.905   1.438 -1.1238 -0.9157  0.6707
 7914SOL    HW235202   3.770   2.944   1.475  1.5534  0.3757  1.8797
 7915SOL     OW35203   4.504   0.337   2.065  0.3516 -0.2886 -0.5496
 7915SOL    HW135204   4.559   0.373   1.995  0.3317  1.0256  0.1171
 7915SOL    HW235205   4.462   0.420   2.082 -1.4204 -1.2007 -0.4900
 7916SOL     OW35206   2.601   2.714   4.490  0.2173  0.4921  0.1117
 7916SOL    HW135207   2.662   2.697   4.418  0.2676  3.3331 -0.5388
 7916SOL    HW235208   2.551   2.633   4.499  0.5588  0.4960  1.9913
 7917SOL     OW35209   2.777   2.755   8.538  0.2816  0.3302 -0.5914
 7917SOL    HW135210   2.849   2.726   8.595  0.3822  1.1593 -0.2883
 7917SOL    HW235211   2.715   2.766   8.611  0.3311  1.6605 -0.7477
 7918SOL     OW35212   4.271   3.251   5.024 -0.2883 -0.2417  0.2682
 7918SOL    HW135213   4.305   3.163   5.011  0.8832 -0.3530  3.9886
 7918SOL    HW235214   4.349   3.297   4.992 -0.1047 -0.1514  0.8450
 7919SOL     OW35215   0.318   4.474  14.829  0.0018 -0.6447  0.0815
 7919SOL    HW135216   0.370   4.553  14.810 -1.2688  1.1286  3.8634
 7919SOL    HW235217   0.359   4.442  14.909  0.7904 -1.2375 -0.5610
 7920SOL     OW35218   0.770   4.403   6.128 -0.4756  0.3239 -0.2427
 7920SOL    HW135219   0.734   4.343   6.194 -1.4337 -1.9982 -2.8503
 7920SOL    HW235220   0.833   4.454   6.179 -0.3345 -0.1208  0.0339
 7921SOL     OW35221   4.176   1.424   3.403 -0.3348  0.4958  0.5081
 7921SOL    HW135222   4.267   1.404   3.383 -0.6995 -0.7380  0.1238
 7921SOL    HW235223   4.134   1.340   3.387 -1.7489  0.8736  2.2063
 7922SOL     OW35224   0.418   2.769   4.197  0.0529  0.1753  0.9597
 7922SOL    HW135225   0.387   2.789   4.109  0.0990 -1.0807  0.6669
 7922SOL    HW235226   0.495   2.715   4.176  0.5458  0.3539  2.2786
 7923SOL     OW35227   1.208   0.128   5.417  0.2353 -0.4236  0.1029
 7923SOL    HW135228   1.280   0.066   5.405  1.3073  0.8848 -0.2499
 7923SOL    HW235229   1.195   0.163   5.329 -0.1814 -1.3315 -0.1943
 7924SOL     OW35230   4.418   4.238  14.530  0.1409  0.3928  0.2989
 7924SOL    HW135231   4.493   4.297  14.523  2.2535 -2.0585  2.4002
 7924SOL    HW235232   4.399   4.234  14.436  0.6971  2.1511  0.1051
 7925SOL     OW35233   3.227   1.100   1.348  0.2254  0.7067 -0.2823
 7925SOL    HW135234   3.197   1.177   1.398  0.1050 -0.0936  0.8750
 7925SOL    HW235235   3.302   1.070   1.399  1.6245  2.2988 -1.4111
 7926SOL     OW35236   4.136   3.757   2.396  0.6581 -0.4244 -0.2885
 7926SOL    HW135237   4.226   3.734   2.421  1.3098  2.6937  0.2759
 7926SOL    HW235238   4.110   3.705   2.320  0.1165 -0.3453 -0.1577
 7927SOL     OW35239   4.553   3.858   3.205  0.1458  0.5876  0.1350
 7927SOL    HW135240   4.542   3.951   3.183 -1.3910  0.1694 -0.8648
 7927SOL    HW235241   4.491   3.820   3.143 -0.0845  1.9326 -0.4601
 7928SOL     OW35242   4.427   3.300   4.451  0.2584 -0.5515 -0.6238
 7928SOL    HW135243   4.514   3.266   4.470  0.7642  0.3018 -1.3960
 7928SOL    HW235244   4.435   3.324   4.359 -0.0010  3.4408  0.3837
 7929SOL     OW35245   0.432   2.011   5.734 -0.3783 -0.2207  0.2144
 7929SOL    HW135246   0.392   2.012   5.821 -0.4146  0.3244  0.1865
 7929SOL    HW235247   0.401   1.929   5.695  0.2899 -0.3739 -0.0050
 7930SOL     OW35248   0.356   2.840   3.748 -0.9702 -0.0689 -0.1578
 7930SOL    HW135249   0.303   2.907   3.792 -1.5430  0.9458 -2.4222
 7930SOL    HW235250   0.441   2.877   3.771 -0.6764 -0.8801  0.0578
 7931SOL     OW35251   0.533   4.228  16.586 -0.3322  0.3718  0.4761
 7931SOL    HW135252   0.600   4.253  16.650 -1.0550  3.0459  0.1807
 7931SOL    HW235253   0.585   4.238  16.506  0.0703  0.7444  0.7843
 7932SOL     OW35254   0.618   1.834   8.307  0.2408 -0.5927  0.1518
 7932SOL    HW135255   0.676   1.863   8.237  0.5140  1.3479  1.2002
 7932SOL    HW235256   0.666   1.870   8.381 -0.1612 -0.0286  0.1361
 7933SOL     OW35257   2.317   2.964   0.908 -0.1652  0.2390  0.2579
 7933SOL    HW135258   2.254   2.924   0.968 -0.8143 -1.0432 -1.2743
 7933SOL    HW235259   2.320   3.055   0.938  0.2097  0.6976 -1.1613
 7934SOL     OW35260   0.703   0.689   7.061 -0.7125  0.2822 -0.0715
 7934SOL    HW135261   0.799   0.693   7.055 -0.8960  0.9687 -2.5283
 7934SOL    HW235262   0.673   0.768   7.105 -0.5923 -1.6235  3.4373
 7935SOL     OW35263   2.084   0.031  11.355 -0.1899 -0.2386 -0.3584
 7935SOL    HW135264   2.000   0.072  11.375 -0.2839 -0.3370 -0.5560
 7935SOL    HW235265   2.095   0.033  11.260 -0.4311  2.3201 -0.3481
 7936SOL     OW35266   1.704   4.679   8.779  0.0771  0.1481  0.1011
 7936SOL    HW135267   1.789   4.663   8.820  0.6188  1.1607 -0.6063
 7936SOL    HW235268   1.671   4.595   8.750 -0.2670  0.6800 -1.0388
 7937SOL     OW35269   3.734   3.605  17.532  0.0034 -0.0172  0.4066
 7937SOL    HW135270   3.660   3.599  17.471  0.6247  0.6019 -0.4261
 7937SOL    HW235271   3.781   3.678  17.492 -2.4981  1.1953 -0.3300
 7938SOL     OW35272   1.868   1.941   8.946 -0.7746 -0.2846 -0.0720
 7938SOL    HW135273   1.776   1.944   8.970 -0.8569  1.8155 -0.6293
 7938SOL    HW235274   1.877   1.860   8.895  1.5811  0.3433 -0.6637
 7939SOL     OW35275   0.293   0.211   4.471  0.0067  0.1161  0.4807
 7939SOL    HW135276   0.353   0.231   4.399 -1.0722 -0.9464 -0.7099
 7939SOL    HW235277   0.323   0.129   4.511 -0.0098  0.9133  2.1440
 7940SOL     OW35278   0.036   1.917   6.849  0.5303  0.3975 -0.2295
 7940SOL    HW135279   0.000   1.829   6.838 -0.4958  0.7226  0.5230
 7940SOL    HW235280   0.002   1.949   6.932 -1.3642  0.4117 -1.0241
 7941SOL     OW35281   2.190   4.656  11.063  0.6221  0.1581  0.1007
 7941SOL    HW135282   2.248   4.659  11.139 -0.2072  1.7238  0.6887
 7941SOL    HW235283   2.149   4.573  11.088  3.3856 -1.2622 -0.0444
 7942SOL     OW35284   1.329   3.395   7.961  0.0488  0.3453  0.3928
 7942SOL    HW135285   1.300   3.463   7.900  0.7255  0.4009  0.1303
 7942SOL    HW235286   1.248   3.384   8.010  0.2329 -1.7904  0.2379
 7943SOL     OW35287   1.099   4.120   0.437 -0.3941  0.0388 -0.1708
 7943SOL    HW135288   1.107   4.203   0.484 -1.3454  0.0927 -0.1028
 7943SOL    HW235289   1.062   4.073   0.512  0.0316  3.0483  1.9626
 7944SOL     OW35290   4.622   1.182   4.933 -0.2206 -0.0014  0.2101
 7944SOL    HW135291   4.555   1.149   4.874  0.8251  2.4274 -2.3550
 7944SOL    HW235292   4.642   1.259   4.879  2.1074 -0.1376  0.8624
 7945SOL     OW35293   2.837   0.005   1.687  0.1454  0.1576  0.2473
 7945SOL    HW135294   2.793   4.690   1.612 -1.1157  0.1345  1.0029
 7945SOL    HW235295   2.928   4.725   1.659 -0.4098  0.4484 -1.6256
 7946SOL     OW35296   3.020   2.403   5.278  0.1705  0.4397  0.7630
 7946SOL    HW135297   3.084   2.388   5.209  1.5422 -1.2804  2.4291
 7946SOL    HW235298   3.063   2.462   5.340 -2.6198 -1.0834  4.1703
 7947SOL     OW35299   3.529   2.899   7.740  0.6128 -0.1680 -0.3236
 7947SOL    HW135300   3.492   2.968   7.685  0.7490 -0.7647 -1.1706
 7947SOL    HW235301   3.611   2.933   7.773  1.5889 -1.0811 -1.8223
 7948SOL     OW35302   2.047   3.102   5.542 -0.2505 -0.2827  0.4781
 7948SOL    HW135303   1.980   3.067   5.600  0.0822 -1.6461  0.0381
 7948SOL    HW235304   1.998   3.164   5.488 -0.7368  0.1635  1.4357
 7949SOL     OW35305   3.017   4.366   9.117  0.7582  0.3869 -0.6518
 7949SOL    HW135306   3.034   4.359   9.023  2.3697  2.9635 -0.5473
 7949SOL    HW235307   3.101   4.341   9.154  0.0912  0.7346  1.0844
 7950SOL     OW35308   3.010   0.757  13.488 -0.1679 -0.2588 -0.4033
 7950SOL    HW135309   2.945   0.788  13.424 -0.3163  0.5398  0.1364
 7950SOL    HW235310   3.011   0.664  13.467 -2.0278 -0.6866  1.3732
 7951SOL     OW35311   1.206   0.482   3.477  0.9911 -0.2460 -0.1046
 7951SOL    HW135312   1.293   0.497   3.438  0.1155  1.3999 -1.4465
 7951SOL    HW235313   1.210   0.559   3.534 -0.2591 -0.0436 -0.2981
 7952SOL     OW35314   4.149   3.577   4.330  0.6727  0.7084  0.0113
 7952SOL    HW135315   4.074   3.547   4.381  1.2402 -0.2907  0.2551
 7952SOL    HW235316   4.107   3.661   4.309  0.3657  0.0454 -1.9638
 7953SOL     OW35317   4.106   1.059  14.699 -0.6166 -0.2822  0.2091
 7953SOL    HW135318   4.040   1.096  14.640 -1.0577 -0.1322  0.7940
 7953SOL    HW235319   4.178   1.117  14.674  0.4874 -1.4456  0.7541
 7954SOL     OW35320   1.751   4.227   3.715  0.6412 -0.1883  0.4317
 7954SOL    HW135321   1.732   4.184   3.632 -1.5429 -1.2985  1.5129
 7954SOL    HW235322   1.801   4.305   3.688 -0.9686  0.3213 -1.0499
 7955SOL     OW35323   3.731   3.433   6.479  0.5302 -0.0178 -0.3480
 7955SOL    HW135324   3.636   3.417   6.482  0.5242 -0.0859 -0.9104
 7955SOL    HW235325   3.746   3.524   6.506  1.0120 -1.0999  3.0696
 7956SOL     OW35326   1.082   2.244   1.727 -0.0861  0.2422  0.3025
 7956SOL    HW135327   1.174   2.254   1.704 -0.6864  0.5993 -1.9355
 7956SOL    HW235328   1.060   2.167   1.675  0.8607  0.0823  0.1352
 7957SOL     OW35329   1.938   1.537  15.589  0.0609 -0.1437  0.0526
 7957SOL    HW135330   1.998   1.533  15.663 -0.3284 -1.7481  0.3049
 7957SOL    HW235331   1.924   1.444  15.568 -4.4657  0.6579 -0.5985
 7958SOL     OW35332   4.623   0.305   5.180  0.3093 -0.2263  0.5297
 7958SOL    HW135333   4.650   0.213   5.178  0.3178 -0.2408  1.2284
 7958SOL    HW235334   4.698   0.330   5.235  0.9766  0.5216 -0.7407
 7959SOL     OW35335   0.664   3.334   8.413 -0.1336  0.2490 -0.3510
 7959SOL    HW135336   0.728   3.338   8.484 -1.1922  1.2808  0.5496
 7959SOL    HW235337   0.606   3.403   8.445  0.7007 -0.1961  2.0713
 7960SOL     OW35338   4.069   0.892   6.515 -0.1215  0.1153 -0.4452
 7960SOL    HW135339   4.090   0.930   6.601  0.0166  0.7013 -0.7346
 7960SOL    HW235340   4.158   0.897   6.481 -0.2671 -0.3693 -0.8857
 7961SOL     OW35341   0.768   0.144   2.585  0.2199  0.3244 -0.3643
 7961SOL    HW135342   0.854   0.186   2.579 -0.2252  1.3899  0.6235
 7961SOL    HW235343   0.742   0.140   2.493  0.6340 -3.2764 -0.3035
 7962SOL     OW35344   3.304   2.222   5.277  0.1016  0.2169 -0.2296
 7962SOL    HW135345   3.364   2.148   5.277 -0.9016 -0.5920 -0.9695
 7962SOL    HW235346   3.237   2.184   5.334  0.0762  0.5821 -0.0121
 7963SOL     OW35347   3.708   1.211   7.899 -0.8412  0.3756  0.4830
 7963SOL    HW135348   3.677   1.300   7.912 -1.1917  0.4579 -0.9203
 7963SOL    HW235349   3.626   1.177   7.862 -1.8476 -0.1334  3.1718
 7964SOL     OW35350   2.226   1.431   8.994 -0.5874  0.5072 -0.5067
 7964SOL    HW135351   2.272   1.348   8.977 -0.7519  0.6406 -1.6029
 7964SOL    HW235352   2.258   1.461   9.079 -0.3940  1.2499 -0.8381
 7965SOL     OW35353   4.422   4.597   6.529 -0.7064  0.1188  0.1004
 7965SOL    HW135354   4.393   4.505   6.532  2.3374 -0.8743 -1.0937
 7965SOL    HW235355   4.498   4.594   6.587  0.1536  0.6032 -1.0112
 7966SOL     OW35356   0.462   2.734   5.628  0.4151  0.3726  0.2567
 7966SOL    HW135357   0.482   2.726   5.721 -0.1894 -2.7893  0.1000
 7966SOL    HW235358   0.500   2.653   5.593  0.7785 -0.1266  1.8469
 7967SOL     OW35359   2.983   0.804   7.230  0.5375  0.0294 -0.2387
 7967SOL    HW135360   3.060   0.855   7.203  0.1333  0.8518  0.1550
 7967SOL    HW235361   3.025   0.756   7.301 -0.1012 -1.8613 -1.1372
 7968SOL     OW35362   0.336   3.069   5.742  0.1449 -0.0449 -0.1038
 7968SOL    HW135363   0.426   3.042   5.760 -0.1613 -1.0817 -0.1141
 7968SOL    HW235364   0.329   3.155   5.784  1.2203 -1.1017  2.2299
 7969SOL     OW35365   1.070   3.668   5.238  0.3958 -0.2650 -0.3840
 7969SOL    HW135366   0.983   3.703   5.258 -0.5636 -1.8458 -1.7848
 7969SOL    HW235367   1.041   3.633   5.154 -0.4383 -0.2039 -0.1272
 7970SOL     OW35368   0.324   3.065   4.822  0.4830  0.0190  0.3124
 7970SOL    HW135369   0.276   3.021   4.892 -0.2327 -0.5488 -0.5397
 7970SOL    HW235370   0.306   3.006   4.749 -1.6557  2.2459 -0.9520
 7971SOL     OW35371   3.586   2.527   8.767 -0.4185 -0.5018 -0.0249
 7971SOL    HW135372   3.501   2.494   8.738 -1.4560  0.5257  1.7617
 7971SOL    HW235373   3.584   2.614   8.727 -2.5026  0.1678  1.4915
 7972SOL     OW35374   4.706   4.119   8.379  0.0226  0.0447 -0.1971
 7972SOL    HW135375   4.670   4.189   8.434 -1.8132 -1.3794  0.4350
 7972SOL    HW235376   0.042   4.073   8.437 -0.3189 -1.3214 -0.9380
 7973SOL     OW35377   4.027   2.887   8.036 -0.0893 -0.3064  0.2103
 7973SOL    HW135378   3.977   2.813   8.001 -2.0581  1.8596 -1.5162
 7973SOL    HW235379   3.956   2.937   8.075  1.6568  0.5925  2.2732
 7974SOL     OW35380   2.777   4.065   0.955 -0.0676 -0.4434 -0.0887
 7974SOL    HW135381   2.828   4.045   1.033  3.2128 -0.0900 -2.1839
 7974SOL    HW235382   2.804   4.154   0.931 -1.2743  0.7732  2.9399
 7975SOL     OW35383   2.567   0.273  11.993 -0.3050  0.0079  0.1302
 7975SOL    HW135384   2.563   0.304  11.902  1.0834 -0.1645  0.0135
 7975SOL    HW235385   2.610   0.344  12.041  1.1676  2.4981 -4.8225
 7976SOL     OW35386   0.110   2.925   4.279  0.2434 -0.1784  0.1549
 7976SOL    HW135387   0.186   2.971   4.243  1.2066 -2.5674 -0.8198
 7976SOL    HW235388   0.086   2.975   4.357 -1.4326  0.0797 -0.5112
 7977SOL     OW35389   4.636   0.653   6.916 -0.5668  0.0473 -0.0675
 7977SOL    HW135390   0.000   0.639   6.885 -0.2509 -2.9686  2.1579
 7977SOL    HW235391   4.638   0.600   6.996  2.7433 -0.2345 -0.3313
 7978SOL     OW35392   4.625   3.821  15.688 -0.9848 -0.2006 -0.1323
 7978SOL    HW135393   4.640   3.863  15.603 -0.2355  1.2895  0.7405
 7978SOL    HW235394   4.608   3.729  15.671  1.6850 -0.5826 -0.6155
 7979SOL     OW35395   3.781   3.053   7.816  0.0306  0.5795 -0.0109
 7979SOL    HW135396   3.714   3.121   7.820 -0.6940 -0.0114 -2.0734
 7979SOL    HW235397   3.779   3.019   7.905 -0.2391  0.8686  0.0920
 7980SOL     OW35398   1.901   3.650  16.116  0.3920  0.2190 -0.3439
 7980SOL    HW135399   1.918   3.621  16.205  1.4919 -1.6049 -1.1448
 7980SOL    HW235400   1.967   3.613  16.058  0.7089 -0.3787  0.4028
 7981SOL     OW35401   1.785   2.817   8.158  1.0247 -0.8973 -0.0457
 7981SOL    HW135402   1.731   2.846   8.231 -0.5286 -1.4917 -0.9696
 7981SOL    HW235403   1.729   2.746   8.129  0.7922 -0.1703 -1.3431
 7982SOL     OW35404   0.837   1.786   5.159 -0.0386  0.1777 -0.4547
 7982SOL    HW135405   0.933   1.789   5.156 -0.0246 -0.1673 -0.2583
 7982SOL    HW235406   0.817   1.834   5.078 -1.2321  0.1646 -0.1650
 7983SOL     OW35407   0.636   3.712   3.688 -0.5826  0.1209 -0.5597
 7983SOL    HW135408   0.651   3.671   3.773 -1.3473 -0.6295 -0.7784
 7983SOL    HW235409   0.557   3.662   3.667 -0.7759 -0.0478  0.5763
 7984SOL     OW35410   1.659   0.382   8.541  0.3141  0.2512  0.5236
 7984SOL    HW135411   1.706   0.308   8.580  2.3934  1.0194 -0.5070
 7984SOL    HW235412   1.577   0.372   8.589  0.4058  1.1757  0.8626
 7985SOL     OW35413   2.301   0.448   3.638  0.1774  0.4932  0.0763
 7985SOL    HW135414   2.223   0.394   3.630 -0.4945  1.6830 -1.5298
 7985SOL    HW235415   2.362   0.387   3.679 -1.6365 -1.2153  0.2347
 7986SOL     OW35416   1.067   4.621   9.472 -0.1263 -0.6129  0.0178
 7986SOL    HW135417   1.139   4.672   9.509 -1.6576  0.5493  1.4046
 7986SOL    HW235418   1.020   4.680   9.413 -1.6336 -1.3547  0.4599
 7987SOL     OW35419   1.383   4.579  12.380 -0.0293  0.5073  0.2199
 7987SOL    HW135420   1.467   4.609  12.344  0.3162 -1.9488 -1.0332
 7987SOL    HW235421   1.415   4.528  12.455 -1.3789 -1.9781 -0.8948
 7988SOL     OW35422   2.959   2.048   2.951 -0.5774  0.2007  0.1940
 7988SOL    HW135423   3.003   1.995   3.018 -0.6284  0.1155  0.1588
 7988SOL    HW235424   2.929   2.120   3.006  2.6382  1.5994  0.1777
 7989SOL     OW35425   3.588   1.159   0.975  0.6968  0.1777  0.2652
 7989SOL    HW135426   3.625   1.247   0.981 -2.3235  1.3378  1.6145
 7989SOL    HW235427   3.506   1.165   1.025  0.4733  0.4438 -0.1426
 7990SOL     OW35428   4.025   0.456  14.556  0.0352 -0.1695 -0.4325
 7990SOL    HW135429   3.969   0.422  14.486 -1.1163 -0.5115  0.6337
 7990SOL    HW235430   3.979   0.539  14.566  1.4462 -0.0220  5.2046
 7991SOL     OW35431   4.436   1.549   5.667 -0.4779 -0.2194  0.3591
 7991SOL    HW135432   4.525   1.515   5.676  0.6748  1.7970 -3.5895
 7991SOL    HW235433   4.448   1.639   5.699 -0.3248  0.8280 -2.6153
 7992SOL     OW35434   1.393   1.162  17.060  0.2902 -0.1335  0.4722
 7992SOL    HW135435   1.364   1.089  17.005  0.7202  0.6316 -0.7644
 7992SOL    HW235436   1.479   1.135  17.092 -0.5776 -1.5538  1.6268
 7993SOL     OW35437   2.928   1.306   6.915 -0.6132 -0.4775 -0.1879
 7993SOL    HW135438   2.927   1.265   7.002  1.3567 -0.4475 -0.1598
 7993SOL    HW235439   2.986   1.250   6.863  0.0896 -0.0635  0.1556
 7994SOL     OW35440   2.482   2.855   4.302 -0.6016 -0.1252 -0.2510
 7994SOL    HW135441   2.426   2.781   4.281  0.9513 -1.2586 -0.3947
 7994SOL    HW235442   2.506   2.836   4.393 -3.8296 -0.0316  0.6070
 7995SOL     OW35443   0.168   2.286   5.018 -0.9342  0.1414 -0.0211
 7995SOL    HW135444   0.177   2.373   4.980 -4.0031  1.2218  1.7056
 7995SOL    HW235445   0.114   2.243   4.952  0.4080  1.9427 -2.2795
 7996SOL     OW35446   3.425   3.139   3.835  0.3702  0.2489  0.2995
 7996SOL    HW135447   3.405   3.153   3.927  0.7611  0.4425  0.3564
 7996SOL    HW235448   3.349   3.085   3.811 -0.2140  0.9422  0.6176
 7997SOL     OW35449   4.356   0.292   6.315  0.2023 -0.1936 -0.4354
 7997SOL    HW135450   4.412   0.369   6.316 -1.6340  1.1558  0.2063
 7997SOL    HW235451   4.307   0.289   6.233  1.7052 -1.7778 -1.2788
 7998SOL     OW35452   4.436   4.610   3.676 -0.2644 -0.0339 -0.2041
 7998SOL    HW135453   4.386   4.570   3.747  1.6887 -2.2970 -0.0946
 7998SOL    HW235454   4.381   4.684   3.650 -2.2552 -1.2051  0.6837
 7999SOL     OW35455   0.674   0.229   3.396  0.0843 -0.5213  0.0286
 7999SOL    HW135456   0.688   0.272   3.312  2.2602  0.2353  0.7860
 7999SOL    HW235457   0.765   0.220   3.424  0.2008 -0.5524 -0.3589
 8000SOL     OW35458   1.419   3.324   6.532  0.0703  0.0271  0.0709
 8000SOL    HW135459   1.352   3.279   6.584 -0.4075  0.3546 -0.2564
 8000SOL    HW235460   1.408   3.279   6.448  1.5116  1.1137 -0.6984
 8001SOL     OW35461   2.863   0.879   4.168  0.0359  0.6940 -1.0638
 8001SOL    HW135462   2.926   0.903   4.235 -0.3975 -0.1110 -0.3616
 8001SOL    HW235463   2.793   0.848   4.226  1.5697  0.7404  0.8090
 8002SOL     OW35464   4.372   2.560  13.815 -0.3048 -0.0504  0.2263
 8002SOL    HW135465   4.455   2.601  13.840 -0.5705 -0.2710  1.4946
 8002SOL    HW235466   4.324   2.621  13.871  1.6574  1.4347  0.3136
 8003SOL     OW35467   0.972   3.071  14.919  0.1111  0.0594  0.5189
 8003SOL    HW135468   0.921   3.152  14.910 -0.2011 -0.4037 -1.8653
 8003SOL    HW235469   1.024   3.086  14.841 -0.5357 -0.1635  0.0464
 8004SOL     OW35470   0.904   1.042   9.129 -0.0890  0.5484  0.6305
 8004SOL    HW135471   0.895   1.019   9.037 -2.5657  0.3127  0.9293
 8004SOL    HW235472   0.933   1.133   9.122  0.4161  0.4785  1.8039
 8005SOL     OW35473   0.050   2.271   8.614 -0.0718  0.4081  0.2674
 8005SOL    HW135474   4.703   2.257   8.676 -0.8888  0.3985 -0.6781
 8005SOL    HW235475   0.041   2.362   8.584 -1.6461 -0.0701 -0.6905
 8006SOL     OW35476   1.383   0.623   2.971  0.5245  0.1266  0.0515
 8006SOL    HW135477   1.332   0.568   2.911  2.1004  0.4443 -1.5686
 8006SOL    HW235478   1.308   0.669   3.008 -0.9713 -2.8991  0.8489
 8007SOL     OW35479   1.833   3.803   7.948 -0.3004 -0.3871 -0.2136
 8007SOL    HW135480   1.817   3.834   8.037 -1.3012 -0.2263 -0.4433
 8007SOL    HW235481   1.813   3.882   7.898  0.9558 -0.3133 -0.6079
 8008SOL     OW35482   4.183   1.866  15.882  0.1769  0.7849 -0.1729
 8008SOL    HW135483   4.103   1.815  15.886  0.9056 -0.2937  0.6939
 8008SOL    HW235484   4.240   1.800  15.842 -1.1149 -0.1787 -0.4029
 8009SOL     OW35485   2.783   0.758  16.823 -0.5939  0.3887 -0.6300
 8009SOL    HW135486   2.869   0.801  16.819 -0.3936  0.0662  0.1595
 8009SOL    HW235487   2.739   0.808  16.754  1.8170  2.3383 -0.7700
 8010SOL     OW35488   1.917   2.181   1.668 -0.6055  0.6791  0.0609
 8010SOL    HW135489   1.886   2.270   1.652  1.3806  2.0541  3.9011
 8010SOL    HW235490   1.944   2.161   1.578 -0.1911 -2.0178  0.7719
 8011SOL     OW35491   2.347   2.048   9.259  0.2363 -0.3096  0.2589
 8011SOL    HW135492   2.337   2.069   9.352  0.4124  2.5821 -0.3720
 8011SOL    HW235493   2.399   2.122   9.227 -0.4643 -0.1009 -0.3814
 8012SOL     OW35494   3.209   2.479   6.570 -0.2676 -0.4257  0.3421
 8012SOL    HW135495   3.300   2.504   6.589  0.7049 -3.6261 -0.1255
 8012SOL    HW235496   3.235   2.412   6.507  1.8484  1.2508 -0.5970
 8013SOL     OW35497   3.672   2.464  12.792  0.3511  0.4376  0.0915
 8013SOL    HW135498   3.729   2.540  12.805 -1.1946  1.5024  0.6967
 8013SOL    HW235499   3.607   2.483  12.860 -3.4278 -2.5567 -2.7097
 8014SOL     OW35500   2.747   1.995   4.172  0.0615  0.4999 -0.3203
 8014SOL    HW135501   2.794   1.945   4.240 -1.9764  0.5029  1.1097
 8014SOL    HW235502   2.734   2.080   4.214  2.9315  1.4821 -1.4201
 8015SOL     OW35503   1.143   2.522   4.976 -0.5918 -0.7216 -0.4591
 8015SOL    HW135504   1.078   2.468   4.932  0.6351 -0.6090 -2.4032
 8015SOL    HW235505   1.166   2.468   5.052 -0.8152 -0.3676 -0.1393
 8016SOL     OW35506   3.498   0.122   3.591 -0.0483  0.1171  0.0677
 8016SOL    HW135507   3.526   0.207   3.557  0.1435  0.8442  2.0431
 8016SOL    HW235508   3.444   0.077   3.526  1.8513 -1.0691 -0.6891
 8017SOL     OW35509   0.393   3.844   2.585 -0.6148 -0.0354 -0.7329
 8017SOL    HW135510   0.389   3.898   2.506  1.3230  0.1516 -0.6873
 8017SOL    HW235511   0.409   3.914   2.649 -0.4277 -0.4520 -0.3257
 8018SOL     OW35512   1.180   2.277   6.656  0.2925 -0.1931  0.4077
 8018SOL    HW135513   1.270   2.280   6.688  0.7687  2.9792 -1.1932
 8018SOL    HW235514   1.168   2.371   6.638  1.1507 -0.4140 -1.3480
 8019SOL     OW35515   3.822   1.118  13.117 -0.0239 -0.1423  0.5754
 8019SOL    HW135516   3.878   1.046  13.146 -0.5970 -0.2423  1.4476
 8019SOL    HW235517   3.749   1.100  13.176 -0.0745  0.0190  0.5598
 8020SOL     OW35518   3.127   1.170   7.837  0.2468 -0.3841  0.2393
 8020SOL    HW135519   3.129   1.143   7.746 -1.7699  0.9560 -0.2121
 8020SOL    HW235520   3.141   1.089   7.886  0.1390 -1.3302 -1.3038
 8021SOL     OW35521   4.315   2.666   4.468  0.0016 -0.4708  0.2558
 8021SOL    HW135522   4.340   2.756   4.488 -0.1695 -1.0493  3.0648
 8021SOL    HW235523   4.301   2.665   4.373 -2.6435  0.5427  0.6414
 8022SOL     OW35524   1.017   1.718   8.391 -0.4610  0.0778  0.4184
 8022SOL    HW135525   0.948   1.690   8.330 -1.7246  0.7453  1.5481
 8022SOL    HW235526   1.078   1.768   8.337 -0.4736 -2.4515 -1.9150
 8023SOL     OW35527   4.442   1.808  14.481 -0.2435 -0.5398  0.0352
 8023SOL    HW135528   4.458   1.729  14.532 -1.1167  0.6044  2.0863
 8023SOL    HW235529   4.424   1.788  14.390  0.7763 -1.7777  0.1005
 8024SOL     OW35530   1.639   1.040  10.479 -0.1611  0.4494 -0.2069
 8024SOL    HW135531   1.642   0.959  10.428  1.1087  0.6566 -0.4453
 8024SOL    HW235532   1.590   1.087  10.411 -1.2677  0.4504  0.5780
 8025SOL     OW35533   4.199   2.291  14.692 -0.5193 -0.2662 -0.6120
 8025SOL    HW135534   4.248   2.228  14.639  0.4428  0.9583 -1.1734
 8025SOL    HW235535   4.262   2.363  14.695 -1.7265  0.7851 -0.0429
 8026SOL     OW35536   3.505   0.580   5.697 -0.4160  0.5635 -0.3858
 8026SOL    HW135537   3.589   0.567   5.653 -1.0642  0.6345 -1.6717
 8026SOL    HW235538   3.455   0.581   5.615  0.5580 -0.2419 -0.9809
 8027SOL     OW35539   3.189   3.330   7.679 -0.0701 -0.4209  0.0373
 8027SOL    HW135540   3.164   3.371   7.762  2.2347  0.4507  0.2890
 8027SOL    HW235541   3.120   3.366   7.624  1.8614  0.3812 -1.8408
 8028SOL     OW35542   1.373   4.418  16.573  0.1129  0.0956 -0.6376
 8028SOL    HW135543   1.399   4.455  16.658  2.9349 -0.2421 -1.3538
 8028SOL    HW235544   1.448   4.452  16.524  0.0321 -0.2382 -0.9917
 8029SOL     OW35545   2.628   4.108  10.373  0.4478  0.6065 -0.1831
 8029SOL    HW135546   2.548   4.111  10.426  0.2811 -1.1881 -0.3240
 8029SOL    HW235547   2.666   4.031  10.415  2.7946  1.4044 -0.8179
 8030SOL     OW35548   3.763   0.694   2.174  0.1424 -0.4660  0.4902
 8030SOL    HW135549   3.673   0.663   2.171  0.2443 -0.4793 -3.5293
 8030SOL    HW235550   3.801   0.658   2.094 -3.0622 -2.7925  0.0467
 8031SOL     OW35551   1.087   3.033   3.303  0.1998  0.0239 -1.2054
 8031SOL    HW135552   1.073   2.939   3.317 -1.7289  0.5502  0.4201
 8031SOL    HW235553   1.164   3.050   3.356 -1.5916 -0.6654  1.6207
 8032SOL     OW35554   3.977   2.392  17.467  0.5527 -0.5136  0.3457
 8032SOL    HW135555   4.067   2.405  17.436  0.5240 -0.0594  0.4597
 8032SOL    HW235556   3.994   2.315  17.521 -1.6424 -2.2176 -1.3668
 8033SOL     OW35557   2.122   0.809  12.775  0.3453  0.0299 -0.3210
 8033SOL    HW135558   2.117   0.751  12.851 -1.2462  1.6665  0.8018
 8033SOL    HW235559   2.095   0.892  12.813 -2.3205 -0.0269 -2.1002
 8034SOL     OW35560   4.042   0.180   5.772  0.0919 -0.3387 -0.3041
 8034SOL    HW135561   4.037   0.101   5.826 -0.4550 -0.2089 -0.1621
 8034SOL    HW235562   4.018   0.136   5.690  0.8701  1.0348 -1.2677
 8035SOL     OW35563   2.551   3.686  12.755  0.4686  0.0319 -0.1463
 8035SOL    HW135564   2.602   3.697  12.675 -1.6751  0.0317 -1.5052
 8035SOL    HW235565   2.602   3.747  12.809  0.3110  1.6809 -1.8509
 8036SOL     OW35566   1.798   3.705  10.599 -0.1392  0.0352 -0.0659
 8036SOL    HW135567   1.787   3.615  10.571  0.0938 -0.4329  1.3383
 8036SOL    HW235568   1.716   3.701  10.648 -0.3850  1.0257 -0.3833
 8037SOL     OW35569   3.509   0.157   5.955 -0.6158  0.0179  0.2365
 8037SOL    HW135570   3.489   0.233   6.011 -0.3763 -2.2143  3.3608
 8037SOL    HW235571   3.471   0.079   5.997 -0.8481  0.8350  1.5574
 8038SOL     OW35572   1.102   0.091   8.383 -0.4736  0.8679 -0.1746
 8038SOL    HW135573   1.034   0.052   8.328  1.7265 -1.8894 -0.9382
 8038SOL    HW235574   1.162   0.135   8.323 -0.2613  1.7708  0.7163
 8039SOL     OW35575   2.377   3.200   7.888  0.1153  0.0543 -0.0002
 8039SOL    HW135576   2.301   3.221   7.942 -0.6803  3.0967 -2.2959
 8039SOL    HW235577   2.330   3.144   7.826  3.9716  0.9320 -3.7209
 8040SOL     OW35578   3.015   3.046   9.647  0.4680  0.6865 -0.3571
 8040SOL    HW135579   3.025   3.140   9.635 -0.1858  0.7474 -0.4365
 8040SOL    HW235580   2.992   3.043   9.740  1.7666 -1.0987 -0.0919
 8041SOL     OW35581   3.942   2.533   2.128  0.7206 -0.2450 -0.3185
 8041SOL    HW135582   3.866   2.476   2.141 -0.5650  1.2778 -1.2329
 8041SOL    HW235583   3.924   2.581   2.047 -2.1325 -1.4704 -0.4231
 8042SOL     OW35584   2.447   0.159  16.081  0.0133 -0.0132 -0.3500
 8042SOL    HW135585   2.423   0.161  15.989  0.3665 -0.1267 -0.4444
 8042SOL    HW235586   2.481   0.248  16.090 -2.0967  1.0724 -3.2103
 8043SOL     OW35587   4.442   0.293   7.120  0.2884 -0.1198 -0.2147
 8043SOL    HW135588   4.432   0.261   7.030  0.6776  1.4798 -0.8139
 8043SOL    HW235589   4.533   0.321   7.111  0.2990 -0.2113 -0.3970
 8044SOL     OW35590   3.470   1.146  17.431  0.1703  0.3500  0.8590
 8044SOL    HW135591   3.548   1.176  17.384  1.4741 -1.7402  1.7044
 8044SOL    HW235592   3.478   1.060  17.391  0.9803  0.4468  0.8266
 8045SOL     OW35593   2.117   0.912   4.095  0.4914 -0.2703  0.0962
 8045SOL    HW135594   2.186   0.861   4.137 -0.3175 -0.3857  1.3098
 8045SOL    HW235595   2.136   0.999   4.133  1.1164 -0.2345 -0.2998
 8046SOL     OW35596   3.841   3.085   1.943 -0.0446 -0.2069  0.3757
 8046SOL    HW135597   3.748   3.103   1.933  0.6944  2.1107 -2.4902
 8046SOL    HW235598   3.875   3.173   1.957 -0.7729 -0.1507  1.7201
 8047SOL     OW35599   1.844   4.521   5.530 -0.3958 -0.4275  0.1319
 8047SOL    HW135600   1.884   4.516   5.444 -0.8873  0.7931 -0.1674
 8047SOL    HW235601   1.880   4.439   5.563 -0.3251  0.0550  1.2847
 8048SOL     OW35602   1.752   0.337   3.913  0.7055  0.0240  0.3168
 8048SOL    HW135603   1.739   0.287   3.832  2.5216  2.0119 -1.1935
 8048SOL    HW235604   1.763   0.425   3.877  0.3461  0.2772  0.8261
 8049SOL     OW35605   2.228   3.194   6.314  0.2147 -0.2442 -0.4836
 8049SOL    HW135606   2.214   3.234   6.228  2.1476 -0.7240 -1.0048
 8049SOL    HW235607   2.317   3.166   6.296  0.5121 -0.5193  1.4496
 8050SOL     OW35608   0.289   3.962   2.299 -0.4380  0.1696  0.1737
 8050SOL    HW135609   0.325   4.042   2.261  0.5823  0.5665  1.9588
 8050SOL    HW235610   0.256   3.919   2.221 -1.1825  0.9500  0.0573
 8051SOL     OW35611   3.812   1.430  13.439  1.0633 -0.0616  0.2543
 8051SOL    HW135612   3.800   1.383  13.522 -0.7364 -0.3647 -0.1894
 8051SOL    HW235613   3.907   1.416  13.434  1.3912  1.6098  1.6432
 8052SOL     OW35614   3.925   2.099   4.410  0.4801  0.4454 -0.3040
 8052SOL    HW135615   3.956   2.048   4.335 -0.1497  1.2325 -1.1132
 8052SOL    HW235616   3.958   2.041   4.478  0.7826 -0.1022 -0.9225
 8053SOL     OW35617   0.720   2.944   8.391  0.4617 -0.1543 -0.5745
 8053SOL    HW135618   0.637   2.949   8.438  0.8964  2.6996 -0.1413
 8053SOL    HW235619   0.783   2.954   8.463 -1.3613 -0.6787  1.0935
 8054SOL     OW35620   0.777   2.753   5.631  0.2298 -0.0974 -0.0551
 8054SOL    HW135621   0.761   2.667   5.594  3.4783 -1.1985  1.1092
 8054SOL    HW235622   0.806   2.724   5.717  2.0648 -0.3728 -0.7591
 8055SOL     OW35623   2.365   3.680   9.869 -0.4337  0.1201 -0.3370
 8055SOL    HW135624   2.350   3.592   9.835  0.9698 -1.1579  2.3744
 8055SOL    HW235625   2.399   3.659   9.956  3.1213 -0.7590 -1.9370
 8056SOL     OW35626   0.572   0.855   8.946 -0.5546  0.0843  0.4453
 8056SOL    HW135627   0.645   0.800   8.974 -0.8749 -0.6991 -0.2335
 8056SOL    HW235628   0.592   0.949   8.946  0.1320 -0.0395 -3.0274
 8057SOL     OW35629   4.599   4.157  14.935 -0.0459 -0.2168  0.3496
 8057SOL    HW135630   4.542   4.235  14.936  2.1102  1.3604  1.4677
 8057SOL    HW235631   4.537   4.101  14.982  1.4744 -1.5400  0.7624
 8058SOL     OW35632   0.889   2.248  14.892 -0.4045  0.2216 -0.5814
 8058SOL    HW135633   0.937   2.310  14.837  0.7843 -1.6150 -1.5852
 8058SOL    HW235634   0.838   2.206  14.823 -1.6744 -0.4822  0.7919
 8059SOL     OW35635   2.099   4.119   6.993  0.1523 -0.3039 -0.1427
 8059SOL    HW135636   2.134   4.065   7.065 -0.4556  0.2959  0.6009
 8059SOL    HW235637   2.175   4.113   6.935 -3.0253  1.1602 -4.3930
 8060SOL     OW35638   0.343   1.351   3.531 -0.0348  0.1004 -0.4964
 8060SOL    HW135639   0.321   1.369   3.440 -0.1204 -1.0248 -0.7032
 8060SOL    HW235640   0.368   1.258   3.527 -0.4106 -0.0352  0.3123
 8061SOL     OW35641   2.031   4.240   2.831  0.2079  0.8226  0.3841
 8061SOL    HW135642   1.938   4.256   2.819  0.2979 -0.7807 -2.2973
 8061SOL    HW235643   2.060   4.251   2.741 -3.8259  1.6593 -0.8021
 8062SOL     OW35644   4.617   3.337  15.978  0.3002 -0.6186  0.0064
 8062SOL    HW135645   4.705   3.325  15.944  0.8272  0.4623  0.9738
 8062SOL    HW235646   4.624   3.309  16.070 -1.3195 -1.6777 -0.1922
 8063SOL     OW35647   1.660   2.740   0.400  0.5334  0.6811 -0.0728
 8063SOL    HW135648   1.696   2.664   0.445  2.9963  1.4878 -0.6738
 8063SOL    HW235649   1.646   2.800   0.474  1.6365  1.3932 -0.4478
 8064SOL     OW35650   3.198   3.365   3.364  0.7740 -0.2097  0.0606
 8064SOL    HW135651   3.268   3.309   3.397  1.4170  0.6160  0.0859
 8064SOL    HW235652   3.218   3.376   3.271  3.1055 -0.4233  0.5415
 8065SOL     OW35653   4.184   3.698   1.739  0.3905  0.3551  0.4791
 8065SOL    HW135654   4.143   3.725   1.822 -2.2480  0.2804 -0.7790
 8065SOL    HW235655   4.180   3.779   1.689  0.1328  0.4646  0.6746
 8066SOL     OW35656   2.651   4.409  16.867  0.2207  0.0086  0.0194
 8066SOL    HW135657   2.725   4.357  16.836  0.5090  0.9359 -0.8512
 8066SOL    HW235658   2.627   4.453  16.785  1.2719 -0.2275 -0.4164
 8067SOL     OW35659   0.013   4.066   8.668  0.3980 -0.3977  0.0519
 8067SOL    HW135660   0.088   4.079   8.726  1.1797 -2.2224 -0.5626
 8067SOL    HW235661   4.674   4.028   8.728  0.4638 -0.1331  0.2879
 8068SOL     OW35662   0.483   3.085  16.873 -0.3870 -0.8044  0.2629
 8068SOL    HW135663   0.532   3.107  16.793 -1.5111  1.5952  0.2178
 8068SOL    HW235664   0.527   3.002  16.890  1.3296  0.5960  2.6091
 8069SOL     OW35665   1.399   0.427  15.096 -0.2239 -0.3388  0.0919
 8069SOL    HW135666   1.343   0.417  15.019 -0.3840 -1.0506  0.2975
 8069SOL    HW235667   1.476   0.469  15.058  1.3394 -1.9791  1.4210
 8070SOL     OW35668   1.711   4.025   7.569  0.6642 -0.0668  0.4057
 8070SOL    HW135669   1.688   3.933   7.570 -1.4183  0.4488 -1.5786
 8070SOL    HW235670   1.747   4.040   7.657 -1.2762  1.8322  0.8824
 8071SOL     OW35671   1.431   2.876  11.912  0.6449  0.1499  0.2688
 8071SOL    HW135672   1.494   2.815  11.873 -0.9483 -1.0545 -0.4202
 8071SOL    HW235673   1.369   2.813  11.947  0.3614 -0.1511 -0.7689
 8072SOL     OW35674   4.229   1.075   5.821  0.2539 -0.6037 -0.4147
 8072SOL    HW135675   4.307   1.118   5.855 -0.7622  0.5411  0.4394
 8072SOL    HW235676   4.241   1.086   5.726 -0.8152 -0.3429 -0.5190
 8073SOL     OW35677   3.355   1.905   8.568  0.0568  0.5339 -0.1115
 8073SOL    HW135678   3.364   1.889   8.474 -0.0948  0.5232 -0.1231
 8073SOL    HW235679   3.368   2.000   8.572 -1.5866  0.7739 -0.5688
 8074SOL     OW35680   3.272   3.999   4.895 -0.1849  0.2999 -0.0846
 8074SOL    HW135681   3.195   3.951   4.925 -0.2813  0.8310  0.5053
 8074SOL    HW235682   3.241   4.089   4.901  0.8599  0.8335 -2.7576
 8075SOL     OW35683   3.649   1.999  10.509 -0.8776  0.0558 -0.2386
 8075SOL    HW135684   3.658   1.934  10.440  1.9098  1.5375 -1.2935
 8075SOL    HW235685   3.613   1.958  10.587 -1.2760 -1.1391 -1.0576
 8076SOL     OW35686   3.773   1.455   3.666  0.1585  0.2025 -0.4064
 8076SOL    HW135687   3.862   1.484   3.646 -0.0162  0.6305 -0.5706
 8076SOL    HW235688   3.755   1.499   3.749 -1.6962 -2.9535  0.8697
 8077SOL     OW35689   0.998   1.257   2.172  0.2698  0.2189 -0.2498
 8077SOL    HW135690   1.071   1.242   2.231  0.5632 -0.8774 -0.8949
 8077SOL    HW235691   1.007   1.193   2.101 -1.3363 -1.6628  1.2330
 8078SOL     OW35692   0.709   1.779   8.676  0.0416 -0.5212 -0.1609
 8078SOL    HW135693   0.694   1.760   8.768 -3.1371  0.1988 -0.5395
 8078SOL    HW235694   0.625   1.814   8.648  1.1516  2.2433 -0.0692
 8079SOL     OW35695   3.566   1.226   5.740  0.5566 -0.1800  0.4753
 8079SOL    HW135696   3.554   1.283   5.665  0.9888 -1.7843 -0.8239
 8079SOL    HW235697   3.641   1.269   5.780  1.7930  0.0072 -2.0156
 8080SOL     OW35698   2.556   2.919   7.479 -0.0245  0.0562  0.4533
 8080SOL    HW135699   2.627   2.983   7.478 -1.1461  1.2930  0.3471
 8080SOL    HW235700   2.562   2.878   7.393  0.3354  1.5863 -0.2476
 8081SOL     OW35701   2.012   4.324   9.358  0.3326 -0.0446  0.3264
 8081SOL    HW135702   2.058   4.291   9.280 -1.4231 -1.5862 -0.0658
 8081SOL    HW235703   1.935   4.375   9.332 -0.8123 -0.8917  2.0195
 8082SOL     OW35704   0.395   1.296   1.679  0.6678 -0.6076 -0.4722
 8082SOL    HW135705   0.356   1.223   1.631  1.2246 -1.6249  0.6351
 8082SOL    HW235706   0.479   1.294   1.633  1.4935 -0.3161  1.0254
 8083SOL     OW35707   3.240   3.311   2.156 -0.6128 -0.0919 -0.1488
 8083SOL    HW135708   3.288   3.380   2.110  0.5828 -0.0579  1.1142
 8083SOL    HW235709   3.290   3.306   2.238 -1.2948  3.2275  0.4579
 8084SOL     OW35710   3.394   2.371   3.692  0.2372 -0.1778  0.5480
 8084SOL    HW135711   3.311   2.362   3.737 -0.2714 -2.6183 -0.8801
 8084SOL    HW235712   3.395   2.301   3.627  1.5888  0.5189 -0.1846
 8085SOL     OW35713   1.298   4.659   3.925 -0.3403  0.0717  0.3172
 8085SOL    HW135714   1.230   4.668   3.858  0.8181 -0.9733 -1.0091
 8085SOL    HW235715   1.249   4.599   3.981 -0.3253 -0.5952 -0.3714
 8086SOL     OW35716   4.490   4.103  13.193 -0.5819 -0.2081 -0.3551
 8086SOL    HW135717   4.544   4.147  13.126 -2.0415 -2.7134 -3.1439
 8086SOL    HW235718   4.556   4.048  13.234 -0.0012 -1.5457 -3.0730
 8087SOL     OW35719   4.059   1.569   3.122 -0.4728 -0.3154 -0.1259
 8087SOL    HW135720   3.971   1.554   3.087 -0.1928 -1.7850 -0.1805
 8087SOL    HW235721   4.057   1.520   3.204  1.7748  1.0368  0.7397
 8088SOL     OW35722   2.648   0.383  12.703 -0.2030 -0.4388  0.1138
 8088SOL    HW135723   2.619   0.473  12.687  1.0241 -0.3250 -1.4867
 8088SOL    HW235724   2.582   0.359  12.768 -0.1408 -0.1518  0.2868
 8089SOL     OW35725   0.489   0.521   3.502 -0.1901 -0.2864 -0.2071
 8089SOL    HW135726   0.521   0.523   3.593  0.7701 -1.2603 -0.5188
 8089SOL    HW235727   0.573   0.526   3.457  0.5755  2.1795  1.5042
 8090SOL     OW35728   3.218   4.583   6.749  0.0752  0.4775 -0.4999
 8090SOL    HW135729   3.151   4.561   6.684  0.7796 -0.0776 -1.0390
 8090SOL    HW235730   3.277   4.513   6.721 -2.1969 -0.9928 -1.5343
 8091SOL     OW35731   0.351   4.461   9.492  0.2851 -0.7858  0.2270
 8091SOL    HW135732   0.290   4.459   9.418 -0.9603  1.3939  1.1826
 8091SOL    HW235733   0.421   4.513   9.452 -2.1526  0.7956 -1.9768
 8092SOL     OW35734   4.608   1.287  14.463 -0.3694 -0.5785 -0.5459
 8092SOL    HW135735   4.561   1.223  14.410  2.4674  0.5792 -4.4566
 8092SOL    HW235736   4.680   1.312  14.405 -1.9820 -1.1278 -2.7927
 8093SOL     OW35737   4.042   3.577  16.140  0.0118 -0.3190 -0.5750
 8093SOL    HW135738   4.023   3.519  16.214  0.9707  0.9447  0.6443
 8093SOL    HW235739   3.966   3.634  16.148  0.8659  0.6716  0.5246
 8094SOL     OW35740   0.731   1.227   5.626 -0.5559 -0.7493  0.2725
 8094SOL    HW135741   0.753   1.251   5.716 -2.0082 -0.0384  0.4320
 8094SOL    HW235742   0.775   1.142   5.618 -0.5672 -0.7905  0.6581
 8095SOL     OW35743   4.202   2.680   7.144  0.0973 -0.9023 -0.2751
 8095SOL    HW135744   4.119   2.654   7.106  0.0586 -0.9271 -0.1718
 8095SOL    HW235745   4.211   2.608   7.207 -0.9380 -0.9959 -0.2346
 8096SOL     OW35746   0.306   0.642  14.199 -0.9577  0.3587 -0.2868
 8096SOL    HW135747   0.338   0.647  14.288  1.2520  1.9743 -1.1696
 8096SOL    HW235748   0.379   0.607  14.148  0.2957 -0.6436  2.2340
 8097SOL     OW35749   2.664   0.119   3.715  0.3778  0.3404 -0.4470
 8097SOL    HW135750   2.719   0.047   3.685 -0.1303  0.5597 -1.9368
 8097SOL    HW235751   2.581   0.081   3.685 -0.8656  3.9314 -1.4847
 8098SOL     OW35752   0.228   4.087   7.368  0.1664 -0.5536  0.1180
 8098SOL    HW135753   0.249   4.117   7.456 -0.9007 -1.5957  0.7332
 8098SOL    HW235754   0.133   4.090   7.379  0.2863  1.7959  0.5433
 8099SOL     OW35755   4.696   2.447  11.914 -0.4111  0.0104 -0.4507
 8099SOL    HW135756   0.054   2.490  11.933  0.0715 -0.0293 -2.4734
 8099SOL    HW235757   4.719   2.356  11.897  0.2431  0.2329 -0.7352
 8100SOL     OW35758   0.701   0.896   3.437 -0.0821  0.6382  0.0922
 8100SOL    HW135759   0.681   0.821   3.381 -2.4152  2.1051 -1.0446
 8100SOL    HW235760   0.783   0.926   3.396 -1.0107  0.5287 -1.8609
 8101SOL     OW35761   4.636   2.650  11.038 -0.4423  0.5198  0.4481
 8101SOL    HW135762   4.678   2.672  11.122  0.8403 -0.4589  0.0557
 8101SOL    HW235763   4.592   2.731  11.012 -1.4336  0.6586  2.5182
 8102SOL     OW35764   0.727   1.722   5.883 -0.6315  0.0822 -0.3149
 8102SOL    HW135765   0.815   1.757   5.899 -0.4036 -0.1388 -1.1296
 8102SOL    HW235766   0.714   1.753   5.794  1.8496 -1.7012 -1.3035
 8103SOL     OW35767   0.688   0.320  16.415 -0.5542 -0.0353  0.2119
 8103SOL    HW135768   0.710   0.349  16.327 -0.4149 -0.8668 -0.0176
 8103SOL    HW235769   0.694   0.401  16.467  1.7147 -0.6226  0.8856
 8104SOL     OW35770   1.897   3.593   8.718  0.2946 -0.1816 -0.5901
 8104SOL    HW135771   1.946   3.517   8.686  0.8644  0.0412 -0.2423
 8104SOL    HW235772   1.809   3.555   8.719  1.1683 -2.1429  0.4190
 8105SOL     OW35773   2.425   2.556   2.102  0.3343  0.1377 -0.3772
 8105SOL    HW135774   2.519   2.552   2.083  1.2170 -0.5178  4.2588
 8105SOL    HW235775   2.418   2.531   2.194  1.4717  1.0124 -0.0572
 8106SOL     OW35776   3.003   4.713  15.389 -0.6047  0.0745  0.1899
 8106SOL    HW135777   2.969   4.678  15.306  2.7299 -1.1599 -0.6458
 8106SOL    HW235778   3.084   4.665  15.405 -0.9758 -0.5301  0.2589
 8107SOL     OW35779   3.886   0.214   6.614 -0.0672  0.8237 -0.5885
 8107SOL    HW135780   3.914   0.254   6.696 -1.1898  0.6598 -0.1214
 8107SOL    HW235781   3.939   0.251   6.543  1.2972  0.5855  0.3064
 8108SOL     OW35782   3.269   1.055   8.301  0.2256  0.2946 -0.2557
 8108SOL    HW135783   3.288   1.149   8.299 -1.6406  0.7300  2.3240
 8108SOL    HW235784   3.351   1.025   8.340  0.4486 -0.8378 -1.5974
 8109SOL     OW35785   1.772   1.874   1.327 -0.1570  0.0551 -0.7464
 8109SOL    HW135786   1.678   1.891   1.328 -0.2659 -0.5507  0.0177
 8109SOL    HW235787   1.791   1.888   1.235 -0.1576 -3.3352 -1.2597
 8110SOL     OW35788   2.489   0.315   3.209  0.7458  0.0660  0.0798
 8110SOL    HW135789   2.532   0.369   3.142 -0.0955 -0.7184 -1.0999
 8110SOL    HW235790   2.497   0.366   3.290  0.7844  2.5545 -1.4982
 8111SOL     OW35791   3.209   2.164  12.897 -0.3015  0.0289 -0.4486
 8111SOL    HW135792   3.156   2.172  12.818  1.7610  3.5565 -1.4986
 8111SOL    HW235793   3.256   2.247  12.888  0.6435 -0.2284  2.1819
 8112SOL     OW35794   2.686   1.721   4.519 -0.3096  0.0283  0.0874
 8112SOL    HW135795   2.690   1.627   4.535  0.0229  0.0429  0.0821
 8112SOL    HW235796   2.594   1.732   4.494  0.1370  1.7274 -0.7843
 8113SOL     OW35797   1.236   3.580  16.282  0.1964 -0.3729  0.6036
 8113SOL    HW135798   1.199   3.533  16.357  1.5356  2.5821  3.1309
 8113SOL    HW235799   1.319   3.605  16.323 -0.4099 -1.0256  2.2287
 8114SOL     OW35800   1.726   4.262  11.471  0.0923  0.0840 -0.0118
 8114SOL    HW135801   1.704   4.255  11.564  1.9309 -1.6895  0.2961
 8114SOL    HW235802   1.647   4.260  11.418  1.3462 -2.4586 -1.7802
 8115SOL     OW35803   0.962   3.338   2.156  0.1045  0.4726 -0.3280
 8115SOL    HW135804   0.892   3.325   2.220 -0.5405  0.5854 -1.0135
 8115SOL    HW235805   1.007   3.410   2.201  0.9150  0.0159 -0.4080
 8116SOL     OW35806   0.175   2.295  10.553  0.5573  0.1207 -0.6248
 8116SOL    HW135807   0.266   2.267  10.539  0.9960  1.1304  0.1477
 8116SOL    HW235808   0.192   2.387  10.576  1.1285  0.0551 -0.7639
 8117SOL     OW35809   0.942   4.349   7.071  0.1177 -0.3191  0.0756
 8117SOL    HW135810   0.939   4.337   7.166 -0.7994  2.9664  0.4330
 8117SOL    HW235811   1.011   4.283   7.056  0.0686 -0.4108  0.2522
 8118SOL     OW35812   1.625   4.454   5.784  0.3727  0.3268 -0.3810
 8118SOL    HW135813   1.591   4.543   5.782  1.1759  0.6249 -0.6837
 8118SOL    HW235814   1.552   4.413   5.830  1.1648 -2.1472 -1.2835
 8119SOL     OW35815   4.417   1.164   8.536  0.0408 -0.2465 -0.2092
 8119SOL    HW135816   4.420   1.079   8.492 -0.2172 -0.6547  0.5537
 8119SOL    HW235817   4.508   1.180   8.562 -0.3149  0.7224  0.4149
 8120SOL     OW35818   0.522   0.631  13.539  0.4062 -0.0374 -0.6098
 8120SOL    HW135819   0.447   0.658  13.592  0.8338 -1.0273  0.4872
 8120SOL    HW235820   0.486   0.644  13.451 -0.8766 -1.9164 -0.3507
 8121SOL     OW35821   3.380   1.681  13.255  0.9989  0.0920 -0.7023
 8121SOL    HW135822   3.455   1.629  13.284 -0.3343 -0.5236  1.6725
 8121SOL    HW235823   3.422   1.752  13.207  2.7954 -1.9063 -2.0833
 8122SOL     OW35824   3.983   1.376  16.104  0.6464 -0.3453 -0.1804
 8122SOL    HW135825   3.919   1.348  16.170  0.5501  0.9220  0.2725
 8122SOL    HW235826   3.927   1.412  16.035  4.5128  2.0065 -2.0391
 8123SOL     OW35827   0.892   0.741   2.816 -0.3489  0.1515  0.4643
 8123SOL    HW135828   0.893   0.653   2.778  0.8444  1.0409 -1.5776
 8123SOL    HW235829   0.824   0.780   2.761 -1.4673  1.6340  2.9203
 8124SOL     OW35830   0.752   3.714  15.339 -0.2467  0.0583  0.1188
 8124SOL    HW135831   0.729   3.775  15.409  0.9398 -1.5829  1.9428
 8124SOL    HW235832   0.835   3.675  15.364 -0.8369 -0.3956  1.3883
 8125SOL     OW35833   1.405   2.502   4.908  0.0604 -0.1574 -0.7352
 8125SOL    HW135834   1.368   2.420   4.875 -0.4074 -0.8094  1.4164
 8125SOL    HW235835   1.334   2.535   4.963 -2.2274 -0.6719 -3.4364
 8126SOL     OW35836   3.129   0.052   5.579  0.5955  0.0049 -0.2625
 8126SOL    HW135837   3.109   0.124   5.519 -0.8934 -1.7678 -1.8805
 8126SOL    HW235838   3.184   0.101   5.640  0.8490  2.1596 -2.2188
 8127SOL     OW35839   0.155   2.108  10.981 -0.0029  0.4697  0.2789
 8127SOL    HW135840   0.136   2.108  11.075  0.8387 -1.6622  0.4403
 8127SOL    HW235841   0.075   2.077  10.938  0.0367  3.9777 -2.3070
 8128SOL     OW35842   3.992   1.131  14.435  0.2689 -0.1656 -0.4419
 8128SOL    HW135843   4.033   1.204  14.482 -1.5363 -0.6147  1.8281
 8128SOL    HW235844   3.899   1.156  14.429  0.0840 -1.2007 -1.7810
 8129SOL     OW35845   3.915   4.132   5.128  0.7828 -0.1175  0.0301
 8129SOL    HW135846   3.870   4.215   5.116 -2.0648 -1.6230  0.4539
 8129SOL    HW235847   3.924   4.107   5.036 -0.1684  2.1156 -0.6635
 8130SOL     OW35848   2.395   1.898   6.785  0.2794  0.2852 -0.0352
 8130SOL    HW135849   2.454   1.914   6.859  1.5233 -2.4479 -0.4440
 8130SOL    HW235850   2.376   1.807   6.808  0.3547  0.6269  1.4207
 8131SOL     OW35851   3.699   0.698  13.552  0.0277 -0.5378  0.3480
 8131SOL    HW135852   3.735   0.738  13.473  1.9543 -0.0474  1.4632
 8131SOL    HW235853   3.718   0.753  13.628  0.3601  0.0773 -0.1814
 8132SOL     OW35854   1.298   0.419  12.320  0.0586  0.0682 -0.3068
 8132SOL    HW135855   1.307   0.388  12.230  1.3803 -3.1929  0.9306
 8132SOL    HW235856   1.304   0.329  12.354  0.0816  0.1033 -0.2172
 8133SOL     OW35857   2.483   1.477   7.368 -0.2310  0.2049  0.4764
 8133SOL    HW135858   2.471   1.456   7.461  0.4130 -0.2317  0.4585
 8133SOL    HW235859   2.561   1.429   7.343 -0.9046 -0.0249 -1.1604
 8134SOL     OW35860   1.497   0.284  16.171 -0.2012 -0.0236 -0.5245
 8134SOL    HW135861   1.581   0.327  16.156 -0.9607  1.4146 -0.6721
 8134SOL    HW235862   1.439   0.347  16.128  0.7395 -1.6213 -4.1692
 8135SOL     OW35863   4.245   1.439   5.059 -0.7800  0.9503  0.1108
 8135SOL    HW135864   4.196   1.395   5.128 -0.1170  0.1633  0.0795
 8135SOL    HW235865   4.225   1.531   5.078  2.5917  1.5193  0.9287
 8136SOL     OW35866   1.587   1.822   0.985  0.6142 -0.2325  0.0858
 8136SOL    HW135867   1.571   1.916   0.975 -1.2262 -0.2962  2.3262
 8136SOL    HW235868   1.534   1.816   1.065 -0.6795 -1.1047 -0.8322
 8137SOL     OW35869   1.525   2.155   5.685 -0.4612 -0.0107 -0.4654
 8137SOL    HW135870   1.608   2.109   5.694 -1.0603 -0.3527  3.2013
 8137SOL    HW235871   1.551   2.246   5.699 -1.5191  0.2738 -0.3625
 8138SOL     OW35872   0.129   0.709   2.430  0.1760 -0.5214 -0.5413
 8138SOL    HW135873   0.185   0.655   2.486 -0.8051 -0.9429  0.0281
 8138SOL    HW235874   0.083   0.647   2.375 -3.2544 -0.2972  2.0481
 8139SOL     OW35875   0.340   2.342  12.554  0.5963  0.8352 -0.4032
 8139SOL    HW135876   0.347   2.371  12.463  1.0844 -0.8502 -0.9051
 8139SOL    HW235877   0.423   2.367  12.593 -0.9328  2.3000  1.9269
 8140SOL     OW35878   1.088   3.543   3.858  0.0491  0.1413 -0.3250
 8140SOL    HW135879   1.049   3.627   3.880 -1.3763 -0.7940  0.7718
 8140SOL    HW235880   1.142   3.571   3.784 -0.3580 -1.3076 -1.1791
 8141SOL     OW35881   2.296   1.796   1.994  0.0107 -0.5824  0.5187
 8141SOL    HW135882   2.205   1.773   1.974  0.2593 -1.1689  0.0910
 8141SOL    HW235883   2.338   1.807   1.909 -0.5596  1.9682  0.5545
 8142SOL     OW35884   3.487   2.039   6.393 -0.0851 -0.1934  0.2242
 8142SOL    HW135885   3.517   2.060   6.482 -0.8366 -3.4304  1.2652
 8142SOL    HW235886   3.492   1.943   6.391  1.3826 -0.0973 -0.5203
 8143SOL     OW35887   2.750   2.859   2.773  0.0143  0.0210 -0.6749
 8143SOL    HW135888   2.821   2.923   2.770 -1.5102  1.7200 -0.1890
 8143SOL    HW235889   2.728   2.865   2.866 -1.8767 -1.0252 -1.0465
 8144SOL     OW35890   4.562   1.649   2.666 -0.4201 -0.2198 -0.5985
 8144SOL    HW135891   4.489   1.589   2.680  1.1452 -2.0709 -0.3713
 8144SOL    HW235892   4.528   1.739   2.665  0.8688  0.2977  0.5907
 8145SOL     OW35893   0.976   1.315   2.965  0.4337 -0.0325 -0.1904
 8145SOL    HW135894   0.960   1.388   2.905  3.5775 -0.0222 -0.9984
 8145SOL    HW235895   1.057   1.275   2.933  1.2027 -0.7105  2.6570
 8146SOL     OW35896   2.008   1.007   7.409 -0.3392 -0.3195 -0.5085
 8146SOL    HW135897   1.968   0.921   7.421  0.0393 -0.6778 -1.8510
 8146SOL    HW235898   2.088   0.994   7.460 -1.0317  1.3713  1.0305
 8147SOL     OW35899   4.320   4.066   1.105  0.3298  0.5880 -0.0384
 8147SOL    HW135900   4.318   4.031   1.016 -1.6367 -1.8697  0.9575
 8147SOL    HW235901   4.311   4.159   1.087 -1.1898  0.4541  0.0830
 8148SOL     OW35902   0.538   2.192   7.890 -0.9458  0.3605 -0.2263
 8148SOL    HW135903   0.553   2.227   7.803 -0.0119 -1.3261 -0.7545
 8148SOL    HW235904   0.469   2.249   7.924 -1.9838 -0.7664 -0.4249
 8149SOL     OW35905   3.017   2.134   8.428 -0.0819  0.3092  0.5184
 8149SOL    HW135906   3.008   2.125   8.523 -2.9552  0.1689  0.2536
 8149SOL    HW235907   3.004   2.046   8.394 -0.0205 -0.2100  1.8415
 8150SOL     OW35908   1.851   3.148  10.743 -0.0755  0.4057 -0.3175
 8150SOL    HW135909   1.862   3.117  10.653  1.6178  0.1304 -0.0312
 8150SOL    HW235910   1.908   3.084  10.787  1.5864  2.2748  0.2789
 8151SOL     OW35911   2.825   4.002  14.897  0.1342  0.2611  0.3940
 8151SOL    HW135912   2.901   4.017  14.841 -0.6384  0.5270 -0.5971
 8151SOL    HW235913   2.779   3.928  14.857 -0.3712  0.4931  0.5400
 8152SOL     OW35914   3.480   3.521  17.409  0.1573  0.0609  0.7477
 8152SOL    HW135915   3.518   3.439  17.379 -2.7252 -0.0965 -2.4294
 8152SOL    HW235916   3.419   3.477  17.469 -0.8546 -0.4107 -0.6464
 8153SOL     OW35917   4.623   4.081   5.295 -0.1924 -0.0335 -0.2750
 8153SOL    HW135918   4.643   4.162   5.342  2.1290 -1.6776  1.5499
 8153SOL    HW235919   4.613   4.121   5.209  1.1642 -4.6664 -2.5737
 8154SOL     OW35920   1.590   1.097   7.357 -0.4954 -1.2759  0.5268
 8154SOL    HW135921   1.507   1.123   7.397  0.8935  2.2830  1.0224
 8154SOL    HW235922   1.639   1.093   7.440 -2.1101  2.3653  1.6479
 8155SOL     OW35923   3.894   1.069  14.048  0.4481  1.0503 -0.0940
 8155SOL    HW135924   3.823   1.123  14.083 -0.6338 -0.7112  0.4146
 8155SOL    HW235925   3.852   1.021  13.977 -1.3640 -1.4806  2.6702
 8156SOL     OW35926   0.448   0.074   8.938  0.6448 -0.4604  0.4410
 8156SOL    HW135927   0.451   0.062   9.033  2.7721  0.9440  0.5690
 8156SOL    HW235928   0.435   0.169   8.942 -0.0951 -0.6251  2.0788
 8157SOL     OW35929   0.372   0.311   1.969 -0.1824 -0.0159 -0.1155
 8157SOL    HW135930   0.417   0.289   2.050 -1.4394  3.1746  1.4257
 8157SOL    HW235931   0.313   0.237   1.954 -0.2546 -0.2695  1.3906
 8158SOL     OW35932   4.259   3.372   7.711  0.0605  0.6572 -0.0169
 8158SOL    HW135933   4.178   3.339   7.672  1.3300 -0.3843 -1.7421
 8158SOL    HW235934   4.231   3.422   7.789 -0.5662  0.7450 -0.2972
 8159SOL     OW35935   3.419   2.690  17.532  0.2766  0.0868 -0.0015
 8159SOL    HW135936   3.343   2.633  17.526  1.8912 -2.2333  1.5278
 8159SOL    HW235937   3.408   2.719  17.623  1.8268  0.8757 -0.0567
 8160SOL     OW35938   0.731   3.280  15.524  0.0035  0.2657 -0.4970
 8160SOL    HW135939   0.748   3.186  15.529  1.3728  0.3241 -3.8415
 8160SOL    HW235940   0.700   3.291  15.434 -2.1051  2.5696  0.5142
 8161SOL     OW35941   1.059   2.512   0.144  0.1170 -0.0139  0.1251
 8161SOL    HW135942   1.134   2.546   0.193 -0.3883  0.3306  0.6622
 8161SOL    HW235943   1.002   2.587   0.163  1.3428  1.0111 -0.1799
 8162SOL     OW35944   1.973   0.817   2.802  0.6129 -0.5187 -0.0936
 8162SOL    HW135945   2.052   0.840   2.753  1.6674 -0.6036  1.5461
 8162SOL    HW235946   1.912   0.871   2.752  2.2420  0.3747 -1.1144
 8163SOL     OW35947   0.491   2.833  15.134  0.3819 -0.1525 -0.0146
 8163SOL    HW135948   0.401   2.867  15.126 -0.0736 -1.5428 -0.8018
 8163SOL    HW235949   0.511   2.807  15.044 -0.2833  0.1566 -0.2560
 8164SOL     OW35950   3.423   0.557   6.367 -0.7627  0.2999  0.1894
 8164SOL    HW135951   3.378   0.549   6.451 -1.6027 -3.0240 -0.5740
 8164SOL    HW235952   3.370   0.620   6.320 -0.8629 -0.7426 -1.0785
 8165SOL     OW35953   3.836   1.496   2.989  0.2884  0.2758 -0.0749
 8165SOL    HW135954   3.792   1.420   2.951  0.1911  0.2070  0.1725
 8165SOL    HW235955   3.835   1.555   2.913 -2.9707 -1.4981 -1.3976
 8166SOL     OW35956   3.131   3.609  12.716 -0.2480 -0.1112  0.0866
 8166SOL    HW135957   3.052   3.576  12.758 -0.1024 -1.4864 -0.7062
 8166SOL    HW235958   3.176   3.655  12.786  2.6590 -1.5997 -0.7992
 8167SOL     OW35959   2.202   3.915   9.227  0.5229 -0.2402 -0.0847
 8167SOL    HW135960   2.141   3.843   9.242 -2.7256  3.0615  2.5847
 8167SOL    HW235961   2.222   3.913   9.320  1.5328  1.1021 -0.2681
 8168SOL     OW35962   1.940   1.496   3.981 -0.1348  0.0108 -0.3111
 8168SOL    HW135963   1.916   1.404   3.988 -1.1979  0.2869 -0.3084
 8168SOL    HW235964   1.993   1.513   3.903  2.8622 -0.9806  1.4627
 8169SOL     OW35965   4.256   4.057   1.832 -0.0598  0.5044 -0.1104
 8169SOL    HW135966   4.336   4.015   1.865 -1.7148 -2.2865  0.3423
 8169SOL    HW235967   4.198   3.985   1.807  0.6823 -0.7417  1.7596
 8170SOL     OW35968   2.908   3.947   0.710  0.5300  0.3210  0.1549
 8170SOL    HW135969   2.852   3.927   0.784  1.7815 -2.9497  0.1975
 8170SOL    HW235970   2.867   4.014   0.655 -1.4328  0.1718  1.4594
 8171SOL     OW35971   2.058   1.846   3.947  0.4788  0.2273  0.1400
 8171SOL    HW135972   2.094   1.814   3.864 -0.5162 -0.1530 -0.1401
 8171SOL    HW235973   1.989   1.892   3.899 -0.2231  0.2027  1.1366
 8172SOL     OW35974   2.288   3.748   3.733 -0.1109  0.4491  0.2256
 8172SOL    HW135975   2.193   3.742   3.736 -0.1684  1.6723  0.8255
 8172SOL    HW235976   2.294   3.840   3.707 -1.2182  0.5672  0.4133
 8173SOL     OW35977   1.596   1.067   1.935  0.3328 -0.4345 -0.1091
 8173SOL    HW135978   1.510   1.081   1.976 -1.1743  0.1444 -3.5134
 8173SOL    HW235979   1.659   1.065   2.007  0.6229 -0.8996 -0.3829
 8174SOL     OW35980   3.883   1.286  15.622  0.3125 -0.3331  0.7476
 8174SOL    HW135981   3.819   1.222  15.591 -1.4764  0.1187  3.5668
 8174SOL    HW235982   3.887   1.347  15.548 -0.4134 -1.1299  0.0425
 8175SOL     OW35983   1.669   2.032   4.611 -0.1517 -0.3980  0.1055
 8175SOL    HW135984   1.743   2.080   4.651 -0.0583 -0.1167 -0.4035
 8175SOL    HW235985   1.668   1.949   4.659  2.6208 -0.7565 -0.4110
 8176SOL     OW35986   1.008   1.807   6.115 -0.1096 -0.0291 -0.1728
 8176SOL    HW135987   1.077   1.810   6.181  0.7720  0.3546 -1.1007
 8176SOL    HW235988   1.007   1.718   6.079 -0.6424  0.3544 -1.1264
 8177SOL     OW35989   0.640   4.455   1.702  0.0484  0.5478 -0.5386
 8177SOL    HW135990   0.597   4.540   1.713 -0.1599  0.8609 -3.7191
 8177SOL    HW235991   0.732   4.468   1.727 -1.7177  2.8742  4.7059
 8178SOL     OW35992   0.213   0.771   2.779 -0.3831  0.1131  0.3119
 8178SOL    HW135993   0.217   0.867   2.786  0.6518  0.3336 -3.1737
 8178SOL    HW235994   0.119   0.758   2.774 -0.4934  0.3419  2.0525
 8179SOL     OW35995   2.776   1.531   6.914  0.5034 -0.1640  0.7375
 8179SOL    HW135996   2.838   1.458   6.920  2.7255  1.5383 -1.9769
 8179SOL    HW235997   2.795   1.580   6.994  2.0355  2.1757 -1.0536
 8180SOL     OW35998   1.197   0.780  14.429  0.4327  0.0661 -0.4367
 8180SOL    HW135999   1.215   0.853  14.488 -0.6319  1.2807 -1.6165
 8180SOL    HW236000   1.217   0.806  14.339  1.1076  2.1508  0.3066
 8181SOL     OW36001   3.810   3.958   7.714 -0.2827  0.0557 -0.0863
 8181SOL    HW136002   3.834   3.909   7.793 -0.0362  1.1231  0.4882
 8181SOL    HW236003   3.841   3.896   7.647  0.5418  0.0624  0.2850
 8182SOL     OW36004   1.342   2.298   8.600 -0.2353 -0.0649 -0.1802
 8182SOL    HW136005   1.335   2.208   8.631  0.1695 -0.5374 -1.4838
 8182SOL    HW236006   1.366   2.285   8.508  0.7942  1.1614 -0.0885
 8183SOL     OW36007   2.826   1.596   4.037  0.2301  0.1082  0.3304
 8183SOL    HW136008   2.843   1.519   3.983  0.0449  0.4273 -0.1841
 8183SOL    HW236009   2.837   1.559   4.125  0.3980 -0.9223 -0.1169
 8184SOL     OW36010   3.851   0.870   4.915 -0.0255  0.5098 -0.1471
 8184SOL    HW136011   3.918   0.936   4.937  1.1184 -0.3529 -1.0582
 8184SOL    HW236012   3.793   0.875   4.991 -0.1912  1.2516 -0.3163
 8185SOL     OW36013   1.154   2.654   1.002  0.3724 -0.5558 -0.2664
 8185SOL    HW136014   1.187   2.582   1.056 -0.4454  0.7869  2.0768
 8185SOL    HW236015   1.061   2.650   1.026  0.0391  0.1772 -1.4361
 8186SOL     OW36016   3.940   2.595   4.160 -0.2274 -0.5930  0.1782
 8186SOL    HW136017   3.867   2.651   4.185  1.1701  1.0629  0.5360
 8186SOL    HW236018   3.936   2.604   4.065 -0.2415  2.0310  0.4359
 8187SOL     OW36019   2.752   3.253   4.492 -0.1861  0.6192 -0.0437
 8187SOL    HW136020   2.834   3.272   4.447 -0.3512  1.3408 -0.0479
 8187SOL    HW236021   2.790   3.194   4.557 -1.2316 -0.6635 -0.6025
 8188SOL     OW36022   3.671   2.959   1.618  0.0760 -0.3809 -0.2203
 8188SOL    HW136023   3.741   2.930   1.676 -0.8173 -0.3611  0.8645
 8188SOL    HW236024   3.608   2.888   1.634 -0.9655  0.3378 -1.1437
 8189SOL     OW36025   2.714   4.718   8.238  0.2890 -0.0258 -0.2912
 8189SOL    HW136026   2.622   4.694   8.251  0.0771  1.7677  1.5019
 8189SOL    HW236027   2.757   4.641   8.275  1.2319  1.3886  1.5314
 8190SOL     OW36028   2.326   1.194  13.848  0.0782  0.1928  0.0573
 8190SOL    HW136029   2.239   1.162  13.824  0.0861  0.0739  0.1866
 8190SOL    HW236030   2.379   1.180  13.769 -0.8862 -2.4471 -0.1232
 8191SOL     OW36031   0.382   1.098   3.407  0.2450 -0.4111 -0.5736
 8191SOL    HW136032   0.372   1.008   3.376  0.1824  0.2750 -2.5693
 8191SOL    HW236033   0.397   1.138   3.321 -1.8883  1.6955  0.0439
 8192SOL     OW36034   4.103   0.880  17.634  0.0143  0.4932 -0.1540
 8192SOL    HW136035   4.184   0.919  17.601 -1.0817  2.9884  0.1081
 8192SOL    HW236036   4.127   0.852   0.021  2.9674 -2.9404 -2.0491
 8193SOL     OW36037   2.976   0.783   8.228 -0.0395  0.0204 -0.0642
 8193SOL    HW136038   2.889   0.808   8.260 -0.1026  1.1875 -1.1618
 8193SOL    HW236039   2.961   0.738   8.144 -0.4206  0.3569 -0.1767
 8194SOL     OW36040   2.611   4.430   1.684 -0.4845 -0.4352  0.3185
 8194SOL    HW136041   2.590   4.480   1.604 -1.3479  0.6683  1.2260
 8194SOL    HW236042   2.683   4.373   1.659  0.1122  0.6341 -0.3837
 8195SOL     OW36043   0.775   2.606   4.488  0.1771 -0.0790 -0.7047
 8195SOL    HW136044   0.725   2.547   4.545 -0.2253 -0.4952 -1.4820
 8195SOL    HW236045   0.815   2.661   4.556 -0.8926  0.2268 -0.3124
 8196SOL     OW36046   4.445   0.521   5.102  0.0348 -0.3906  0.1727
 8196SOL    HW136047   4.499   0.445   5.122 -0.3076 -0.5979  0.3085
 8196SOL    HW236048   4.398   0.534   5.185  0.0620  1.1482 -0.0447
 8197SOL     OW36049   1.076   0.702   2.141 -0.1875  0.1896  0.1023
 8197SOL    HW136050   1.142   0.642   2.176 -0.8486 -0.7270 -0.2420
 8197SOL    HW236051   1.131   0.776   2.114 -2.2653  1.7086  0.0417
 8198SOL     OW36052   0.646   3.538   5.643  0.1074  0.0910 -0.1739
 8198SOL    HW136053   0.559   3.577   5.632  0.1206  0.0821 -0.3081
 8198SOL    HW236054   0.629   3.446   5.660  0.1266  0.0883 -0.1693
 8199SOL     OW36055   3.205   3.539  11.167  0.7466  0.2633  0.3365
 8199SOL    HW136056   3.144   3.609  11.189  1.6850  0.5196  2.1693
 8199SOL    HW236057   3.248   3.573  11.088  0.1861  0.5494  0.1586
 8200SOL     OW36058   2.391   1.143   8.262  0.1033  0.2671 -0.2761
 8200SOL    HW136059   2.481   1.158   8.289 -0.5991  1.9067  1.1483
 8200SOL    HW236060   2.389   1.049   8.241 -0.7490  0.1291  0.4166
 8201SOL     OW36061   1.493   1.235  13.805 -0.3169 -0.2072 -0.1357
 8201SOL    HW136062   1.450   1.299  13.749  0.7047 -1.3159 -2.1825
 8201SOL    HW236063   1.415   1.184  13.826 -0.4983 -0.4684 -1.4595
 8202SOL     OW36064   0.703   3.592   4.591 -0.4162  0.0865  1.0254
 8202SOL    HW136065   0.705   3.678   4.550  0.0567 -0.8451 -0.9342
 8202SOL    HW236066   0.615   3.566   4.562  0.2585 -2.2134  1.0681
 8203SOL     OW36067   2.316   1.046  15.253  0.5308  0.2151 -0.2372
 8203SOL    HW136068   2.352   0.974  15.201  0.4587  1.3605 -1.8914
 8203SOL    HW236069   2.371   1.052  15.330  0.0039  0.1707  0.1443
 8204SOL     OW36070   4.094   4.006   8.793 -0.0195  0.1290  0.2859
 8204SOL    HW136071   4.091   3.911   8.803 -0.9737  0.5388  4.1788
 8204SOL    HW236072   4.034   4.033   8.863 -0.7035  0.0777 -0.2746
 8205SOL     OW36073   0.425   1.601   2.601  0.4042  0.3923  0.0652
 8205SOL    HW136074   0.513   1.575   2.627 -0.4629 -2.3179  0.3106
 8205SOL    HW236075   0.372   1.558   2.668 -0.6520  1.0817 -0.3096
 8206SOL     OW36076   3.850   2.385   7.978 -0.3040  0.5677 -0.3186
 8206SOL    HW136077   3.780   2.351   7.922 -0.2555 -0.1008  0.0245
 8206SOL    HW236078   3.920   2.331   7.944  0.3628  0.7417  0.7756
 8207SOL     OW36079   4.375   1.768   8.268  0.3062  0.0654  0.4326
 8207SOL    HW136080   4.327   1.836   8.223  0.2353 -0.0759  0.2955
 8207SOL    HW236081   4.342   1.795   8.354 -2.3754 -0.4638 -0.4479
 8208SOL     OW36082   4.240   2.236   4.416 -0.1206  0.4981 -0.3281
 8208SOL    HW136083   4.312   2.270   4.362  1.3341 -1.3435  0.4574
 8208SOL    HW236084   4.170   2.273   4.363 -0.9153 -1.4929 -0.6721
 8209SOL     OW36085   1.979   1.426   8.884 -0.0942 -0.1534  0.2407
 8209SOL    HW136086   1.995   1.413   8.791  1.4729 -1.4111  0.6824
 8209SOL    HW236087   2.068   1.429   8.919  0.4478 -3.4692 -0.9066
 8210SOL     OW36088   0.657   0.928   8.302  0.0396  0.4052  0.2256
 8210SOL    HW136089   0.576   0.932   8.252  0.5079  2.1472 -0.3810
 8210SOL    HW236090   0.643   1.008   8.353 -0.3344  1.2976 -1.2702
 8211SOL     OW36091   3.068   2.207   6.155 -0.4406  0.0477  0.4065
 8211SOL    HW136092   3.148   2.258   6.170 -1.0206  0.9731  0.3676
 8211SOL    HW236093   3.028   2.250   6.079 -1.8701  1.1226  1.7707
 8212SOL     OW36094   4.672   0.547   2.316 -0.5717 -0.3010  0.2333
 8212SOL    HW136095   4.704   0.484   2.252 -1.3858 -1.0743  0.5915
 8212SOL    HW236096   4.601   0.589   2.267 -2.2535 -0.9596  2.0922
 8213SOL     OW36097   1.557   1.038  15.576  0.1119  0.5759 -0.8641
 8213SOL    HW136098   1.646   1.031  15.608 -0.4352  0.2788  0.5893
 8213SOL    HW236099   1.522   1.090  15.649 -0.1559 -1.4503  0.4465
 8214SOL     OW36100   0.344   1.883   0.004 -0.0996 -0.6687  0.4133
 8214SOL    HW136101   0.374   1.823  17.637  3.9751 -0.3648  1.9667
 8214SOL    HW236102   0.424   1.891   0.055 -1.0755  0.3277  1.7860
 8215SOL     OW36103   0.142   2.028   2.557 -0.1085 -0.1033 -0.6981
 8215SOL    HW136104   0.128   1.937   2.584 -4.5944  0.3759 -1.4465
 8215SOL    HW236105   0.237   2.027   2.561 -0.1207  1.8980 -0.1040
 8216SOL     OW36106   3.334   0.469  10.949  0.0101  0.1487 -0.5286
 8216SOL    HW136107   3.253   0.519  10.953 -0.3932 -0.5318 -0.1348
 8216SOL    HW236108   3.385   0.508  11.020  0.8141 -1.1033 -0.4211
 8217SOL     OW36109   0.182   2.615  14.958 -0.2136  0.2975  0.4914
 8217SOL    HW136110   0.220   2.702  14.956  0.4991 -0.0874 -2.2973
 8217SOL    HW236111   0.222   2.567  15.031  0.1245  2.9653  2.0306
 8218SOL     OW36112   0.168   2.323   2.229  0.0869  0.2895 -0.2159
 8218SOL    HW136113   0.226   2.369   2.290  1.2389 -1.8605  0.3028
 8218SOL    HW236114   0.220   2.332   2.149  0.7212  2.2829  0.4218
 8219SOL     OW36115   1.630   3.509   3.634 -0.2221 -0.9537  0.0804
 8219SOL    HW136116   1.674   3.582   3.590  0.7683 -1.3271  0.4747
 8219SOL    HW236117   1.668   3.511   3.721 -3.2237  0.8251  1.3780
 8220SOL     OW36118   3.483   4.273   2.623 -0.4109  0.5017  0.2777
 8220SOL    HW136119   3.393   4.298   2.645 -1.7239 -1.5710 -2.7320
 8220SOL    HW236120   3.523   4.353   2.590  0.8242  0.3583  1.4204
 8221SOL     OW36121   3.733   0.503   5.591 -0.3109 -0.1131  0.4539
 8221SOL    HW136122   3.729   0.542   5.504 -1.2631 -0.2117  0.4540
 8221SOL    HW236123   3.737   0.413   5.559 -2.7825 -0.2480  0.4729
 8222SOL     OW36124   2.724   3.408   2.731  0.2841  0.5425 -0.1937
 8222SOL    HW136125   2.795   3.472   2.718  0.8013 -0.1673 -0.8679
 8222SOL    HW236126   2.668   3.420   2.654  0.4243  1.1527 -0.2069
 8223SOL     OW36127   1.935   0.728  12.169  0.2386 -0.4010  0.6084
 8223SOL    HW136128   1.993   0.654  12.188 -1.5068 -2.2882 -1.4293
 8223SOL    HW236129   1.853   0.711  12.214  1.5615  1.9823  3.8708
 8224SOL     OW36130   4.401   3.393   8.622 -0.0237  0.5624 -0.1049
 8224SOL    HW136131   4.422   3.311   8.667  0.5196  0.3085 -0.8061
 8224SOL    HW236132   4.411   3.362   8.532 -0.7524  1.3710 -0.4562
 8225SOL     OW36133   4.021   0.464   6.085 -0.1689  0.2542  0.0244
 8225SOL    HW136134   4.042   0.482   6.176 -1.3939 -0.9695  0.5539
 8225SOL    HW236135   3.928   0.487   6.076 -0.0672  0.8212  0.4003
 8226SOL     OW36136   0.574   0.093   2.365 -0.3430  0.6073  0.1924
 8226SOL    HW136137   0.531   0.178   2.376 -1.8556  0.0262 -1.2772
 8226SOL    HW236138   0.618   0.112   2.282 -1.3821 -1.8178 -0.8949
 8227SOL     OW36139   4.268   0.948   5.426 -0.2418 -0.2254  0.6074
 8227SOL    HW136140   4.226   0.903   5.499 -1.5231  1.8221  1.1104
 8227SOL    HW236141   4.304   1.024   5.471  1.8406 -1.1206  0.4543
 8228SOL     OW36142   1.775   0.169   6.127  0.1273  0.0377 -0.0345
 8228SOL    HW136143   1.779   0.121   6.044  2.0806  0.1631 -0.0071
 8228SOL    HW236144   1.868   0.175   6.151  0.1708 -2.1373  0.3514
 8229SOL     OW36145   0.603   0.476   7.185  0.0464  0.1664  0.2243
 8229SOL    HW136146   0.627   0.560   7.146  1.2127 -0.9100 -1.3611
 8229SOL    HW236147   0.672   0.467   7.251 -1.7615  0.3388  2.1433
 8230SOL     OW36148   2.202   2.637   3.508  0.0497 -0.4176 -0.1155
 8230SOL    HW136149   2.264   2.573   3.474 -0.6444 -2.0232  1.6157
 8230SOL    HW236150   2.156   2.587   3.575  0.6981  0.8204  1.2605
 8231SOL     OW36151   3.966   0.096  14.019 -0.3619 -0.4542  0.1730
 8231SOL    HW136152   4.030   0.125  13.955  0.8333 -3.6267 -0.0650
 8231SOL    HW236153   4.011   0.031  14.072 -0.4559 -1.6310 -1.2178
 8232SOL     OW36154   1.525   4.173   9.254 -0.7729  0.0180 -0.2891
 8232SOL    HW136155   1.611   4.144   9.284 -0.8558 -0.2271 -0.2892
 8232SOL    HW236156   1.526   4.266   9.280 -2.9853 -0.2958  0.9497
 8233SOL     OW36157   1.939   2.457  13.994 -0.4664 -0.3982 -0.7939
 8233SOL    HW136158   1.922   2.550  14.010  0.7163 -0.1967 -0.6835
 8233SOL    HW236159   1.905   2.423  14.077  0.4908  0.5373 -0.0285
 8234SOL     OW36160   3.290   2.655  16.138  0.2489 -0.2128  0.4567
 8234SOL    HW136161   3.245   2.721  16.191  1.7717  2.2077 -1.2915
 8234SOL    HW236162   3.220   2.609  16.091 -0.5653  0.4291  1.0368
 8235SOL     OW36163   0.976   1.963   4.630 -0.0361  0.4411  0.5307
 8235SOL    HW136164   0.950   1.886   4.581  0.3436 -0.4289  1.7052
 8235SOL    HW236165   0.914   2.033   4.611 -0.3650  0.1751  0.6283
 8236SOL     OW36166   3.936   3.486  17.698 -0.2528 -0.2858  0.4825
 8236SOL    HW136167   3.870   3.533  17.649  0.1494  2.4317  2.5798
 8236SOL    HW236168   4.010   3.484  17.636 -0.9005  0.6936 -0.3150
 8237SOL     OW36169   2.641   1.199   8.345  0.6706 -0.2926  0.0611
 8237SOL    HW136170   2.713   1.245   8.301 -0.0111  0.5548 -0.1606
 8237SOL    HW236171   2.693   1.130   8.386  0.0177  0.1902  1.7137
 8238SOL     OW36172   2.852   1.555   5.216 -0.5625 -0.0360  0.5367
 8238SOL    HW136173   2.928   1.508   5.249  1.1775  3.1288  0.9820
 8238SOL    HW236174   2.860   1.524   5.126 -1.0515 -0.3510  0.6009
 8239SOL     OW36175   2.374   3.818   7.761  0.2207 -0.0956  0.4218
 8239SOL    HW136176   2.286   3.805   7.796 -0.6275 -0.9725 -2.0586
 8239SOL    HW236177   2.406   3.881   7.825 -0.3138  1.3989 -0.7783
 8240SOL     OW36178   2.029   3.869   7.655 -0.0818 -0.0635 -0.1985
 8240SOL    HW136179   2.063   3.888   7.742  0.6627 -1.2788 -0.2172
 8240SOL    HW236180   1.962   3.803   7.671  0.8454 -0.5399  1.7038
 8241SOL     OW36181   2.095   3.258  14.303  0.3062  0.1825 -0.0239
 8241SOL    HW136182   2.029   3.278  14.370  0.9154  0.8750  0.3782
 8241SOL    HW236183   2.058   3.185  14.254 -1.7500  1.1632  0.0951
 8242SOL     OW36184   1.642   2.675   5.055 -0.1447 -0.6837 -0.0444
 8242SOL    HW136185   1.590   2.621   4.995 -0.3377 -0.6335  0.0780
 8242SOL    HW236186   1.729   2.661   5.018 -0.4301 -1.7842 -0.3065
 8243SOL     OW36187   3.163   4.245   7.383  0.1124 -0.3059  0.1252
 8243SOL    HW136188   3.085   4.226   7.331 -2.4165 -0.7073  4.0033
 8243SOL    HW236189   3.176   4.339   7.377 -1.0670 -0.1113  0.6712
 8244SOL     OW36190   4.297   3.006   2.582  0.0357 -0.1165 -0.0597
 8244SOL    HW136191   4.368   3.006   2.518 -0.5604  0.0236 -0.7270
 8244SOL    HW236192   4.275   3.099   2.572 -2.1194 -0.3136  2.7632
 8245SOL     OW36193   0.055   2.532   5.484 -0.1910 -0.0010 -0.0230
 8245SOL    HW136194   0.119   2.548   5.415  1.5141  2.3714  2.1113
 8245SOL    HW236195   0.067   2.610   5.538 -0.1277  1.1048 -1.6520
 8246SOL     OW36196   1.254   2.069   3.091 -0.3411 -0.0373  0.7461
 8246SOL    HW136197   1.259   2.008   3.165  3.0314 -0.2706  0.3374
 8246SOL    HW236198   1.162   2.096   3.092 -0.0991  0.8234 -0.0553
 8247SOL     OW36199   1.792   4.670   4.368  0.4662 -0.0804 -0.1316
 8247SOL    HW136200   1.788   4.689   4.274  2.9937 -1.3018 -0.4950
 8247SOL    HW236201   1.857   0.011   4.392  0.6199 -0.7429  1.2326
 8248SOL     OW36202   3.343   3.675  12.904  0.0354 -0.1956  0.3266
 8248SOL    HW136203   3.424   3.624  12.906  0.2585  0.3017  3.9119
 8248SOL    HW236204   3.370   3.749  12.958  0.0848  0.1269 -0.1407
 8249SOL     OW36205   1.447   4.100   2.960 -0.1311 -0.3553  0.2932
 8249SOL    HW136206   1.443   4.024   2.901 -1.4370 -2.1868  2.7436
 8249SOL    HW236207   1.492   4.063   3.036  2.9061 -1.8934 -2.2109
 8250SOL     OW36208   0.107   0.530   3.035 -0.5979  0.2092  0.5015
 8250SOL    HW136209   0.073   0.585   2.964  0.6900  1.6442  0.9866
 8250SOL    HW236210   0.087   0.439   3.014  3.2274 -0.4045 -0.4954
 8251SOL     OW36211   3.188   1.742   5.049 -0.4073 -0.3353 -0.1502
 8251SOL    HW136212   3.148   1.829   5.043  0.2519  0.0813  1.6283
 8251SOL    HW236213   3.199   1.730   4.955 -1.2427 -0.6103 -0.2141
 8252SOL     OW36214   3.086   3.609   1.864  0.3398 -0.1608 -0.0618
 8252SOL    HW136215   3.066   3.528   1.911 -0.5326  0.4954  0.6889
 8252SOL    HW236216   3.093   3.572   1.777 -0.3090 -0.7536  0.1393
 8253SOL     OW36217   3.282   3.264   6.701  0.3528  0.0757 -0.1732
 8253SOL    HW136218   3.349   3.214   6.747  0.8665  0.5778 -0.3708
 8253SOL    HW236219   3.208   3.263   6.761  0.8730 -2.1859  0.4149
 8254SOL     OW36220   1.253   1.485   2.988 -0.1717 -0.4017  0.0355
 8254SOL    HW136221   1.172   1.450   2.951 -1.1137  0.5751  1.1441
 8254SOL    HW236222   1.324   1.455   2.931 -1.3704 -0.8256 -1.2233
 8255SOL     OW36223   3.582   3.769   3.223 -0.6980  0.4978  0.1033
 8255SOL    HW136224   3.559   3.686   3.180 -0.8142  0.5308  0.1009
 8255SOL    HW236225   3.677   3.772   3.222 -0.7292  1.0611 -1.0544
 8256SOL     OW36226   3.805   3.997  13.644 -0.3060  0.2343  0.2551
 8256SOL    HW136227   3.884   4.051  13.638  0.8915 -1.1493  3.7250
 8256SOL    HW236228   3.746   4.057  13.689 -2.8671 -0.4564 -2.2157
 8257SOL     OW36229   1.164   2.776   2.944 -0.2029  0.0334 -0.2290
 8257SOL    HW136230   1.140   2.788   2.852  0.2730  0.4373 -0.3016
 8257SOL    HW236231   1.246   2.825   2.947  1.1710 -2.3332  0.4592
 8258SOL     OW36232   0.807   0.774  16.281 -0.0506  0.0312  0.3011
 8258SOL    HW136233   0.902   0.765  16.274  0.0640 -0.1825  1.9627
 8258SOL    HW236234   0.805   0.862  16.244  1.0975 -0.7443 -1.5647
 8259SOL     OW36235   2.695   4.699   5.164  0.0364  0.1186 -0.2380
 8259SOL    HW136236   2.654   0.027   5.096 -0.4759  1.9593  1.5404
 8259SOL    HW236237   2.707   4.617   5.115 -1.7358  0.3207 -1.0119
 8260SOL     OW36238   2.519   1.773  17.419 -0.2102 -0.3561  0.3354
 8260SOL    HW136239   2.489   1.701  17.475 -1.8832 -0.6908 -0.9742
 8260SOL    HW236240   2.531   1.841  17.485 -0.7359  1.4407 -1.4104
 8261SOL     OW36241   4.679   1.076  13.176  0.0512  0.2407  0.3482
 8261SOL    HW136242   4.687   1.151  13.118  2.6433 -0.1088  0.2574
 8261SOL    HW236243   0.043   1.044  13.186  0.7749  2.0861 -0.2362
 8262SOL     OW36244   3.507   2.723  11.577  0.0447 -0.6259  0.5072
 8262SOL    HW136245   3.459   2.725  11.495  1.7004 -0.7854 -0.4730
 8262SOL    HW236246   3.594   2.690  11.554  0.9940  0.6390  2.2984
 8263SOL     OW36247   0.890   1.278   6.125  0.0484  0.1459 -0.0322
 8263SOL    HW136248   0.942   1.270   6.206 -0.2347 -1.1026  0.0304
 8263SOL    HW236249   0.845   1.360   6.142  0.6080  0.0159  2.1509
 8264SOL     OW36250   2.593   1.289   1.887 -0.2221 -0.3817 -0.7162
 8264SOL    HW136251   2.506   1.298   1.926  0.2074  0.9072 -0.0541
 8264SOL    HW236252   2.574   1.244   1.805 -1.9936  0.1743 -0.6006
 8265SOL     OW36253   1.843   2.122  13.930 -0.4305 -0.2756  0.3577
 8265SOL    HW136254   1.817   2.175  14.005  0.0923 -1.4447  1.3616
 8265SOL    HW236255   1.935   2.124  13.956  0.0401  0.7003 -1.3171
 8266SOL     OW36256   0.560   1.633  13.705  0.1602 -0.2453  0.2412
 8266SOL    HW136257   0.540   1.676  13.622  0.0723  1.7210  1.2845
 8266SOL    HW236258   0.562   1.712  13.759 -1.7629 -1.7990  2.5840
 8267SOL     OW36259   2.268   0.261   2.250 -0.1098 -0.6433  0.6901
 8267SOL    HW136260   2.222   0.177   2.244 -2.6259  0.8314 -0.3150
 8267SOL    HW236261   2.315   0.266   2.166 -2.1282  0.8395 -0.3508
 8268SOL     OW36262   1.711   0.039   7.961 -0.0565  0.4350 -0.4777
 8268SOL    HW136263   1.785   4.705   7.947 -0.3513  0.5511 -2.5573
 8268SOL    HW236264   1.675   0.013   8.045 -2.9958 -0.8926 -2.1329
 8269SOL     OW36265   0.073   3.494   2.130  0.2331  0.0202 -0.6582
 8269SOL    HW136266   0.062   3.509   2.037  2.7345  0.1669 -0.9338
 8269SOL    HW236267   0.165   3.476   2.152 -0.3990 -0.8170  1.2829
 8270SOL     OW36268   1.409   2.744   2.718 -0.4852 -0.1283  0.5727
 8270SOL    HW136269   1.414   2.648   2.717 -1.6158 -0.1717 -2.3219
 8270SOL    HW236270   1.385   2.765   2.628 -0.6793 -0.0176  0.6513
 8271SOL     OW36271   2.076   1.727   9.217  0.1313  0.1624  0.0777
 8271SOL    HW136272   1.984   1.703   9.212 -0.0525  0.7929  0.5024
 8271SOL    HW236273   2.072   1.821   9.202 -0.0187  0.1854  0.2605
 8272SOL     OW36274   4.687   3.392   5.734  0.3801  0.2136 -0.3286
 8272SOL    HW136275   4.674   3.486   5.726 -0.6944  0.2544  1.8259
 8272SOL    HW236276   4.635   3.363   5.659  0.9183  0.0332 -0.6387
 8273SOL     OW36277   3.350   2.810   9.166  0.1920 -1.0013 -0.0884
 8273SOL    HW136278   3.411   2.755   9.118 -0.6642 -1.7557 -0.3116
 8273SOL    HW236279   3.325   2.883   9.109  1.9678 -0.0504  0.3635
 8274SOL     OW36280   0.158   4.148   6.861  0.5096 -0.1264 -0.2570
 8274SOL    HW136281   0.135   4.073   6.917 -0.1544  0.0940 -0.2244
 8274SOL    HW236282   0.252   4.155   6.872  0.2729  1.6070  0.7091
 8275SOL     OW36283   2.439   2.980  16.000  1.1105 -0.0220 -0.3840
 8275SOL    HW136284   2.519   2.991  16.052 -0.5837  0.5373  2.1392
 8275SOL    HW236285   2.397   3.063  16.025  1.8101 -0.1376  1.1670
 8276SOL     OW36286   4.045   2.579   5.593 -0.1243 -0.5995 -0.2626
 8276SOL    HW136287   4.009   2.552   5.678  0.2776 -2.5041 -0.6963
 8276SOL    HW236288   4.041   2.674   5.604 -0.4426 -0.6477  0.0650
 8277SOL     OW36289   3.328   3.649   9.430  0.5936  0.0032 -0.1162
 8277SOL    HW136290   3.281   3.620   9.352  0.9449 -1.8823  0.3824
 8277SOL    HW236291   3.381   3.571   9.447 -0.2352 -0.7496 -0.9696
 8278SOL     OW36292   2.119   1.418  15.776  0.4492 -0.4036  0.7222
 8278SOL    HW136293   2.055   1.348  15.791 -0.7263  0.2460 -1.2441
 8278SOL    HW236294   2.173   1.387  15.848  2.6758 -1.2122 -1.3030
 8279SOL     OW36295   2.469   2.267   9.184 -0.5843 -0.1581 -0.4556
 8279SOL    HW136296   2.497   2.320   9.109  0.6681 -1.4649 -0.9124
 8279SOL    HW236297   2.490   2.333   9.250  1.7955 -0.3014 -1.0625
 8280SOL     OW36298   1.347   2.775   3.793 -0.0563  0.4043 -0.0906
 8280SOL    HW136299   1.410   2.826   3.743 -0.9831  0.1159 -1.5624
 8280SOL    HW236300   1.403   2.703   3.821 -0.8679  0.9830  3.0222
 8281SOL     OW36301   3.094   1.102   2.626  0.3019 -0.3093 -0.1250
 8281SOL    HW136302   3.063   1.034   2.567  2.1462  0.3394 -1.8347
 8281SOL    HW236303   3.063   1.180   2.581  0.4121 -0.9108 -1.2339
 8282SOL     OW36304   3.664   1.030  15.690  0.5346  1.0383  0.3449
 8282SOL    HW136305   3.686   1.070  15.775  0.0087 -2.3959  2.1029
 8282SOL    HW236306   3.625   1.104  15.644 -2.3744 -0.2067  0.8355
 8283SOL     OW36307   3.393   3.788   3.862  0.0653 -0.2470  0.0296
 8283SOL    HW136308   3.309   3.761   3.824 -0.7958  2.8115 -0.2440
 8283SOL    HW236309   3.375   3.833   3.945  0.3529 -2.5978  1.3610
 8284SOL     OW36310   4.339   1.351   7.087 -0.0775 -0.1604  0.4478
 8284SOL    HW136311   4.261   1.353   7.142 -0.7893  2.0047 -0.6486
 8284SOL    HW236312   4.395   1.279   7.118 -0.5244 -0.2432  1.0612
 8285SOL     OW36313   0.458   3.683   9.043  0.2376  0.1779 -0.3550
 8285SOL    HW136314   0.383   3.625   9.056  0.4911 -0.4440 -1.6148
 8285SOL    HW236315   0.415   3.768   9.050 -1.5623 -0.7629  0.2042
 8286SOL     OW36316   1.563   3.875   6.780 -0.0588  0.2240  0.1076
 8286SOL    HW136317   1.504   3.948   6.762  2.5061  2.2893  0.0799
 8286SOL    HW236318   1.648   3.910   6.805  0.1239  1.1442 -1.8033
 8287SOL     OW36319   0.906   1.880   4.904  0.1039 -0.1173  0.0772
 8287SOL    HW136320   0.997   1.874   4.933  0.1108 -2.6807 -0.4994
 8287SOL    HW236321   0.917   1.892   4.810 -2.1867  1.1025 -0.0366
 8288SOL     OW36322   2.421   4.687   0.938  0.5828  0.2463 -0.2836
 8288SOL    HW136323   2.419   0.003   0.851  1.0740  1.0851  0.1023
 8288SOL    HW236324   2.460   0.032   0.990 -0.6999  1.8629 -1.4580
 8289SOL     OW36325   4.087   2.521  11.730 -0.0652 -0.4591 -0.5106
 8289SOL    HW136326   4.137   2.602  11.716 -1.1775  0.1093 -1.2166
 8289SOL    HW236327   4.039   2.552  11.808  0.6297 -1.7320  0.4134
 8290SOL     OW36328   2.554   0.234  11.083  0.7367  0.3707 -0.8238
 8290SOL    HW136329   2.513   0.314  11.116 -0.8678 -0.9682  0.4387
 8290SOL    HW236330   2.477   0.195  11.041  0.6372  0.4197 -0.6865
 8291SOL     OW36331   0.910   2.032   9.292 -0.0613 -0.5568 -0.4403
 8291SOL    HW136332   0.996   2.072   9.297 -0.7270  1.1152 -2.4628
 8291SOL    HW236333   0.883   2.054   9.382 -0.8880 -1.2856 -0.5081
 8292SOL     OW36334   4.393   0.964   5.088  0.1883  0.0874  0.3520
 8292SOL    HW136335   4.358   1.013   5.013 -0.7883 -0.5630  0.3825
 8292SOL    HW236336   4.340   0.997   5.160  1.0433 -0.7818  1.3706
 8293SOL     OW36337   0.634   0.007   4.807  0.4369 -0.0172  0.2955
 8293SOL    HW136338   0.550   0.032   4.846  0.4872 -0.6459  0.8051
 8293SOL    HW236339   0.689   4.721   4.885 -0.1290 -1.0709  0.5549
 8294SOL     OW36340   0.138   3.407  13.101  0.2146  0.7396 -0.1872
 8294SOL    HW136341   0.116   3.493  13.064 -0.7903  1.1530  1.4007
 8294SOL    HW236342   0.213   3.433  13.154 -0.4325  0.5826  0.7946
 8295SOL     OW36343   0.457   4.284  15.589 -0.1298  0.0382 -0.3048
 8295SOL    HW136344   0.467   4.322  15.677 -0.3484  0.1338 -0.3227
 8295SOL    HW236345   0.369   4.247  15.595  0.3112 -0.8389  0.8845
 8296SOL     OW36346   3.205   3.670   9.157 -0.2243 -0.2573  0.1566
 8296SOL    HW136347   3.216   3.580   9.128  1.1896  0.0609 -0.2740
 8296SOL    HW236348   3.231   3.721   9.080 -0.2266  0.4733  0.6333
 8297SOL     OW36349   1.276   3.677   7.865  0.4587  0.2711 -0.7429
 8297SOL    HW136350   1.268   3.732   7.787 -0.8435 -0.0458 -0.8312
 8297SOL    HW236351   1.366   3.702   7.888  1.4074 -2.2822 -1.6189
 8298SOL     OW36352   1.987   1.011   2.100  0.4627  0.2067  0.2812
 8298SOL    HW136353   2.060   1.047   2.151  0.8595 -0.1207 -0.0514
 8298SOL    HW236354   2.015   1.024   2.010  1.0493  0.7172  0.5332
 8299SOL     OW36355   4.339   1.513   6.412  0.1786 -0.2159  0.2486
 8299SOL    HW136356   4.310   1.574   6.344 -1.3033 -0.9257  0.2415
 8299SOL    HW236357   4.265   1.512   6.473 -0.7329 -1.7907 -0.8999
 8300SOL     OW36358   3.425   4.233   8.774 -0.0790  0.1617 -0.1627
 8300SOL    HW136359   3.385   4.288   8.707 -0.2082 -0.4112 -0.5555
 8300SOL    HW236360   3.501   4.287   8.797  0.4239  0.1619 -1.8715
 8301SOL     OW36361   2.224   2.638  13.467 -0.6796 -0.4376 -0.7560
 8301SOL    HW136362   2.226   2.660  13.560  0.9972  0.2110 -0.9433
 8301SOL    HW236363   2.224   2.727  13.432  2.2196 -0.5979 -1.2015
 8302SOL     OW36364   4.127   3.196   2.486 -0.4559  0.4431  0.3324
 8302SOL    HW136365   4.067   3.122   2.481 -0.1369  0.2948 -1.5503
 8302SOL    HW236366   4.141   3.214   2.393 -0.7213  0.5953  0.3248
 8303SOL     OW36367   0.105   0.147   6.683  0.4054 -0.3643  0.5719
 8303SOL    HW136368   0.052   0.067   6.686  0.7312 -0.7253 -2.5040
 8303SOL    HW236369   0.042   0.213   6.655 -0.3567 -0.8034  1.2759
 8304SOL     OW36370   4.359   4.347   0.769 -0.4290 -0.7596 -0.1229
 8304SOL    HW136371   4.417   4.326   0.696  0.0362  0.1853 -0.0370
 8304SOL    HW236372   4.275   4.305   0.748 -0.5744  0.0067 -1.0919
 8305SOL     OW36373   4.123   1.350   5.276 -0.3999 -0.3487 -0.6116
 8305SOL    HW136374   4.166   1.405   5.341 -1.5749 -0.9714  0.6892
 8305SOL    HW236375   4.070   1.291   5.329  0.9773 -1.5960 -0.6192
 8306SOL     OW36376   1.091   0.621  10.311  0.4110  0.0433  0.1031
 8306SOL    HW136377   1.105   0.661  10.226  5.2260 -1.7188  0.0319
 8306SOL    HW236378   1.179   0.585  10.325  0.5288  0.7339  1.1447
 8307SOL     OW36379   2.314   4.311   5.635  0.6860 -0.1109  0.3422
 8307SOL    HW136380   2.223   4.303   5.665  0.8867 -1.5396  0.5989
 8307SOL    HW236381   2.363   4.274   5.708  0.4568 -1.4657 -0.1859
 8308SOL     OW36382   3.994   2.525   4.474 -0.4311 -0.3090  0.4740
 8308SOL    HW136383   3.980   2.596   4.412  1.3274 -0.5474 -0.2032
 8308SOL    HW236384   4.027   2.469   4.404 -2.0604  1.6802 -1.8918
 8309SOL     OW36385   0.119   1.052   4.314  0.1967 -0.1177 -0.0879
 8309SOL    HW136386   0.145   1.021   4.401  2.2857 -1.0758 -1.0617
 8309SOL    HW236387   0.058   0.982   4.292  1.2701 -0.9589 -0.3736
 8310SOL     OW36388   3.407   2.694   6.409 -0.1647 -0.1394  0.5234
 8310SOL    HW136389   3.330   2.663   6.362 -0.6425  1.1120  0.4793
 8310SOL    HW236390   3.440   2.628   6.470 -0.8502 -0.6340  0.3463
 8311SOL     OW36391   2.706   1.187   6.768 -0.6985  0.3628  0.2104
 8311SOL    HW136392   2.786   1.221   6.809 -0.7368 -0.2569  0.7972
 8311SOL    HW236393   2.631   1.240   6.795 -0.6026 -0.9839  3.1604
 8312SOL     OW36394   4.207   2.455   5.371 -0.0354 -0.4929  0.3400
 8312SOL    HW136395   4.300   2.480   5.367 -0.4888  0.9133 -1.5161
 8312SOL    HW236396   4.181   2.504   5.449 -1.5254  1.4267 -1.3660
 8313SOL     OW36397   1.032   1.994   2.881  0.3506 -0.0078 -0.2833
 8313SOL    HW136398   0.950   2.039   2.860 -0.0365 -1.0944 -1.1282
 8313SOL    HW236399   1.097   2.063   2.867  0.2434  0.4565  1.5065
 8314SOL     OW36400   0.691   2.559   9.066  0.2322 -0.6006 -0.5402
 8314SOL    HW136401   0.727   2.547   9.154  1.0552 -0.4361 -0.8548
 8314SOL    HW236402   0.660   2.471   9.045 -0.5201 -0.1035 -1.5351
 8315SOL     OW36403   3.233   1.383   7.421 -0.2988 -0.0366 -0.4296
 8315SOL    HW136404   3.251   1.312   7.359  2.1512 -0.8379  1.1528
 8315SOL    HW236405   3.205   1.445   7.354 -2.4644  0.8737  1.3175
 8316SOL     OW36406   0.808   1.089   8.865  0.0994 -0.1466 -0.2012
 8316SOL    HW136407   0.738   1.139   8.907 -0.7802 -2.0474  0.5570
 8316SOL    HW236408   0.834   1.146   8.793 -1.5821 -1.0529 -1.5017
 8317SOL     OW36409   2.345   2.433   6.221 -0.2429 -0.4277  0.4793
 8317SOL    HW136410   2.375   2.404   6.135  2.2041 -1.1460  1.6051
 8317SOL    HW236411   2.407   2.383   6.274 -1.1199 -0.6520  1.2996
 8318SOL     OW36412   3.334   0.885  17.592 -0.2811 -0.4870 -0.1258
 8318SOL    HW136413   3.377   0.892  17.507 -1.8914  1.0163 -0.8064
 8318SOL    HW236414   3.410   0.850  17.639 -0.1621 -2.2663 -1.6822
 8319SOL     OW36415   3.974   4.070  11.229 -0.4925  0.3251  0.1110
 8319SOL    HW136416   4.015   4.125  11.161 -2.0278 -1.0083 -1.8982
 8319SOL    HW236417   4.001   3.982  11.202  1.5388  0.8269  0.4921
 8320SOL     OW36418   1.996   2.888   8.672 -0.1104 -0.1342  0.3922
 8320SOL    HW136419   1.947   2.911   8.751  1.7014  1.0388  1.1909
 8320SOL    HW236420   2.063   2.957   8.665 -0.2710 -0.1728 -1.5525
 8321SOL     OW36421   0.155   3.389   5.196 -0.3544 -0.2019  0.3239
 8321SOL    HW136422   0.128   3.392   5.105  0.8567  0.5457 -0.0059
 8321SOL    HW236423   0.131   3.476   5.230 -0.7700  0.2763 -1.2290
 8322SOL     OW36424   0.746   1.478  13.480 -0.1366 -0.0598  0.2007
 8322SOL    HW136425   0.818   1.504  13.537  0.1516  0.1616 -0.2578
 8322SOL    HW236426   0.685   1.544  13.512 -0.0683  0.7792 -1.3632
 8323SOL     OW36427   2.651   4.463   8.036  0.5879  1.3614  0.1405
 8323SOL    HW136428   2.743   4.486   8.049  0.8992  0.8186 -1.1206
 8323SOL    HW236429   2.607   4.536   8.081  0.3205  1.0131  0.4464
 8324SOL     OW36430   1.466   4.214   2.375  0.5674  0.5060 -0.3307
 8324SOL    HW136431   1.439   4.187   2.463 -0.2239  0.7165 -0.5120
 8324SOL    HW236432   1.545   4.263   2.396 -0.1338  1.0718  1.0345
 8325SOL     OW36433   0.374   4.467  14.143 -0.0442  0.8808  0.0209
 8325SOL    HW136434   0.458   4.481  14.187  0.6249 -0.1504 -0.9220
 8325SOL    HW236435   0.397   4.380  14.110  4.1262  1.9556  0.0363
 8326SOL     OW36436   0.047   2.813   6.837 -0.4112 -0.4738 -0.2714
 8326SOL    HW136437   4.724   2.880   6.886 -0.8423 -1.4528  0.6449
 8326SOL    HW236438   0.125   2.813   6.894 -0.6202  1.2654  0.0334
 8327SOL     OW36439   1.248   2.118  13.200  0.1371  0.4303  0.0470
 8327SOL    HW136440   1.204   2.034  13.208  2.2080 -0.5859  0.8069
 8327SOL    HW236441   1.222   2.172  13.275  1.4469  2.0724 -0.6684
 8328SOL     OW36442   1.999   3.642  11.152  0.1083  0.1114  0.6701
 8328SOL    HW136443   1.956   3.636  11.237  0.3084  1.8277  0.9136
 8328SOL    HW236444   2.045   3.558  11.150  1.5762  0.8292  3.5352
 8329SOL     OW36445   0.707   3.506   3.448 -0.2950  0.1564 -0.5896
 8329SOL    HW136446   0.676   3.481   3.361  0.6576  0.6879 -1.0701
 8329SOL    HW236447   0.656   3.441   3.496 -0.4942  0.4882 -0.3515
 8330SOL     OW36448   0.453   4.444   2.078 -0.2323  0.3394  0.5154
 8330SOL    HW136449   0.428   4.387   2.151 -0.9073 -0.0091  0.0098
 8330SOL    HW236450   0.546   4.457   2.094  0.2232 -1.5830 -0.5538
 8331SOL     OW36451   3.807   0.998   4.581  0.2385 -0.0989  0.1715
 8331SOL    HW136452   3.883   0.952   4.617 -0.6820 -1.6123  0.1583
 8331SOL    HW236453   3.782   0.951   4.502  1.2263 -2.2274  1.1237
 8332SOL     OW36454   3.283   4.128  15.576  0.0280  0.3410 -0.2560
 8332SOL    HW136455   3.337   4.117  15.653 -1.7428  1.1325  1.1109
 8332SOL    HW236456   3.318   4.057  15.523  1.4656  0.9013 -0.0557
 8333SOL     OW36457   0.353   1.871   4.016  0.1471  0.2151 -0.4948
 8333SOL    HW136458   0.405   1.947   3.990  1.9322 -0.5729  0.7945
 8333SOL    HW236459   0.400   1.804   3.966  0.3181  0.2746 -0.4165
 8334SOL     OW36460   0.537   3.317   3.571  0.2393  0.3024  0.4200
 8334SOL    HW136461   0.481   3.264   3.515  0.2581 -1.6370  2.2104
 8334SOL    HW236462   0.611   3.262   3.595  0.0017 -0.1021  0.2216
 8335SOL     OW36463   2.979   4.309   2.892 -0.1894  0.2506  0.0286
 8335SOL    HW136464   2.944   4.311   2.981  1.0486  0.7862  0.5174
 8335SOL    HW236465   2.922   4.363   2.838  0.7871  0.8501 -0.4033
 8336SOL     OW36466   4.551   2.914  13.626 -0.2687  0.1282 -0.0206
 8336SOL    HW136467   4.469   2.880  13.663 -1.2506 -0.0498 -2.3459
 8336SOL    HW236468   4.561   2.998  13.670 -1.2233  0.2102  0.0506
 8337SOL     OW36469   1.312   0.940  16.906 -0.1331  0.8706 -0.7279
 8337SOL    HW136470   1.225   0.909  16.882  0.1808 -0.1924 -0.4981
 8337SOL    HW236471   1.343   0.878  16.972 -0.1484  0.8716 -0.7199
 8338SOL     OW36472   0.743   4.562  16.978  0.7427 -0.6687 -0.2157
 8338SOL    HW136473   0.706   4.646  17.005  0.7918  0.2936 -3.1320
 8338SOL    HW236474   0.829   4.559  17.019  0.1613 -0.3467  1.0603
 8339SOL     OW36475   2.719   3.820   4.246 -0.1106 -0.4658 -0.2073
 8339SOL    HW136476   2.686   3.874   4.318 -0.1964 -0.2603 -0.3971
 8339SOL    HW236477   2.639   3.769   4.233  0.3899 -1.6097  1.2344
 8340SOL     OW36478   4.664   2.979   7.805 -0.3975  0.5124  0.1340
 8340SOL    HW136479   4.641   2.920   7.733  0.2814  1.1994 -0.6428
 8340SOL    HW236480   4.592   3.042   7.810  0.2077  1.1165  1.2185
 8341SOL     OW36481   2.332   3.722   0.813  0.3309 -0.2925  0.3081
 8341SOL    HW136482   2.360   3.789   0.876  0.5552  0.8889 -1.0610
 8341SOL    HW236483   2.268   3.778   0.770  0.6225 -0.1546  0.0483
 8342SOL     OW36484   2.800   2.770  15.554 -0.6482  0.6791 -0.2330
 8342SOL    HW136485   2.829   2.679  15.565  2.5219  1.6043 -0.7767
 8342SOL    HW236486   2.726   2.778  15.613 -1.2152 -2.4230 -0.5045
 8343SOL     OW36487   1.518   0.705  10.042 -0.0585 -0.0102 -0.6185
 8343SOL    HW136488   1.561   0.685   9.959  1.3370 -3.1184  0.8193
 8343SOL    HW236489   1.583   0.665  10.101 -1.5007  0.4778  1.3015
 8344SOL     OW36490   2.141   0.249   1.823 -0.6866 -0.1438 -0.1932
 8344SOL    HW136491   2.102   0.335   1.804 -0.5535 -0.1329 -0.4125
 8344SOL    HW236492   2.075   0.194   1.781  1.0689 -1.7583 -0.8738
 8345SOL     OW36493   0.324   0.514   4.471  0.4243  0.6570 -0.8436
 8345SOL    HW136494   0.281   0.569   4.537 -0.9713  1.4343 -2.3791
 8345SOL    HW236495   0.351   0.433   4.514  1.7782  1.8499  0.5134
 8346SOL     OW36496   4.652   3.342   0.117 -0.0821 -0.8035  0.0198
 8346SOL    HW136497   4.570   3.292   0.111 -1.1076  0.5252  2.7989
 8346SOL    HW236498   4.691   3.315   0.199 -0.1609 -0.6938  0.0942
 8347SOL     OW36499   2.771   4.118   9.032 -0.3890  0.1042  0.1261
 8347SOL    HW136500   2.675   4.123   9.026 -0.4559  0.0883  1.2871
 8347SOL    HW236501   2.786   4.023   9.029 -1.3665 -0.0922  1.6128
 8348SOL     OW36502   3.448   1.706  11.530  0.2459  0.6306  0.2042
 8348SOL    HW136503   3.487   1.635  11.479 -0.6027 -1.3535  2.3196
 8348SOL    HW236504   3.372   1.735  11.481 -1.8010 -0.6061  2.6889
 8349SOL     OW36505   1.745   1.559  14.458 -0.7236  0.2631  0.1470
 8349SOL    HW136506   1.686   1.494  14.495  0.1520 -0.8616 -0.4539
 8349SOL    HW236507   1.678   1.622  14.430 -1.5074 -0.5669  0.1355
 8350SOL     OW36508   0.824   2.463   5.101 -0.3295  0.4808 -0.0200
 8350SOL    HW136509   0.894   2.514   5.141 -1.7459  2.1944  0.2685
 8350SOL    HW236510   0.830   2.497   5.012 -1.3647 -1.2571 -0.7631
 8351SOL     OW36511   3.364   0.835   3.987 -0.6435  0.2224  0.0874
 8351SOL    HW136512   3.431   0.819   3.921 -0.5134 -3.7527  1.2008
 8351SOL    HW236513   3.288   0.814   3.933  1.0101 -2.9342 -0.9703
 8352SOL     OW36514   2.848   1.999   2.341 -0.0185 -0.6044 -0.0926
 8352SOL    HW136515   2.793   1.990   2.419  0.1567  0.3324  0.1401
 8352SOL    HW236516   2.795   1.975   2.265 -0.8763  0.4315  0.1747
 8353SOL     OW36517   4.364   1.032   0.303 -1.1761 -0.5222 -0.4763
 8353SOL    HW136518   4.366   1.127   0.293 -1.6642 -0.5513 -0.8378
 8353SOL    HW236519   4.294   1.019   0.366 -1.0236  0.7296 -0.0632
 8354SOL     OW36520   2.904   2.846   4.902 -0.7879  0.2038 -0.4243
 8354SOL    HW136521   2.820   2.837   4.948  0.5662  0.2948  2.0911
 8354SOL    HW236522   2.884   2.829   4.810 -1.7523 -0.8629 -0.0250
 8355SOL     OW36523   2.513   0.456  17.355  0.0845 -0.0056  0.5854
 8355SOL    HW136524   2.440   0.494  17.404  1.2079  0.1299  2.1215
 8355SOL    HW236525   2.499   0.361  17.348 -1.2502  0.2193  0.0154
 8356SOL     OW36526   3.508   2.622   7.671  0.2988 -0.0455  0.3510
 8356SOL    HW136527   3.510   2.634   7.576  1.7038  1.5215  0.5811
 8356SOL    HW236528   3.474   2.705   7.702 -1.9386 -0.6431 -0.4809
 8357SOL     OW36529   4.452   4.512   7.625 -0.2013  0.0720  0.2993
 8357SOL    HW136530   4.380   4.508   7.562  1.2023  1.1566 -1.3556
 8357SOL    HW236531   4.428   4.593   7.670  3.7219  0.8785  0.9995
 8358SOL     OW36532   2.873   0.730   5.021  0.1480  0.0884 -0.2672
 8358SOL    HW136533   2.934   0.751   4.951 -0.4576  0.0042 -0.8184
 8358SOL    HW236534   2.793   0.778   4.999  0.6542  0.0076 -2.2376
 8359SOL     OW36535   1.440   1.768   2.915 -0.1549  0.6072  0.0824
 8359SOL    HW136536   1.462   1.684   2.873  1.0181  1.1207 -0.3102
 8359SOL    HW236537   1.474   1.750   3.003 -1.3796 -2.7482 -0.1227
 8360SOL     OW36538   4.602   1.403  16.312  0.0223 -0.8321  0.0030
 8360SOL    HW136539   4.685   1.412  16.359  0.8423 -0.2539 -1.5560
 8360SOL    HW236540   4.536   1.427  16.378  0.1514 -0.3375 -0.0504
 8361SOL     OW36541   1.818   2.201   2.697 -0.3460  0.0262 -0.0509
 8361SOL    HW136542   1.726   2.179   2.680 -0.0017 -2.0900  0.8493
 8361SOL    HW236543   1.817   2.243   2.783  2.6737  0.2638 -0.1453
 8362SOL     OW36544   3.090   0.685   4.394  0.0414  0.0818  0.1045
 8362SOL    HW136545   3.162   0.743   4.418  1.1630 -0.7667 -1.2150
 8362SOL    HW236546   3.110   0.678   4.300  0.1987  1.3327  0.0458
 8363SOL     OW36547   0.927   1.016   9.782  0.7720 -0.0427 -0.2261
 8363SOL    HW136548   0.961   1.096   9.742  2.1646 -0.7171 -0.4081
 8363SOL    HW236549   0.979   1.021   9.863 -0.6879  3.8500  0.4448
 8364SOL     OW36550   4.723   4.610  13.606 -0.3411 -0.1666 -0.3946
 8364SOL    HW136551   0.028   4.683  13.661  0.2017  1.0960 -2.3747
 8364SOL    HW236552   4.628   4.622  13.605 -0.3280  0.0078  0.2661
 8365SOL     OW36553   0.735   4.227  10.961 -0.1877 -1.0406  0.2060
 8365SOL    HW136554   0.780   4.284  11.023 -1.8709 -2.0404  2.3554
 8365SOL    HW236555   0.671   4.292  10.929  0.1282 -1.2430 -0.8489
 8366SOL     OW36556   3.186   2.773   2.669  0.3859 -0.4588 -0.3573
 8366SOL    HW136557   3.231   2.689   2.678 -0.4142 -0.6906  1.3880
 8366SOL    HW236558   3.128   2.757   2.594  2.0544 -2.1990 -1.2777
 8367SOL     OW36559   2.261   2.710   6.023  0.4136 -0.4389  0.0862
 8367SOL    HW136560   2.260   2.797   5.983  1.3233 -1.1872 -1.5586
 8367SOL    HW236561   2.290   2.649   5.955  0.6005  0.0486 -0.2724
 8368SOL     OW36562   0.858   0.787   3.901 -0.2869  0.8451 -0.8618
 8368SOL    HW136563   0.764   0.788   3.922  0.2042 -1.7495  1.4173
 8368SOL    HW236564   0.870   0.721   3.833  0.1086 -1.0601  1.0887
 8369SOL     OW36565   1.910   2.617   4.208  0.2797 -0.3138  0.5161
 8369SOL    HW136566   1.905   2.619   4.113 -2.5050 -2.8374  0.5951
 8369SOL    HW236567   1.870   2.702   4.223 -3.4562 -1.1479 -4.5097
 8370SOL     OW36568   2.960   0.656   8.529  0.2266  0.6865 -0.3627
 8370SOL    HW136569   2.960   0.665   8.434 -0.2387  1.3543 -0.2963
 8370SOL    HW236570   2.972   0.561   8.538  2.8086  1.4202  4.5248
 8371SOL     OW36571   2.567   0.554   9.076 -0.1171 -0.7223  0.3505
 8371SOL    HW136572   2.578   0.533   8.983 -2.0415 -2.2903  0.4594
 8371SOL    HW236573   2.646   0.518   9.116 -0.2903 -0.5380  0.8625
 8372SOL     OW36574   4.237   3.914  15.311  0.0234 -0.2474 -0.6770
 8372SOL    HW136575   4.228   4.006  15.288  0.4565 -0.1754 -0.5415
 8372SOL    HW236576   4.229   3.941  15.402  0.6079 -0.7602 -0.4730
 8373SOL     OW36577   3.491   2.011   5.496  0.6667  0.1249  0.3890
 8373SOL    HW136578   3.421   1.947   5.478  0.0397  0.5678  1.2645
 8373SOL    HW236579   3.469   2.030   5.587 -1.0548  1.3647 -0.2879
 8374SOL     OW36580   2.641   3.852   8.905 -0.1551 -0.0669 -0.0220
 8374SOL    HW136581   2.587   3.826   8.980  0.9193  0.5627  0.9645
 8374SOL    HW236582   2.706   3.783   8.911 -1.0187 -1.0500 -1.8431
 8375SOL     OW36583   4.297   2.466   5.798 -0.4609 -0.1731 -0.1432
 8375SOL    HW136584   4.369   2.444   5.740 -0.2424  0.5538 -0.1360
 8375SOL    HW236585   4.229   2.404   5.771 -0.5437  1.4357 -3.5187
 8376SOL     OW36586   0.199   3.770   2.125  0.2000  0.0551  0.2321
 8376SOL    HW136587   0.182   3.753   2.033 -0.6794  2.3630 -0.0355
 8376SOL    HW236588   0.109   3.787   2.155 -0.3831 -0.8720 -1.0111
 8377SOL     OW36589   1.730   2.224   5.425 -0.3629 -0.1792  0.4714
 8377SOL    HW136590   1.706   2.132   5.424  2.5765 -0.9563  0.3835
 8377SOL    HW236591   1.784   2.229   5.346 -2.3128  1.6826 -0.7611
 8378SOL     OW36592   0.664   1.566   1.544 -0.3048  0.6269 -0.2842
 8378SOL    HW136593   0.670   1.602   1.456 -0.1873  0.5410 -0.3119
 8378SOL    HW236594   0.591   1.616   1.579 -2.2144 -1.7396 -0.8707
 8379SOL     OW36595   0.896   0.241   3.624  0.3175 -0.2628  0.1728
 8379SOL    HW136596   0.979   0.200   3.602  0.7613  0.1442  1.0974
 8379SOL    HW236597   0.853   0.168   3.666 -0.4337 -0.0263 -0.1866
 8380SOL     OW36598   1.247   3.720   0.472  0.4681 -0.0626  0.0602
 8380SOL    HW136599   1.173   3.660   0.474  0.0273  0.5562  1.9851
 8380SOL    HW236600   1.214   3.788   0.531 -0.3785 -2.2178  2.0366
 8381SOL     OW36601   4.396   4.574  13.852 -0.8254 -0.0978 -0.0051
 8381SOL    HW136602   4.440   4.545  13.772 -0.0220 -0.4988  0.5804
 8381SOL    HW236603   4.434   4.660  13.868 -0.0400 -0.5334  0.4145
 8382SOL     OW36604   0.624   3.325   6.074 -0.6692 -0.0256 -0.7222
 8382SOL    HW136605   0.693   3.381   6.038 -0.6469 -1.8710 -3.5250
 8382SOL    HW236606   0.551   3.387   6.076 -1.3476 -0.8417  0.2727
 8383SOL     OW36607   3.036   4.194   4.259 -0.3803  0.2788  0.2338
 8383SOL    HW136608   3.033   4.158   4.170  0.6272 -1.2157  0.7818
 8383SOL    HW236609   3.028   4.109   4.303 -0.4217 -0.2465 -0.7787
 8384SOL     OW36610   1.981   3.043   2.286  0.1627  0.0212 -1.0121
 8384SOL    HW136611   1.973   3.134   2.256 -2.5093  0.1922  0.2561
 8384SOL    HW236612   1.913   3.043   2.353 -0.0146 -0.7688 -1.1891
 8385SOL     OW36613   4.318   3.766  15.938 -0.2535 -0.4442 -0.2801
 8385SOL    HW136614   4.346   3.810  15.858 -0.9472 -0.6315 -0.6299
 8385SOL    HW236615   4.399   3.725  15.967 -0.3093 -0.3649 -0.0123
 8386SOL     OW36616   3.791   1.471   9.751  0.5141 -0.0318 -0.0192
 8386SOL    HW136617   3.855   1.425   9.806  0.2461 -0.2500  0.1102
 8386SOL    HW236618   3.715   1.460   9.808  2.0296 -0.0548  1.9943
 8387SOL     OW36619   3.278   4.353   0.058 -0.6165 -0.5235  0.0100
 8387SOL    HW136620   3.229   4.427   0.094  1.1278  0.4289  0.4461
 8387SOL    HW236621   3.340   4.327   0.127  0.6791  0.6373 -0.7106
 8388SOL     OW36622   4.631   0.482   3.902  0.7269 -0.7103  0.0248
 8388SOL    HW136623   4.567   0.468   3.972  0.6855  2.6499  0.6661
 8388SOL    HW236624   4.656   0.392   3.884 -1.1256 -0.6550 -2.6464
 8389SOL     OW36625   3.185   0.544   7.965 -0.5782 -0.4777  0.2455
 8389SOL    HW136626   3.157   0.564   7.876 -1.3528 -0.5993  0.4597
 8389SOL    HW236627   3.101   0.579   7.996 -0.3338  1.0439 -0.8200
 8390SOL     OW36628   4.215   3.855  14.988 -0.0033  0.1489  0.1920
 8390SOL    HW136629   4.141   3.795  14.998  0.9215 -1.1213 -0.5070
 8390SOL    HW236630   4.190   3.931  15.039  1.4058  0.5102  0.3564
 8391SOL     OW36631   3.946   3.930   3.415  0.0388 -0.4082  0.3248
 8391SOL    HW136632   4.003   3.855   3.434  1.8408  0.6846 -0.7879
 8391SOL    HW236633   3.867   3.881   3.438 -1.3055  0.6900 -1.9471
 8392SOL     OW36634   4.132   0.772  10.575  0.4545 -0.1191 -0.1421
 8392SOL    HW136635   4.126   0.868  10.578  2.6824  0.0454 -0.8947
 8392SOL    HW236636   4.105   0.766  10.667  0.8900 -2.2851 -0.1593
 8393SOL     OW36637   4.525   0.266   1.622  0.7703 -0.7049  0.0990
 8393SOL    HW136638   4.477   0.188   1.650 -0.4390  1.1925  3.3217
 8393SOL    HW236639   4.599   0.224   1.578 -0.3111 -3.9580  1.3782
 8394SOL     OW36640   1.520   4.169   6.798  0.0793 -0.7659  0.5146
 8394SOL    HW136641   1.587   4.221   6.753 -0.9312 -0.3911 -0.5751
 8394SOL    HW236642   1.456   4.168   6.726  2.5754 -0.9350 -1.7080
 8395SOL     OW36643   3.138   3.516   7.887 -0.1687 -0.5987  0.2815
 8395SOL    HW136644   3.095   3.467   7.958 -1.1573 -1.8022 -1.1322
 8395SOL    HW236645   3.075   3.587   7.874  1.1423  0.0702 -2.4318
 8396SOL     OW36646   2.403   3.370   7.644  0.0594 -0.3691 -0.4430
 8396SOL    HW136647   2.382   3.350   7.735 -0.7528  1.0974 -0.2928
 8396SOL    HW236648   2.315   3.370   7.605 -0.2284 -0.4202  0.2081
 8397SOL     OW36649   2.642   2.890   3.456  0.2360 -0.2730 -0.0476
 8397SOL    HW136650   2.612   2.835   3.383 -1.3837 -0.6804  0.9223
 8397SOL    HW236651   2.664   2.971   3.410 -1.4565 -1.3202 -2.6441
 8398SOL     OW36652   3.069   0.660   7.430 -0.1616 -0.3565  0.1336
 8398SOL    HW136653   3.013   0.584   7.448  0.0843 -0.7826 -0.8752
 8398SOL    HW236654   3.154   0.624   7.456  0.7050  1.5318 -0.0667
 8399SOL     OW36655   4.007   4.069   1.178 -0.3612 -0.1508  0.5386
 8399SOL    HW136656   3.918   4.033   1.186 -0.8972  0.6986 -1.6893
 8399SOL    HW236657   4.065   4.006   1.219 -0.3168 -0.4206  0.0589
 8400SOL     OW36658   1.861   4.712  15.928  0.1469 -0.3463  0.1701
 8400SOL    HW136659   1.828   4.690  15.841 -0.1608 -0.0278  0.2046
 8400SOL    HW236660   1.785   0.025  15.973  1.7094  2.4022  0.5164
 8401SOL     OW36661   1.484   1.594   4.189  0.3785  0.5404 -0.4160
 8401SOL    HW136662   1.519   1.611   4.102  1.4354  1.2710  0.1544
 8401SOL    HW236663   1.550   1.607   4.258  0.3162  1.1559 -0.4698
 8402SOL     OW36664   1.934   3.599   5.103 -0.6395  0.2118 -0.9300
 8402SOL    HW136665   1.943   3.635   5.191  2.0987  1.8425 -1.8621
 8402SOL    HW236666   1.896   3.514   5.124  1.8852 -0.9792 -1.1933
 8403SOL     OW36667   1.671   3.245   8.449  0.2524 -0.0080 -0.5095
 8403SOL    HW136668   1.664   3.184   8.523  0.8854  0.6879  0.1301
 8403SOL    HW236669   1.615   3.201   8.385 -0.9263  0.7283  0.0015
 8404SOL     OW36670   3.103   1.516   2.399 -0.0743  0.3596 -0.6007
 8404SOL    HW136671   3.091   1.550   2.311 -2.1416 -1.0983 -0.8845
 8404SOL    HW236672   3.095   1.422   2.382 -1.4156  0.6461 -1.4721
 8405SOL     OW36673   2.862   4.372   4.936 -0.9572  0.0583 -0.4781
 8405SOL    HW136674   2.803   4.355   4.863 -0.0635  0.4421 -1.2891
 8405SOL    HW236675   2.806   4.432   4.986 -1.3249 -0.4008 -0.3415
 8406SOL     OW36676   4.566   2.335   0.990  0.1811 -0.6169 -0.4361
 8406SOL    HW136677   4.596   2.333   1.081  0.7227 -1.3731 -0.6318
 8406SOL    HW236678   4.633   2.275   0.957  0.2471 -0.9744  0.3383
 8407SOL     OW36679   2.936   4.294   4.526 -0.3389  0.4787 -0.3121
 8407SOL    HW136680   2.909   4.383   4.505 -0.2785  0.0149 -2.4291
 8407SOL    HW236681   3.024   4.280   4.491  0.1789  0.3014  1.0713
 8408SOL     OW36682   2.527   2.827  15.773  0.4188  0.2650  0.0432
 8408SOL    HW136683   2.495   2.841  15.862  0.7803 -0.0055  0.2145
 8408SOL    HW236684   2.537   2.916  15.738 -1.1051  1.0897  1.7131
 8409SOL     OW36685   4.190   3.537  17.615  0.1263 -0.2306  0.2457
 8409SOL    HW136686   4.168   3.629  17.629 -1.4021 -0.7346  1.1253
 8409SOL    HW236687   4.271   3.521  17.663  0.5976  1.8309  0.1359
 8410SOL     OW36688   2.930   3.794   6.224  0.5850 -0.5118 -0.2068
 8410SOL    HW136689   2.921   3.743   6.144  0.7603  2.6605 -2.2604
 8410SOL    HW236690   3.001   3.746   6.266  0.6175  0.9480  1.4425
 8411SOL     OW36691   0.587   0.120   1.294  0.4051  0.0516 -0.2022
 8411SOL    HW136692   0.608   0.197   1.346  1.9409 -1.0080  0.7390
 8411SOL    HW236693   0.675   0.084   1.284  1.7483  3.0693  0.9959
 8412SOL     OW36694   0.525   1.803  14.466  0.7885  0.0870  0.1064
 8412SOL    HW136695   0.595   1.832  14.408 -0.0536 -0.2091 -1.0468
 8412SOL    HW236696   0.575   1.746  14.525  0.8834 -1.3823 -1.3899
 8413SOL     OW36697   0.579   3.880  14.703  0.1466  0.0246  0.4867
 8413SOL    HW136698   0.502   3.840  14.743  1.2658  0.0827  2.6706
 8413SOL    HW236699   0.647   3.857  14.767 -0.3104 -1.5270  0.4207
 8414SOL     OW36700   4.553   3.816   5.401 -0.2712  0.3425  0.8538
 8414SOL    HW136701   4.536   3.730   5.362 -1.3150  0.5304  0.8980
 8414SOL    HW236702   4.554   3.885   5.334  0.9474  0.9175  1.4624
 8415SOL     OW36703   1.220   2.550   6.543  0.1710  0.0716 -0.5579
 8415SOL    HW136704   1.257   2.632   6.576  0.9701 -0.2629 -0.6067
 8415SOL    HW236705   1.263   2.543   6.458 -1.1193 -0.3243 -1.1743
 8416SOL     OW36706   3.727   1.335   1.695 -0.4223  0.3057  0.4781
 8416SOL    HW136707   3.684   1.418   1.713 -2.7206 -1.4431  3.0123
 8416SOL    HW236708   3.659   1.281   1.735 -0.4274 -1.1747 -1.5125
 8417SOL     OW36709   1.868   1.182   3.581 -0.1830  0.1846 -0.0379
 8417SOL    HW136710   1.931   1.240   3.539 -0.1907 -0.9949 -1.6839
 8417SOL    HW236711   1.929   1.145   3.644  0.1132  1.1693  0.2487
 8418SOL     OW36712   1.731   1.860   1.915  0.3626  0.4529 -0.3576
 8418SOL    HW136713   1.640   1.850   1.944  0.1417  1.7355 -0.6047
 8418SOL    HW236714   1.774   1.805   1.981 -1.4210  0.3175  0.7162
 8419SOL     OW36715   3.190   3.660   6.270 -0.4121  0.3060 -0.0901
 8419SOL    HW136716   3.235   3.683   6.189 -0.7179  0.1514 -0.3058
 8419SOL    HW236717   3.236   3.579   6.291 -1.9371 -0.0852  1.7693
 8420SOL     OW36718   0.572   4.589   8.405  0.0230  0.1429 -0.0742
 8420SOL    HW136719   0.553   4.624   8.492 -1.1162 -0.0360 -0.2541
 8420SOL    HW236720   0.487   4.569   8.365  0.3997 -0.3253 -0.6297
 8421SOL     OW36721   2.234   1.306   4.857 -0.1860  0.2645  0.3892
 8421SOL    HW136722   2.139   1.293   4.855 -0.0741 -0.3247 -0.7325
 8421SOL    HW236723   2.241   1.348   4.943  2.4468  0.9959 -0.1781
 8422SOL     OW36724   3.072   2.453  12.961 -0.2246 -0.5751 -0.3694
 8422SOL    HW136725   3.155   2.438  12.915 -0.0742  0.1661 -0.3489
 8422SOL    HW236726   3.063   2.382  13.024  0.5800 -0.9222 -0.6443
 8423SOL     OW36727   4.371   3.422   2.011 -0.0863  0.5358  0.5316
 8423SOL    HW136728   4.287   3.389   1.979  0.8930  0.8612 -2.4206
 8423SOL    HW236729   4.431   3.391   1.943  0.3746  2.9802 -0.1559
 8424SOL     OW36730   3.739   3.268   6.231  0.5142  0.4988 -0.0100
 8424SOL    HW136731   3.765   3.323   6.305 -1.3396  2.3207 -0.7031
 8424SOL    HW236732   3.710   3.185   6.269  0.5665  0.3865 -0.2136
 8425SOL     OW36733   2.297   4.049   2.554 -0.5618  0.3290  0.1371
 8425SOL    HW136734   2.266   3.983   2.492  2.9372  0.1770 -1.4778
 8425SOL    HW236735   2.231   4.118   2.556  1.3491  2.1665 -0.4536
 8426SOL     OW36736   3.220   2.508   7.587  0.5414  0.1023  0.4311
 8426SOL    HW136737   3.219   2.480   7.679 -0.1395  0.7967  0.6281
 8426SOL    HW236738   3.294   2.568   7.596  0.3864  0.5676 -1.5492
 8427SOL     OW36739   0.064   2.850   3.428 -0.3970 -0.3609 -0.2589
 8427SOL    HW136740   0.059   2.895   3.512 -0.8391 -1.6364  0.3961
 8427SOL    HW236741   4.710   2.882   3.385  0.0781 -0.3146 -1.0901
 8428SOL     OW36742   0.670   2.534   5.532  0.1182  0.0286 -0.1050
 8428SOL    HW136743   0.757   2.507   5.502 -0.2101 -0.8207 -0.2997
 8428SOL    HW236744   0.636   2.455   5.573 -0.6153  0.5878  0.3586
 8429SOL     OW36745   2.315   4.593  15.939 -0.2119 -0.1558 -0.5401
 8429SOL    HW136746   2.240   4.650  15.921  0.3441  0.5901 -0.4903
 8429SOL    HW236747   2.376   4.602  15.866  1.4283  1.7730  1.0408
 8430SOL     OW36748   0.320   2.809   3.472  0.2846 -0.0522  0.1238
 8430SOL    HW136749   0.229   2.812   3.443  0.3685  2.9829  0.1374
 8430SOL    HW236750   0.316   2.830   3.566  1.5440  1.9699 -0.2679
 8431SOL     OW36751   1.771   0.104  11.246  0.3441  0.4288  0.2585
 8431SOL    HW136752   1.759   0.197  11.228  3.8971  0.7723 -0.3624
 8431SOL    HW236753   1.726   0.095  11.330 -0.9953  1.9204 -0.3174
 8432SOL     OW36754   2.684   1.294   7.318  0.6400 -0.3387 -0.0740
 8432SOL    HW136755   2.739   1.368   7.345  2.5726 -1.2076 -1.5692
 8432SOL    HW236756   2.712   1.223   7.375  0.4040 -0.7084 -0.4121
 8433SOL     OW36757   4.232   3.994   5.457 -0.2956 -0.2332  0.5055
 8433SOL    HW136758   4.284   4.043   5.521 -0.8326 -0.7883  1.3608
 8433SOL    HW236759   4.196   3.917   5.500  2.7681 -1.3313  1.0607
 8434SOL     OW36760   2.945   2.954   1.341  0.4275 -0.4417  0.3522
 8434SOL    HW136761   2.910   2.938   1.253  0.4212 -0.7808  0.4141
 8434SOL    HW236762   3.016   2.890   1.345 -0.0114 -0.9265  0.4014
 8435SOL     OW36763   2.794   0.638  16.357 -0.5651 -0.5769 -0.8891
 8435SOL    HW136764   2.823   0.627  16.447  2.1040 -2.0527 -1.9326
 8435SOL    HW236765   2.820   0.725  16.325  0.0331 -1.1728 -2.0325
 8436SOL     OW36766   1.009   2.803   2.439  0.4613 -0.3617 -0.0193
 8436SOL    HW136767   1.054   2.728   2.400  0.9451 -0.5711  0.9250
 8436SOL    HW236768   1.032   2.874   2.379 -1.4809  0.1914 -0.1049
 8437SOL     OW36769   0.210   4.032  11.756  0.1954  0.2200 -0.0371
 8437SOL    HW136770   0.286   3.987  11.793 -0.9964 -0.9746  0.9700
 8437SOL    HW236771   0.177   4.060  11.841  0.1139 -1.9040  0.6305
 8438SOL     OW36772   1.643   4.505   5.123  0.3524  0.6559  0.0014
 8438SOL    HW136773   1.650   4.431   5.183  2.4838  1.1668  0.4213
 8438SOL    HW236774   1.688   4.467   5.047  1.1300  0.4480  0.5594
 8439SOL     OW36775   1.920   3.011   9.200  0.4614 -0.2140  0.3797
 8439SOL    HW136776   1.855   2.971   9.258  0.6537 -0.3911  0.4744
 8439SOL    HW236777   1.960   3.075   9.258  1.4142  0.7276 -1.3258
 8440SOL     OW36778   4.139   1.998   3.016 -0.2484 -0.4817 -0.0927
 8440SOL    HW136779   4.058   2.039   3.048  1.4571  2.7078  0.2177
 8440SOL    HW236780   4.095   1.970   2.936 -0.2448 -2.5113  0.6251
 8441SOL     OW36781   3.779   0.532   8.818  0.1670 -0.5161 -0.3988
 8441SOL    HW136782   3.813   0.611   8.776  1.9545 -0.8532  0.4686
 8441SOL    HW236783   3.698   0.569   8.852 -0.2645 -1.6578 -0.1742
 8442SOL     OW36784   2.525   3.620   7.615 -0.0948 -0.4257  0.1270
 8442SOL    HW136785   2.461   3.550   7.624 -2.2604  1.6503  1.0381
 8442SOL    HW236786   2.481   3.686   7.669 -0.0651  0.1734 -0.5733
 8443SOL     OW36787   0.605   4.297   5.058 -0.1308  0.2828 -0.2079
 8443SOL    HW136788   0.568   4.261   4.978 -3.0157 -0.3644  1.3888
 8443SOL    HW236789   0.615   4.218   5.111 -2.7522  1.0983  1.5191
 8444SOL     OW36790   1.818   1.791   2.915 -0.1261 -0.0524 -0.5601
 8444SOL    HW136791   1.759   1.850   2.961  0.8476  0.2199  0.3209
 8444SOL    HW236792   1.895   1.846   2.925 -0.2095 -0.5806  2.8444
 8445SOL     OW36793   1.177   1.109   7.007 -0.9689  0.3224  0.2562
 8445SOL    HW136794   1.238   1.064   6.948 -0.6820 -0.3746  1.0755
 8445SOL    HW236795   1.096   1.090   6.959  0.0976 -2.1527 -0.5874
 8446SOL     OW36796   4.185   3.789   3.228  0.1029  0.0254  0.4348
 8446SOL    HW136797   4.224   3.823   3.147 -2.0256 -1.8884 -1.3737
 8446SOL    HW236798   4.235   3.708   3.234 -0.1616 -0.1348  0.4466
 8447SOL     OW36799   3.442   1.228   7.800 -0.0878 -0.1276 -0.3699
 8447SOL    HW136800   3.355   1.193   7.817 -0.4813  1.3759  0.6744
 8447SOL    HW236801   3.433   1.239   7.705  2.4313  1.6430 -0.4099
 8448SOL     OW36802   4.621   2.616   1.901  0.1972  0.1461 -0.3565
 8448SOL    HW136803   4.612   2.615   1.997  0.5821 -0.9392 -0.3276
 8448SOL    HW236804   4.605   2.708   1.883  0.4690  0.1568 -0.5381
 8449SOL     OW36805   2.882   0.844  15.636  0.2375 -0.3471  0.0091
 8449SOL    HW136806   2.833   0.807  15.562  1.6625 -1.7610 -0.2320
 8449SOL    HW236807   2.812   0.841  15.702 -0.9736  0.8867 -1.2081
 8450SOL     OW36808   3.683   1.494   6.546  0.2818  0.0706  0.0305
 8450SOL    HW136809   3.708   1.455   6.463  1.1544 -1.0896  0.8429
 8450SOL    HW236810   3.587   1.491   6.539  0.2672  0.8770 -0.2247
 8451SOL     OW36811   0.360   0.078   7.790  0.1777  0.6613  0.0158
 8451SOL    HW136812   0.359   0.086   7.694  1.3219 -0.2504 -0.0752
 8451SOL    HW236813   0.446   0.102   7.824 -0.8519  2.1747  1.4990
 8452SOL     OW36814   3.674   4.702  16.290 -0.3564 -0.4800  0.1611
 8452SOL    HW136815   3.662   0.018  16.204 -1.5417 -1.4294 -0.1229
 8452SOL    HW236816   3.699   4.613  16.267  0.7574 -0.1732  0.1447
 8453SOL     OW36817   1.285   3.363  12.247  0.2027  0.3229 -0.4344
 8453SOL    HW136818   1.314   3.454  12.245 -1.1066  0.7809  2.3775
 8453SOL    HW236819   1.280   3.348  12.152  1.5329  0.9465 -0.6048
 8454SOL     OW36820   4.578   3.853   6.627  0.7292  0.6030  0.1564
 8454SOL    HW136821   4.629   3.929   6.598  1.5348  0.0868  0.2339
 8454SOL    HW236822   4.516   3.883   6.694 -1.6687 -2.0894 -0.8528
 8455SOL     OW36823   1.345   0.911   2.163 -0.5407 -0.5586 -0.5560
 8455SOL    HW136824   1.307   0.926   2.250 -0.4071 -0.7526 -0.4653
 8455SOL    HW236825   1.275   0.950   2.111 -1.5393 -1.9285 -0.2425
 8456SOL     OW36826   2.922   0.516   1.738 -0.2871 -0.0897  0.0372
 8456SOL    HW136827   2.834   0.526   1.703 -0.1061 -1.7054 -0.9235
 8456SOL    HW236828   2.903   0.501   1.831 -2.8501  1.8697 -0.1756
 8457SOL     OW36829   1.060   1.570   1.476  0.1948  0.0321  0.1234
 8457SOL    HW136830   1.036   1.660   1.457  1.7192 -0.1671 -2.7892
 8457SOL    HW236831   1.025   1.528   1.398 -1.7568 -0.3359  1.1808
 8458SOL     OW36832   2.825   0.624   2.856  0.2866  0.6629 -0.3632
 8458SOL    HW136833   2.818   0.703   2.801  0.5927 -0.2018 -1.6474
 8458SOL    HW236834   2.912   0.588   2.839 -0.0879 -0.1393 -0.5806
 8459SOL     OW36835   2.931   1.996   6.236  0.7530  0.1884  0.1256
 8459SOL    HW136836   2.983   2.066   6.196  0.5631  0.8910  1.0940
 8459SOL    HW236837   2.914   2.030   6.324 -0.6293  1.5511 -0.6550
 8460SOL     OW36838   2.717   3.287   3.899 -0.3652 -0.2990  0.2314
 8460SOL    HW136839   2.661   3.322   3.968 -1.3896  2.3465 -1.9136
 8460SOL    HW236840   2.681   3.320   3.817 -1.1555 -1.0135  0.2881
 8461SOL     OW36841   1.971   2.614   4.488  0.1101 -0.2450  0.2982
 8461SOL    HW136842   1.933   2.620   4.400  0.7772  3.1747  0.2688
 8461SOL    HW236843   1.899   2.657   4.535 -0.5452 -0.1576 -0.7797
 8462SOL     OW36844   2.472   2.458   5.382  0.1478  0.1416 -0.1972
 8462SOL    HW136845   2.416   2.394   5.338  2.9170 -0.9758 -2.0167
 8462SOL    HW236846   2.552   2.409   5.396  0.2614  0.0574 -1.1465
 8463SOL     OW36847   1.947   4.296   7.167  0.0932  0.5384 -0.5175
 8463SOL    HW136848   2.015   4.270   7.105  0.3731  0.2807 -0.1104
 8463SOL    HW236849   1.880   4.243   7.125  1.8843 -0.0869 -2.5640
 8464SOL     OW36850   2.896   1.885   1.918 -0.1206  0.6759  0.2037
 8464SOL    HW136851   2.934   1.973   1.909 -0.1634  0.8202  1.4299
 8464SOL    HW236852   2.970   1.840   1.960 -0.2430  0.0197 -0.2911
 8465SOL     OW36853   1.326   1.825   8.959  0.0770  0.2390  0.7331
 8465SOL    HW136854   1.303   1.845   9.050  1.2391  0.2443  1.0310
 8465SOL    HW236855   1.240   1.806   8.923  0.6143 -3.6083  1.5113
 8466SOL     OW36856   4.320   2.190   5.101 -0.0596 -0.1127  0.3445
 8466SOL    HW136857   4.352   2.240   5.026  0.9401  0.4889  1.1740
 8466SOL    HW236858   4.262   2.262   5.123 -0.3017 -0.3078  0.3408
 8467SOL     OW36859   4.293   3.559   3.880 -0.3276  0.3528 -0.0697
 8467SOL    HW136860   4.366   3.613   3.910 -1.9549  3.4722 -1.7374
 8467SOL    HW236861   4.248   3.540   3.963 -0.7503 -0.4202 -0.4695
 8468SOL     OW36862   2.030   0.701   5.281  0.7465 -0.1725  0.2432
 8468SOL    HW136863   2.051   0.781   5.329  0.2286  1.2865 -1.9452
 8468SOL    HW236864   1.960   0.720   5.218  0.3139  1.5576  1.2407
 8469SOL     OW36865   2.524   0.090   4.996 -0.3337  0.1001  0.0293
 8469SOL    HW136866   2.556   0.113   4.909  1.3046  1.0487  0.8870
 8469SOL    HW236867   2.433   0.077   4.969 -0.5582 -0.7932  1.2009
 8470SOL     OW36868   0.338   4.268   7.566 -0.0310  0.0264 -0.0381
 8470SOL    HW136869   0.338   4.256   7.661  0.5464 -0.9424 -0.1594
 8470SOL    HW236870   0.279   4.343   7.561 -0.8100 -0.5841 -0.0314
 8471SOL     OW36871   1.466   1.318   5.347 -0.1617  0.2904 -0.4458
 8471SOL    HW136872   1.386   1.322   5.294 -1.2557  2.0842  1.3368
 8471SOL    HW236873   1.434   1.283   5.430 -1.3536  0.4215 -0.8435
 8472SOL     OW36874   2.756   2.204  13.144 -0.2702 -0.1233 -0.3494
 8472SOL    HW136875   2.732   2.180  13.054 -0.1817 -0.8226 -0.1877
 8472SOL    HW236876   2.845   2.180  13.118 -0.1263  1.5943 -1.4626
 8473SOL     OW36877   1.267   4.193   5.281 -0.1651  0.1494 -0.0653
 8473SOL    HW136878   1.307   4.280   5.285  0.4505 -0.1346 -0.0276
 8473SOL    HW236879   1.207   4.200   5.207  0.7152  1.8043 -0.6091
 8474SOL     OW36880   0.662   3.649  10.784 -0.2899  0.2379 -0.2543
 8474SOL    HW136881   0.706   3.615  10.863 -1.4833 -0.8621 -0.0569
 8474SOL    HW236882   0.656   3.739  10.816  0.8965  0.3490 -0.3654
 8475SOL     OW36883   0.932   2.413   9.810  0.1169  0.1834 -0.2842
 8475SOL    HW136884   1.004   2.370   9.855  0.1164  1.5990  1.0914
 8475SOL    HW236885   0.859   2.392   9.868  0.3261 -0.3480 -0.2218
 8476SOL     OW36886   2.631   0.261   3.469  0.7092  0.3280 -0.5107
 8476SOL    HW136887   2.655   0.213   3.389 -1.2047 -0.6751 -0.4811
 8476SOL    HW236888   2.569   0.199   3.507 -0.2349  1.3909 -0.3337
 8477SOL     OW36889   1.681   2.678  16.984 -0.2508 -0.3461  0.5296
 8477SOL    HW136890   1.597   2.716  16.956 -0.2795 -1.0312 -0.3186
 8477SOL    HW236891   1.708   2.634  16.904 -0.1750 -1.3132  1.0911
 8478SOL     OW36892   3.820   4.555  13.438 -0.1447 -0.2351  0.1494
 8478SOL    HW136893   3.877   4.536  13.364 -2.5089  1.8079 -2.2206
 8478SOL    HW236894   3.779   4.469  13.449  1.3754 -1.0355 -0.5144
 8479SOL     OW36895   4.397   2.470   4.997  0.2999  0.0580 -0.3596
 8479SOL    HW136896   4.437   2.430   4.920  3.1160 -0.0215  1.1573
 8479SOL    HW236897   4.311   2.491   4.961 -0.1497 -1.0445  0.0649
 8480SOL     OW36898   4.459   1.911   2.630  0.2990 -0.8622  0.0249
 8480SOL    HW136899   4.364   1.905   2.642 -0.1037 -1.7374 -3.6797
 8480SOL    HW236900   4.464   2.002   2.660  0.1228 -0.8970  0.1602
 8481SOL     OW36901   1.955   3.517  16.321  0.3524  0.1223 -0.2033
 8481SOL    HW136902   1.910   3.441  16.284  0.0001  0.3462 -0.2368
 8481SOL    HW236903   2.043   3.504  16.285  0.9956 -1.2472  1.8345
 8482SOL     OW36904   0.656   2.914   2.773  0.6703 -0.5055  0.1029
 8482SOL    HW136905   0.678   3.003   2.746  0.6225 -1.0599 -1.7752
 8482SOL    HW236906   0.719   2.898   2.843  0.3943  1.8491  0.8609
 8483SOL     OW36907   0.034   4.403   3.387 -0.7434  0.0936 -0.0792
 8483SOL    HW136908   0.091   4.401   3.463 -0.2823  2.5546 -0.3668
 8483SOL    HW236909   4.699   4.472   3.417 -1.7535 -1.0487  0.5472
 8484SOL     OW36910   4.119   4.375   7.231  0.6436 -0.1423 -0.1871
 8484SOL    HW136911   4.049   4.427   7.192 -0.0725 -0.5737  0.5337
 8484SOL    HW236912   4.130   4.318   7.155 -1.7648  2.0822 -2.2014
 8485SOL     OW36913   1.701   2.032   4.329  0.2488  0.1066  0.1182
 8485SOL    HW136914   1.700   2.127   4.344 -0.5581  0.2803 -1.0644
 8485SOL    HW236915   1.683   1.998   4.417 -1.7960 -0.3102 -0.4637
 8486SOL     OW36916   3.688   3.240   4.203 -0.2693  0.1053 -0.1712
 8486SOL    HW136917   3.645   3.155   4.212  0.6236 -0.2414  0.7411
 8486SOL    HW236918   3.731   3.222   4.120 -0.2745  0.0935 -0.1713
 8487SOL     OW36919   3.884   1.224  16.965 -0.0865 -0.7266 -0.0281
 8487SOL    HW136920   3.896   1.142  16.917 -2.3233 -1.1342  0.1255
 8487SOL    HW236921   3.867   1.289  16.898 -1.3087  0.6666  1.6276
 8488SOL     OW36922   2.070   4.593   9.192  0.1506 -0.8052 -0.4618
 8488SOL    HW136923   2.034   4.543   9.266 -1.6583 -0.4462 -1.0864
 8488SOL    HW236924   2.153   4.612   9.235 -0.7713  0.4196  0.8106
 8489SOL     OW36925   4.464   1.891   7.354  0.0572  0.4845 -0.1800
 8489SOL    HW136926   4.460   1.973   7.403 -1.9589  0.1723  0.1900
 8489SOL    HW236927   4.399   1.834   7.396  0.7963 -0.3624 -0.1741
 8490SOL     OW36928   2.283   0.361  11.362 -0.4782 -0.0557  0.3912
 8490SOL    HW136929   2.237   0.361  11.446  1.3033 -0.9708  1.3591
 8490SOL    HW236930   2.336   0.284  11.381  0.4911  1.1258  2.4840
 8491SOL     OW36931   2.203   3.898   7.460 -0.3985  0.0429 -0.7230
 8491SOL    HW136932   2.155   3.896   7.542 -0.1782 -1.2315 -0.6327
 8491SOL    HW236933   2.226   3.991   7.457  0.3687 -0.1613 -1.2150
 8492SOL     OW36934   2.824   2.939  12.623 -0.2713 -0.1664  0.2044
 8492SOL    HW136935   2.834   2.954  12.717 -0.6176 -1.8002  0.5023
 8492SOL    HW236936   2.882   2.865  12.607 -0.2469 -0.2785  0.7993
 8493SOL     OW36937   1.805   4.058  16.708 -0.2725  0.3187  0.8252
 8493SOL    HW136938   1.787   3.984  16.651 -1.2637  1.8870 -0.9128
 8493SOL    HW236939   1.739   4.115  16.668 -0.5340 -0.0828  0.6886
 8494SOL     OW36940   2.746   2.262   8.351 -0.5684  0.3646 -0.8849
 8494SOL    HW136941   2.706   2.215   8.424  0.9589  2.0295  1.0367
 8494SOL    HW236942   2.838   2.237   8.353 -0.7097 -0.0597  0.1173
 8495SOL     OW36943   3.454   4.700  11.594 -0.0314 -0.0665  0.0921
 8495SOL    HW136944   3.364   4.668  11.596  0.1568 -0.8142 -2.9618
 8495SOL    HW236945   3.506   4.622  11.610 -0.2367 -0.2386 -0.0769
 8496SOL     OW36946   1.610   1.928  14.452 -0.7960  0.1446 -0.2267
 8496SOL    HW136947   1.520   1.962  14.453 -0.6688  0.4613  0.5497
 8496SOL    HW236948   1.612   1.848  14.504  0.6829  0.5069  0.2847
 8497SOL     OW36949   3.421   2.942   5.746 -0.3414  0.0852 -0.0661
 8497SOL    HW136950   3.357   3.014   5.748  0.4737  0.8837 -2.1839
 8497SOL    HW236951   3.496   2.993   5.774  0.9836 -1.1031 -1.4736
 8498SOL     OW36952   0.767   4.364   6.652  0.4743  0.0601 -0.9521
 8498SOL    HW136953   0.856   4.338   6.676 -0.0739 -2.0390 -1.1714
 8498SOL    HW236954   0.772   4.458   6.666 -0.0537 -0.2108  1.0658
 8499SOL     OW36955   4.142   0.931   3.496 -0.4138  0.1831 -0.3961
 8499SOL    HW136956   4.185   0.991   3.435  0.3540 -0.0528 -0.0857
 8499SOL    HW236957   4.213   0.905   3.554 -0.2350  0.1945 -0.6098
 8500SOL     OW36958   3.292   1.107   2.080  0.1422  0.3620  0.0273
 8500SOL    HW136959   3.374   1.081   2.038 -1.9422 -0.3416 -3.5979
 8500SOL    HW236960   3.226   1.072   2.020 -0.0355 -1.0207  1.0111
 8501SOL     OW36961   3.056   2.609   1.957 -0.1697  0.1857 -0.8946
 8501SOL    HW136962   3.114   2.641   2.026  1.3573 -0.8431 -1.7015
 8501SOL    HW236963   3.077   2.516   1.950  2.3589  0.5105  2.3744
 8502SOL     OW36964   3.506   4.483   5.043 -0.0342  0.0619  0.6041
 8502SOL    HW136965   3.496   4.533   5.124 -0.1047  1.3320 -0.1875
 8502SOL    HW236966   3.413   4.465   5.028 -0.0144 -0.0953  0.6728
 8503SOL     OW36967   0.464   4.700   3.644 -0.1898 -0.2531 -0.3216
 8503SOL    HW136968   0.379   4.670   3.676 -2.3555  3.1046 -2.8487
 8503SOL    HW236969   0.446   0.065   3.616  2.1425  1.1505  2.7129
 8504SOL     OW36970   3.552   2.577   9.070 -0.7613 -0.1405  0.4013
 8504SOL    HW136971   3.554   2.646   9.004  0.2876 -0.6295 -0.0643
 8504SOL    HW236972   3.576   2.507   9.011  0.6380  1.2010 -0.6204
 8505SOL     OW36973   0.983   3.874   6.438 -0.0757 -0.0994  0.1293
 8505SOL    HW136974   0.973   3.937   6.510  1.5596 -0.1833  0.4464
 8505SOL    HW236975   0.927   3.799   6.457 -0.4198 -0.4335 -2.2048
 8506SOL     OW36976   1.141   2.023   7.293  0.0694  0.4070 -0.1410
 8506SOL    HW136977   1.209   2.058   7.237  0.9890 -1.2325 -0.0581
 8506SOL    HW236978   1.184   1.946   7.330 -2.1362 -0.4441  0.6834
 8507SOL     OW36979   1.396   2.221  14.764  0.3158  0.1798 -0.0292
 8507SOL    HW136980   1.312   2.182  14.740 -0.0638  1.0521 -0.0942
 8507SOL    HW236981   1.420   2.270  14.686  0.1798 -0.6566 -0.6071
 8508SOL     OW36982   0.792   2.214   5.240 -0.0951 -0.5182  0.2923
 8508SOL    HW136983   0.810   2.296   5.194 -0.4162 -0.1857  0.7627
 8508SOL    HW236984   0.777   2.156   5.165  0.2079 -0.1846 -0.0332
 8509SOL     OW36985   1.244   0.140  12.324 -0.1983  0.8257 -0.2267
 8509SOL    HW136986   1.290   0.063  12.357 -1.8670  0.2103  0.6489
 8509SOL    HW236987   1.175   0.107  12.267 -0.0007 -1.6775  0.9671
 8510SOL     OW36988   0.404   0.470   4.762  0.6780  0.1494 -0.0804
 8510SOL    HW136989   0.358   0.553   4.750  1.6404  0.4289 -1.7874
 8510SOL    HW236990   0.371   0.439   4.846  0.5457 -1.8396 -0.8658
 8511SOL     OW36991   2.477   2.295   3.121 -0.0085 -0.1511  0.5898
 8511SOL    HW136992   2.560   2.246   3.126 -1.1193 -2.1036 -0.3438
 8511SOL    HW236993   2.438   2.248   3.195  0.6428  0.3264  1.2384
 8512SOL     OW36994   1.028   0.360   9.604  0.4195 -0.4834 -0.1091
 8512SOL    HW136995   1.057   0.362   9.696 -0.2071  1.9399  0.0257
 8512SOL    HW236996   1.112   0.359   9.560 -0.7831 -2.4345 -2.3440
 8513SOL     OW36997   1.830   3.684   8.306 -0.2579 -0.4836  0.3578
 8513SOL    HW136998   1.844   3.590   8.294 -0.9351 -0.6177  0.6639
 8513SOL    HW236999   1.749   3.681   8.356 -0.5766 -0.1475 -0.1391
 8514SOL     OW37000   3.513   3.037  11.584 -0.1654  0.3030 -0.0340
 8514SOL    HW137001   3.456   2.970  11.547  1.6386 -0.0709 -2.0558
 8514SOL    HW237002   3.463   3.117  11.566 -0.0722  0.4592  0.3857
 8515SOL     OW37003   1.814   4.054   3.161  0.2709  0.1071  0.1992
 8515SOL    HW137004   1.728   4.015   3.145  0.4199  0.5621 -1.7050
 8515SOL    HW237005   1.819   4.099   3.077  1.4192 -0.3854  0.0010
 8516SOL     OW37006   1.020   0.056   7.124  0.2458 -0.1260  0.0524
 8516SOL    HW137007   1.065   0.007   7.055  0.7206  0.1180  0.1895
 8516SOL    HW237008   1.099   0.103   7.149  0.5075 -0.6927  0.2907
 8517SOL     OW37009   2.778   4.454   8.330 -0.4709  0.2178 -0.0399
 8517SOL    HW137010   2.863   4.423   8.361 -0.3574 -0.5322 -1.1092
 8517SOL    HW237011   2.720   4.385   8.364 -0.7634  0.2535 -0.4688
 8518SOL     OW37012   1.883   4.159   6.431  0.0568 -0.4980  0.2491
 8518SOL    HW137013   1.924   4.075   6.412 -0.9781 -0.7398 -0.8916
 8518SOL    HW237014   1.870   4.141   6.525  0.7995 -1.6349  0.1355
 8519SOL     OW37015   0.668   0.782   5.771  0.0887  0.1526  0.1193
 8519SOL    HW137016   0.664   0.839   5.694 -1.9179 -2.1002 -1.4322
 8519SOL    HW237017   0.657   0.697   5.729 -1.3211  0.5247 -0.2826
 8520SOL     OW37018   3.968   1.446   3.967 -0.3809 -0.0846  0.1984
 8520SOL    HW137019   3.985   1.501   3.890 -1.6369  1.6619  1.1727
 8520SOL    HW237020   4.054   1.406   3.979 -0.5737 -0.6363 -0.2411
 8521SOL     OW37021   0.678   2.232   6.154 -0.1404 -0.1100  0.2605
 8521SOL    HW137022   0.770   2.254   6.145 -0.0403 -1.3267 -1.7692
 8521SOL    HW237023   0.656   2.253   6.245 -0.8518 -0.1856  0.1072
 8522SOL     OW37024   2.370   2.393  13.733  0.4981  0.1539  0.0451
 8522SOL    HW137025   2.316   2.347  13.669 -0.1562  0.9809  0.0019
 8522SOL    HW237026   2.301   2.405  13.799  1.1565 -0.4246  0.8278
 8523SOL     OW37027   3.318   1.193  14.110  0.2633 -0.4734 -0.0138
 8523SOL    HW137028   3.236   1.188  14.060  0.9236  2.9584 -1.4367
 8523SOL    HW237029   3.367   1.263  14.066 -0.3434 -0.3418 -0.4875
 8524SOL     OW37030   4.118   2.007   4.579  0.0622 -0.0129  0.1689
 8524SOL    HW137031   4.196   1.976   4.534  0.6417  0.5362  0.7896
 8524SOL    HW237032   4.155   2.020   4.666 -1.1624  0.4326  0.6287
 8525SOL     OW37033   0.039   1.591   8.830  0.0950 -0.2610  0.2763
 8525SOL    HW137034   0.123   1.597   8.785  0.8719 -0.3614  1.6865
 8525SOL    HW237035   4.714   1.652   8.777  1.7180  0.3883 -0.5150
 8526SOL     OW37036   2.436   3.138  13.703  0.3929  0.4679  0.1236
 8526SOL    HW137037   2.478   3.152  13.618  1.6398 -1.0460  0.4904
 8526SOL    HW237038   2.492   3.065  13.729 -2.4099 -1.9599 -0.4987
 8527SOL     OW37039   3.261   1.644   9.213 -0.1017  0.3203 -0.1391
 8527SOL    HW137040   3.261   1.554   9.245 -2.1586  0.2695 -0.2938
 8527SOL    HW237041   3.268   1.689   9.297  2.5434 -0.6989  0.1865
 8528SOL     OW37042   1.153   3.603   4.933 -0.2788 -0.1426  0.0310
 8528SOL    HW137043   1.226   3.542   4.947 -1.2049 -1.0541  0.9760
 8528SOL    HW237044   1.080   3.544   4.951 -0.2573 -0.7297 -1.8033
 8529SOL     OW37045   1.266   0.945   3.354  0.0130  0.6164  0.3163
 8529SOL    HW137046   1.277   0.974   3.444 -0.1674  0.0905  0.5088
 8529SOL    HW237047   1.341   0.888   3.337 -2.2458 -2.9525  2.2250
 8530SOL     OW37048   2.538   3.566   2.578  0.2757 -0.3987  0.8135
 8530SOL    HW137049   2.533   3.657   2.549  0.7128 -0.3606  0.8586
 8530SOL    HW237050   2.448   3.534   2.582  1.1986 -2.8128  2.3527
 8531SOL     OW37051   4.141   2.366   3.399 -1.1428  0.2114 -0.9430
 8531SOL    HW137052   4.216   2.326   3.355 -1.4789 -0.1652 -1.1753
 8531SOL    HW237053   4.131   2.323   3.484  1.8711  1.6443  0.1398
 8532SOL     OW37054   3.362   2.800   5.506  0.1277  0.0496  0.4587
 8532SOL    HW137055   3.450   2.763   5.499 -0.1163 -1.0188  3.0519
 8532SOL    HW237056   3.364   2.872   5.570 -2.0001 -2.4658  3.3601
 8533SOL     OW37057   3.612   2.292   5.672 -0.1185  0.8242  0.1108
 8533SOL    HW137058   3.555   2.313   5.598  1.5669 -0.7257 -1.6465
 8533SOL    HW237059   3.569   2.212   5.704  0.8272 -0.1321 -0.9990
 8534SOL     OW37060   3.364   3.602   8.031 -0.0753 -0.0351  0.3724
 8534SOL    HW137061   3.373   3.513   8.063 -0.0566 -0.2548 -0.2355
 8534SOL    HW237062   3.310   3.591   7.952 -0.8477  0.3814  0.8392
 8535SOL     OW37063   0.802   2.310   9.249  0.1945 -0.1876 -0.0057
 8535SOL    HW137064   0.869   2.376   9.267 -2.3144  1.8344  2.1516
 8535SOL    HW237065   0.846   2.232   9.282  0.3113 -0.3031 -0.4469
 8536SOL     OW37066   3.362   3.578   3.466  0.0572  0.2097  0.6712
 8536SOL    HW137067   3.445   3.537   3.486  0.2199  0.1925 -0.0217
 8536SOL    HW237068   3.323   3.502   3.422  0.1709 -0.3947  1.6333
 8537SOL     OW37069   0.665   0.393   4.747 -0.1516  0.5404 -0.0599
 8537SOL    HW137070   0.571   0.407   4.740 -0.0663  1.3438  0.3957
 8537SOL    HW237071   0.694   0.482   4.768  0.2758  0.1467  1.0083
 8538SOL     OW37072   4.647   3.585   6.666  0.1977  0.5147  0.3354
 8538SOL    HW137073   4.582   3.594   6.736 -0.1926 -0.7049  0.1337
 8538SOL    HW237074   4.634   3.671   6.626  0.7078  0.2539 -0.3835
 8539SOL     OW37075   2.726   2.147   2.827  0.3549 -0.1984  0.0161
 8539SOL    HW137076   2.809   2.101   2.821  1.1147  0.8421  2.7480
 8539SOL    HW237077   2.740   2.203   2.903 -1.4977  3.6858 -2.4938
 8540SOL     OW37078   4.380   0.749   3.676  0.3375 -0.6132 -0.2728
 8540SOL    HW137079   4.461   0.796   3.656  0.6412 -1.3066 -0.6848
 8540SOL    HW237080   4.332   0.820   3.719 -0.9569 -1.0083 -1.0540
 8541SOL     OW37081   2.703   4.539  15.428 -0.3527 -0.1907 -0.2360
 8541SOL    HW137082   2.743   4.456  15.402  0.3675 -0.3821  1.5256
 8541SOL    HW237083   2.744   4.559  15.511 -0.2359  0.1084 -0.3670
 8542SOL     OW37084   0.284   4.307   4.769  0.2762  0.5973 -0.7613
 8542SOL    HW137085   0.279   4.355   4.852 -1.0245 -0.4303 -0.2468
 8542SOL    HW237086   0.199   4.266   4.781  0.3798  1.6420  3.6706
 8543SOL     OW37087   2.090   4.201   5.811  0.2383  0.2382  0.3239
 8543SOL    HW137088   2.037   4.279   5.828 -1.5637 -0.7305 -0.9531
 8543SOL    HW237089   2.028   4.131   5.792  1.5600 -0.5856 -1.0060
 8544SOL     OW37090   0.584   2.029   4.022 -0.2740  0.0745 -0.1289
 8544SOL    HW137091   0.582   2.030   4.117  0.1095 -0.6352 -0.1151
 8544SOL    HW237092   0.619   2.117   4.006  0.2935 -0.3474 -1.2261
 8545SOL     OW37093   2.497   1.525   6.973  0.5577  0.1399 -0.4775
 8545SOL    HW137094   2.477   1.438   6.938  1.7036 -0.6146  0.7414
 8545SOL    HW237095   2.582   1.537   6.930  1.8370 -2.8860  1.1708
 8546SOL     OW37096   2.732   2.927   4.215  0.5563 -0.3201 -0.4559
 8546SOL    HW137097   2.699   3.004   4.169  0.0948 -0.6608 -0.6959
 8546SOL    HW237098   2.651   2.899   4.257  1.5504 -1.3585  0.7677
 8547SOL     OW37099   0.845   2.692   0.211 -0.2246  0.4923 -0.0635
 8547SOL    HW137100   0.775   2.720   0.269 -0.6423 -1.6177  0.4183
 8547SOL    HW237101   0.878   2.782   0.201 -1.6865  1.0145 -0.1791
 8548SOL     OW37102   2.258   1.550  10.759  0.3575 -0.3598 -0.1652
 8548SOL    HW137103   2.275   1.590  10.674  0.0283 -0.8205 -0.4484
 8548SOL    HW237104   2.164   1.568  10.769  0.6149  0.3883  0.9246
 8549SOL     OW37105   4.622   2.262   1.993  0.7383 -0.3205 -0.4258
 8549SOL    HW137106   4.628   2.204   2.069 -0.7165  0.6500  0.4201
 8549SOL    HW237107   4.702   2.246   1.942  0.8847 -1.0505  0.0306
 8550SOL     OW37108   3.242   2.887   7.104  0.9598  0.0689  0.0122
 8550SOL    HW137109   3.223   2.824   7.174  4.1925 -2.6056 -1.5094
 8550SOL    HW237110   3.174   2.856   7.044  2.8234 -0.5975 -1.7639
 8551SOL     OW37111   0.553   1.807   2.876  0.7712 -0.1081 -0.1395
 8551SOL    HW137112   0.480   1.868   2.886  1.5034  0.6497  0.5824
 8551SOL    HW237113   0.507   1.725   2.893 -1.6792  1.1913 -0.4146
 8552SOL     OW37114   2.195   2.203   1.337 -0.1755  0.9220 -0.1225
 8552SOL    HW137115   2.261   2.185   1.404  0.3063 -0.6859 -1.0329
 8552SOL    HW237116   2.145   2.275   1.374 -1.4825 -0.9643  1.7444
 8553SOL     OW37117   3.211   0.361   7.010 -0.2997 -0.1666  0.0944
 8553SOL    HW137118   3.152   0.349   6.935  0.0848 -3.1417  0.2541
 8553SOL    HW237119   3.161   0.431   7.052  1.7635  1.0035  0.5590
 8554SOL     OW37120   1.034   1.101   5.271 -0.4305  0.4658 -0.2661
 8554SOL    HW137121   1.007   1.185   5.234 -0.5371  1.2176  1.5113
 8554SOL    HW237122   0.970   1.049   5.222  1.1306 -1.2015 -0.5507
 8555SOL     OW37123   0.822   1.898   7.508  0.1066  0.1440 -0.4988
 8555SOL    HW137124   0.823   1.844   7.429  0.4451 -0.4163 -0.1162
 8555SOL    HW237125   0.886   1.849   7.559  1.0562  1.0177 -0.8582
 8556SOL     OW37126   1.288   0.146   8.171 -0.7862  0.0574 -1.2826
 8556SOL    HW137127   1.364   0.193   8.205 -0.3071 -2.0654  0.6084
 8556SOL    HW237128   1.302   0.158   8.077 -0.8928  1.5775 -1.0922
 8557SOL     OW37129   3.165   1.664   6.174 -0.2464  0.0695 -0.2937
 8557SOL    HW137130   3.127   1.665   6.087 -1.9875  1.5478  0.4717
 8557SOL    HW237131   3.258   1.672   6.153 -0.7482 -1.4849 -3.0162
 8558SOL     OW37132   1.575   2.514   5.343 -0.0187 -0.4675  0.4208
 8558SOL    HW137133   1.575   2.468   5.427 -0.8574  1.6221  1.5632
 8558SOL    HW237134   1.619   2.597   5.363  0.6407 -0.4743 -1.0414
 8559SOL     OW37135   1.714   1.957   1.613  0.2866  0.3623  0.0631
 8559SOL    HW137136   1.701   1.867   1.584 -1.1602  1.1538 -1.7083
 8559SOL    HW237137   1.720   2.008   1.532 -0.4506  1.5805  0.7616
 8560SOL     OW37138   3.158   4.506   7.313  0.1183 -0.4920 -0.0141
 8560SOL    HW137139   3.235   4.563   7.305  0.7359 -1.2649  0.3730
 8560SOL    HW237140   3.142   4.503   7.218  3.6774  0.9591 -0.6912
 8561SOL     OW37141   1.764   2.120  15.167  0.1395 -0.1730  0.0335
 8561SOL    HW137142   1.713   2.167  15.233 -0.3818 -0.0994 -0.4262
 8561SOL    HW237143   1.744   2.177  15.093  1.7962 -0.8491 -0.9209
 8562SOL     OW37144   3.789   1.093   6.751 -0.0816  0.4364 -0.0797
 8562SOL    HW137145   3.781   1.070   6.844 -0.2341 -2.7061 -0.8528
 8562SOL    HW237146   3.782   1.188   6.756 -0.4993  0.2814  2.4600
 8563SOL     OW37147   0.350   3.472   7.359  0.3555 -0.4192 -0.0905
 8563SOL    HW137148   0.267   3.470   7.406  0.5460 -2.3060  0.1708
 8563SOL    HW237149   0.353   3.381   7.329  1.9203 -0.4078  0.0361
 8564SOL     OW37150   2.047   3.709   9.232  0.1431  0.2966  0.3998
 8564SOL    HW137151   2.029   3.709   9.138  0.9127 -1.7265  0.2507
 8564SOL    HW237152   1.959   3.691   9.267  0.4942 -3.6315 -0.7165
 8565SOL     OW37153   4.279   1.852   8.641 -0.1449 -0.8931 -0.3777
 8565SOL    HW137154   4.222   1.887   8.573 -0.2555 -1.6120 -0.6578
 8565SOL    HW237155   4.220   1.844   8.716  1.3820 -0.3569  0.8836
 8566SOL     OW37156   4.242   1.241   6.292 -0.0839  0.3999 -0.3576
 8566SOL    HW137157   4.333   1.236   6.265 -0.1897 -2.5336 -0.1436
 8566SOL    HW237158   4.213   1.315   6.238 -0.6649  2.4627  2.8000
 8567SOL     OW37159   4.353   0.340   3.204  0.2200 -0.2978  0.3839
 8567SOL    HW137160   4.382   0.429   3.186  1.7912 -0.8761  0.0248
 8567SOL    HW237161   4.296   0.315   3.132 -0.2087  1.2244  0.2031
 8568SOL     OW37162   0.737   3.913  16.220  0.5827  0.0217 -0.4245
 8568SOL    HW137163   0.804   3.852  16.190  1.9980  1.0089  0.6557
 8568SOL    HW237164   0.666   3.908  16.157  0.1656 -0.6712  0.0990
 8569SOL     OW37165   0.511   4.364   7.379 -0.0744 -0.1338  0.7086
 8569SOL    HW137166   0.582   4.393   7.437  2.1438 -0.5858 -1.7672
 8569SOL    HW237167   0.460   4.313   7.442 -2.2843  0.7308 -0.3979
 8570SOL     OW37168   3.044   1.855   5.381  0.1865 -0.1693 -0.5847
 8570SOL    HW137169   3.028   1.928   5.322 -0.2779 -1.4824 -2.0823
 8570SOL    HW237170   2.974   1.874   5.444  0.8845 -0.5791  0.3333
 8571SOL     OW37171   1.760   1.122  12.749  0.6830 -0.1663  0.0614
 8571SOL    HW137172   1.759   1.080  12.663 -0.4131  0.9965 -0.5037
 8571SOL    HW237173   1.667   1.141  12.761  0.4805 -1.0163 -0.1948
 8572SOL     OW37174   2.248   3.043   0.632 -0.0485 -0.4815 -0.3891
 8572SOL    HW137175   2.173   2.984   0.641  1.3733 -2.4151 -1.3847
 8572SOL    HW237176   2.278   3.042   0.723  1.0225  3.2225 -0.7059
 8573SOL     OW37177   4.660   3.617  15.327 -0.0024  0.3425  0.2137
 8573SOL    HW137178   4.657   3.521  15.323  1.3228  0.2697  0.7668
 8573SOL    HW237179   4.583   3.654  15.285 -0.0054  0.7288  0.5699
 8574SOL     OW37180   0.275   4.474   6.119  0.2616  0.1427 -0.3931
 8574SOL    HW137181   0.304   4.387   6.149  0.6321  0.0519 -1.0214
 8574SOL    HW237182   0.342   4.528   6.078  0.0246  0.5231 -0.2729
 8575SOL     OW37183   2.410   0.070   9.561  0.1192 -0.6639 -0.3675
 8575SOL    HW137184   2.466   0.110   9.628 -0.8542 -3.0646  1.9121
 8575SOL    HW237185   2.322   0.053   9.594 -0.1763  0.2653 -0.6943
 8576SOL     OW37186   4.572   2.076  12.023  0.4429  0.1023  0.7643
 8576SOL    HW137187   4.653   2.102  12.067  1.0263  0.8463 -0.7334
 8576SOL    HW237188   4.590   2.023  11.945  3.2694 -2.5766  3.2334
 8577SOL     OW37189   0.607   1.381  10.331 -0.1557  0.3690  0.2259
 8577SOL    HW137190   0.621   1.338  10.246 -1.0708  1.5235 -0.5111
 8577SOL    HW237191   0.517   1.412  10.327 -0.2986  0.0387  0.9780
 8578SOL     OW37192   3.982   0.808   4.684 -0.0491 -0.3195  0.2951
 8578SOL    HW137193   4.013   0.718   4.693  0.0950 -0.1547  1.4544
 8578SOL    HW237194   3.937   0.831   4.765  1.2239  0.2961  0.8359
 8579SOL     OW37195   2.700   1.213  10.814 -0.1218  0.2154  0.7412
 8579SOL    HW137196   2.633   1.172  10.759 -2.2428  0.6715  3.0451
 8579SOL    HW237197   2.645   1.231  10.890 -0.0160 -0.5946  1.0158
 8580SOL     OW37198   4.588   0.005   1.602 -0.7277  0.1341 -0.4143
 8580SOL    HW137199   4.636   0.063   1.543  0.8435  1.0356  1.7866
 8580SOL    HW237200   4.552   4.663   1.543 -1.1810  0.3671 -0.4014
 8581SOL     OW37201   3.829   2.997   3.056  0.0057  0.7585  0.0924
 8581SOL    HW137202   3.776   2.934   3.104 -0.8713  0.5271 -1.1983
 8581SOL    HW237203   3.910   2.999   3.108 -0.5817 -1.6498  1.0922
 8582SOL     OW37204   2.073   1.171  14.261 -0.3534 -0.2411  0.4352
 8582SOL    HW137205   2.107   1.167  14.350  0.9568  0.1626 -0.0407
 8582SOL    HW237206   2.029   1.256  14.267 -0.5910 -0.1949 -2.0014
 8583SOL     OW37207   2.459   1.192  14.497 -0.0897  0.1028 -0.0144
 8583SOL    HW137208   2.424   1.152  14.577  0.3270  0.5975  0.4194
 8583SOL    HW237209   2.426   1.133  14.430  1.7503  0.1751 -0.9821
 8584SOL     OW37210   1.870   2.696  14.051 -0.3189  0.5668 -0.7877
 8584SOL    HW137211   1.796   2.752  14.026  0.3703  2.3142  1.0668
 8584SOL    HW237212   1.901   2.739  14.131 -1.0236 -2.2909  1.0252
 8585SOL     OW37213   4.415   0.208   5.732 -0.0330  0.5358  0.7919
 8585SOL    HW137214   4.459   0.123   5.735 -0.3177  0.3688  0.2602
 8585SOL    HW237215   4.366   0.209   5.814 -1.7281  0.7917 -0.2242
 8586SOL     OW37216   2.764   0.383   4.950 -0.2018  0.2262  0.4605
 8586SOL    HW137217   2.773   0.444   4.877  1.1400  2.0858  2.2022
 8586SOL    HW237218   2.671   0.364   4.936 -0.0589 -0.2382  0.0955
 8587SOL     OW37219   0.591   4.035   5.796  0.5760  0.6413  0.2784
 8587SOL    HW137220   0.579   4.092   5.721  0.2871  1.5917  1.0477
 8587SOL    HW237221   0.522   3.970   5.783  1.8239 -0.2101 -1.9871
 8588SOL     OW37222   1.909   2.417   2.544 -0.3878 -0.1567  0.0309
 8588SOL    HW137223   1.860   2.338   2.569 -1.1127  0.6815  1.2660
 8588SOL    HW237224   1.999   2.394   2.567 -1.0220 -0.6883  2.0170
 8589SOL     OW37225   1.245   2.459   7.747 -0.3484  0.3221  0.0287
 8589SOL    HW137226   1.276   2.410   7.823 -0.6183  0.4466  0.2217
 8589SOL    HW237227   1.288   2.414   7.675  0.8761  1.0820  0.2920
 8590SOL     OW37228   0.461   1.777  11.985  0.4430 -0.1996  0.0907
 8590SOL    HW137229   0.366   1.775  11.997  0.6738 -0.2585  1.9138
 8590SOL    HW237230   0.498   1.770  12.073  1.5722 -1.2106 -0.4610
 8591SOL     OW37231   4.043   4.304   5.333 -0.0137  0.2990 -0.3759
 8591SOL    HW137232   4.107   4.282   5.400  2.0238  1.8486 -1.8154
 8591SOL    HW237233   3.960   4.273   5.369 -0.1067  0.5658 -0.3618
 8592SOL     OW37234   0.551   4.554   5.991  0.0380  0.0855  0.1472
 8592SOL    HW137235   0.637   4.530   6.026  0.5427  0.2060 -1.0138
 8592SOL    HW237236   0.524   4.486   5.930 -0.4546 -1.1143  1.6987
 8593SOL     OW37237   4.723   4.112   5.726 -0.0826  0.5913  0.2503
 8593SOL    HW137238   0.068   4.078   5.670  0.7563  2.1609  0.3326
 8593SOL    HW237239   0.050   4.145   5.800 -0.4543  1.2284  0.2190
 8594SOL     OW37240   4.387   2.524   3.321 -0.5244  0.1639  0.1252
 8594SOL    HW137241   4.480   2.535   3.344 -0.0319  2.5048 -2.8788
 8594SOL    HW237242   4.383   2.432   3.296 -1.4951  0.1465  0.3678
 8595SOL     OW37243   0.301   0.532  11.749  0.1452  0.0125  0.0138
 8595SOL    HW137244   0.347   0.503  11.828 -0.0732 -0.8514 -0.1746
 8595SOL    HW237245   0.302   0.628  11.749  1.9128  0.0068 -1.2647
 8596SOL     OW37246   3.767   3.209  16.975  0.1127  0.0490  0.3371
 8596SOL    HW137247   3.747   3.177  16.887 -0.3413  0.4025  0.3133
 8596SOL    HW237248   3.837   3.271  16.955 -1.5843  1.7435 -0.2902
 8597SOL     OW37249   4.628   1.414   0.465  0.2120 -0.0716 -0.0732
 8597SOL    HW137250   4.620   1.325   0.429  1.1144 -0.3297  0.3830
 8597SOL    HW237251   4.718   1.398   0.494  0.3039 -2.8235 -1.8573
 8598SOL     OW37252   3.720   2.900   4.560  0.5190 -0.5914  0.2841
 8598SOL    HW137253   3.697   2.864   4.645 -0.5045  0.4335  0.4322
 8598SOL    HW237254   3.634   2.910   4.520 -0.5247 -0.4806  2.5835
 8599SOL     OW37255   1.804   0.994   8.906  1.1848 -0.3429  0.0364
 8599SOL    HW137256   1.819   1.088   8.922 -1.2771  0.1596 -0.4633
 8599SOL    HW237257   1.762   0.964   8.987  0.7129  0.6426  0.1655
 8600SOL     OW37258   4.064   1.397   0.876  0.3053 -0.0971  0.3605
 8600SOL    HW137259   4.119   1.456   0.823 -2.2466  3.4975  1.7688
 8600SOL    HW237260   4.120   1.337   0.926 -1.0681  0.1466  2.1642
 8601SOL     OW37261   2.014   0.992  12.203  0.1229  0.4694  0.4414
 8601SOL    HW137262   1.983   0.911  12.162  0.4423  1.2326 -1.3560
 8601SOL    HW237263   2.059   0.968  12.283  0.8968  1.2612  0.2455
 8602SOL     OW37264   2.896   3.887   6.843 -0.3588 -0.1650  0.6413
 8602SOL    HW137265   2.956   3.952   6.808  0.6923 -1.6507 -0.3163
 8602SOL    HW237266   2.939   3.871   6.927 -0.5501  0.4412  0.8513
 8603SOL     OW37267   4.058   4.311   6.153 -0.0047  0.2964 -0.2441
 8603SOL    HW137268   4.016   4.242   6.102 -2.6583  0.6012  1.5337
 8603SOL    HW237269   4.036   4.277   6.240  1.7256 -1.5552 -0.5145
 8604SOL     OW37270   0.133   3.442   7.517  0.1095  0.4750  0.0950
 8604SOL    HW137271   0.055   3.396   7.545 -0.0984 -0.3003 -1.7231
 8604SOL    HW237272   0.194   3.427   7.589  0.0494  0.8466  0.2261
 8605SOL     OW37273   3.208   1.666   3.552 -0.2482  0.5565 -0.0068
 8605SOL    HW137274   3.159   1.636   3.475  1.3286  0.3336 -0.9263
 8605SOL    HW237275   3.204   1.590   3.610 -2.4415  0.5931 -0.1050
 8606SOL     OW37276   1.801   2.294   2.967 -0.1802 -0.1688 -0.2915
 8606SOL    HW137277   1.865   2.362   2.948  1.8665 -1.8607  0.5391
 8606SOL    HW237278   1.723   2.348   2.975 -0.1573  0.0660 -1.6390
 8607SOL     OW37279   0.181   4.336   3.172  0.6385 -0.2295  0.2252
 8607SOL    HW137280   0.250   4.402   3.179 -0.0466  0.3748  1.2018
 8607SOL    HW237281   0.128   4.348   3.250 -1.8030 -0.5991 -1.3913
 8608SOL     OW37282   2.668   2.487   6.979  0.2031  0.0309 -0.3945
 8608SOL    HW137283   2.606   2.460   6.911 -2.8828  1.2551  1.8694
 8608SOL    HW237284   2.640   2.576   7.000  0.8879  0.4069 -1.0980
 8609SOL     OW37285   4.489   3.855  14.458 -0.6538 -0.2637  0.3711
 8609SOL    HW137286   4.533   3.881  14.377  0.1902 -0.0454  0.9016
 8609SOL    HW237287   4.554   3.875  14.525  2.4796  0.5500 -2.9432
 8610SOL     OW37288   0.413   4.387  17.308  0.1217  0.1490 -0.3533
 8610SOL    HW137289   0.422   4.365  17.215  1.2703 -4.1534  0.7943
 8610SOL    HW237290   0.393   4.479  17.291  0.8901  0.3137 -0.3663
 8611SOL     OW37291   2.471   3.229   9.646  0.5439 -0.4092  0.5684
 8611SOL    HW137292   2.533   3.288   9.602  0.0542 -0.4057 -0.1090
 8611SOL    HW237293   2.531   3.175   9.698  2.0502  1.1801  0.4969
 8612SOL     OW37294   2.049   4.323   5.502 -0.1887  0.1925  0.7342
 8612SOL    HW137295   2.118   4.349   5.441 -1.3197 -0.0414 -0.6244
 8612SOL    HW237296   2.038   4.229   5.485  0.0081 -0.1943  2.6819
 8613SOL     OW37297   0.875   3.389   7.676  0.1064  0.1689 -0.6400
 8613SOL    HW137298   0.815   3.463   7.669 -2.4987 -1.7110  1.6078
 8613SOL    HW237299   0.820   3.319   7.712 -0.4155  0.8758 -0.0735
 8614SOL     OW37300   2.005   3.383   5.771  0.0750 -0.0859 -0.1996
 8614SOL    HW137301   1.952   3.391   5.850 -0.0334 -0.5616 -0.2265
 8614SOL    HW237302   2.030   3.474   5.754 -0.7284  0.0917 -0.4874
 8615SOL     OW37303   0.678   1.693  14.218  0.2094 -0.0456  0.0066
 8615SOL    HW137304   0.761   1.735  14.193  1.1411 -0.6973  1.9983
 8615SOL    HW237305   0.617   1.747  14.169 -0.8306  0.5174  1.9281
 8616SOL     OW37306   1.484   0.494   0.614 -0.3971  0.2959  0.3353
 8616SOL    HW137307   1.513   0.507   0.704  1.0170 -0.3603 -0.0281
 8616SOL    HW237308   1.456   0.585   0.602  3.1234  1.3043 -0.4875
 8617SOL     OW37309   1.171   0.920   5.650 -0.2754 -0.1528 -0.3789
 8617SOL    HW137310   1.103   0.980   5.619  0.9222  2.4886  2.1466
 8617SOL    HW237311   1.135   0.837   5.619  0.6821 -0.9041  0.5157
 8618SOL     OW37312   1.455   3.682   7.013  0.2112  0.2737 -0.0924
 8618SOL    HW137313   1.491   3.594   7.026  1.4283  0.5124 -1.9138
 8618SOL    HW237314   1.511   3.724   7.080  0.0277 -1.5557  1.2204
 8619SOL     OW37315   4.721   1.483  12.743 -0.2006  0.0972 -0.2447
 8619SOL    HW137316   4.717   1.388  12.758  1.2925  0.0806  0.0659
 8619SOL    HW237317   4.699   1.510  12.832 -0.0385 -0.8791  0.0993
 8620SOL     OW37318   2.732   4.184   0.202  0.5611 -0.0949  0.0366
 8620SOL    HW137319   2.654   4.237   0.186  1.4466  0.8525 -1.0786
 8620SOL    HW237320   2.706   4.132   0.278 -1.6890 -1.3176 -1.5576
 8621SOL     OW37321   2.216   1.437   1.119  0.5210  0.4271 -0.4044
 8621SOL    HW137322   2.254   1.434   1.031  1.0293 -2.7677 -0.0442
 8621SOL    HW237323   2.133   1.483   1.109 -0.4297 -1.2115  0.0186
 8622SOL     OW37324   1.242   4.591   9.856 -0.5144 -0.0475 -0.0063
 8622SOL    HW137325   1.295   4.544   9.790  0.6237  1.2704 -0.0364
 8622SOL    HW237326   1.243   4.539   9.936 -0.4196 -1.2820 -0.7992
 8623SOL     OW37327   1.419   2.905   2.937  0.2092  0.0405 -0.0958
 8623SOL    HW137328   1.411   2.865   2.850  4.1312 -1.7748  0.3711
 8623SOL    HW237329   1.489   2.970   2.932  1.2563 -1.1121 -0.5561
 8624SOL     OW37330   0.463   4.360   5.788 -0.0359 -0.4464  0.1320
 8624SOL    HW137331   0.439   4.384   5.699  0.2587  2.3357  0.8216
 8624SOL    HW237332   0.413   4.281   5.808  0.3517 -0.5426  0.7241
 8625SOL     OW37333   0.363   3.623  13.524  0.1264 -0.3450  0.1093
 8625SOL    HW137334   0.367   3.602  13.431  0.3689 -2.6175  0.6193
 8625SOL    HW237335   0.311   3.703  13.526  3.3160  1.7192  0.9498
 8626SOL     OW37336   1.386   3.914   2.290 -0.3207 -0.2397 -0.0223
 8626SOL    HW137337   1.476   3.898   2.317 -0.7917 -2.7630  0.1223
 8626SOL    HW237338   1.386   4.008   2.306  1.3086  0.0030 -1.5173
 8627SOL     OW37339   2.000   0.743   6.321 -0.5511 -0.1071 -0.2115
 8627SOL    HW137340   2.038   0.783   6.243  0.0975  1.3606  0.8854
 8627SOL    HW237341   1.953   0.661   6.303 -0.9094 -0.5383  2.6924
 8628SOL     OW37342   3.461   1.361  11.109 -0.0294  0.2473  0.3250
 8628SOL    HW137343   3.530   1.325  11.165 -0.3457 -1.1962 -0.1946
 8628SOL    HW237344   3.413   1.422  11.165  1.0556  0.5703  0.9060
 8629SOL     OW37345   4.066   3.705  12.771  0.1361 -0.7146 -0.3791
 8629SOL    HW137346   3.985   3.655  12.783 -0.0041 -0.2455  0.6372
 8629SOL    HW237347   4.075   3.727  12.864 -2.0317 -1.2887 -0.0262
 8630SOL     OW37348   0.472   2.826  11.047  0.3334  0.4632  0.4810
 8630SOL    HW137349   0.401   2.825  10.982  0.1045 -0.4404  0.7547
 8630SOL    HW237350   0.420   2.794  11.120 -0.8923  1.3858  0.0123
 8631SOL     OW37351   2.025   2.324   1.968 -0.1722  0.1813  0.2984
 8631SOL    HW137352   1.949   2.309   2.024 -1.2384  0.3163 -1.1316
 8631SOL    HW237353   2.099   2.317   2.029  0.8106 -3.5669 -1.3637
 8632SOL     OW37354   0.361   0.155  15.051  0.2671  0.3058  0.1889
 8632SOL    HW137355   0.379   0.071  15.093 -0.9180  0.6616  1.3778
 8632SOL    HW237356   0.411   0.214  15.107 -0.6630  0.3286  0.9949
 8633SOL     OW37357   0.749   1.537   3.439 -0.0001 -0.2641 -0.8363
 8633SOL    HW137358   0.806   1.599   3.394 -0.2252 -0.3545 -1.2408
 8633SOL    HW237359   0.757   1.450   3.402  0.5391 -1.9071  3.1406
 8634SOL     OW37360   1.911   1.643   7.184  0.2713 -0.0057 -0.4695
 8634SOL    HW137361   1.844   1.605   7.240  0.4023 -2.2383 -1.7938
 8634SOL    HW237362   1.982   1.643   7.248  0.0257  2.2971 -0.2110
 8635SOL     OW37363   3.983   4.544   7.072  0.2112 -0.1804 -0.4564
 8635SOL    HW137364   4.058   4.603   7.078  0.5252 -0.7111  0.8507
 8635SOL    HW237365   3.911   4.594   7.113  1.4245  0.7019  0.6009
 8636SOL     OW37366   1.325   1.998   2.684  0.4736  0.1687  0.3512
 8636SOL    HW137367   1.379   1.940   2.738  0.1185 -1.2863 -0.8685
 8636SOL    HW237368   1.262   1.939   2.644  0.0597  1.7846 -1.4091
 8637SOL     OW37369   1.374   1.061   6.437  0.1349  0.1673 -0.2279
 8637SOL    HW137370   1.410   1.004   6.505 -1.7317  1.5984  1.9358
 8637SOL    HW237371   1.287   1.071   6.474 -0.1017 -1.7721 -0.2379
 8638SOL     OW37372   2.353   0.459   6.457 -0.0055  0.3870 -0.7841
 8638SOL    HW137373   2.323   0.430   6.371  0.1165 -1.3299 -0.2502
 8638SOL    HW237374   2.322   0.550   6.455 -3.2186 -0.6405  2.3685
 8639SOL     OW37375   3.775   4.643   8.306 -0.1279  0.3550 -0.0812
 8639SOL    HW137376   3.687   4.680   8.295  0.4749  1.6538 -0.6004
 8639SOL    HW237377   3.799   4.637   8.213 -0.0516  0.1894 -0.0498
 8640SOL     OW37378   2.192   1.487   1.853  0.0374 -0.1222  0.1743
 8640SOL    HW137379   2.123   1.499   1.787 -0.7969  1.3640  1.3217
 8640SOL    HW237380   2.163   1.560   1.908 -2.8694 -1.5321  0.5166
 8641SOL     OW37381   1.241   0.126   5.132  0.0658 -0.1433 -0.2922
 8641SOL    HW137382   1.331   0.099   5.150 -0.4956 -1.0018  1.1757
 8641SOL    HW237383   1.216   0.061   5.067  0.7823  1.3664 -2.0768
 8642SOL     OW37384   3.684   0.123  10.762 -0.4590 -0.3843  0.3790
 8642SOL    HW137385   3.657   0.126  10.670  0.2677  0.2868  0.1910
 8642SOL    HW237386   3.609   0.166  10.804 -0.9176  2.0421 -2.9120
 8643SOL     OW37387   4.691   0.557   3.629 -0.1350  0.1518 -0.5372
 8643SOL    HW137388   4.656   0.527   3.713 -0.1278 -0.7026 -0.8439
 8643SOL    HW237389   4.606   0.554   3.585 -0.0817 -2.0508 -0.4903
 8644SOL     OW37390   1.127   0.104   9.880  0.0619  0.3746  0.0532
 8644SOL    HW137391   1.190   0.145   9.939 -0.5139  0.2373  0.7655
 8644SOL    HW237392   1.172   0.021   9.862  1.2528  1.4005 -1.7480
 8645SOL     OW37393   3.113   3.882  13.998 -0.2527  0.5083  0.2903
 8645SOL    HW137394   3.071   3.827  13.931 -1.8656 -0.7211  2.3029
 8645SOL    HW237395   3.055   3.957  13.984  0.2580  1.0530  1.1515
 8646SOL     OW37396   4.289   3.741   8.102 -0.1229  0.1467 -0.3821
 8646SOL    HW137397   4.233   3.698   8.166 -1.8859  0.9912 -1.3713
 8646SOL    HW237398   4.231   3.811   8.073 -1.8072 -0.6036  1.2280
 8647SOL     OW37399   0.284   2.648   9.456  0.4575  0.0658  0.3166
 8647SOL    HW137400   0.364   2.645   9.509  1.4755 -0.1704 -1.2428
 8647SOL    HW237401   0.218   2.684   9.515 -2.4975 -1.5705 -1.9691
 8648SOL     OW37402   0.987   3.439   8.903  0.3138 -0.3866 -0.6034
 8648SOL    HW137403   0.998   3.499   8.829  0.6435  1.0546  0.6277
 8648SOL    HW237404   1.078   3.410   8.917  0.6614  0.5600 -0.9275
 8649SOL     OW37405   0.411   0.828   4.083 -0.2562  0.3939  0.3111
 8649SOL    HW137406   0.474   0.866   4.021 -1.8138  1.4970 -0.6115
 8649SOL    HW237407   0.327   0.830   4.036  1.0516  0.2035 -2.0482
 8650SOL     OW37408   3.980   2.832  15.856  0.3714  0.4956 -0.3468
 8650SOL    HW137409   3.911   2.825  15.922 -0.9439  1.0740 -1.6625
 8650SOL    HW237410   4.055   2.842  15.915 -1.4283  0.2053  1.9711
 8651SOL     OW37411   3.137   2.283   7.450  0.2756  0.6659  0.2056
 8651SOL    HW137412   3.223   2.269   7.410 -0.0800  3.1480 -1.4330
 8651SOL    HW237413   3.148   2.363   7.501 -3.5026  0.5782  1.2109
 8652SOL     OW37414   2.954   3.912   7.141 -0.0919  0.1866 -0.2322
 8652SOL    HW137415   3.024   3.889   7.201  0.3502 -0.3106 -0.9411
 8652SOL    HW237416   2.880   3.929   7.200 -0.0152 -2.2113  0.5359
 8653SOL     OW37417   2.211   2.919   2.385 -0.3229  0.1430 -0.1112
 8653SOL    HW137418   2.230   2.892   2.295 -1.4497  0.0117 -0.3073
 8653SOL    HW237419   2.120   2.949   2.379 -0.4433  0.0528  1.2777
 8654SOL     OW37420   1.243   3.343   8.455 -0.0821 -0.0738  0.9162
 8654SOL    HW137421   1.172   3.404   8.434 -0.6853 -1.5203 -1.1997
 8654SOL    HW237422   1.205   3.311   8.536 -1.4156  0.8817  0.6701
 8655SOL     OW37423   0.089   3.492  10.332  0.1042  0.1354  0.1305
 8655SOL    HW137424   0.171   3.533  10.303  0.5548 -1.9392 -1.5805
 8655SOL    HW237425   0.093   3.500  10.427 -0.7829  0.7694  0.1121
 8656SOL     OW37426   1.084   2.145  11.985  0.5076 -0.0864  0.2099
 8656SOL    HW137427   1.092   2.157  11.890 -1.6170 -0.8159 -0.0463
 8656SOL    HW237428   1.037   2.061  11.990 -0.2426  0.4170  1.4698
 8657SOL     OW37429   0.895   4.305   4.708  0.2729 -0.2270  0.3724
 8657SOL    HW137430   0.968   4.310   4.646  0.7430 -0.9589  0.8674
 8657SOL    HW237431   0.859   4.220   4.685 -1.2503  0.3554  0.6352
 8658SOL     OW37432   0.801   4.485   8.320  0.3323  0.6459 -0.1002
 8658SOL    HW137433   0.721   4.510   8.367  1.5197  1.6176  1.4360
 8658SOL    HW237434   0.848   4.439   8.390  1.4199 -0.7248 -1.7470
 8659SOL     OW37435   3.375   0.699   9.269 -0.0774 -0.4448  0.3284
 8659SOL    HW137436   3.305   0.734   9.324  1.3131 -2.2858  3.2731
 8659SOL    HW237437   3.353   0.609   9.244  0.8874  0.3817 -3.5040
 8660SOL     OW37438   1.245   1.319   0.222  0.3201  0.3267  0.3071
 8660SOL    HW137439   1.313   1.254   0.205 -0.6962 -1.2576  2.2446
 8660SOL    HW237440   1.236   1.310   0.317 -0.4101  1.2995  0.3291
 8661SOL     OW37441   2.984   2.348  13.605  0.1226  0.2919  0.0286
 8661SOL    HW137442   3.027   2.297  13.537 -0.2023  0.6444 -0.4407
 8661SOL    HW237443   2.907   2.295  13.624  0.5336 -1.0472 -2.0356
 8662SOL     OW37444   1.116   4.109   8.341  0.1173  0.3288 -0.0693
 8662SOL    HW137445   1.024   4.125   8.362  0.4288 -0.0395  1.5366
 8662SOL    HW237446   1.157   4.132   8.424  0.6085 -3.5053  0.7350
 8663SOL     OW37447   0.150   3.362   2.977 -0.3703  0.4273  0.4789
 8663SOL    HW137448   0.154   3.293   2.910  0.9239 -0.1693  1.1723
 8663SOL    HW237449   0.229   3.411   2.954 -0.6569  0.2119 -0.9572
 8664SOL     OW37450   2.651   2.275   9.793 -0.2257 -0.3419  0.3915
 8664SOL    HW137451   2.579   2.333   9.816  0.1475  0.6097 -0.8324
 8664SOL    HW237452   2.673   2.249   9.882 -0.5260 -1.2275  0.2105
 8665SOL     OW37453   1.362   0.187   7.916  0.2091  0.2846  0.4900
 8665SOL    HW137454   1.451   0.194   7.880  0.1928 -0.6147  0.2595
 8665SOL    HW237455   1.316   0.212   7.836  2.4840 -0.4725 -1.0977
 8666SOL     OW37456   2.423   3.345   5.635  0.2015  0.3778  0.1631
 8666SOL    HW137457   2.432   3.425   5.583  2.2655 -1.9324 -2.9854
 8666SOL    HW237458   2.329   3.329   5.631  0.2262  0.7367 -1.5297
 8667SOL     OW37459   1.879   4.229   8.356  0.3862 -1.5373  0.2067
 8667SOL    HW137460   1.903   4.275   8.437  2.8132 -0.5807 -1.0737
 8667SOL    HW237461   1.792   4.265   8.339  0.6269 -1.6700 -1.2500
 8668SOL     OW37462   1.672   2.506   9.312 -0.3808 -0.1996  0.2985
 8668SOL    HW137463   1.643   2.445   9.381 -0.0158 -0.7299 -0.0133
 8668SOL    HW237464   1.715   2.444   9.252 -1.0109 -0.3949  0.0495
 8669SOL     OW37465   2.776   2.434   4.468  0.2960  0.5406 -0.0706
 8669SOL    HW137466   2.783   2.511   4.411 -0.1406 -0.3029 -1.2741
 8669SOL    HW237467   2.862   2.440   4.510 -0.4202  1.6947  1.2301
 8670SOL     OW37468   0.492   4.652  14.528 -0.5770 -0.1617 -0.3261
 8670SOL    HW137469   0.400   4.644  14.555 -0.6999 -3.7181 -1.7974
 8670SOL    HW237470   0.532   4.659  14.615  1.0082 -1.6870 -0.9335
 8671SOL     OW37471   1.576   2.493   4.133  0.0213  0.4091 -0.0640
 8671SOL    HW137472   1.597   2.571   4.184  1.8894  0.5313 -1.0468
 8671SOL    HW237473   1.480   2.496   4.139 -0.0598  1.2270 -1.6215
 8672SOL     OW37474   0.765   0.602  13.691  0.4713 -0.1134  0.4722
 8672SOL    HW137475   0.701   0.645  13.748 -1.1990  1.8399 -2.9154
 8672SOL    HW237476   0.704   0.568  13.626 -1.4462  0.0071  2.1905
 8673SOL     OW37477   0.529   4.650  15.852  0.2676 -0.7018  0.1902
 8673SOL    HW137478   0.490   4.719  15.798 -1.9437 -2.0706  0.0247
 8673SOL    HW237479   0.480   4.579  15.811 -2.9443  1.1759  0.7444
 8674SOL     OW37480   0.764   0.431  11.002  0.1112 -0.7208  0.4950
 8674SOL    HW137481   0.830   0.367  10.977  1.0227  0.9652 -1.3955
 8674SOL    HW237482   0.763   0.426  11.097 -0.7329  0.1654  0.5381
 8675SOL     OW37483   2.519   4.075   9.587  0.3250 -0.3140  0.0532
 8675SOL    HW137484   2.546   4.166   9.596  0.5647 -0.5898  2.1812
 8675SOL    HW237485   2.601   4.034   9.615 -1.3601 -2.4093  1.9693
 8676SOL     OW37486   3.891   4.339   1.677  0.0609 -0.2084 -0.1614
 8676SOL    HW137487   3.906   4.377   1.591  2.8099 -0.4231  0.1999
 8676SOL    HW237488   3.979   4.331   1.714  0.4558  1.2211 -0.7905
 8677SOL     OW37489   4.163   2.453  14.188 -0.2926 -0.2432  0.5128
 8677SOL    HW137490   4.233   2.398  14.154  0.9007  1.9418 -0.5883
 8677SOL    HW237491   4.137   2.510  14.115  2.1352 -0.2569 -0.3546
 8678SOL     OW37492   1.399   3.068  14.526 -0.1608 -0.8039 -0.1778
 8678SOL    HW137493   1.440   3.142  14.480 -0.7414 -0.2176  0.2614
 8678SOL    HW237494   1.388   3.006  14.454 -1.4858  0.5107 -1.1133
 8679SOL     OW37495   1.175   1.077   9.273  0.0201  0.5064  0.2231
 8679SOL    HW137496   1.224   1.117   9.200  0.7141  2.2064  1.6212
 8679SOL    HW237497   1.180   0.990   9.233  0.1512  0.7263 -0.2458
 8680SOL     OW37498   4.616   4.427  17.168 -0.0678 -1.0091 -0.3861
 8680SOL    HW137499   4.617   4.404  17.261  2.2523  0.3587 -0.0876
 8680SOL    HW237500   4.587   4.518  17.179  1.8846 -0.1143 -2.5627
 8681SOL     OW37501   0.461   4.421   5.486  0.0746 -0.1512  0.1167
 8681SOL    HW137502   0.378   4.456   5.454  0.4601  0.1954 -0.5077
 8681SOL    HW237503   0.526   4.443   5.419  1.5154 -3.5386  0.3873
 8682SOL     OW37504   2.523   4.432  10.941 -0.2978 -0.1919 -0.4427
 8682SOL    HW137505   2.596   4.383  10.902 -0.0219 -0.4200  0.3587
 8682SOL    HW237506   2.453   4.408  10.881 -0.1384  0.4562 -0.8813
 8683SOL     OW37507   1.901   1.954   1.093  0.4042  0.0501  0.1331
 8683SOL    HW137508   1.867   2.044   1.098 -0.1825 -0.1488 -0.2841
 8683SOL    HW237509   1.902   1.933   1.000 -0.7981 -0.3076  0.2094
 8684SOL     OW37510   2.765   2.654   4.281 -0.1333  0.5157  0.9070
 8684SOL    HW137511   2.713   2.668   4.201  0.7357 -0.3996  0.1694
 8684SOL    HW237512   2.850   2.682   4.247  1.0637 -1.9650  1.8342
 8685SOL     OW37513   2.962   3.372   4.920 -0.8440 -0.0819 -0.4856
 8685SOL    HW137514   2.869   3.350   4.909 -1.6244  2.6030  0.5716
 8685SOL    HW237515   3.005   3.324   4.850 -1.7150 -0.8818 -0.4837
 8686SOL     OW37516   2.751   3.688   3.052  0.2731 -0.0983  0.5919
 8686SOL    HW137517   2.769   3.626   3.122  0.8948  2.0928  2.3853
 8686SOL    HW237518   2.673   3.734   3.083  1.1511  1.5506  0.4063
 8687SOL     OW37519   1.400   1.829   5.093  0.5429  0.3261  0.1160
 8687SOL    HW137520   1.448   1.758   5.052  1.6908  1.0281  0.2459
 8687SOL    HW237521   1.464   1.900   5.097 -1.4657  2.2602 -1.6870
 8688SOL     OW37522   1.305   2.577   5.330 -0.0932 -0.4693 -0.3130
 8688SOL    HW137523   1.400   2.575   5.335 -0.0470  0.6381 -0.7890
 8688SOL    HW237524   1.280   2.503   5.385 -0.1504 -0.1645  0.0659
 8689SOL     OW37525   1.899   2.631   8.951 -0.5090  0.0491  0.0605
 8689SOL    HW137526   1.830   2.696   8.947 -1.2609 -0.9297 -2.8592
 8689SOL    HW237527   1.870   2.552   8.904 -1.4954 -0.8734  2.2120
 8690SOL     OW37528   0.038   3.666   8.658 -0.1331  0.0751  0.5357
 8690SOL    HW137529   4.710   3.704   8.588  0.7668 -2.5191 -1.5758
 8690SOL    HW237530   4.707   3.677   8.734  0.1183 -1.0343  0.8832
 8691SOL     OW37531   0.374   4.232   6.244 -0.2371  0.3727  0.0120
 8691SOL    HW137532   0.422   4.175   6.185 -1.7458 -1.6355  0.7419
 8691SOL    HW237533   0.292   4.190   6.271  0.1878 -0.3063  0.2388
 8692SOL     OW37534   0.148   4.432   6.847 -0.0326  0.4093 -0.1040
 8692SOL    HW137535   0.070   4.423   6.792 -1.3939 -1.0836  2.0668
 8692SOL    HW237536   0.168   4.343   6.876 -0.8273  0.6101  1.0530
 8693SOL     OW37537   3.229   4.586   2.628  0.2527 -0.3642 -0.7755
 8693SOL    HW137538   3.202   4.663   2.577 -0.4747  1.3553  2.2481
 8693SOL    HW237539   3.177   4.509   2.603  2.3985 -2.7224  2.0330
 8694SOL     OW37540   2.946   1.894   8.634  0.5537 -0.1832  0.2118
 8694SOL    HW137541   2.954   1.974   8.687 -1.2074 -0.2344  0.5692
 8694SOL    HW237542   3.004   1.832   8.678  1.6416  0.0008 -0.9665
 8695SOL     OW37543   4.098   4.268   8.122  0.1897  0.2909  0.1113
 8695SOL    HW137544   4.152   4.301   8.193 -0.5356 -2.3049  1.8588
 8695SOL    HW237545   4.012   4.298   8.153  1.0445  2.5713  0.2942
 8696SOL     OW37546   4.184   3.367   1.831 -0.4117 -0.1012 -0.2045
 8696SOL    HW137547   4.190   3.431   1.761 -2.4517  0.8597  0.5180
 8696SOL    HW237548   4.240   3.302   1.788  0.0781 -0.0014  0.2771
 8697SOL     OW37549   0.160   0.921   9.201  0.3701 -0.1312 -0.9619
 8697SOL    HW137550   0.208   0.847   9.165  0.5172 -0.1118 -0.8090
 8697SOL    HW237551   0.202   0.986   9.145  0.8378  2.0200  1.8755
 8698SOL     OW37552   1.853   1.603   3.574  0.3975 -0.1781 -0.1301
 8698SOL    HW137553   1.762   1.588   3.599 -0.2214  1.9862 -1.1212
 8698SOL    HW237554   1.847   1.644   3.488 -2.0746  0.5470  0.4088
 8699SOL     OW37555   0.369   2.356   6.461 -0.4800  0.8512 -0.1000
 8699SOL    HW137556   0.298   2.417   6.439 -0.0119  1.7069  0.7643
 8699SOL    HW237557   0.346   2.271   6.423  1.7990  0.6424 -1.0040
 8700SOL     OW37558   1.297   3.826  15.572  0.2738  0.4636  0.3605
 8700SOL    HW137559   1.350   3.905  15.560 -1.9948  2.1151  1.2374
 8700SOL    HW237560   1.362   3.767  15.612  0.0528  0.0597  0.1304
 8701SOL     OW37561   0.988   0.378   7.739  0.2869  0.8845  0.1498
 8701SOL    HW137562   0.969   0.434   7.664  1.9122  2.0155  0.5851
 8701SOL    HW237563   1.083   0.376   7.736  0.3456  2.5471  0.9086
 8702SOL     OW37564   2.062   0.334   9.334  0.7360 -0.3689 -0.4784
 8702SOL    HW137565   2.157   0.350   9.335  0.8543 -1.0068 -0.9555
 8702SOL    HW237566   2.039   0.402   9.270 -1.2634  0.5626  1.2600
 8703SOL     OW37567   1.538   2.031   3.394 -0.2753  0.0995 -0.6257
 8703SOL    HW137568   1.500   2.048   3.480  3.5433 -0.9814  1.2788
 8703SOL    HW237569   1.489   2.094   3.341  2.5647  0.9236 -2.2830
 8704SOL     OW37570   0.315   0.596   5.041 -0.5310  0.1843 -0.3306
 8704SOL    HW137571   0.302   0.597   5.136 -0.8029 -0.0148 -0.3688
 8704SOL    HW237572   0.240   0.646   5.010 -0.1345  0.4137 -0.9109
 8705SOL     OW37573   4.578   2.580   4.492  0.6704 -0.5920 -0.1536
 8705SOL    HW137574   4.609   2.630   4.417  0.4594  1.6504  1.2594
 8705SOL    HW237575   4.485   2.595   4.472  0.6635  0.4817  0.7039
 8706SOL     OW37576   1.856   3.324  11.010  0.0517 -0.4702  0.3700
 8706SOL    HW137577   1.943   3.350  11.042 -0.9761 -1.2102  3.6633
 8706SOL    HW237578   1.809   3.311  11.091 -0.3902 -1.8256 -0.1122
 8707SOL     OW37579   1.869   4.446   3.664 -0.1458 -0.1096  0.2313
 8707SOL    HW137580   1.858   4.510   3.734 -0.2810  0.9456 -0.7385
 8707SOL    HW237581   1.900   4.505   3.594  2.8820 -1.5692  0.3350
 8708SOL     OW37582   4.081   1.468   7.814  0.0326 -0.5993 -0.0732
 8708SOL    HW137583   4.056   1.533   7.880 -2.1145  0.4176 -1.8662
 8708SOL    HW237584   4.035   1.387   7.835  0.7997 -0.7277  1.1247
 8709SOL     OW37585   0.389   2.652   0.717  0.3131  0.2125  0.5517
 8709SOL    HW137586   0.313   2.710   0.714  0.3854  0.3363  1.0890
 8709SOL    HW237587   0.448   2.661   0.642  0.1349 -2.0933  0.1344
 8710SOL     OW37588   0.974   1.110   8.387  0.4165 -0.1984  0.5674
 8710SOL    HW137589   0.953   1.113   8.294  0.2177 -1.4576  0.5715
 8710SOL    HW237590   1.017   1.025   8.388  1.6036  0.3913 -0.0270
 8711SOL     OW37591   0.659   3.971   3.015  0.0156 -0.5380  0.6905
 8711SOL    HW137592   0.606   3.979   3.094 -1.9125 -0.7979 -0.5702
 8711SOL    HW237593   0.740   4.015   3.040 -1.3093  1.9929  0.5845
 8712SOL     OW37594   0.835   0.972   8.608  0.0178  0.2186 -0.4699
 8712SOL    HW137595   0.889   1.001   8.535  1.3269  0.2835  0.5219
 8712SOL    HW237596   0.750   0.952   8.568  0.6430 -1.8435 -0.7685
 8713SOL     OW37597   2.309   3.980  14.043  0.2903 -0.2110  0.0612
 8713SOL    HW137598   2.384   4.021  14.086 -1.4024  0.1857  2.6337
 8713SOL    HW237599   2.346   3.897  14.014 -0.3589 -0.0353 -1.2705
 8714SOL     OW37600   3.132   0.362  13.002 -0.0342  0.0727  0.0375
 8714SOL    HW137601   3.077   0.423  13.051 -0.3711  0.8483 -1.3311
 8714SOL    HW237602   3.153   0.301  13.073  0.3548 -0.4495 -0.5239
 8715SOL     OW37603   4.647   1.459  13.248  0.4307  0.1726  0.4444
 8715SOL    HW137604   4.625   1.551  13.235  2.2350  0.6009  0.5066
 8715SOL    HW237605   4.673   1.431  13.160  2.1562 -1.2065  1.4177
 8716SOL     OW37606   3.714   1.520   2.721 -0.3729 -0.3129 -0.0129
 8716SOL    HW137607   3.698   1.427   2.710  0.2252 -0.5266  0.8985
 8716SOL    HW237608   3.638   1.539   2.666  0.3275 -0.3428 -0.9813
 8717SOL     OW37609   3.639   3.758   3.722 -0.2265  0.2822 -0.2827
 8717SOL    HW137610   3.701   3.789   3.788 -1.0904  1.4407 -0.0218
 8717SOL    HW237611   3.559   3.740   3.770  0.9058 -1.8487  0.8117
 8718SOL     OW37612   1.789   2.733  17.225 -0.3299 -0.4451 -0.2388
 8718SOL    HW137613   1.749   2.665  17.278  1.2612 -0.6664  0.6606
 8718SOL    HW237614   1.743   2.718  17.142  2.4562 -0.5291 -1.7613
 8719SOL     OW37615   2.076   4.359  12.161  0.3040  0.5926  0.7131
 8719SOL    HW137616   2.139   4.398  12.221 -0.1665 -0.3190  1.7897
 8719SOL    HW237617   2.065   4.436  12.105 -0.6489 -0.3058 -0.3412
 8720SOL     OW37618   0.160   3.493   0.738  0.3120  0.2510 -0.0461
 8720SOL    HW137619   0.125   3.435   0.806 -0.4884 -0.1980 -0.8553
 8720SOL    HW237620   0.171   3.571   0.793 -2.2560 -1.4037  2.8128
 8721SOL     OW37621   0.905   2.338   8.221 -0.1513  0.7152  0.5321
 8721SOL    HW137622   0.814   2.369   8.231 -0.3234 -0.1957  1.8112
 8721SOL    HW237623   0.952   2.402   8.274 -0.5047 -0.2732  2.0408
 8722SOL     OW37624   0.348   1.221  12.732  0.2893 -0.4143 -0.9749
 8722SOL    HW137625   0.335   1.312  12.704 -0.8983 -0.6620 -1.2320
 8722SOL    HW237626   0.286   1.171  12.678 -0.9145 -0.2477  0.2385
 8723SOL     OW37627   4.337   2.713   7.819  0.3289 -0.0535  0.1008
 8723SOL    HW137628   4.306   2.804   7.808  0.1717 -0.4130 -2.4873
 8723SOL    HW237629   4.266   2.672   7.769  0.7158 -0.9019  0.2672
 8724SOL     OW37630   3.162   3.000   4.812  0.5168 -0.4285  0.0812
 8724SOL    HW137631   3.185   3.050   4.890  3.6532 -0.2226 -0.9794
 8724SOL    HW237632   3.099   2.935   4.843 -0.2510 -0.0172 -0.6166
 8725SOL     OW37633   3.529   4.343  17.205 -0.6738  0.0731 -0.2727
 8725SOL    HW137634   3.468   4.272  17.187  1.2837 -1.2833 -1.6094
 8725SOL    HW237635   3.553   4.365  17.115  0.1720 -0.5134 -0.1938
 8726SOL     OW37636   3.104   0.773   3.783  0.4019 -0.4290  0.2914
 8726SOL    HW137637   3.056   0.844   3.741  1.8724 -0.0264 -0.7179
 8726SOL    HW237638   3.034   0.757   3.847  0.0846 -0.0454  0.0381
 8727SOL     OW37639   1.247   1.959   4.650  0.7425 -0.3128 -0.0340
 8727SOL    HW137640   1.152   1.950   4.647  0.5587  1.6764 -0.3708
 8727SOL    HW237641   1.265   1.873   4.688 -1.7315 -0.6095  0.4941
 8728SOL     OW37642   1.694   1.673   4.425  0.5076  0.8556  0.7100
 8728SOL    HW137643   1.633   1.732   4.381  0.0944 -1.5797 -1.9235
 8728SOL    HW237644   1.655   1.669   4.512 -0.8489 -1.3479 -0.0054
 8729SOL     OW37645   2.031   2.425  13.646 -0.4202  0.4407 -0.3862
 8729SOL    HW137646   1.970   2.468  13.587  0.5425  1.3869 -0.7024
 8729SOL    HW237647   2.079   2.502  13.677  1.3147  0.5506 -3.3833
 8730SOL     OW37648   4.204   0.381  14.306  0.2072 -0.0109 -0.4899
 8730SOL    HW137649   4.260   0.455  14.283  0.2284  0.3582  0.7375
 8730SOL    HW237650   4.154   0.424  14.375  1.1619  0.5454 -0.1451
 8731SOL     OW37651   2.269   0.825   2.174  0.4089  0.0213 -0.3096
 8731SOL    HW137652   2.351   0.789   2.206  0.5912  0.8940  0.2020
 8731SOL    HW237653   2.258   0.787   2.087 -1.3595  0.7368 -0.4039
 8732SOL     OW37654   1.114   0.209   4.199  0.3821  0.2852  0.6302
 8732SOL    HW137655   1.099   0.254   4.282  0.3323 -1.9616  1.8562
 8732SOL    HW237656   1.191   0.156   4.223 -0.9253 -1.9618 -0.1746
 8733SOL     OW37657   3.136   3.972   6.158  0.0792 -0.0215 -0.0199
 8733SOL    HW137658   3.067   4.013   6.105 -0.1955 -2.2909 -1.4116
 8733SOL    HW237659   3.090   3.891   6.182 -1.1482  0.1674 -1.6641
 8734SOL     OW37660   1.411   4.616   5.545 -0.4562  0.0558  0.0454
 8734SOL    HW137661   1.502   4.589   5.534  0.2629  2.0159  1.2889
 8734SOL    HW237662   1.417   4.707   5.571  3.3230 -0.0805 -0.4744
 8735SOL     OW37663   0.808   4.704   5.032  0.4758 -0.1356  0.5505
 8735SOL    HW137664   0.829   4.617   4.998 -0.5987  0.2454 -1.1029
 8735SOL    HW237665   0.820   4.698   5.126 -3.3222  4.2799  1.3474
 8736SOL     OW37666   1.669   1.627   7.974 -0.0528  0.0933  0.5050
 8736SOL    HW137667   1.668   1.723   7.982  1.2666  0.1707 -0.2858
 8736SOL    HW237668   1.629   1.609   8.060 -1.3334 -2.5730 -0.6535
 8737SOL     OW37669   0.648   2.676  10.093 -0.4901 -0.6643  0.4654
 8737SOL    HW137670   0.570   2.718  10.056  1.0694 -0.1366 -2.1790
 8737SOL    HW237671   0.706   2.678  10.017  1.2533  3.1540  1.8898
 8738SOL     OW37672   2.595   1.689  11.475 -0.3249 -0.2332  0.3931
 8738SOL    HW137673   2.609   1.783  11.470  0.0219 -0.2787  0.5013
 8738SOL    HW237674   2.558   1.671  11.388 -0.6461  2.1075  0.0448
 8739SOL     OW37675   2.515   2.912   5.236  0.9683  0.0379  0.3649
 8739SOL    HW137676   2.488   2.963   5.313  2.9662 -2.6062  2.8037
 8739SOL    HW237677   2.473   2.833   5.270  0.7425 -0.1338 -0.3227
 8740SOL     OW37678   2.007   0.507   4.787  0.4644  0.6196 -0.4893
 8740SOL    HW137679   1.921   0.538   4.815  0.7605  0.0004  1.1315
 8740SOL    HW237680   2.003   0.497   4.692  0.2301  1.0697 -0.5233
 8741SOL     OW37681   1.557   2.408   3.398  0.6995  0.1746 -0.0903
 8741SOL    HW137682   1.643   2.387   3.362 -0.6888 -2.5757 -1.7650
 8741SOL    HW237683   1.498   2.348   3.353 -2.6015  0.2689  4.1402
 8742SOL     OW37684   1.989   1.552   2.556  0.2973  0.5995 -0.2971
 8742SOL    HW137685   2.029   1.466   2.567 -1.4638 -0.2735 -0.6928
 8742SOL    HW237686   2.009   1.601   2.636  0.7857  0.6315 -0.4378
 8743SOL     OW37687   4.138   4.249   2.965 -0.1031 -0.3826 -0.0570
 8743SOL    HW137688   4.226   4.261   2.930  0.3339  1.1880  1.5871
 8743SOL    HW237689   4.100   4.178   2.913 -1.0514  1.4170 -1.8142
 8744SOL     OW37690   3.771   1.428  16.813 -0.0371  0.8096  0.0517
 8744SOL    HW137691   3.821   1.486  16.872 -1.5398  2.3235 -0.1657
 8744SOL    HW237692   3.681   1.428  16.846  1.0070  0.4625  2.9648
 8745SOL     OW37693   2.638   2.703  12.927 -0.4574  0.0861 -0.6299
 8745SOL    HW137694   2.732   2.704  12.945 -0.9855 -0.1810  2.2573
 8745SOL    HW237695   2.641   2.654  12.846  2.0769 -0.1388 -0.3781
 8746SOL     OW37696   3.909   2.601   7.098 -0.3182  0.3834 -0.7719
 8746SOL    HW137697   3.881   2.519   7.059 -3.1914  0.8413  0.3641
 8746SOL    HW237698   3.844   2.605   7.167  2.4673 -0.4999  1.8862
 8747SOL     OW37699   2.254   4.062   9.010  0.5791  0.0496 -0.7615
 8747SOL    HW137700   2.221   4.004   9.078  0.1731  0.9490 -0.2038
 8747SOL    HW237701   2.243   4.014   8.928  0.9528 -0.2157 -0.6603
 8748SOL     OW37702   3.032   0.993  17.335 -0.6038  0.2666  0.2816
 8748SOL    HW137703   3.016   1.081  17.368  0.6740 -0.4629  2.8188
 8748SOL    HW237704   3.007   0.932  17.404  0.2537 -0.0919  0.2757
 8749SOL     OW37705   3.531   2.536  16.183 -0.0323  0.4161 -0.2503
 8749SOL    HW137706   3.455   2.589  16.156  0.1987  1.1896  0.5831
 8749SOL    HW237707   3.582   2.608  16.221 -1.0941  1.1414 -0.1684
 8750SOL     OW37708   4.286   4.085   6.651  0.9724 -0.4081 -0.5459
 8750SOL    HW137709   4.322   4.049   6.732 -0.6332  0.8478  0.7461
 8750SOL    HW237710   4.276   4.007   6.595 -0.9286  0.6031 -1.6433
 8751SOL     OW37711   1.554   3.746   4.748 -0.4543 -0.7451  0.0649
 8751SOL    HW137712   1.633   3.700   4.720 -0.1448 -0.3924  0.3717
 8751SOL    HW237713   1.512   3.776   4.667  1.0585  0.6102 -0.2113
 8752SOL     OW37714   3.708   3.862   1.939  0.4442 -0.3420  0.5116
 8752SOL    HW137715   3.651   3.860   2.016 -0.7915  0.5051 -0.3875
 8752SOL    HW237716   3.638   3.865   1.874  1.2042  0.6805 -0.2666
 8753SOL     OW37717   3.263   2.197   5.000  0.0955  0.1411  0.0713
 8753SOL    HW137718   3.217   2.118   5.028 -1.8718  1.4881  0.6701
 8753SOL    HW237719   3.314   2.202   5.080  1.1898 -1.1359 -0.5446
 8754SOL     OW37720   2.080   0.702  13.025 -0.3978 -0.0533  0.3648
 8754SOL    HW137721   2.088   0.676  13.117 -0.8338 -0.9930  0.1363
 8754SOL    HW237722   2.004   0.761  13.025 -0.3810 -0.0283 -0.5774
 8755SOL     OW37723   2.110   0.926  14.496  0.2052 -0.4360 -0.0568
 8755SOL    HW137724   2.035   0.904  14.440 -0.5382  0.6568  0.5048
 8755SOL    HW237725   2.175   0.910  14.428  0.9603 -1.0649  0.8280
 8756SOL     OW37726   4.058   2.862  17.677 -0.3638 -0.2004 -0.4245
 8756SOL    HW137727   4.009   2.797  17.626 -2.5829  2.1569 -1.3030
 8756SOL    HW237728   3.991   2.925   0.002 -0.2037 -0.4342  0.5356
 8757SOL     OW37729   4.102   3.213  11.343 -0.0153 -0.4197  0.1530
 8757SOL    HW137730   4.028   3.253  11.390 -0.6137 -0.1686 -0.9946
 8757SOL    HW237731   4.151   3.172  11.415  1.2517  0.6792 -0.0907
 8758SOL     OW37732   3.139   4.301  14.622  0.4812 -0.5719 -0.0503
 8758SOL    HW137733   3.144   4.225  14.565 -4.9166 -0.6917 -0.4305
 8758SOL    HW237734   3.047   4.289  14.648  0.5451  2.3096  1.5479
 8759SOL     OW37735   0.137   3.702  15.822  0.2754  0.2872 -0.2342
 8759SOL    HW137736   0.074   3.772  15.811  2.5453  2.2624 -0.6259
 8759SOL    HW237737   0.138   3.690  15.917  2.6401  2.0856 -0.0386
 8760SOL     OW37738   2.498   3.468   0.508 -0.1374  0.4309  0.3964
 8760SOL    HW137739   2.434   3.473   0.437  0.8173 -0.8478 -0.5681
 8760SOL    HW237740   2.456   3.414   0.576  1.3928  0.9523  1.7680
 8761SOL     OW37741   0.726   4.422   8.638  0.2997  0.3651  0.1819
 8761SOL    HW137742   0.643   4.451   8.600 -0.7769 -0.6799  1.7393
 8761SOL    HW237743   0.705   4.343   8.688  1.3845 -0.4745 -0.6843
 8762SOL     OW37744   1.361   2.088  14.409 -0.0062  0.3531  0.0942
 8762SOL    HW137745   1.336   2.165  14.459 -1.3079  0.7301 -1.1225
 8762SOL    HW237746   1.315   2.017  14.453  0.9793 -0.2229  0.1922
 8763SOL     OW37747   4.226   2.240   3.640  0.5750  0.0385 -0.2812
 8763SOL    HW137748   4.162   2.182   3.683 -0.7258  1.0084 -0.9098
 8763SOL    HW237749   4.302   2.183   3.633  0.4169 -0.1843 -0.2020
 8764SOL     OW37750   4.660   3.363   7.042  0.1574  0.1820  0.0711
 8764SOL    HW137751   4.622   3.367   7.130 -0.6313  1.0701 -0.3133
 8764SOL    HW237752   4.594   3.313   6.995  2.5233 -2.7393 -0.1053
 8765SOL     OW37753   1.252   0.752  10.136  0.2941  0.4702 -0.0834
 8765SOL    HW137754   1.290   0.736  10.049 -0.4761  2.5066 -0.8086
 8765SOL    HW237755   1.323   0.810  10.163  0.3628  1.2557 -1.9288
 8766SOL     OW37756   3.653   3.610   9.880 -0.2090  0.0493  0.2091
 8766SOL    HW137757   3.665   3.687   9.825  0.5805 -0.1930  0.0468
 8766SOL    HW237758   3.581   3.647   9.932 -0.2556 -0.3036  0.3986
 8767SOL     OW37759   4.707   0.451   7.093 -0.2014  0.5753 -0.0907
 8767SOL    HW137760   0.035   0.386   7.048 -0.5931 -0.1404  0.4832
 8767SOL    HW237761   4.709   0.432   7.187  0.0738 -2.4959 -0.7234
 8768SOL     OW37762   2.992   2.951   4.279 -0.7647 -0.3202  0.0764
 8768SOL    HW137763   2.898   2.940   4.267 -0.9886  1.8991 -0.1468
 8768SOL    HW237764   3.022   2.946   4.188  2.6178 -1.0550  1.2129
 8769SOL     OW37765   2.041   3.144  12.901 -0.2262  0.7851  0.5066
 8769SOL    HW137766   1.968   3.159  12.841  0.1967  3.4966  0.6985
 8769SOL    HW237767   2.039   3.048  12.903 -0.5908  0.7614 -0.9679
 8770SOL     OW37768   0.572   3.051   6.052  0.7294  0.2863 -0.0198
 8770SOL    HW137769   0.575   3.147   6.057  1.4720  0.2400  0.4595
 8770SOL    HW237770   0.533   3.029   6.137  1.9338 -2.8729 -0.2900
 8771SOL     OW37771   2.973   4.210   9.518 -0.1183 -0.2629  0.6796
 8771SOL    HW137772   2.893   4.189   9.471 -0.1097  1.8562 -0.2830
 8771SOL    HW237773   2.979   4.301   9.491 -1.4046 -0.6432 -0.8601
 8772SOL     OW37774   1.704   1.436   1.575  0.1062  0.2551 -0.2311
 8772SOL    HW137775   1.719   1.520   1.532 -0.0636  0.2840 -0.2321
 8772SOL    HW237776   1.642   1.400   1.512  0.0393 -1.4051  0.7614
 8773SOL     OW37777   1.751   3.403   5.494 -0.0958 -0.3742 -0.1618
 8773SOL    HW137778   1.705   3.474   5.448 -0.3929 -0.0309  0.6729
 8773SOL    HW237779   1.723   3.419   5.584  2.8195 -1.4830  0.9299
 8774SOL     OW37780   0.640   0.628   8.232  0.2784 -0.8366  0.1288
 8774SOL    HW137781   0.639   0.717   8.266 -0.6423 -1.1397  0.9106
 8774SOL    HW237782   0.582   0.579   8.291  0.3218 -0.7401  0.2537
 8775SOL     OW37783   1.233   2.750   7.416 -0.2282 -0.2070 -0.0118
 8775SOL    HW137784   1.149   2.704   7.411 -0.1938 -0.2873  0.1447
 8775SOL    HW237785   1.303   2.688   7.397 -1.6644 -2.4525  1.9989
 8776SOL     OW37786   4.656   1.848   7.631  0.1495 -0.0887 -0.7007
 8776SOL    HW137787   4.722   1.779   7.629 -0.4627 -0.6233 -2.1949
 8776SOL    HW237788   4.632   1.847   7.539 -0.2031 -0.7163 -0.6037
 8777SOL     OW37789   4.363   4.382   8.012 -0.0677  0.5473 -0.3193
 8777SOL    HW137790   4.276   4.418   8.030 -0.4513 -0.1243 -0.8085
 8777SOL    HW237791   4.361   4.289   8.034  0.3484 -0.0867 -2.9846
 8778SOL     OW37792   2.964   4.384   0.115  0.6710 -0.3017  0.2155
 8778SOL    HW137793   2.884   4.428   0.144  1.4700 -0.4346  2.6800
 8778SOL    HW237794   3.035   4.448   0.107 -0.2905  0.7208 -0.1498
 8779SOL     OW37795   1.580   2.272  14.970 -0.1389 -0.0949  0.2652
 8779SOL    HW137796   1.524   2.259  14.893 -1.0643 -0.5873  1.0228
 8779SOL    HW237797   1.518   2.308  15.033 -1.3106 -0.8019 -0.4743
 8780SOL     OW37798   0.147   3.915  16.292  0.0241  0.2705  0.0027
 8780SOL    HW137799   0.162   3.999  16.337 -0.2452  0.5235 -0.3734
 8780SOL    HW237800   0.229   3.868  16.307 -1.4265 -1.6100  2.0354
 8781SOL     OW37801   0.979   1.364   8.035 -0.5170 -0.8911 -0.2091
 8781SOL    HW137802   0.888   1.382   8.058 -0.7657 -0.0783 -1.7808
 8781SOL    HW237803   0.996   1.431   7.968 -1.3212 -0.8954 -0.4125
 8782SOL     OW37804   0.276   2.986   7.659 -0.6071 -0.1932  0.2682
 8782SOL    HW137805   0.271   2.896   7.691  2.0692  0.3682  2.2566
 8782SOL    HW237806   0.185   3.013   7.648  0.0122  1.5782 -0.6489
 8783SOL     OW37807   1.014   2.444  11.692  0.1642 -0.4741  0.1263
 8783SOL    HW137808   1.096   2.410  11.728 -0.2392 -0.8688  0.6695
 8783SOL    HW237809   1.023   2.409  11.604  2.0979 -1.9228  0.9023
 8784SOL     OW37810   2.579   3.765   9.721  0.2156 -0.0438 -0.8182
 8784SOL    HW137811   2.536   3.756   9.636  1.0335  1.2467 -1.3754
 8784SOL    HW237812   2.515   3.741   9.788  0.6852  0.8639 -0.0395
 8785SOL     OW37813   0.967   3.076   7.920 -0.1390 -0.3626 -0.0464
 8785SOL    HW137814   0.916   3.151   7.949  1.4066  0.7142 -0.0882
 8785SOL    HW237815   1.002   3.120   7.842 -1.2984  0.0266 -0.3472
 8786SOL     OW37816   4.579   2.398   5.191  0.0642  0.0394  0.0260
 8786SOL    HW137817   4.644   2.467   5.178 -0.1587 -0.2315 -2.5424
 8786SOL    HW237818   4.513   2.407   5.123 -0.7318 -2.5458  0.4493
 8787SOL     OW37819   2.554   2.429   8.993 -0.2856  0.3033  0.3151
 8787SOL    HW137820   2.527   2.445   8.903  1.1281 -1.2543 -0.3844
 8787SOL    HW237821   2.523   2.512   9.030  2.6986  0.9150  1.4522
 8788SOL     OW37822   1.019   0.875   9.536  0.0448  0.0691  0.0336
 8788SOL    HW137823   1.052   0.825   9.610 -0.3995 -1.2592 -0.6685
 8788SOL    HW237824   1.066   0.958   9.542 -0.7148  0.3870  1.5231
 8789SOL     OW37825   1.232   4.646   1.125 -0.1553  0.2725 -0.0625
 8789SOL    HW137826   1.285   4.630   1.047 -0.6878  0.7510 -0.5180
 8789SOL    HW237827   1.182   4.722   1.098 -1.4550 -0.0472  1.4468
 8790SOL     OW37828   1.503   3.575  14.472  0.2389  0.4216 -0.5210
 8790SOL    HW137829   1.546   3.657  14.495 -0.3108 -0.0682  2.2964
 8790SOL    HW237830   1.496   3.529  14.556  2.6640  1.0338  0.0106
 8791SOL     OW37831   2.928   2.080   3.240  0.1448 -0.2358  0.8421
 8791SOL    HW137832   2.990   2.007   3.238  1.6874  1.1446 -2.5924
 8791SOL    HW237833   2.968   2.144   3.298 -0.6216  1.6639 -0.7064
 8792SOL     OW37834   3.507   0.083   4.886 -0.4375 -0.0045 -0.0334
 8792SOL    HW137835   3.455   0.142   4.940  0.5991  0.5691  0.3388
 8792SOL    HW237836   3.571   0.049   4.949  0.5044 -0.2238 -1.1112
 8793SOL     OW37837   4.381   0.035   8.553 -0.4093  0.3524 -0.2215
 8793SOL    HW137838   4.387   0.107   8.491  0.1064  1.8206  1.5256
 8793SOL    HW237839   4.288   0.026   8.576 -0.7688 -0.4161 -2.0281
 8794SOL     OW37840   1.896   1.966   2.266  0.9038 -0.5984  0.0078
 8794SOL    HW137841   1.872   1.920   2.346 -0.3660 -1.0017 -0.5966
 8794SOL    HW237842   1.855   2.051   2.284 -0.7906 -1.9555  2.5333
 8795SOL     OW37843   0.616   0.530  11.967 -0.0529 -0.0754  0.1753
 8795SOL    HW137844   0.697   0.558  12.010  1.5414  2.1533 -4.3079
 8795SOL    HW237845   0.554   0.584  12.017  0.7271  1.5547 -0.6252
 8796SOL     OW37846   2.625   0.854   7.823 -0.0014 -0.1841  0.8468
 8796SOL    HW137847   2.606   0.836   7.915 -0.2499 -2.9602  0.2481
 8796SOL    HW237848   2.624   0.950   7.819  0.5256 -0.2963 -2.1193
 8797SOL     OW37849   2.407   3.752   5.742 -0.1230 -0.4767  0.6237
 8797SOL    HW137850   2.450   3.680   5.788  2.0338  0.4566  0.0973
 8797SOL    HW237851   2.410   3.816   5.813 -2.0064  1.3379 -0.9223
 8798SOL     OW37852   2.054   4.592   5.327 -0.0585  0.1547 -0.4078
 8798SOL    HW137853   2.086   4.661   5.385 -2.3062  0.6119  0.3209
 8798SOL    HW237854   2.084   4.624   5.242  1.7889  1.4796  0.7516
 8799SOL     OW37855   0.378   3.171   7.344  0.2506 -0.1622  0.0546
 8799SOL    HW137856   0.414   3.211   7.423 -0.7690 -1.5224  1.2185
 8799SOL    HW237857   0.396   3.080   7.368  0.1589 -0.9313 -2.8498
 8800SOL     OW37858   3.915   0.424   1.684  0.2717  0.0778  0.7175
 8800SOL    HW137859   3.891   0.355   1.745  0.7996 -0.2413  0.5605
 8800SOL    HW237860   3.839   0.481   1.698 -0.6296 -1.1174  0.6528
 8801SOL     OW37861   3.033   3.328   5.407 -0.3911  0.0790 -0.5235
 8801SOL    HW137862   3.109   3.270   5.408  1.6704  2.7586  3.0839
 8801SOL    HW237863   3.024   3.326   5.312 -2.1514 -1.7505 -0.3020
 8802SOL     OW37864   0.666   3.213  17.085 -0.1317  0.2890 -0.2317
 8802SOL    HW137865   0.757   3.228  17.061  0.0148  0.2397  0.2937
 8802SOL    HW237866   0.622   3.189  17.003 -0.2943 -2.6380  0.6964
 8803SOL     OW37867   2.829   3.449   6.836 -0.7744 -0.3774 -0.1864
 8803SOL    HW137868   2.828   3.518   6.770 -0.1986  1.0595  1.3005
 8803SOL    HW237869   2.808   3.503   6.913  1.0841  1.1010 -0.7162
 8804SOL     OW37870   4.408   4.215   1.558  0.0518  0.3847  0.0005
 8804SOL    HW137871   4.479   4.175   1.507  1.3143  1.0520  1.2192
 8804SOL    HW237872   4.335   4.156   1.544  1.2309 -0.5066 -2.3668
 8805SOL     OW37873   4.724   4.603  17.002 -0.0971  0.4117  0.0090
 8805SOL    HW137874   4.675   4.530  17.039  2.5705 -0.7961  1.2157
 8805SOL    HW237875   0.084   4.559  16.993 -0.8294 -0.7030 -1.3711
 8806SOL     OW37876   1.909   2.069   7.984  0.0261  0.5522  0.7792
 8806SOL    HW137877   1.992   2.070   7.937 -0.9655  0.5393 -0.9732
 8806SOL    HW237878   1.933   2.121   8.061 -2.3424  3.8838 -0.7231
 8807SOL     OW37879   1.335   2.252   1.853 -0.1700  0.2250  0.2306
 8807SOL    HW137880   1.397   2.199   1.904 -1.8965 -1.4893  0.5756
 8807SOL    HW237881   1.341   2.198   1.774  0.7195  0.5678  0.0692
 8808SOL     OW37882   4.121   0.320   6.514 -0.1746 -0.5367  0.4261
 8808SOL    HW137883   4.100   0.322   6.421 -2.2548 -1.9859  0.8616
 8808SOL    HW237884   4.198   0.263   6.513 -0.5511 -0.9973 -2.6041
 8809SOL     OW37885   3.584   2.637   5.482  0.1258  0.2793  0.3881
 8809SOL    HW137886   3.520   2.580   5.440  1.4209  1.2103 -2.9070
 8809SOL    HW237887   3.661   2.587   5.452 -1.2993 -2.2087  0.9046
 8810SOL     OW37888   3.714   2.497   4.457  0.3807  0.1038  0.3858
 8810SOL    HW137889   3.754   2.465   4.376  0.1308 -0.6054  0.5378
 8810SOL    HW237890   3.787   2.493   4.519  0.1321  0.2248  0.6843
 8811SOL     OW37891   4.289   0.737   4.557 -0.3902 -0.1061  0.2861
 8811SOL    HW137892   4.287   0.826   4.522 -1.4655 -0.7702 -1.3834
 8811SOL    HW237893   4.201   0.708   4.534 -0.6234 -0.0069  1.0557
 8812SOL     OW37894   0.365   0.267   8.327 -0.3906  0.3582 -0.1382
 8812SOL    HW137895   0.323   0.195   8.375  0.0436  0.9172  1.0678
 8812SOL    HW237896   0.350   0.343   8.382  0.1422  0.4993 -0.1915
 8813SOL     OW37897   2.564   4.015   1.969 -0.7104 -0.1809 -0.2530
 8813SOL    HW137898   2.560   4.111   1.963 -2.2764 -0.1861  0.5781
 8813SOL    HW237899   2.490   3.986   1.916  1.1424 -0.2659 -2.7419
 8814SOL     OW37900   2.548   0.747   3.952 -0.2533  0.2084 -0.5747
 8814SOL    HW137901   2.503   0.708   3.877  2.1151 -0.7458 -1.5174
 8814SOL    HW237902   2.626   0.694   3.969  0.5184  0.7496 -2.3862
 8815SOL     OW37903   3.658   4.478   3.219 -0.7589  0.1297  0.0250
 8815SOL    HW137904   3.569   4.486   3.184 -1.0754  1.0738  1.0343
 8815SOL    HW237905   3.647   4.403   3.278 -1.6472  0.4838  0.3185
 8816SOL     OW37906   1.770   4.305   6.733  0.2753 -0.2269 -0.1295
 8816SOL    HW137907   1.796   4.397   6.734 -1.1165  0.1578  1.8410
 8816SOL    HW237908   1.857   4.271   6.717  0.4526 -0.7183  1.8894
 8817SOL     OW37909   3.679   4.668   8.802 -0.2554 -0.0790  0.1381
 8817SOL    HW137910   3.774   4.666   8.811 -0.3080  0.9703  0.9862
 8817SOL    HW237911   3.660   0.035   8.820 -0.4902  0.1844 -1.5162
 8818SOL     OW37912   1.942   2.243   8.203  0.3942  0.3170 -0.4500
 8818SOL    HW137913   1.885   2.317   8.222  0.2077 -0.0390  0.3896
 8818SOL    HW237914   2.021   2.282   8.240  0.2595 -0.9666  1.1510
 8819SOL     OW37915   2.814   1.560   7.407 -0.3784 -0.0102 -0.0685
 8819SOL    HW137916   2.891   1.579   7.461  0.8668 -0.4850 -1.7057
 8819SOL    HW237917   2.748   1.567   7.476 -1.3733 -0.9822 -0.9240
 8820SOL     OW37918   3.550   4.313  14.994 -0.0897 -0.1515 -0.7957
 8820SOL    HW137919   3.495   4.312  14.916 -0.4690 -0.2364 -0.5288
 8820SOL    HW237920   3.502   4.382  15.039  1.5938 -0.0557  0.8621
 8821SOL     OW37921   4.599   4.612   8.505  0.0147  0.1360  0.2532
 8821SOL    HW137922   4.640   4.634   8.422 -0.6061 -2.1282 -0.6470
 8821SOL    HW237923   4.523   4.669   8.510 -0.4599 -0.3104 -2.1009
 8822SOL     OW37924   0.371   1.944   7.820  0.5799 -0.4446 -0.0853
 8822SOL    HW137925   0.361   1.926   7.727  0.6218  1.7906 -0.5313
 8822SOL    HW237926   0.366   2.039   7.817 -0.5019 -0.5129 -0.5303
 8823SOL     OW37927   1.262   1.991   5.460  0.1048 -0.4485  0.4582
 8823SOL    HW137928   1.264   1.896   5.467 -0.1068 -0.5879 -1.3401
 8823SOL    HW237929   1.184   2.004   5.405  2.0317 -0.8784 -2.4006
 8824SOL     OW37930   0.043   1.902   9.639 -0.5031  0.0566  0.3954
 8824SOL    HW137931   0.115   1.907   9.576  0.8930  0.3605  2.0069
 8824SOL    HW237932   0.019   1.811   9.619  2.8946 -0.6606 -0.4864
 8825SOL     OW37933   3.080   0.981   8.079 -0.1955  0.1222 -0.3823
 8825SOL    HW137934   3.064   0.900   8.129 -0.5101  0.7317  0.5016
 8825SOL    HW237935   3.137   1.022   8.144 -0.2629 -0.5860  0.1239
 8826SOL     OW37936   1.463   2.079   3.673 -0.2142  0.1411  0.9468
 8826SOL    HW137937   1.398   2.137   3.635 -0.1585  0.2854  1.0711
 8826SOL    HW237938   1.539   2.135   3.693 -0.5344  1.7418 -2.3950
 8827SOL     OW37939   4.182   2.299   2.758  0.6721  0.3830 -0.2508
 8827SOL    HW137940   4.099   2.263   2.787  1.4822 -1.1313  0.1938
 8827SOL    HW237941   4.166   2.391   2.740  0.5986  0.3611 -0.2927
 8828SOL     OW37942   0.556   4.403  14.351  0.2029 -0.2873  0.8111
 8828SOL    HW137943   0.542   4.464  14.423  1.2187 -1.6033  2.1228
 8828SOL    HW237944   0.502   4.331  14.385 -0.6771  0.6532  1.4189
 8829SOL     OW37945   3.517   1.433  16.914 -0.7214 -0.1141  0.1484
 8829SOL    HW137946   3.454   1.376  16.959 -1.5318 -0.3996 -1.3591
 8829SOL    HW237947   3.498   1.514  16.960  2.4491  0.6713  0.0686
 8830SOL     OW37948   4.488   1.458   1.908 -0.4696 -0.2482  0.2562
 8830SOL    HW137949   4.557   1.523   1.893 -0.0583 -1.0563 -1.3711
 8830SOL    HW237950   4.445   1.451   1.823 -1.1250  0.8352  0.4915
 8831SOL     OW37951   0.255   3.423   6.661  0.3843  0.1437 -0.2974
 8831SOL    HW137952   0.173   3.458   6.697  0.3483 -0.8437  0.5763
 8831SOL    HW237953   0.315   3.414   6.734  0.1920  2.9603  0.2054
 8832SOL     OW37954   1.035   3.936   7.247  0.9184  0.3104  0.2431
 8832SOL    HW137955   1.007   3.992   7.176 -1.0389  1.8461  2.2289
 8832SOL    HW237956   1.129   3.956   7.250  0.4643  2.2976  1.7469
 8833SOL     OW37957   3.020   1.895  12.660  1.1541  0.5039  0.1455
 8833SOL    HW137958   2.975   1.967  12.615  0.1878 -0.0565  0.2222
 8833SOL    HW237959   2.990   1.899  12.751  0.1412 -1.7132 -0.1055
 8834SOL     OW37960   3.729   3.722   5.384 -0.7837  0.3711  0.3648
 8834SOL    HW137961   3.637   3.716   5.356 -0.4632 -0.7472 -0.4404
 8834SOL    HW237962   3.770   3.762   5.308 -0.3365  0.6781  0.7707
 8835SOL     OW37963   4.525   1.920   2.353 -0.4212  0.2731 -0.8025
 8835SOL    HW137964   4.533   1.917   2.449 -0.2451 -1.3493 -0.8670
 8835SOL    HW237965   4.598   1.861   2.332  1.1349  1.9042  0.0240
 8836SOL     OW37966   2.002   0.592   7.212 -0.0325 -0.0706 -0.2640
 8836SOL    HW137967   2.091   0.557   7.215  0.2009  0.4458 -0.9404
 8836SOL    HW237968   2.024   0.680   7.181 -0.0881  0.0707  0.1006
 8837SOL     OW37969   0.533   3.946  16.525  0.1760 -0.3539  0.3727
 8837SOL    HW137970   0.586   3.952  16.446  0.4457 -1.2714  0.4895
 8837SOL    HW237971   0.539   4.038  16.550  0.4305 -0.2549 -0.0476
 8838SOL     OW37972   4.433   2.046   4.381  0.1569  0.1667  0.1587
 8838SOL    HW137973   4.377   2.107   4.427  0.6389  0.4141  0.4140
 8838SOL    HW237974   4.403   1.963   4.418 -0.2196 -0.1806 -0.9127
 8839SOL     OW37975   1.996   4.162  10.093 -0.6167 -0.7447 -0.2024
 8839SOL    HW137976   2.019   4.071  10.110 -0.6047 -0.9731 -1.4136
 8839SOL    HW237977   1.901   4.166  10.104 -0.2740  0.3733  2.2410
 8840SOL     OW37978   1.670   3.523   9.099 -0.7406 -0.8413 -0.3975
 8840SOL    HW137979   1.652   3.607   9.057  2.8614 -0.3055 -0.8099
 8840SOL    HW237980   1.677   3.470   9.019 -0.7620 -0.2159 -0.8118
 8841SOL     OW37981   2.237   1.407   6.590  0.0045  0.2520  0.0809
 8841SOL    HW137982   2.162   1.428   6.645  0.9983  1.2186  1.0925
 8841SOL    HW237983   2.218   1.458   6.511 -2.1597  1.3219  1.2829
 8842SOL     OW37984   1.225   0.887   4.147  0.6818  0.6065  0.4047
 8842SOL    HW137985   1.174   0.834   4.087 -1.1145  1.6988  0.9507
 8842SOL    HW237986   1.146   0.929   4.181  0.7294  0.2003  1.0141
 8843SOL     OW37987   2.796   1.372   2.409 -0.0979  0.5212 -0.4690
 8843SOL    HW137988   2.820   1.450   2.360  0.4945  0.2069 -0.6893
 8843SOL    HW237989   2.860   1.312   2.370 -0.1530 -0.2451  0.5847
 8844SOL     OW37990   0.283   1.793  14.164 -0.7303 -0.0173 -0.1842
 8844SOL    HW137991   0.309   1.746  14.085  0.5003  2.3494 -1.2032
 8844SOL    HW237992   0.361   1.843  14.186 -0.1166 -1.4480  0.8345
 8845SOL     OW37993   0.378   4.093   2.104  0.5128  0.2810 -0.1424
 8845SOL    HW137994   0.313   4.162   2.089 -0.8564 -0.7472  1.0776
 8845SOL    HW237995   0.413   4.075   2.017  0.4400 -0.1503 -0.0830
 8846SOL     OW37996   4.281   4.213   7.582 -0.2060  0.3665 -0.2976
 8846SOL    HW137997   4.259   4.237   7.672 -0.5277 -1.3639  0.0904
 8846SOL    HW237998   4.366   4.172   7.598  0.3708  1.1759 -1.3229
 8847SOL     OW37999   3.489   2.858   2.554 -0.3024  0.2200  0.0454
 8847SOL    HW138000   3.469   2.906   2.635  1.2695 -0.2674  0.7417
 8847SOL    HW238001   3.455   2.926   2.496 -2.0905 -0.8343 -0.1155
 8848SOL     OW38002   2.703   1.252   3.661 -0.1947 -0.0902  0.4980
 8848SOL    HW138003   2.625   1.265   3.607  0.4241 -0.6278 -0.5319
 8848SOL    HW238004   2.702   1.157   3.666 -0.3934 -0.3137 -3.1985
 8849SOL     OW38005   3.200   0.809   8.432  0.0918 -0.3815  0.4539
 8849SOL    HW138006   3.223   0.888   8.383 -0.4575 -0.3910  0.1726
 8849SOL    HW238007   3.119   0.779   8.391  1.0865 -1.5111 -0.7027
 8850SOL     OW38008   3.714   4.116  11.495  0.3739 -0.1271  0.0323
 8850SOL    HW138009   3.640   4.085  11.546 -0.5016 -0.0459 -1.1696
 8850SOL    HW238010   3.677   4.196  11.456  2.4202  1.9880  2.4547
 8851SOL     OW38011   2.877   3.369   5.636  0.0901  0.4823 -0.0310
 8851SOL    HW138012   2.922   3.379   5.553  2.2358 -1.0375  0.9587
 8851SOL    HW238013   2.952   3.378   5.695 -0.8975 -1.1886  1.5008
 8852SOL     OW38014   3.308   1.578   7.852 -0.0016 -0.2195  0.3856
 8852SOL    HW138015   3.305   1.610   7.761  3.1284 -0.1400  0.3324
 8852SOL    HW238016   3.240   1.637   7.885 -0.2186  0.6538 -1.5816
 8853SOL     OW38017   2.862   0.476   9.527 -0.4388 -0.2892 -0.3457
 8853SOL    HW138018   2.837   0.522   9.447 -0.2808 -0.8757 -0.7227
 8853SOL    HW238019   2.804   0.519   9.590 -1.4115 -1.5878 -0.3549
 8854SOL     OW38020   0.429   0.953  10.729 -0.4326 -0.8359 -0.5072
 8854SOL    HW138021   0.506   0.896  10.726  0.0824 -0.1448 -0.4562
 8854SOL    HW238022   0.367   0.883  10.707 -0.8595 -0.0270 -1.8781
 8855SOL     OW38023   1.610   4.063   8.764 -0.0733 -0.0306  0.9945
 8855SOL    HW138024   1.699   4.064   8.729  0.4323  0.4950  2.2974
 8855SOL    HW238025   1.553   4.090   8.692 -0.6661 -0.3326  1.3576
 8856SOL     OW38026   2.791   1.218  11.701  0.1242 -0.4928  0.4426
 8856SOL    HW138027   2.780   1.277  11.775  0.6334  2.0110 -1.4913
 8856SOL    HW238028   2.704   1.180  11.695  0.1455 -0.6858  1.4248
 8857SOL     OW38029   1.628   3.409  10.811 -0.1320 -0.2505 -0.4148
 8857SOL    HW138030   1.631   3.451  10.897 -0.3670 -0.1078 -0.4757
 8857SOL    HW238031   1.572   3.467  10.759 -0.1858  0.2008  0.1471
 8858SOL     OW38032   2.980   2.580   9.203  0.4055 -0.0792  0.5956
 8858SOL    HW138033   3.011   2.650   9.260  1.2546 -0.0961  0.1515
 8858SOL    HW238034   2.993   2.615   9.115 -0.6083 -2.1577 -0.3998
 8859SOL     OW38035   0.629   2.816   8.154 -0.2495  0.2549  0.0166
 8859SOL    HW138036   0.717   2.804   8.121 -0.7019 -0.9666 -0.7579
 8859SOL    HW238037   0.638   2.836   8.248  0.8406  1.7022 -0.4016
 8860SOL     OW38038   3.701   3.378   4.718  0.5202 -0.0530  0.0238
 8860SOL    HW138039   3.682   3.387   4.625 -4.4835 -0.9045  0.9554
 8860SOL    HW238040   3.795   3.358   4.721  0.5517  0.1073  0.1000
 8861SOL     OW38041   0.084   2.934  13.400 -0.4370  0.5288 -0.4693
 8861SOL    HW138042   0.008   2.882  13.374  0.9369 -1.6611 -0.1411
 8861SOL    HW238043   0.044   3.018  13.423 -0.1105  1.1513 -2.1459
 8862SOL     OW38044   3.445   4.617  10.361 -0.4294 -0.1949 -0.0452
 8862SOL    HW138045   3.415   4.597  10.450 -1.1725  1.6710  0.1260
 8862SOL    HW238046   3.510   4.546  10.363  0.8574  0.9456 -1.4634
 8863SOL     OW38047   3.033   4.213   8.631  0.2875 -0.0766 -0.2980
 8863SOL    HW138048   2.984   4.136   8.657  2.0494 -0.6124  1.4694
 8863SOL    HW238049   3.117   4.179   8.600  0.0667 -0.0537 -0.9227
 8864SOL     OW38050   3.994   0.670   8.677 -0.0715 -0.1695 -0.0427
 8864SOL    HW138051   4.070   0.720   8.647 -0.8385  1.3529  0.5822
 8864SOL    HW238052   3.928   0.739   8.662  0.2679  0.5065  1.6540
 8865SOL     OW38053   0.560   1.723  13.445 -0.6636 -0.6015  0.2926
 8865SOL    HW138054   0.584   1.783  13.375  0.4510  1.0851  2.1165
 8865SOL    HW238055   0.509   1.660  13.393 -3.5352  2.5294 -0.6372
 8866SOL     OW38056   2.537   0.904  11.483 -0.5870  0.7294 -0.3899
 8866SOL    HW138057   2.623   0.905  11.441  1.7040 -4.3656  4.1244
 8866SOL    HW238058   2.564   0.972  11.545  0.5538 -0.9505  0.9441
 8867SOL     OW38059   1.033   0.291   2.249  0.7775  0.0079  0.2739
 8867SOL    HW138060   1.055   0.229   2.179  1.5583  3.6575 -2.7106
 8867SOL    HW238061   1.035   0.240   2.329 -3.2252 -0.8244 -0.1400
 8868SOL     OW38062   2.788   0.392   8.080  0.1142 -0.8851 -0.0383
 8868SOL    HW138063   2.853   0.323   8.091  2.2696  1.2709  0.7801
 8868SOL    HW238064   2.721   0.334   8.045  0.7688 -0.6994 -1.6046
 8869SOL     OW38065   2.907   1.625   4.687  0.5081 -0.6591 -0.1367
 8869SOL    HW138066   2.820   1.663   4.682  1.7160  2.4002  2.1378
 8869SOL    HW238067   2.917   1.584   4.600 -1.3285 -1.3445 -0.0322
 8870SOL     OW38068   2.617   3.717   5.003  0.1162 -0.4975  0.0008
 8870SOL    HW138069   2.609   3.780   4.930 -1.1225 -0.9371 -0.2397
 8870SOL    HW238070   2.637   3.644   4.945  0.9142  0.3253 -0.7729
 8871SOL     OW38071   0.999   0.388   5.992 -0.3512 -0.1084  0.1627
 8871SOL    HW138072   1.045   0.472   5.993  0.5211 -0.5850  0.1354
 8871SOL    HW238073   1.073   0.328   5.992 -0.2403  0.0075 -3.2152
 8872SOL     OW38074   3.696   2.294   2.191 -0.0885  0.1632 -0.5447
 8872SOL    HW138075   3.778   2.246   2.179 -0.0745 -0.4093  1.6760
 8872SOL    HW238076   3.709   2.349   2.269 -1.1809 -1.0384  0.4963
 8873SOL     OW38077   1.584   1.820  16.277  0.2161  0.2780  0.2536
 8873SOL    HW138078   1.521   1.823  16.205  0.7893 -3.6318 -0.4117
 8873SOL    HW238079   1.550   1.891  16.331  0.6412  1.7390 -1.4170
 8874SOL     OW38080   0.759   4.018  15.577  0.2196 -0.1223  0.1670
 8874SOL    HW138081   0.800   3.932  15.584  3.7880  1.5669  0.0643
 8874SOL    HW238082   0.838   4.071  15.570 -0.4417  0.9189  0.5962
 8875SOL     OW38083   3.867   2.578   0.787  0.2893 -0.4702 -0.2956
 8875SOL    HW138084   3.773   2.563   0.776  0.0533  0.7059  0.0358
 8875SOL    HW238085   3.897   2.508   0.729  2.0220  1.1295 -1.3367
 8876SOL     OW38086   4.337   0.618  14.205 -0.2351 -0.0402 -0.1462
 8876SOL    HW138087   4.337   0.651  14.295 -0.0895 -0.2677 -0.0618
 8876SOL    HW238088   4.361   0.702  14.167  1.9006 -0.4183  0.4014
 8877SOL     OW38089   0.425   1.239   4.789 -1.2314 -0.2048 -0.5086
 8877SOL    HW138090   0.473   1.320   4.807  0.9194 -1.9063  1.3647
 8877SOL    HW238091   0.495   1.174   4.788 -0.6860  0.3668  1.0944
 8878SOL     OW38092   0.076   3.120   9.504 -0.5161  0.5748  0.7720
 8878SOL    HW138093   0.070   3.074   9.588 -0.2969  2.7080  1.9447
 8878SOL    HW238094   4.707   3.123   9.484 -0.5056 -0.0730  0.6087
 8879SOL     OW38095   1.058   3.714  12.846  0.2873  0.5771 -0.2057
 8879SOL    HW138096   1.066   3.773  12.921  0.0588 -0.5062  0.6815
 8879SOL    HW238097   1.106   3.640  12.885 -0.2529 -1.0402 -2.6414
 8880SOL     OW38098   0.958   0.992   4.042  0.3350 -0.5500 -0.2244
 8880SOL    HW138099   0.890   0.983   4.108  1.5275  2.2953  1.3793
 8880SOL    HW238100   0.934   0.911   3.997  0.1997 -0.4434 -0.3426
 8881SOL     OW38101   2.692   3.104   1.985  0.3460 -0.0714 -0.0797
 8881SOL    HW138102   2.703   3.081   1.893  2.6303 -1.5728  0.5855
 8881SOL    HW238103   2.597   3.098   1.990  0.4718 -2.0200 -0.3502
 8882SOL     OW38104   3.968   0.832   3.844  0.5420 -0.1364 -0.6891
 8882SOL    HW138105   3.921   0.834   3.927  3.8187 -0.4172  1.1996
 8882SOL    HW238106   4.029   0.900   3.873  0.1538 -0.0859  0.0155
 8883SOL     OW38107   0.543   3.867  12.570  0.7651  0.3080  0.1596
 8883SOL    HW138108   0.584   3.865  12.483  2.0945 -0.5297  0.8104
 8883SOL    HW238109   0.607   3.808  12.609  0.8173  1.2970  1.5492
 8884SOL     OW38110   2.011   2.004   2.616 -0.2564 -0.0462 -0.0854
 8884SOL    HW138111   2.095   2.040   2.645  0.0424 -0.5227 -0.3650
 8884SOL    HW238112   1.945   2.069   2.641  0.4852  1.7645 -2.8256
 8885SOL     OW38113   4.627   4.124  15.328 -0.7223  0.5596  0.4885
 8885SOL    HW138114   4.536   4.144  15.348 -1.2587 -0.9241 -0.4475
 8885SOL    HW238115   4.668   4.210  15.332  0.7764 -0.1939  1.4575
 8886SOL     OW38116   3.761   3.862   7.977  0.3944 -0.0282 -0.1195
 8886SOL    HW138117   3.703   3.842   8.051 -2.7073 -0.0679 -2.5819
 8886SOL    HW238118   3.714   3.834   7.898  3.6709 -0.3038 -1.9840
 8887SOL     OW38119   1.668   3.126   4.723 -0.8813 -0.0205  0.2471
 8887SOL    HW138120   1.669   3.076   4.805  0.0696  0.7028  0.6828
 8887SOL    HW238121   1.576   3.115   4.698 -0.5501 -3.0189  0.3165
 8888SOL     OW38122   0.142   3.430  17.273 -0.0695 -0.0957  0.5409
 8888SOL    HW138123   0.097   3.411  17.190 -1.9320  3.0962  0.8734
 8888SOL    HW238124   0.201   3.498  17.241  0.2058 -2.6059 -4.4019
 8889SOL     OW38125   3.081   0.644   3.155 -0.5506 -0.6880  0.2035
 8889SOL    HW138126   3.175   0.626   3.148 -0.0445  2.1754 -0.6636
 8889SOL    HW238127   3.036   0.564   3.131 -0.9260 -0.2513 -0.5408
 8890SOL     OW38128   1.635   0.962   3.689  0.6268 -0.1124  0.2506
 8890SOL    HW138129   1.694   0.985   3.617 -0.2280 -0.4656 -0.5612
 8890SOL    HW238130   1.622   1.043   3.738  0.6310  0.6809 -1.0600
 8891SOL     OW38131   0.439   2.499  15.129  0.0754 -0.3683  0.8132
 8891SOL    HW138132   0.468   2.430  15.187 -2.0959 -0.1572  2.1464
 8891SOL    HW238133   0.491   2.474  15.052 -0.2320 -0.9254  0.7846
 8892SOL     OW38134   1.353   3.894  16.450 -0.0798 -0.5111  0.0751
 8892SOL    HW138135   1.279   3.857  16.496 -0.5643  1.4653  0.8825
 8892SOL    HW238136   1.368   3.977  16.495 -1.4164 -0.1952 -0.0757
 8893SOL     OW38137   2.452   2.663   9.141  0.0653 -0.0127  0.1626
 8893SOL    HW138138   2.404   2.621   9.213 -0.5128 -1.7575 -1.2537
 8893SOL    HW238139   2.436   2.752   9.174  0.0694  0.6050 -1.5368
 8894SOL     OW38140   4.288   2.395  15.669 -0.2055 -0.7463 -0.3016
 8894SOL    HW138141   4.280   2.348  15.586 -0.5510 -1.1151 -0.0613
 8894SOL    HW238142   4.330   2.475  15.639  0.0587 -0.2727  1.3506
 8895SOL     OW38143   3.653   4.553   0.285  0.1829  0.4239  0.1482
 8895SOL    HW138144   3.744   4.581   0.278 -0.1895  1.6052  0.1724
 8895SOL    HW238145   3.663   4.520   0.375  0.5229 -0.2832 -0.1432
 8896SOL     OW38146   4.701   0.028   4.506 -0.3355  0.1052  0.1397
 8896SOL    HW138147   4.722   0.083   4.431  0.4751  1.1615  1.1500
 8896SOL    HW238148   4.657   4.679   4.464  1.0393  0.4925 -1.9731
 8897SOL     OW38149   0.488   1.135   6.421 -0.2305  0.2173 -0.3008
 8897SOL    HW138150   0.422   1.170   6.481 -0.7903 -1.6188  0.1672
 8897SOL    HW238151   0.521   1.060   6.472 -0.6824 -0.4275 -0.9487
 8898SOL     OW38152   2.885   3.087  17.363  0.0986  0.6956 -0.2741
 8898SOL    HW138153   2.798   3.126  17.357 -1.0837 -1.7717  0.9034
 8898SOL    HW238154   2.870   3.011  17.307 -1.2282  1.0009 -0.3278
 8899SOL     OW38155   1.009   0.750   7.065  0.8895  1.0727 -0.6427
 8899SOL    HW138156   1.053   0.699   6.997 -2.8179 -0.9076 -1.5706
 8899SOL    HW238157   1.083   0.767   7.123  0.9985  0.3443 -0.5597
 8900SOL     OW38158   4.128   1.848   5.858 -0.9993  0.0072 -0.1788
 8900SOL    HW138159   4.158   1.872   5.770 -0.2861  1.2398  0.3864
 8900SOL    HW238160   4.055   1.910   5.865 -0.7799  0.2926 -0.4026
 8901SOL     OW38161   2.441   2.638   3.726 -0.5622 -0.2793  0.6100
 8901SOL    HW138162   2.366   2.681   3.767  1.0217  0.2396  3.0173
 8901SOL    HW238163   2.425   2.669   3.638  0.2318 -1.5656  0.0092
 8902SOL     OW38164   3.628   3.472   3.419  0.5091 -0.3031  0.1930
 8902SOL    HW138165   3.659   3.526   3.346  2.1667 -0.1866  0.9894
 8902SOL    HW238166   3.707   3.465   3.473  0.1635 -0.3628  0.6898
 8903SOL     OW38167   2.159   4.629   5.988 -0.2226  0.1350  0.7139
 8903SOL    HW138168   2.106   4.611   5.911  0.3929  0.1210  0.2938
 8903SOL    HW238169   2.249   4.618   5.956 -0.6755 -1.5068  0.0464
 8904SOL     OW38170   1.996   2.896   0.671 -1.1947 -0.0882 -0.4361
 8904SOL    HW138171   1.973   2.951   0.746  2.4609  0.2234  0.4648
 8904SOL    HW238172   1.921   2.837   0.661  1.4987 -3.2459 -2.0251
 8905SOL     OW38173   2.424   2.034   2.361 -0.4079  0.0551  0.8718
 8905SOL    HW138174   2.509   2.011   2.398  1.5501  1.3826 -2.7927
 8905SOL    HW238175   2.457   2.044   2.272 -0.3646 -2.3825  0.6036
 8906SOL     OW38176   0.626   2.876  16.975 -0.0795 -0.1279 -0.7763
 8906SOL    HW138177   0.707   2.905  17.016 -2.0942  2.2107  1.5488
 8906SOL    HW238178   0.608   2.794  17.021  2.1395  0.5069  1.2097
 8907SOL     OW38179   2.600   1.021   8.055 -0.2990 -0.1770 -0.1234
 8907SOL    HW138180   2.682   1.068   8.038  0.4643 -1.7371 -0.8091
 8907SOL    HW238181   2.552   1.080   7.996  0.0395  1.7139  1.4923
 8908SOL     OW38182   2.469   3.696   9.462  0.5564  0.3412  0.0260
 8908SOL    HW138183   2.374   3.698   9.470  0.6717  2.1397  1.0246
 8908SOL    HW238184   2.466   3.635   9.388  1.5407 -2.0008  1.8989
 8909SOL     OW38185   0.320   3.740  11.343 -0.1106 -0.6677  0.3257
 8909SOL    HW138186   0.297   3.658  11.387  2.1256 -0.3209  2.1619
 8909SOL    HW238187   0.301   3.715  11.252 -1.3269  1.7777 -0.0742
 8910SOL     OW38188   1.529   4.271   8.946  0.5419  0.4562  0.2452
 8910SOL    HW138189   1.577   4.189   8.933 -0.8716 -0.1391 -1.3521
 8910SOL    HW238190   1.437   4.247   8.961 -0.1154  1.3282 -2.3415
 8911SOL     OW38191   3.792   3.191   5.687  0.7140 -0.6619  0.3344
 8911SOL    HW138192   3.870   3.237   5.657 -0.2801 -0.5267 -1.9608
 8911SOL    HW238193   3.732   3.202   5.614  0.1765  1.4812  1.0904
 8912SOL     OW38194   3.785   3.917   8.494  0.5231 -0.1943 -0.0530
 8912SOL    HW138195   3.718   3.983   8.511  1.8992  1.1639  0.2043
 8912SOL    HW238196   3.863   3.973   8.486 -0.0326  0.4375 -0.9967
 8913SOL     OW38197   0.994   1.169  16.094 -0.3597 -0.4120  0.2724
 8913SOL    HW138198   1.021   1.180  16.003  0.9920  1.7590  0.9355
 8913SOL    HW238199   1.050   1.102  16.132  1.3675  0.4744 -0.7443
 8914SOL     OW38200   0.792   0.056   1.765 -0.1961 -0.2445  0.2480
 8914SOL    HW138201   0.815   0.144   1.737 -2.4238 -0.3280 -1.7538
 8914SOL    HW238202   0.697   0.047   1.753 -0.4430 -0.5582  2.2792
 8915SOL     OW38203   1.633   0.482   8.092  0.3640  0.2084 -0.4856
 8915SOL    HW138204   1.663   0.539   8.022 -0.7744  2.9396  1.2279
 8915SOL    HW238205   1.539   0.467   8.076  0.7012 -1.1600 -1.1541
 8916SOL     OW38206   3.198   0.723   5.113  0.4266  0.7471  0.6249
 8916SOL    HW138207   3.117   0.721   5.163  0.3721 -0.5503  0.4958
 8916SOL    HW238208   3.242   0.805   5.135  1.7260  0.6409 -1.5409
 8917SOL     OW38209   3.458   2.942  15.402  0.0739 -0.0598  0.2391
 8917SOL    HW138210   3.479   3.033  15.383  0.8343 -0.2344  0.2365
 8917SOL    HW238211   3.376   2.975  15.437 -0.5712 -1.3850 -0.0170
 8918SOL     OW38212   3.234   0.502   2.749 -0.2254  0.7615  0.1371
 8918SOL    HW138213   3.213   0.454   2.670  1.8389 -0.1030  0.1188
 8918SOL    HW238214   3.312   0.457   2.782 -0.3879 -0.2520 -0.8895
 8919SOL     OW38215   3.794   0.991   7.034 -0.6218 -0.2691  0.2669
 8919SOL    HW138216   3.784   1.020   7.124  0.6960  2.2522 -0.3938
 8919SOL    HW238217   3.868   0.931   7.032 -1.4000 -1.3028  2.3771
 8920SOL     OW38218   3.867   4.092   2.597 -0.1206 -0.1745 -0.0712
 8920SOL    HW138219   3.872   4.165   2.659  1.3774 -0.0693 -0.3026
 8920SOL    HW238220   3.784   4.055   2.628 -1.6506  1.8182 -1.8741
 8921SOL     OW38221   2.003   2.503  11.707 -0.2551  0.4552 -0.0241
 8921SOL    HW138222   2.017   2.513  11.613  1.5709 -0.9753  0.0880
 8921SOL    HW238223   1.987   2.591  11.740 -2.1669  0.4193 -0.8770
 8922SOL     OW38224   4.049   0.024  17.219  0.3928  0.6904  0.4812
 8922SOL    HW138225   4.127   0.011  17.164  1.4370 -0.7106  2.2916
 8922SOL    HW238226   4.076   0.108  17.256  2.1129 -0.0021  0.8027
 8923SOL     OW38227   0.317   2.093   6.351 -0.2635  0.2973 -0.9049
 8923SOL    HW138228   0.348   2.060   6.268 -0.6252 -0.3204 -0.7964
 8923SOL    HW238229   0.363   2.037   6.413  0.1157  0.1109 -1.3570
 8924SOL     OW38230   2.600   3.315   1.752 -0.1903 -0.4637  0.7035
 8924SOL    HW138231   2.530   3.251   1.767 -1.7805  1.0752 -0.2926
 8924SOL    HW238232   2.589   3.386   1.815 -0.4473  0.6845 -0.6447
 8925SOL     OW38233   3.174   3.825   0.804  0.1168  0.6503  0.2931
 8925SOL    HW138234   3.178   3.916   0.774 -1.7764  0.0465 -1.7683
 8925SOL    HW238235   3.220   3.825   0.888 -0.4208  0.2390  0.5907
 8926SOL     OW38236   4.003   4.468   4.494  0.4584 -0.3272  0.5834
 8926SOL    HW138237   3.953   4.544   4.463 -0.5649 -1.1967  0.1029
 8926SOL    HW238238   4.056   4.516   4.557 -0.1548 -0.6835  1.3771
 8927SOL     OW38239   1.079   4.261   8.090  0.1622  0.1244  0.0819
 8927SOL    HW138240   1.092   4.213   8.172 -1.2872 -1.1772 -0.4551
 8927SOL    HW238241   1.121   4.199   8.030  2.3424 -2.4508  4.2578
 8928SOL     OW38242   0.251   3.791  13.852  0.4117 -0.2296 -0.2588
 8928SOL    HW138243   0.245   3.823  13.762  0.2085 -2.9687 -1.2280
 8928SOL    HW238244   0.343   3.767  13.863  0.7959  1.0070 -0.8505
 8929SOL     OW38245   1.240   1.702   1.712  0.3013  0.2282  0.4097
 8929SOL    HW138246   1.261   1.617   1.673 -0.0784  1.2848 -2.1118
 8929SOL    HW238247   1.321   1.747   1.689  0.7895 -0.8970 -0.0791
 8930SOL     OW38248   1.522   0.491   2.327 -0.6859 -0.3454  0.3404
 8930SOL    HW138249   1.515   0.565   2.386  1.4107  1.0695 -1.1802
 8930SOL    HW238250   1.611   0.457   2.336 -0.6184 -0.5479 -1.0576
 8931SOL     OW38251   1.916   1.593   5.622  0.1263 -0.2413 -0.1345
 8931SOL    HW138252   1.833   1.575   5.579 -0.2465  0.5549  0.2429
 8931SOL    HW238253   1.925   1.545   5.704 -4.1835 -1.2614 -0.2969
 8932SOL     OW38254   2.990   4.567  10.839  0.8401 -0.6024 -0.3851
 8932SOL    HW138255   2.912   4.517  10.815  0.7432 -2.4312  3.6611
 8932SOL    HW238256   3.013   4.516  10.917  2.2195 -0.2389 -0.5619
 8933SOL     OW38257   2.849   0.851  15.956  0.2304  0.1148  0.1552
 8933SOL    HW138258   2.795   0.930  15.950  1.4986  1.0381  0.9911
 8933SOL    HW238259   2.816   0.792  15.888  0.0515  0.9381 -0.4558
 8934SOL     OW38260   0.174   0.874  12.015  0.4495  0.1541  0.4131
 8934SOL    HW138261   0.092   0.852  12.059 -0.6523 -1.1777 -2.3286
 8934SOL    HW238262   0.198   0.964  12.037  1.2537 -0.0130  0.1940
 8935SOL     OW38263   0.873   2.633   0.912  0.4066 -0.7953 -0.8971
 8935SOL    HW138264   0.782   2.609   0.929  0.5276  0.0825  0.9202
 8935SOL    HW238265   0.877   2.718   0.955  1.2270 -0.6417 -1.2833
 8936SOL     OW38266   3.944   4.699   8.755  0.4630  0.2076 -0.0458
 8936SOL    HW138267   3.956   4.720   8.662  0.1828 -1.3554 -0.4405
 8936SOL    HW238268   4.008   0.025   8.805  0.5802  0.5488 -0.5372
 8937SOL     OW38269   3.464   4.449   7.726 -0.6095  0.3847  0.6723
 8937SOL    HW138270   3.440   4.393   7.800 -0.4749 -0.1389  0.3182
 8937SOL    HW238271   3.467   4.386   7.653 -0.9566 -0.5654  1.4768
 8938SOL     OW38272   0.538   2.368   2.123  0.1397 -0.2439  0.1363
 8938SOL    HW138273   0.517   2.452   2.163 -1.9025 -0.4639 -0.4817
 8938SOL    HW238274   0.455   2.346   2.081  0.1424  0.1883 -0.0984
 8939SOL     OW38275   1.364   3.883  13.692 -0.8002 -0.9366  0.0964
 8939SOL    HW138276   1.288   3.911  13.640 -1.8698 -1.6963  1.2738
 8939SOL    HW238277   1.358   3.789  13.708  1.0235 -1.5021 -2.4481
 8940SOL     OW38278   4.689   2.640  16.167 -0.0502 -0.2111  0.2729
 8940SOL    HW138279   0.016   2.680  16.236  1.4217  0.0070 -0.9499
 8940SOL    HW238280   4.621   2.599  16.221 -1.3111  1.0894 -0.3098
 8941SOL     OW38281   2.182   1.981   7.993 -0.0381 -0.1677  0.1890
 8941SOL    HW138282   2.271   1.998   7.962 -0.0708  1.8125  1.2019
 8941SOL    HW238283   2.174   2.036   8.070  1.1694 -1.4282  1.2075
 8942SOL     OW38284   1.187   1.688   4.027  0.0035  0.6416  0.0497
 8942SOL    HW138285   1.187   1.652   4.115  1.9671  1.3145  0.3296
 8942SOL    HW238286   1.217   1.611   3.978 -1.6844  0.1419 -0.2206
 8943SOL     OW38287   0.258   3.827   0.671 -0.5578  0.3823 -0.1706
 8943SOL    HW138288   0.277   3.919   0.690  2.2633  0.1292 -1.7207
 8943SOL    HW238289   0.255   3.775   0.751 -4.2345  0.5685 -0.1951
 8944SOL     OW38290   2.909   1.476   4.946 -0.0555  0.3301  0.3982
 8944SOL    HW138291   2.941   1.538   4.880 -1.4865  1.2927  0.6011
 8944SOL    HW238292   2.837   1.440   4.896  0.2725 -1.0403  0.9172
 8945SOL     OW38293   0.605   4.319  11.754 -0.0201 -0.0700 -0.1011
 8945SOL    HW138294   0.580   4.397  11.705  1.1349 -0.0030 -0.5871
 8945SOL    HW238295   0.692   4.342  11.785  0.1443  1.3775 -1.6160
 8946SOL     OW38296   0.615   0.913   7.219  0.4643 -0.0852  0.9867
 8946SOL    HW138297   0.527   0.875   7.220  0.4002  0.0518 -0.0088
 8946SOL    HW238298   0.651   0.876   7.300  0.8468 -1.9966 -0.0758
 8947SOL     OW38299   4.443   2.054   3.588  0.2739 -0.6296 -0.2214
 8947SOL    HW138300   4.523   2.071   3.539 -0.9816  1.6369 -1.4971
 8947SOL    HW238301   4.395   1.997   3.528 -0.7028 -0.7625  0.6840
 8948SOL     OW38302   1.128   0.726   3.964 -0.4581 -0.3246  0.3092
 8948SOL    HW138303   1.139   0.635   3.991 -1.2533 -0.1089  1.3734
 8948SOL    HW238304   1.033   0.734   3.961 -0.3066  1.4466  0.1840
 8949SOL     OW38305   2.266   2.256   7.370  0.5153 -0.2524  0.8567
 8949SOL    HW138306   2.254   2.179   7.426  0.7850  0.1264  1.4317
 8949SOL    HW238307   2.196   2.315   7.397  0.1048  0.7190 -2.3373
 8950SOL     OW38308   2.242   4.450   6.538  0.6833  0.0468  0.3954
 8950SOL    HW138309   2.288   4.507   6.476 -2.1715  1.3893 -0.4788
 8950SOL    HW238310   2.167   4.416   6.488  1.7780 -2.2210  0.2552
 8951SOL     OW38311   0.972   4.311   2.512 -0.0795 -0.6769 -0.7467
 8951SOL    HW138312   1.059   4.277   2.534  0.6776  2.1862  0.6538
 8951SOL    HW238313   0.977   4.394   2.560  2.8259  0.4122 -2.8925
 8952SOL     OW38314   2.633   3.957   9.933 -0.1831 -0.1139  0.1709
 8952SOL    HW138315   2.668   3.898   9.999  2.1997 -1.0090 -1.8971
 8952SOL    HW238316   2.606   3.889   9.870 -1.1819  0.8829 -0.4923
 8953SOL     OW38317   1.287   4.596   8.961 -0.7931  0.1752 -0.3278
 8953SOL    HW138318   1.352   4.655   8.922 -1.3807 -0.3851 -2.1482
 8953SOL    HW238319   1.290   4.525   8.897 -1.8412  0.0417 -0.2215
 8954SOL     OW38320   3.548   1.344  16.333 -0.8624  0.1646 -0.1732
 8954SOL    HW138321   3.616   1.277  16.330 -0.0060  1.1150 -2.2185
 8954SOL    HW238322   3.555   1.379  16.422 -0.8508  2.6312 -1.1408
 8955SOL     OW38323   2.210   0.535   4.542 -0.2129 -0.0464  0.1744
 8955SOL    HW138324   2.283   0.591   4.515  0.5183 -1.2981 -0.4039
 8955SOL    HW238325   2.254   0.455   4.515  0.8260  0.1863  1.1547
 8956SOL     OW38326   3.883   0.780   5.994 -0.1110 -0.0237  0.4524
 8956SOL    HW138327   3.883   0.715   6.064  1.6618  1.8075  2.1496
 8956SOL    HW238328   3.958   0.833   6.022 -0.9048 -0.0471  2.5936
 8957SOL     OW38329   2.359   3.201   0.997 -0.5406 -0.2118 -0.5660
 8957SOL    HW138330   2.272   3.232   1.023 -1.8770 -3.1251 -1.5500
 8957SOL    HW238331   2.393   3.272   0.943  0.7209 -1.8085 -1.8435
 8958SOL     OW38332   3.845   0.861  14.289  0.5840 -0.1183 -0.2609
 8958SOL    HW138333   3.804   0.904  14.214 -0.3219  0.4862  0.5795
 8958SOL    HW238334   3.936   0.889  14.298  0.6123 -0.1030 -0.6037
 8959SOL     OW38335   0.894   2.968  11.334 -0.0358 -0.4394  0.2193
 8959SOL    HW138336   0.972   2.926  11.298 -0.6943 -0.3105 -1.3983
 8959SOL    HW238337   0.823   2.935  11.279  0.4694 -1.5144  0.2066
 8960SOL     OW38338   3.800   4.192   7.556  0.0722  0.0918 -0.3745
 8960SOL    HW138339   3.786   4.125   7.623 -0.1854  0.8724  0.3323
 8960SOL    HW238340   3.892   4.181   7.529 -0.1473 -0.6317 -0.8524
 8961SOL     OW38341   3.339   0.901  15.912 -0.4043  0.4382 -0.1788
 8961SOL    HW138342   3.253   0.893  15.951  0.4254 -0.8929  1.3942
 8961SOL    HW238343   3.382   0.828  15.958  0.1051  0.5956 -0.4032
 8962SOL     OW38344   4.194   1.889  17.017 -0.2759  0.1599  0.6292
 8962SOL    HW138345   4.177   1.937  16.936 -1.9910 -2.2750 -0.4543
 8962SOL    HW238346   4.265   1.946  17.046  0.1217  0.7383 -1.4443
 8963SOL     OW38347   0.837   1.794   6.894 -0.1740  0.1500  0.1941
 8963SOL    HW138348   0.880   1.783   6.979  0.5436 -1.6919 -0.3923
 8963SOL    HW238349   0.752   1.753   6.908  0.4516 -0.7331  1.3909
 8964SOL     OW38350   0.974   0.146   3.959  0.0146  0.1983  0.5142
 8964SOL    HW138351   0.926   0.229   3.967 -1.6516 -0.9212  2.1261
 8964SOL    HW238352   0.977   0.121   4.051  1.7002 -2.0583 -0.1623
 8965SOL     OW38353   2.177   0.632   0.174  0.2110 -0.3251  0.5525
 8965SOL    HW138354   2.183   0.575   0.097  0.8939  1.7018 -0.8795
 8965SOL    HW238355   2.214   0.708   0.130 -0.1594 -0.5348 -0.1227
 8966SOL     OW38356   4.630   3.133   4.493  0.1962  0.3459  0.1266
 8966SOL    HW138357   4.646   3.094   4.578  2.0434  0.1389 -0.3196
 8966SOL    HW238358   4.697   3.201   4.491  1.2699 -0.7196 -0.0531
 8967SOL     OW38359   4.032   2.350   7.596 -0.4677 -0.0017 -0.0658
 8967SOL    HW138360   4.039   2.307   7.681 -0.1167 -0.2390 -0.2176
 8967SOL    HW238361   4.065   2.289   7.530  0.6281  1.5339 -0.9348
 8968SOL     OW38362   0.055   2.165   6.160 -0.2292 -0.2375 -0.3936
 8968SOL    HW138363   0.080   2.109   6.234 -2.1346 -0.0484  0.3905
 8968SOL    HW238364   0.120   2.147   6.092  0.5991  0.8802  0.1024
 8969SOL     OW38365   2.678   3.924  15.362 -0.6349 -0.3813  0.3126
 8969SOL    HW138366   2.674   3.904  15.456  1.9060 -0.7360  0.3472
 8969SOL    HW238367   2.761   3.972  15.359 -0.2264 -1.2376 -1.9459
 8970SOL     OW38368   1.124   1.863  16.560  0.5052  0.0985  0.0509
 8970SOL    HW138369   1.114   1.790  16.499 -0.4346  0.6861 -0.4952
 8970SOL    HW238370   1.059   1.925  16.528  0.6554  0.1275 -0.1996
 8971SOL     OW38371   0.989   0.358   7.036 -0.2501  0.4028 -0.2592
 8971SOL    HW138372   1.084   0.373   7.036 -0.7127  3.3858 -1.1650
 8971SOL    HW238373   0.988   0.271   7.076 -0.3522  0.3967 -0.2739
 8972SOL     OW38374   1.634   1.480   8.354 -0.2074  0.1957 -0.3073
 8972SOL    HW138375   1.573   1.552   8.339 -0.8096 -0.0165  1.0982
 8972SOL    HW238376   1.613   1.415   8.286  0.4784  0.2942 -0.6116
 8973SOL     OW38377   0.433   2.205  15.981 -0.4290  0.0538 -0.2550
 8973SOL    HW138378   0.515   2.200  16.028  0.3379 -0.9438 -1.6947
 8973SOL    HW238379   0.460   2.271  15.917 -0.1078  0.3307  0.1666
 8974SOL     OW38380   1.297   1.729   1.411  0.3418 -0.0777 -0.1348
 8974SOL    HW138381   1.265   1.639   1.413  1.8335 -0.6533 -1.9753
 8974SOL    HW238382   1.227   1.785   1.445 -0.1529 -1.2950  0.8583
 8975SOL     OW38383   0.853   4.182   8.384  0.3115  0.0255  0.8502
 8975SOL    HW138384   0.794   4.109   8.402  0.2987 -0.4664 -1.2589
 8975SOL    HW238385   0.816   4.217   8.303  0.0570  0.3659  1.1159
 8976SOL     OW38386   2.086   2.277   6.902 -0.2681  0.3121  0.1265
 8976SOL    HW138387   2.099   2.357   6.851 -1.0567  0.3684  0.0231
 8976SOL    HW238388   2.144   2.213   6.859 -0.3745 -1.5434  2.7410
 8977SOL     OW38389   2.781   4.530   3.399  0.3876  0.2855 -0.4012
 8977SOL    HW138390   2.724   4.535   3.322 -1.2401 -2.0684  0.6514
 8977SOL    HW238391   2.865   4.538   3.354  0.6609  0.8664  0.2153
 8978SOL     OW38392   4.151   3.039   7.169  0.3206  0.3301 -0.2367
 8978SOL    HW138393   4.238   3.003   7.188  0.4640  1.6862  1.5933
 8978SOL    HW238394   4.103   2.984   7.231  1.5040  0.1495  0.5188
 8979SOL     OW38395   1.836   3.375   5.228 -0.0867  0.1739 -0.3704
 8979SOL    HW138396   1.791   3.348   5.308 -2.4117  0.3043 -1.6143
 8979SOL    HW238397   1.812   3.297   5.176 -0.2969 -1.3883  2.0855
 8980SOL     OW38398   1.507   0.267  16.447 -0.2106  0.2396 -0.0080
 8980SOL    HW138399   1.495   0.271  16.352 -3.7422 -3.2235  0.2576
 8980SOL    HW238400   1.452   0.341  16.474  1.0352  1.5071 -0.9735
 8981SOL     OW38401   3.566   3.007   4.216 -0.1157 -0.2253  0.0163
 8981SOL    HW138402   3.535   3.010   4.307  1.7987  0.4856  0.6507
 8981SOL    HW238403   3.486   2.988   4.168 -0.8329 -1.5437  1.7419
 8982SOL     OW38404   2.626   3.978  13.744 -0.2452  0.2672 -0.1437
 8982SOL    HW138405   2.610   3.904  13.686 -0.0580 -0.4992  0.7682
 8982SOL    HW238406   2.680   4.031  13.686  0.2590 -0.3651 -0.2433
 8983SOL     OW38407   1.594   3.793  10.896 -0.1584  0.2794  0.1864
 8983SOL    HW138408   1.613   3.725  10.961 -1.9504  0.8537  1.3085
 8983SOL    HW238409   1.672   3.847  10.908  0.0776 -0.1565  0.6233
 8984SOL     OW38410   3.108   2.505  15.971  0.0231  0.0038 -0.2964
 8984SOL    HW138411   3.023   2.498  15.925  0.2378 -1.7193 -0.4181
 8984SOL    HW238412   3.158   2.536  15.895  1.9122 -2.1245  0.0710
 8985SOL     OW38413   4.314   0.194  14.929 -0.3089  0.1904  0.4703
 8985SOL    HW138414   4.339   0.287  14.924  0.4404 -0.1064 -1.4844
 8985SOL    HW238415   4.222   0.197  14.903 -0.3858  1.1250  0.8515
 8986SOL     OW38416   1.156   1.065   8.138 -0.4497 -0.2570  0.1568
 8986SOL    HW138417   1.062   1.063   8.124 -0.7455  1.1315  2.0074
 8986SOL    HW238418   1.188   1.129   8.074  0.3707 -0.2723  0.5435
 8987SOL     OW38419   1.921   0.417   8.646  0.2753  0.2790  0.0610
 8987SOL    HW138420   1.949   0.329   8.621 -0.2262 -0.7731  3.2720
 8987SOL    HW238421   1.827   0.400   8.652  0.0381  1.2047 -1.0995
 8988SOL     OW38422   0.245   0.723  11.296 -0.6252 -0.3073  0.2788
 8988SOL    HW138423   0.211   0.794  11.351 -1.2662  0.0688 -0.6051
 8988SOL    HW238424   0.164   0.677  11.276  0.8936 -2.1928 -1.5781
 8989SOL     OW38425   1.714   2.759   9.111  0.2658 -0.1602  0.1143
 8989SOL    HW138426   1.736   2.807   9.191 -1.6709  1.5161 -0.3515
 8989SOL    HW238427   1.695   2.670   9.142 -1.9424  0.5046  0.6826
 8990SOL     OW38428   2.467   4.614   5.935 -0.1534 -0.5690  0.0977
 8990SOL    HW138429   2.522   4.539   5.910  2.3216  1.2777  0.0547
 8990SOL    HW238430   2.460   4.654   5.849  1.2022 -1.5679 -0.4714
 8991SOL     OW38431   3.799   1.309  14.320  0.6144  0.7707  0.0533
 8991SOL    HW138432   3.719   1.344  14.358  0.0207 -0.1429 -0.3538
 8991SOL    HW238433   3.766   1.276  14.236  1.1777 -1.0722  0.5551
 8992SOL     OW38434   0.012   2.731   9.535  0.4158 -0.6731 -0.2431
 8992SOL    HW138435   0.013   2.708   9.442 -0.2678  1.0128 -0.6639
 8992SOL    HW238436   4.647   2.714   9.564 -1.0692  2.3419 -3.1462
 8993SOL     OW38437   1.299   0.323   1.848 -0.4634 -0.4031  0.3419
 8993SOL    HW138438   1.294   0.399   1.907  2.1238 -1.1861  1.6022
 8993SOL    HW238439   1.303   0.250   1.909  0.9024 -1.0485 -0.5223
 8994SOL     OW38440   1.431   2.570   7.328 -0.1189 -0.3010 -0.1283
 8994SOL    HW138441   1.520   2.592   7.354  0.1225  0.2156 -1.3916
 8994SOL    HW238442   1.414   2.491   7.379  0.3163  0.6308  1.4534
 8995SOL     OW38443   2.802   1.262   3.040  0.2082  0.1334 -0.3005
 8995SOL    HW138444   2.873   1.318   3.007 -1.6370  0.9658 -2.8846
 8995SOL    HW238445   2.848   1.181   3.058  0.6674  0.5809  0.5336
 8996SOL     OW38446   0.023   4.656   4.757  0.3925  0.0402 -0.7255
 8996SOL    HW138447   0.095   4.596   4.739  1.3877  0.6824  1.0792
 8996SOL    HW238448   0.024   4.685   4.666  1.1937  0.3635 -0.6155
 8997SOL     OW38449   1.295   1.501   0.009 -0.1914  0.0495  0.1275
 8997SOL    HW138450   1.292   1.443   0.086 -0.4706  0.5997  0.5320
 8997SOL    HW238451   1.318   1.433  17.647 -1.3551 -0.2887  0.0500
 8998SOL     OW38452   4.353   2.681   6.455 -0.0518  0.1968 -0.0064
 8998SOL    HW138453   4.284   2.723   6.506 -1.0593 -1.8076  0.2594
 8998SOL    HW238454   4.311   2.637   6.381 -0.8495 -1.3462  1.3598
 8999SOL     OW38455   4.644   3.029   6.941  0.2518 -0.2202  0.2302
 8999SOL    HW138456   4.666   3.061   7.028 -0.5479  1.2576 -0.1025
 8999SOL    HW238457   4.562   3.072   6.916  1.2668  2.2367  1.1207
 9000SOL     OW38458   0.985   1.613   6.372  0.2029  0.3294 -0.2746
 9000SOL    HW138459   1.054   1.674   6.349  0.0513  0.3316 -0.7288
 9000SOL    HW238460   0.977   1.624   6.467  0.6139 -1.4153 -0.0372
 9001SOL     OW38461   1.782   3.220   4.494  0.4968 -0.1987  0.0429
 9001SOL    HW138462   1.747   3.160   4.560 -0.7682 -0.4816 -0.8788
 9001SOL    HW238463   1.871   3.236   4.524  0.2062 -0.4666  1.0353
 9002SOL     OW38464   1.200   0.105  17.425  0.7749  0.0576  0.4597
 9002SOL    HW138465   1.217   0.197  17.446 -0.6728  0.6533 -0.9667
 9002SOL    HW238466   1.113   0.112  17.386  0.2075 -0.2467  1.6612
 9003SOL     OW38467   2.784   3.682   0.906  0.1279  0.4885 -0.0730
 9003SOL    HW138468   2.705   3.678   0.960  0.4937 -1.1774  0.3205
 9003SOL    HW238469   2.740   3.651   0.827 -0.2139 -1.8812  1.0760
 9004SOL     OW38470   1.461   1.127   8.783  0.2232 -0.2570  0.3688
 9004SOL    HW138471   1.441   1.192   8.715 -0.6711 -1.8676 -0.9170
 9004SOL    HW238472   1.545   1.099   8.748  0.9601  1.8677  0.4215
 9005SOL     OW38473   3.153   1.823   3.976 -0.2014  0.0484  0.5810
 9005SOL    HW138474   3.093   1.889   4.008 -0.4877  0.7652 -1.4511
 9005SOL    HW238475   3.090   1.756   3.950  0.1197 -1.4621  3.5960
 9006SOL     OW38476   1.074   1.425   5.467  0.1534  0.4953 -0.1727
 9006SOL    HW138477   0.981   1.444   5.462  0.3019  1.0657 -0.5944
 9006SOL    HW238478   1.075   1.374   5.549  0.6654  3.0978  1.4276
 9007SOL     OW38479   2.473   3.729  14.556  0.5153  0.0612  0.2898
 9007SOL    HW138480   2.501   3.702  14.469  0.4818  1.0503 -0.0339
 9007SOL    HW238481   2.479   3.822  14.534 -1.2699  0.4314  1.3202
 9008SOL     OW38482   3.467   0.220  10.939 -0.0441 -0.0330 -0.5242
 9008SOL    HW138483   3.395   0.169  10.975 -0.6554  0.7737 -0.5838
 9008SOL    HW238484   3.427   0.307  10.935 -3.1081 -1.4253 -0.3427
 9009SOL     OW38485   3.799   3.010   7.202 -0.3234  0.1552  0.0237
 9009SOL    HW138486   3.713   3.049   7.184 -0.2293  2.1214  3.9279
 9009SOL    HW238487   3.827   2.987   7.113 -0.9579 -1.0291  0.1238
 9010SOL     OW38488   4.172   1.308   1.934  0.0925  0.4974  0.1579
 9010SOL    HW138489   4.113   1.377   1.905  0.7425  0.2415 -1.7586
 9010SOL    HW238490   4.257   1.348   1.915 -0.2268  1.5282  0.8875
 9011SOL     OW38491   0.327   3.362   2.187 -0.3059 -0.3795 -0.2403
 9011SOL    HW138492   0.350   3.363   2.094 -0.4983 -0.4491 -0.2881
 9011SOL    HW238493   0.413   3.347   2.227  0.3303  2.5063 -0.5170
 9012SOL     OW38494   0.691   3.566  10.030 -0.4879 -0.2224  0.3161
 9012SOL    HW138495   0.606   3.558  10.074  0.3251 -0.4227  1.8391
 9012SOL    HW238496   0.667   3.567   9.937 -0.8359 -0.6566  0.3999
 9013SOL     OW38497   4.044   3.536   9.982 -0.2528 -0.0623  0.3792
 9013SOL    HW138498   4.004   3.620   9.959 -0.0287 -0.0234  0.1287
 9013SOL    HW238499   4.102   3.558  10.054  0.2573 -0.6701  0.1526
 9014SOL     OW38500   1.317   4.123   4.979 -0.3323 -0.0228 -0.6135
 9014SOL    HW138501   1.287   4.208   5.009 -1.2386 -0.3984 -0.4530
 9014SOL    HW238502   1.239   4.068   4.990 -1.4124  1.9842  1.6463
 9015SOL     OW38503   1.691   1.161   1.703 -0.0188  0.6187 -0.0367
 9015SOL    HW138504   1.634   1.138   1.775 -1.8080 -0.2973 -1.7692
 9015SOL    HW238505   1.666   1.252   1.686  0.2662  0.4397 -1.4900
 9016SOL     OW38506   4.094   1.019   7.145 -0.5894 -0.0200 -0.1044
 9016SOL    HW138507   4.181   0.995   7.112 -0.0224 -0.6369  1.8010
 9016SOL    HW238508   4.107   1.001   7.239  0.6057  0.3246 -0.1990
 9017SOL     OW38509   3.316   2.712   9.576  0.3278  0.5748  0.1430
 9017SOL    HW138510   3.320   2.698   9.671  3.4822 -0.1324 -0.0911
 9017SOL    HW238511   3.400   2.751   9.552 -1.0679  2.0492 -2.2332
 9018SOL     OW38512   4.619   2.773   7.595 -0.0743  0.1668  0.2583
 9018SOL    HW138513   4.537   2.730   7.571  1.0128 -1.6183 -0.1970
 9018SOL    HW238514   4.673   2.705   7.635  4.4261  3.6124  0.0755
 9019SOL     OW38515   3.684   3.054   2.259  0.2173 -0.0895  0.1308
 9019SOL    HW138516   3.656   3.138   2.223 -2.7728 -1.4210 -0.6530
 9019SOL    HW238517   3.701   3.080   2.350  1.5219 -0.4043 -0.0282
 9020SOL     OW38518   3.438   1.106   1.540 -0.2552 -0.3373  0.1239
 9020SOL    HW138519   3.394   1.142   1.617 -0.9628  0.7592 -0.7816
 9020SOL    HW238520   3.444   1.190   1.495  0.3055 -0.6162 -0.3147
 9021SOL     OW38521   2.451   2.538   8.210 -0.5943  0.0753 -0.1839
 9021SOL    HW138522   2.428   2.623   8.172 -1.2157 -0.0478 -0.0900
 9021SOL    HW238523   2.542   2.530   8.181 -0.1823  2.1595  0.5059
 9022SOL     OW38524   0.923   2.730   3.225 -0.3338  0.1964 -1.1836
 9022SOL    HW138525   0.855   2.751   3.289  0.5490 -0.4963 -0.0238
 9022SOL    HW238526   1.003   2.753   3.273  1.0877 -2.9412 -2.0546
 9023SOL     OW38527   1.539   2.495   6.877 -0.2299  0.8340  0.3535
 9023SOL    HW138528   1.498   2.551   6.943 -1.7981  1.0507 -0.7953
 9023SOL    HW238529   1.610   2.457   6.928 -0.1430  1.2976  0.5728
 9024SOL     OW38530   4.294   1.313   4.642 -0.0683 -0.4225 -0.1132
 9024SOL    HW138531   4.205   1.313   4.607  0.8246  1.0479 -2.3436
 9024SOL    HW238532   4.319   1.223   4.664  1.0163  0.3611  1.9311
 9025SOL     OW38533   3.159   1.312   3.716  0.0564 -0.1320 -0.3658
 9025SOL    HW138534   3.117   1.317   3.802  0.5023  1.2810 -0.2278
 9025SOL    HW238535   3.085   1.282   3.664 -1.5493  2.3869  0.4337
 9026SOL     OW38536   1.649   2.310  13.387 -0.0985 -0.0544  0.2180
 9026SOL    HW138537   1.579   2.286  13.448  0.0946 -2.3587 -0.4853
 9026SOL    HW238538   1.625   2.271  13.303 -0.6068  3.0432 -1.0885
 9027SOL     OW38539   0.371   1.352  17.584  0.2900 -0.1522  0.5286
 9027SOL    HW138540   0.420   1.286  17.632 -1.7114 -2.0491 -0.0115
 9027SOL    HW238541   0.367   1.306  17.500 -0.3863 -1.7195  1.4143
 9028SOL     OW38542   3.552   1.756  16.760  0.3564 -0.1816  0.7216
 9028SOL    HW138543   3.491   1.755  16.686  1.2430  0.7564 -0.0229
 9028SOL    HW238544   3.625   1.804  16.721  0.0532 -1.5745 -1.5444
 9029SOL     OW38545   1.653   2.795   1.555  0.0440 -0.3555 -0.1595
 9029SOL    HW138546   1.604   2.715   1.541 -1.1543  0.2902  0.3326
 9029SOL    HW238547   1.642   2.792   1.650 -3.1934  2.1837 -0.4672
 9030SOL     OW38548   3.110   1.715  10.715  0.1663  0.3698  0.0521
 9030SOL    HW138549   3.107   1.637  10.659 -0.2468  0.3552  0.0974
 9030SOL    HW238550   3.093   1.682  10.803  0.1616  1.2210  0.3662
 9031SOL     OW38551   0.723   2.219   1.821 -0.6043 -0.7371 -0.2375
 9031SOL    HW138552   0.662   2.251   1.754  1.8178  0.6054 -1.7889
 9031SOL    HW238553   0.664   2.158   1.864  0.8777 -1.4162  0.8136
 9032SOL     OW38554   4.657   1.814   3.062  0.1673  0.5297  0.5052
 9032SOL    HW138555   4.701   1.731   3.044 -1.2827  0.3423 -2.1125
 9032SOL    HW238556   4.679   1.817   3.155  1.7047 -0.2213  0.1629
 9033SOL     OW38557   3.338   0.092   1.206  0.7548 -0.4373  0.2095
 9033SOL    HW138558   3.432   0.106   1.215  0.7379 -1.0044  1.2694
 9033SOL    HW238559   3.299   0.159   1.262  0.2627 -0.5602  0.0212
 9034SOL     OW38560   3.658   1.928   8.798 -0.2150  0.0498  0.1729
 9034SOL    HW138561   3.575   1.970   8.819 -0.1983 -0.9821  2.3060
 9034SOL    HW238562   3.635   1.839   8.771  0.0870  0.5373 -1.6468
 9035SOL     OW38563   1.765   3.823  16.568  0.6818  0.0947  0.4857
 9035SOL    HW138564   1.821   3.828  16.491 -1.8504 -0.6984 -1.3947
 9035SOL    HW238565   1.761   3.729  16.581  1.0366 -0.0010 -0.0926
 9036SOL     OW38566   3.435   2.092  16.102 -0.2657  0.1451 -0.1002
 9036SOL    HW138567   3.375   2.163  16.077 -0.6639 -0.7288 -1.6043
 9036SOL    HW238568   3.463   2.062  16.016 -0.2325  2.2281 -0.8167
 9037SOL     OW38569   2.221   1.576  15.609 -0.4931  0.2865 -0.1562
 9037SOL    HW138570   2.175   1.510  15.662  0.4134 -1.0466 -1.0540
 9037SOL    HW238571   2.220   1.531  15.525  1.2683 -0.1246  0.0452
 9038SOL     OW38572   1.309   4.165   7.449  0.0455  0.1262  0.6502
 9038SOL    HW138573   1.351   4.080   7.437  2.0468  1.0491  1.2513
 9038SOL    HW238574   1.219   4.145   7.476 -1.0223  1.2997 -2.0586
 9039SOL     OW38575   0.673   0.201   2.821 -0.2383  0.4472 -0.2435
 9039SOL    HW138576   0.579   0.212   2.837 -0.8283 -0.1214 -3.2762
 9039SOL    HW238577   0.686   0.197   2.726  2.6272  2.7894  0.0526
 9040SOL     OW38578   0.540   1.445   7.471 -0.3886 -0.2091  0.2371
 9040SOL    HW138579   0.537   1.367   7.526 -0.9455 -0.2454  0.1625
 9040SOL    HW238580   0.632   1.472   7.474 -0.6700  0.7988 -0.1629
 9041SOL     OW38581   4.360   3.695   6.449  0.1347  0.3956  0.3763
 9041SOL    HW138582   4.446   3.727   6.473  0.3217  0.7966 -0.8372
 9041SOL    HW238583   4.313   3.665   6.527 -2.3896 -0.4332 -1.4732
 9042SOL     OW38584   3.215   2.662   7.350  0.4471  0.0330  0.0029
 9042SOL    HW138585   3.131   2.621   7.332  1.0962 -2.1673  2.0175
 9042SOL    HW238586   3.218   2.645   7.444 -0.1067 -0.8444 -0.1387
 9043SOL     OW38587   0.861   3.684   6.894 -0.2970 -0.0018 -0.1466
 9043SOL    HW138588   0.783   3.654   6.941  0.2496 -1.2258 -0.0091
 9043SOL    HW238589   0.925   3.681   6.966 -0.1755  0.0841 -0.2522
 9044SOL     OW38590   2.719   4.019   3.153 -0.4237  0.0437 -0.1857
 9044SOL    HW138591   2.646   3.962   3.176 -0.9110  1.1498  0.9760
 9044SOL    HW238592   2.782   4.000   3.222  1.3106  1.1455 -1.4583
 9045SOL     OW38593   3.997   2.233  11.784 -0.2428  0.1180 -0.1221
 9045SOL    HW138594   3.923   2.212  11.728  1.0810 -2.3290 -0.9641
 9045SOL    HW238595   4.023   2.317  11.744 -1.9459  0.9619  0.5684
 9046SOL     OW38596   4.678   2.798   7.349 -0.4622  0.1774 -0.0740
 9046SOL    HW138597   4.650   2.813   7.439 -1.6922 -1.2340 -0.2176
 9046SOL    HW238598   4.638   2.868   7.297 -0.5799  0.5315  0.4961
 9047SOL     OW38599   2.541   0.395  10.808 -0.4708 -0.0464  0.0820
 9047SOL    HW138600   2.625   0.372  10.769 -0.9598  0.1645 -1.0721
 9047SOL    HW238601   2.561   0.403  10.902  1.8533  0.3898 -0.4598
 9048SOL     OW38602   3.298   0.283  12.547 -0.3666  0.4667  0.0116
 9048SOL    HW138603   3.237   0.294  12.620 -2.2099 -0.4328 -1.3996
 9048SOL    HW238604   3.236   0.289  12.474 -0.6697  2.0355  0.3951
 9049SOL     OW38605   2.644   4.462   5.052  0.3127 -0.3634 -0.1957
 9049SOL    HW138606   2.624   4.374   5.085  0.0761 -0.2405 -0.0137
 9049SOL    HW238607   2.564   4.491   5.008  0.4100  0.5063  0.2061
 9050SOL     OW38608   3.535   4.414   3.519  0.2651  0.6652  0.0152
 9050SOL    HW138609   3.566   4.354   3.451 -1.4776 -0.1853 -0.0305
 9050SOL    HW238610   3.605   4.392   3.581  0.3427  0.1704 -0.2481
 9051SOL     OW38611   2.357   0.129  10.947  0.5505 -0.4817  0.1000
 9051SOL    HW138612   2.308   0.185  10.887  0.7131  0.0046  0.4249
 9051SOL    HW238613   2.288   0.068  10.972  0.4071  0.3407  1.6474
 9052SOL     OW38614   1.731   3.310   2.645 -0.4545  0.9237  0.0951
 9052SOL    HW138615   1.704   3.229   2.602 -1.4520  0.0305  2.4037
 9052SOL    HW238616   1.826   3.299   2.640 -0.8749 -1.9999 -1.4178
 9053SOL     OW38617   1.636   0.109   7.193  0.3388  0.0028 -0.1671
 9053SOL    HW138618   1.647   0.016   7.173  0.2628  0.1406 -0.8746
 9053SOL    HW238619   1.597   0.105   7.280 -0.2239  2.0504 -0.3225
 9054SOL     OW38620   2.403   4.195   9.861 -0.3822 -0.2040  0.2790
 9054SOL    HW138621   2.341   4.122   9.861  2.3801 -2.5284 -0.7707
 9054SOL    HW238622   2.481   4.140   9.870 -0.2286 -0.1653 -0.7822
 9055SOL     OW38623   2.873   0.765   3.930  0.4291 -0.2738  1.0034
 9055SOL    HW138624   2.850   0.679   3.966  1.1856 -0.6391  0.6306
 9055SOL    HW238625   2.889   0.820   4.007  1.9123 -0.6692  0.9873
 9056SOL     OW38626   4.428   0.719   4.915  0.2164 -0.2369 -0.7194
 9056SOL    HW138627   4.461   0.658   4.981  0.2351 -0.6159 -1.0798
 9056SOL    HW238628   4.452   0.802   4.957 -0.3876 -0.9723  1.0541
 9057SOL     OW38629   0.437   3.512   5.957 -0.6013 -0.0940  0.2950
 9057SOL    HW138630   0.357   3.558   5.982 -0.3917  0.7356 -0.5451
 9057SOL    HW238631   0.404   3.433   5.914  0.3262 -0.0387 -0.5393
 9058SOL     OW38632   1.835   3.285   2.240  0.9318  0.3783 -0.0082
 9058SOL    HW138633   1.746   3.262   2.211  0.3870  1.6827  0.6104
 9058SOL    HW238634   1.809   3.314   2.328 -1.2344 -1.6407  0.0270
 9059SOL     OW38635   2.547   3.295   4.662 -0.0382 -0.0324  0.1953
 9059SOL    HW138636   2.504   3.210   4.659  1.1692 -0.6751  1.3304
 9059SOL    HW238637   2.625   3.268   4.616 -0.0315  0.4233 -0.0640
 9060SOL     OW38638   4.167   1.967   2.379  0.0056 -0.4808 -0.7869
 9060SOL    HW138639   4.199   1.902   2.441 -2.2696 -0.2887  0.5726
 9060SOL    HW238640   4.234   2.035   2.381 -0.3547 -0.2097  1.5526
 9061SOL     OW38641   2.193   1.427   5.728  0.1857  0.0394 -0.3422
 9061SOL    HW138642   2.201   1.477   5.647  0.2250  0.1742 -0.2562
 9061SOL    HW238643   2.227   1.344   5.697  0.7584  0.2087 -0.1733
 9062SOL     OW38644   2.051   2.460   1.384 -0.6789  0.5435 -0.0105
 9062SOL    HW138645   1.970   2.442   1.431 -0.4778  1.3680  0.6574
 9062SOL    HW238646   2.090   2.526   1.441  0.6942 -1.1435  1.0225
 9063SOL     OW38647   2.397   2.753   8.057  0.3097  0.1037 -0.2701
 9063SOL    HW138648   2.363   2.761   7.968  1.3049 -1.2379 -0.7775
 9063SOL    HW238649   2.473   2.810   8.042  0.4624  0.3766  1.5471
 9064SOL     OW38650   3.464   0.427   7.658 -0.1377 -0.0441  0.1828
 9064SOL    HW138651   3.538   0.382   7.618 -0.9363 -0.7635 -0.4746
 9064SOL    HW238652   3.454   0.384   7.743 -0.4826 -1.4652 -0.5833
 9065SOL     OW38653   4.433   1.573   7.484  0.4965  0.2706 -0.2119
 9065SOL    HW138654   4.517   1.596   7.443  0.2257  1.1553 -0.2652
 9065SOL    HW238655   4.460   1.507   7.548 -0.5114 -2.2816 -2.3932
 9066SOL     OW38656   1.630   0.658   7.454 -0.1486 -0.3842  0.0401
 9066SOL    HW138657   1.657   0.567   7.443  0.9167 -0.4499  3.2250
 9066SOL    HW238658   1.707   0.674   7.509  0.2020 -0.6540 -0.3779
 9067SOL     OW38659   1.818   0.832   6.018  0.3703 -0.1906 -0.5819
 9067SOL    HW138660   1.789   0.749   6.056 -1.1041  1.1544  1.2510
 9067SOL    HW238661   1.785   0.888   6.088  2.8346 -0.8325  1.1089
 9068SOL     OW38662   4.538   0.723  13.944  0.3940  0.6750 -0.1106
 9068SOL    HW138663   4.597   0.722  14.019  2.4754 -1.3433 -1.7546
 9068SOL    HW238664   4.551   0.632  13.916 -2.5083  0.1766  0.1458
 9069SOL     OW38665   2.335   0.400   9.353  0.3962  0.9531 -0.4935
 9069SOL    HW138666   2.340   0.432   9.263 -1.3493 -3.3543 -2.1533
 9069SOL    HW238667   2.328   0.483   9.400  0.8091 -0.7484  2.5244
 9070SOL     OW38668   2.907   2.148   5.247  0.2154  0.0492  0.3593
 9070SOL    HW138669   2.816   2.168   5.267  0.5770  2.8036 -0.7637
 9070SOL    HW238670   2.954   2.232   5.252  0.6331 -0.3170  2.4275
 9071SOL     OW38671   3.218   3.913   7.040  0.6752  0.6543 -0.3664
 9071SOL    HW138672   3.126   3.922   7.065  1.3548 -0.1886  2.4077
 9071SOL    HW238673   3.251   4.000   7.064 -0.7356  0.5587  1.9099
 9072SOL     OW38674   3.941   3.572   8.193 -0.0895  0.2720  0.0670
 9072SOL    HW138675   4.034   3.577   8.214 -0.4552  1.9768  1.2558
 9072SOL    HW238676   3.947   3.663   8.165  0.2485 -0.4113 -2.1676
 9073SOL     OW38677   4.129   3.176   6.569 -0.1203 -0.4056 -0.1744
 9073SOL    HW138678   4.121   3.223   6.486 -0.8462  0.7823  0.5760
 9073SOL    HW238679   4.169   3.095   6.537 -1.6306 -0.6180 -1.5531
 9074SOL     OW38680   4.421   3.521  14.572  0.4680  0.2617  0.6481
 9074SOL    HW138681   4.511   3.491  14.578 -0.1245 -1.3278  1.4131
 9074SOL    HW238682   4.371   3.441  14.555  0.9288 -0.0440  0.7471
 9075SOL     OW38683   2.632   0.823   4.985 -0.2291  0.1611  0.3922
 9075SOL    HW138684   2.572   0.870   4.927  1.5294  2.6862  0.6506
 9075SOL    HW238685   2.570   0.770   5.036  1.5411 -1.7375  0.5501
 9076SOL     OW38686   4.557   3.514   1.046 -0.2877  0.4307 -0.3598
 9076SOL    HW138687   4.560   3.438   1.104  1.1974  0.9163  0.1876
 9076SOL    HW238688   4.555   3.577   1.118  0.7140  1.0833 -0.9006
 9077SOL     OW38689   0.701   0.910  10.823  0.2853 -0.1668  0.5699
 9077SOL    HW138690   0.768   0.882  10.761 -1.4037  1.5607 -2.0232
 9077SOL    HW238691   0.733   0.859  10.898  2.3254 -0.5649 -0.5730
 9078SOL     OW38692   1.131   4.241   3.986  0.3322 -0.7787 -0.1980
 9078SOL    HW138693   1.090   4.316   4.028 -1.3253 -1.6726 -0.2342
 9078SOL    HW238694   1.218   4.257   4.022 -0.6593  0.1579  1.7713
 9079SOL     OW38695   3.235   0.262   9.004  0.0044  0.2855 -0.4109
 9079SOL    HW138696   3.198   0.179   8.972  1.6483 -0.6035  0.0110
 9079SOL    HW238697   3.166   0.284   9.067  1.6854  0.5907  1.3440
 9080SOL     OW38698   2.254   1.717   2.256 -0.1358  0.4280  0.1365
 9080SOL    HW138699   2.277   1.723   2.163 -3.3129 -0.3569 -0.7295
 9080SOL    HW238700   2.289   1.631   2.281  1.1138  0.5820 -1.1155
 9081SOL     OW38701   2.233   0.800  13.556 -0.3084  0.6650 -0.5702
 9081SOL    HW138702   2.176   0.845  13.494 -0.3571 -0.2592 -1.1996
 9081SOL    HW238703   2.171   0.772  13.624  1.6051  0.6211  1.1563
 9082SOL     OW38704   3.139   2.814  16.321  0.7687 -0.3624  0.3582
 9082SOL    HW138705   3.163   2.809  16.414 -3.2486  1.2236  1.5213
 9082SOL    HW238706   3.044   2.802  16.325  0.7680 -0.7229 -0.9763
 9083SOL     OW38707   4.538   0.928  15.221  0.3657  0.1247  0.6176
 9083SOL    HW138708   4.505   0.890  15.302 -3.3937  1.4120 -0.3264
 9083SOL    HW238709   4.608   0.864  15.205  1.9043  1.3883  2.2866
 9084SOL     OW38710   0.777   0.081  10.228 -0.1539 -0.3270  0.2845
 9084SOL    HW138711   0.833   0.100  10.153 -1.1071  0.4917 -0.2120
 9084SOL    HW238712   0.690   0.083  10.191 -0.7664 -3.2680  1.5774
 9085SOL     OW38713   0.850   3.842   7.721 -0.3170 -0.1251  0.0774
 9085SOL    HW138714   0.926   3.811   7.672  0.2901 -0.3942  1.1946
 9085SOL    HW238715   0.790   3.768   7.708  0.0651 -0.7936  2.0453
 9086SOL     OW38716   0.956   0.812   8.379  0.3331  0.5234 -0.2054
 9086SOL    HW138717   0.964   0.737   8.321 -2.5625  0.0473 -0.0294
 9086SOL    HW238718   0.907   0.766   8.448  0.5035  1.6752  0.6777
 9087SOL     OW38719   3.534   1.944   9.922 -0.6004 -0.3829  0.0343
 9087SOL    HW138720   3.463   1.883   9.943 -1.0441  0.6723  1.5585
 9087SOL    HW238721   3.606   1.893   9.960  0.2642  0.4897 -0.4264
 9088SOL     OW38722   0.837   0.440  10.231  0.6247 -0.3274  0.4873
 9088SOL    HW138723   0.744   0.456  10.250  0.5325 -0.9020  0.5135
 9088SOL    HW238724   0.883   0.498  10.293  0.8496  0.2048 -0.1840
 9089SOL     OW38725   2.215   1.633   2.710 -0.7206 -0.2215 -0.3201
 9089SOL    HW138726   2.228   1.717   2.666  0.9994 -0.3615 -0.0788
 9089SOL    HW238727   2.268   1.572   2.658 -0.5614 -2.4395  2.4188
 9090SOL     OW38728   0.476   0.551  10.941 -0.3119 -0.3587 -0.2315
 9090SOL    HW138729   0.571   0.539  10.939 -0.2859 -0.2216  0.0935
 9090SOL    HW238730   0.438   0.474  10.899 -1.3464 -0.1086  0.2423
 9091SOL     OW38731   3.209   3.379  17.194 -0.1766 -0.7762 -0.4177
 9091SOL    HW138732   3.260   3.445  17.241  1.3821 -1.2592 -1.4387
 9091SOL    HW238733   3.152   3.357  17.268 -2.4045  1.6281 -1.4237
 9092SOL     OW38734   0.467   2.649   7.466 -0.2010  0.6364  0.0409
 9092SOL    HW138735   0.458   2.654   7.371  1.5944 -1.8104 -0.2613
 9092SOL    HW238736   0.559   2.622   7.471 -0.4416 -0.3165 -0.7512
 9093SOL     OW38737   2.795   2.938   7.709  0.3715 -0.1049 -0.3224
 9093SOL    HW138738   2.752   2.977   7.633  0.4036 -0.9066 -0.7563
 9093SOL    HW238739   2.764   2.987   7.785  2.2299  0.6851 -0.0690
 9094SOL     OW38740   1.097   4.035   3.800  0.0048 -0.1419  0.9197
 9094SOL    HW138741   1.135   4.087   3.871 -0.2659  1.3790 -0.0662
 9094SOL    HW238742   1.039   4.100   3.762  0.8297  0.9097  1.4466
 9095SOL     OW38743   1.208   2.217  16.595  0.1173 -0.0962 -0.0652
 9095SOL    HW138744   1.264   2.142  16.615  1.2184  0.4444 -1.1309
 9095SOL    HW238745   1.233   2.286  16.657 -1.4862 -0.9559  1.5393
 9096SOL     OW38746   1.995   2.404   7.192  0.0970 -0.0115 -0.3637
 9096SOL    HW138747   2.034   2.450   7.266  2.6265  1.8484 -2.8626
 9096SOL    HW238748   2.065   2.355   7.150  0.6603  0.4545  0.0385
 9097SOL     OW38749   0.713   4.431   2.142 -0.3079 -0.0351 -0.6078
 9097SOL    HW138750   0.759   4.350   2.167 -1.0385 -0.0148  0.8121
 9097SOL    HW238751   0.701   4.473   2.227  0.9656 -1.3860  0.2372
 9098SOL     OW38752   4.101   4.217  14.565 -0.1876  0.4606  0.1642
 9098SOL    HW138753   4.081   4.163  14.642 -0.5158  2.8676  1.7783
 9098SOL    HW238754   4.193   4.241  14.569 -0.0716  0.0354  0.0480
 9099SOL     OW38755   4.617   0.976   6.458 -0.6682 -0.0298 -0.0310
 9099SOL    HW138756   4.618   0.939   6.546 -1.2065 -0.8861 -0.3792
 9099SOL    HW238757   4.567   0.908   6.411 -2.0004  0.6405  0.4167
 9100SOL     OW38758   1.738   2.649   2.219  0.1563 -0.0104  0.1195
 9100SOL    HW138759   1.817   2.695   2.192  0.1018 -1.5541 -2.6678
 9100SOL    HW238760   1.748   2.567   2.172  2.6504  0.9775 -1.0433
 9101SOL     OW38761   3.750   3.349   7.114 -0.0409  0.0772 -0.4106
 9101SOL    HW138762   3.761   3.299   7.033  4.4672  0.3598  0.0593
 9101SOL    HW238763   3.657   3.338   7.133  0.3865 -3.5052 -0.4354
 9102SOL     OW38764   4.394   0.186  13.407 -0.2270 -0.1333  0.5009
 9102SOL    HW138765   4.397   0.213  13.499  2.6165  0.5858  0.1811
 9102SOL    HW238766   4.479   0.144  13.397  1.1410  2.8599 -0.5052
 9103SOL     OW38767   3.595   2.552   0.761 -0.3393 -0.6746  0.3985
 9103SOL    HW138768   3.553   2.584   0.681 -0.8578 -1.0928  0.5006
 9103SOL    HW238769   3.554   2.614   0.823  2.7706  1.2821  0.4625
 9104SOL     OW38770   1.763   2.357   6.730 -0.1230  0.4886  0.2660
 9104SOL    HW138771   1.825   2.430   6.726 -0.5153  0.8413  0.6778
 9104SOL    HW238772   1.693   2.403   6.684  1.3420  2.6072  0.1498
 9105SOL     OW38773   1.293   0.321  12.075  0.6535  0.5080 -0.5514
 9105SOL    HW138774   1.255   0.234  12.066  1.0618  0.2809 -0.0112
 9105SOL    HW238775   1.283   0.358  11.987  0.6375  0.0406 -0.7438
 9106SOL     OW38776   0.423   3.916   4.287 -0.3327  0.5408 -0.4476
 9106SOL    HW138777   0.330   3.934   4.302 -0.7314 -0.9716 -1.0434
 9106SOL    HW238778   0.429   3.821   4.288  0.3567  0.5921 -0.1669
 9107SOL     OW38779   1.485   4.150   7.065 -0.1831  0.1216 -0.5808
 9107SOL    HW138780   1.501   4.141   6.971  1.5861  1.1051 -0.3780
 9107SOL    HW238781   1.571   4.137   7.105 -1.0691  0.3476  1.3451
 9108SOL     OW38782   3.850   0.416   5.837  0.1419 -0.3805 -0.1796
 9108SOL    HW138783   3.817   0.424   5.748  1.4253 -1.6374 -0.7682
 9108SOL    HW238784   3.897   0.333   5.836 -0.3749 -0.7008  1.8141
 9109SOL     OW38785   2.167   0.928  16.477 -0.4270  0.0568  0.5414
 9109SOL    HW138786   2.147   1.003  16.421  0.3552 -0.5320 -0.5232
 9109SOL    HW238787   2.094   0.870  16.455 -0.4286  0.0454  0.5772
 9110SOL     OW38788   3.034   2.316   6.737 -0.1329  0.5372 -0.2535
 9110SOL    HW138789   3.041   2.369   6.817  0.6064 -0.7162  0.5092
 9110SOL    HW238790   3.072   2.377   6.674 -2.4634  0.0186 -2.1500
 9111SOL     OW38791   2.455   3.844   8.050  0.4429  0.1683  0.1861
 9111SOL    HW138792   2.477   3.754   8.077  1.3352  1.0471  2.3445
 9111SOL    HW238793   2.427   3.892   8.127  2.6580  0.4212  0.8184
 9112SOL     OW38794   0.714   2.309   6.730 -0.3087 -0.2838  0.5518
 9112SOL    HW138795   0.623   2.324   6.757 -0.1908  1.0426  0.2027
 9112SOL    HW238796   0.727   2.215   6.747 -2.3029 -1.1636 -2.6406
 9113SOL     OW38797   2.796   2.871  17.173  0.1560  0.2896 -0.3680
 9113SOL    HW138798   2.767   2.818  17.248  2.3649  0.1241  0.3474
 9113SOL    HW238799   2.859   2.817  17.125  2.7250  2.4257  0.6318
 9114SOL     OW38800   3.715   3.717   6.492 -0.1248  0.2433  0.3589
 9114SOL    HW138801   3.775   3.736   6.419  1.5464 -1.4833  1.2893
 9114SOL    HW238802   3.638   3.765   6.460  0.6675  1.8266  0.8642
 9115SOL     OW38803   4.194   1.259   6.800 -0.3286  0.3250  0.1026
 9115SOL    HW138804   4.285   1.241   6.777  0.1854  1.2884  1.4137
 9115SOL    HW238805   4.152   1.250   6.714  0.9471 -0.7199 -0.4071
 9116SOL     OW38806   4.541   3.834   8.185  0.4964  0.0396 -0.4047
 9116SOL    HW138807   4.571   3.812   8.097  4.9497  2.2449  0.5948
 9116SOL    HW238808   4.448   3.811   8.182  0.5073  0.0433 -0.6933
 9117SOL     OW38809   1.057   3.804   6.765  0.5806  0.6926 -0.4901
 9117SOL    HW138810   0.977   3.752   6.772 -0.1551  1.8030 -0.7856
 9117SOL    HW238811   1.019   3.889   6.743 -0.1000  0.0936 -1.6072
 9118SOL     OW38812   4.600   2.907  10.933  0.3735 -0.1891 -0.3551
 9118SOL    HW138813   4.639   2.966  10.869 -0.3350  0.2487 -0.3891
 9118SOL    HW238814   4.530   2.955  10.978  0.5457  0.2744 -0.5808
 9119SOL     OW38815   1.514   2.535   1.512  0.0545 -0.1322 -0.2702
 9119SOL    HW138816   1.473   2.541   1.425 -2.3488 -1.0171  0.7953
 9119SOL    HW238817   1.445   2.492   1.563  1.4591 -0.8547  1.0096
 9120SOL     OW38818   4.380   1.723   3.671  0.5143  0.9846 -0.0475
 9120SOL    HW138819   4.390   1.632   3.701  0.6201  1.0186  0.0182
 9120SOL    HW238820   4.293   1.725   3.632  0.6762  2.1376 -0.3401
 9121SOL     OW38821   3.892   1.698  14.022  0.0012 -0.1362 -0.2218
 9121SOL    HW138822   3.851   1.664  14.100  0.3936 -0.0954  0.0026
 9121SOL    HW238823   3.851   1.784  14.011 -1.1604 -0.7405 -0.5012
 9122SOL     OW38824   1.649   2.312   3.705  0.7758 -0.2762 -0.0868
 9122SOL    HW138825   1.704   2.337   3.779 -0.7829  1.2073  0.5670
 9122SOL    HW238826   1.617   2.397   3.675 -0.1201 -1.2471 -1.9038
 9123SOL     OW38827   0.061   2.558   7.684 -0.1748 -0.4596  0.0742
 9123SOL    HW138828   0.140   2.612   7.672 -1.9088  2.0659  0.1255
 9123SOL    HW238829   0.074   2.502   7.608  0.2414  0.3819 -0.4879
 9124SOL     OW38830   1.299   2.813   6.317  0.0375  0.1773  0.2206
 9124SOL    HW138831   1.225   2.852   6.362 -2.6752 -3.1190 -1.3825
 9124SOL    HW238832   1.267   2.752   6.250  1.6195 -1.4457  0.9667
 9125SOL     OW38833   0.874   0.526   3.176 -0.2346  0.1569  0.3521
 9125SOL    HW138834   0.912   0.475   3.247 -1.0369  1.4887  1.7225
 9125SOL    HW238835   0.896   0.462   3.108 -0.3233  0.7940 -0.2712
 9126SOL     OW38836   2.955   3.389   9.110  0.5567 -0.0234 -0.0401
 9126SOL    HW138837   3.033   3.340   9.135  0.0043 -1.6875 -1.6085
 9126SOL    HW238838   2.943   3.443   9.188 -0.3040 -1.3839  0.7743
 9127SOL     OW38839   4.057   3.673  13.966  0.1322 -0.5039  0.5035
 9127SOL    HW138840   4.103   3.626  14.036  0.3062 -0.4596  0.4172
 9127SOL    HW238841   3.994   3.604  13.943 -1.0469  1.2503 -1.4736
 9128SOL     OW38842   0.460   4.400  15.325  0.7461 -0.3252  0.2170
 9128SOL    HW138843   0.462   4.386  15.420 -0.9522 -1.7682  0.0498
 9128SOL    HW238844   0.402   4.328  15.299 -1.0389  1.2326 -0.1054
 9129SOL     OW38845   3.483   4.432   4.565 -0.3036  0.3541 -0.1679
 9129SOL    HW138846   3.454   4.347   4.599  1.3485 -0.4891 -0.8681
 9129SOL    HW238847   3.526   4.469   4.641 -0.5951  1.5150 -0.5712
 9130SOL     OW38848   1.422   0.651  14.453  0.5603 -0.1114 -0.5749
 9130SOL    HW138849   1.395   0.566  14.418  1.5632 -0.6597 -0.0019
 9130SOL    HW238850   1.334   0.686  14.468 -0.1224 -1.8183 -0.5970
 9131SOL     OW38851   0.083   2.295  17.296 -0.5458  0.4887  0.5609
 9131SOL    HW138852   0.121   2.255  17.374 -2.3737 -1.5516  0.3830
 9131SOL    HW238853   0.121   2.383  17.299  0.6364 -0.0230  0.6344
 9132SOL     OW38854   2.051   3.099   1.899  0.1764 -0.0670 -0.9989
 9132SOL    HW138855   2.046   3.193   1.917 -0.4773 -0.6991  2.1257
 9132SOL    HW238856   1.959   3.077   1.910  0.4197 -0.2947  0.5615
 9133SOL     OW38857   1.040   0.093   0.981  0.0718  0.4693 -0.4746
 9133SOL    HW138858   0.971   0.028   0.993  0.0749  0.3412 -1.1380
 9133SOL    HW238859   0.986   0.172   0.980  0.9198  1.0646  1.4707
 9134SOL     OW38860   3.352   2.438   5.912  0.6739  0.3266  0.2314
 9134SOL    HW138861   3.440   2.452   5.876 -0.4500  2.3466 -1.7446
 9134SOL    HW238862   3.375   2.436   6.005  1.3658  1.9560  0.0950
 9135SOL     OW38863   4.567   3.045   9.333  0.7542 -0.1418  0.4552
 9135SOL    HW138864   4.569   2.979   9.402  0.8195 -1.1247 -0.4953
 9135SOL    HW238865   4.557   2.994   9.253 -0.4790  0.8628 -0.0376
 9136SOL     OW38866   4.174   3.377   8.192 -0.5438 -0.3918  0.1835
 9136SOL    HW138867   4.230   3.426   8.252  1.4144 -0.7426 -1.3687
 9136SOL    HW238868   4.143   3.304   8.246 -2.2253 -0.8861 -1.4544
 9137SOL     OW38869   2.183   3.691   9.464 -0.0462 -0.4086 -0.6857
 9137SOL    HW138870   2.121   3.645   9.521  2.4294 -0.6566  1.7549
 9137SOL    HW238871   2.120   3.683   9.392 -0.9735  1.1596 -0.0449
 9138SOL     OW38872   3.042   3.356   0.421 -0.3189 -0.1717  0.0802
 9138SOL    HW138873   3.062   3.450   0.416  2.3630 -0.8730 -2.1122
 9138SOL    HW238874   2.952   3.350   0.454 -0.5015  2.4895  0.1347
 9139SOL     OW38875   1.320   1.622   5.986 -0.3310 -0.3587 -0.0719
 9139SOL    HW138876   1.328   1.698   5.928  1.8608  0.7110  1.6449
 9139SOL    HW238877   1.403   1.577   5.971 -0.1041 -0.2640  0.9639
 9140SOL     OW38878   0.539   2.743   1.484  0.7104 -0.1584  0.2336
 9140SOL    HW138879   0.454   2.699   1.484 -0.1187  1.4322 -1.4425
 9140SOL    HW238880   0.514   2.833   1.465 -1.0449 -0.1978  2.2706
 9141SOL     OW38881   4.421   0.478  13.946  0.2967 -0.0949 -0.3684
 9141SOL    HW138882   4.350   0.432  13.902 -0.7091 -0.0369  1.1747
 9141SOL    HW238883   4.384   0.514  14.027 -1.1974  0.5585 -1.3397
 9142SOL     OW38884   4.619   1.313  15.035  0.2309 -0.3955  0.0694
 9142SOL    HW138885   4.657   1.382  14.981  1.7138 -2.3479 -1.3512
 9142SOL    HW238886   4.572   1.367  15.099  0.2598 -1.5707  1.0885
 9143SOL     OW38887   0.320   0.043  13.887 -0.2054  0.2403 -0.4253
 9143SOL    HW138888   0.385   4.697  13.891 -0.2641  0.2729  0.9719
 9143SOL    HW238889   0.326   0.096  13.966  0.4783 -0.6612  0.1200
 9144SOL     OW38890   2.799   2.828   5.228  0.5647  0.1987  0.3110
 9144SOL    HW138891   2.880   2.869   5.257  0.6049  1.2359 -1.2537
 9144SOL    HW238892   2.736   2.889   5.267 -0.0543  0.2493 -0.7619
 9145SOL     OW38893   0.884   1.856  17.635 -0.8537  0.5818 -0.7003
 9145SOL    HW138894   0.955   1.869  17.572 -2.3354 -1.3515 -2.7556
 9145SOL    HW238895   0.926   1.814   0.009  2.8180  0.6929 -2.6886
 9146SOL     OW38896   1.644   4.316   4.903  0.3193 -0.5093  0.0832
 9146SOL    HW138897   1.579   4.262   4.858  0.3084  0.4070 -1.0067
 9146SOL    HW238898   1.655   4.386   4.838  2.1862  0.8000  1.8414
 9147SOL     OW38899   4.492   1.998   5.948  0.5202 -0.5895  0.1016
 9147SOL    HW138900   4.514   2.031   6.035 -1.3293  0.5337  0.1254
 9147SOL    HW238901   4.543   2.057   5.892 -0.3785 -0.8630 -1.0078
 9148SOL     OW38902   2.294   3.907   1.927 -0.3957 -0.3387 -0.0860
 9148SOL    HW138903   2.224   3.959   1.888 -1.0616 -0.9902  0.2320
 9148SOL    HW238904   2.243   3.886   2.006 -0.5487  0.2364 -0.0371
 9149SOL     OW38905   2.360   1.879   5.080  0.1815  0.2759 -0.4447
 9149SOL    HW138906   2.389   1.966   5.050 -0.7572  1.1666  1.2468
 9149SOL    HW238907   2.415   1.822   5.027 -0.0581  2.4167 -3.0122
 9150SOL     OW38908   2.496   1.812   9.182 -0.4029  0.6955  0.4511
 9150SOL    HW138909   2.561   1.811   9.252 -0.3835  0.2243  0.4230
 9150SOL    HW238910   2.446   1.887   9.215 -0.4865 -0.2586  2.5284
 9151SOL     OW38911   0.650   2.938   3.135 -0.0988 -0.7483 -0.1309
 9151SOL    HW138912   0.719   2.887   3.092  1.4101 -0.4221  1.8808
 9151SOL    HW238913   0.704   3.011   3.164 -0.5902 -0.0618 -0.9616
 9152SOL     OW38914   3.034   0.725   5.636  0.3950  0.0195 -0.6508
 9152SOL    HW138915   2.962   0.749   5.694  0.3790 -3.6676  0.8690
 9152SOL    HW238916   3.100   0.791   5.657 -0.5597  0.3755  1.2218
 9153SOL     OW38917   1.830   3.388  12.223  0.8058 -0.0165  0.2713
 9153SOL    HW138918   1.741   3.419  12.209  0.6287  0.0364  1.4810
 9153SOL    HW238919   1.819   3.295  12.206 -1.7502  0.5086 -0.9934
 9154SOL     OW38920   4.025   2.192   7.841 -0.3156 -0.0236 -0.0421
 9154SOL    HW138921   4.028   2.100   7.868  0.6793  0.1034  0.2870
 9154SOL    HW238922   4.087   2.219   7.910 -1.0470  0.9102  0.2530
 9155SOL     OW38923   1.646   2.612  13.492  0.3384  0.2656 -0.3744
 9155SOL    HW138924   1.687   2.633  13.408 -0.5265  2.0970 -0.3527
 9155SOL    HW238925   1.616   2.524  13.474 -0.2859  0.3966  0.0161
 9156SOL     OW38926   1.963   1.192   2.652 -0.5822 -0.0295  0.1786
 9156SOL    HW138927   1.990   1.219   2.740  1.4140 -1.2888 -0.0637
 9156SOL    HW238928   1.906   1.118   2.670  0.6764 -0.6617  1.5530
 9157SOL     OW38929   3.214   2.485   7.904  0.8042 -0.3232 -0.1050
 9157SOL    HW138930   3.296   2.437   7.899  2.5707  2.7490 -0.4109
 9157SOL    HW238931   3.230   2.562   7.958 -2.3132  1.6428 -1.9804
 9158SOL     OW38932   2.204   1.216   8.035  0.3791 -0.4306 -0.1461
 9158SOL    HW138933   2.229   1.307   8.022  0.4109 -0.5530 -0.9378
 9158SOL    HW238934   2.241   1.197   8.121  0.0550 -3.2090 -0.6094
 9159SOL     OW38935   1.390   4.132   6.562  0.3798 -0.5193  0.0771
 9159SOL    HW138936   1.437   4.116   6.480 -0.1154  0.3176 -0.3624
 9159SOL    HW238937   1.333   4.055   6.565 -0.8616  0.3716 -0.7017
 9160SOL     OW38938   4.638   0.947   9.802  0.0128 -0.0145  0.2113
 9160SOL    HW138939   4.679   0.861   9.795 -1.8285 -0.8823 -0.0023
 9160SOL    HW238940   4.552   0.918   9.832  0.2498  0.7499  1.6508
 9161SOL     OW38941   2.076   2.036   1.897  0.0498 -0.1459 -0.0627
 9161SOL    HW138942   2.127   2.015   1.976  0.0543 -0.3272 -0.1153
 9161SOL    HW238943   2.077   2.132   1.905  2.0231 -0.1552 -0.1330
 9162SOL     OW38944   1.093   0.804   7.531 -0.5747  0.4580  0.3126
 9162SOL    HW138945   1.185   0.831   7.530 -1.2363  2.7044  0.4710
 9162SOL    HW238946   1.078   0.808   7.625 -0.5297  1.1155  0.2911
 9163SOL     OW38947   1.221   0.421   8.546 -0.7247 -0.0411  0.0150
 9163SOL    HW138948   1.291   0.434   8.482  0.2518 -0.2123  1.0443
 9163SOL    HW238949   1.188   0.510   8.559 -2.0748 -0.3770 -1.1067
 9164SOL     OW38950   3.569   3.263  17.300  0.3885 -0.3790 -0.0293
 9164SOL    HW138951   3.557   3.216  17.383 -0.1060 -3.2789 -1.7661
 9164SOL    HW238952   3.622   3.194  17.261  0.8091  0.3656 -0.7543
 9165SOL     OW38953   0.901   2.623   2.763 -0.0397 -1.1717 -0.1353
 9165SOL    HW138954   0.952   2.703   2.769 -0.4465 -0.9894  0.9332
 9165SOL    HW238955   0.847   2.646   2.687 -0.5375 -1.9084 -0.0115
 9166SOL     OW38956   2.436   2.513   7.436 -0.1137 -0.0307  0.8262
 9166SOL    HW138957   2.458   2.465   7.516 -0.0424  1.6263  1.7878
 9166SOL    HW238958   2.400   2.439   7.387 -1.1366  0.7783  0.3650
 9167SOL     OW38959   2.372   4.121  14.856  0.6725  0.0086  0.1085
 9167SOL    HW138960   2.405   4.156  14.773  1.6390 -1.2742 -0.0613
 9167SOL    HW238961   2.447   4.137  14.913 -0.1329  1.6837  0.6795
 9168SOL     OW38962   0.859   1.731   4.205  0.2517 -0.0258 -0.3988
 9168SOL    HW138963   0.907   1.648   4.207 -1.0858 -0.8369 -2.4639
 9168SOL    HW238964   0.815   1.726   4.120  0.0389 -1.0030 -0.2377
 9169SOL     OW38965   1.073   3.691  12.204 -0.0926  1.0919 -0.2481
 9169SOL    HW138966   0.983   3.664  12.222 -0.0791  1.3954  0.2725
 9169SOL    HW238967   1.069   3.662  12.113  0.1067  0.4489 -0.0506
 9170SOL     OW38968   0.919   0.751   2.514  0.2312 -0.1575  0.4834
 9170SOL    HW138969   0.910   0.765   2.419 -1.0509  1.1793  0.7987
 9170SOL    HW238970   0.855   0.812   2.551 -0.8915 -1.6281  0.9948
 9171SOL     OW38971   3.320   4.385   5.964 -0.3724  0.4118 -0.2786
 9171SOL    HW138972   3.272   4.414   6.041 -0.1818 -0.7168  0.2570
 9171SOL    HW238973   3.408   4.387   6.000 -0.6259  1.2620  0.3021
 9172SOL     OW38974   3.264   0.752  14.607 -0.1918 -0.0034  0.2397
 9172SOL    HW138975   3.276   0.732  14.514 -1.3224  1.9256 -0.3306
 9172SOL    HW238976   3.298   0.841  14.619 -0.0524  0.2336 -1.7492
 9173SOL     OW38977   2.784   0.659   1.987 -0.1662 -0.1237  0.5782
 9173SOL    HW138978   2.741   0.625   2.065 -0.2009 -2.7236 -0.5730
 9173SOL    HW238979   2.720   0.633   1.921  1.1727 -0.7537 -0.4929
 9174SOL     OW38980   1.830   2.372   7.915  0.7088  0.3290 -0.1999
 9174SOL    HW138981   1.847   2.287   7.957  3.2474  0.1378 -1.6171
 9174SOL    HW238982   1.742   2.369   7.878  1.2026  1.5804 -1.4574
 9175SOL     OW38983   0.460   2.692   5.912  0.1750 -0.7727 -0.0254
 9175SOL    HW138984   0.470   2.614   5.967 -0.0081 -1.9188 -1.6366
 9175SOL    HW238985   0.551   2.721   5.919 -0.3783  0.6128  1.4850
 9176SOL     OW38986   3.336   4.200   1.604  0.1542  0.1042 -0.2953
 9176SOL    HW138987   3.299   4.160   1.682  0.3592 -1.7011 -1.1378
 9176SOL    HW238988   3.429   4.218   1.617 -0.1621  0.2990  1.6720
 9177SOL     OW38989   2.808   3.023   8.776 -0.1574 -0.5013 -0.1742
 9177SOL    HW138990   2.901   3.040   8.792 -0.5327  1.8404 -0.5082
 9177SOL    HW238991   2.768   3.041   8.861 -2.2482 -1.3210 -0.9668
 9178SOL     OW38992   1.040   0.668  16.531 -0.2853  0.4041 -0.2809
 9178SOL    HW138993   0.963   0.650  16.476  0.0743  1.1868 -1.0288
 9178SOL    HW238994   1.072   0.578  16.541 -1.2179 -0.0340 -1.2184
 9179SOL     OW38995   2.979   1.161   6.625  0.8533 -0.1976 -0.1820
 9179SOL    HW138996   2.938   1.215   6.557  0.5617  0.5138  0.5631
 9179SOL    HW238997   3.048   1.115   6.576  1.2334  0.6217 -0.4079
 9180SOL     OW38998   4.570   4.288   6.351 -0.1643  0.3213 -0.0752
 9180SOL    HW138999   4.510   4.270   6.279  2.0414 -2.3303 -1.2754
 9180SOL    HW239000   4.620   4.206   6.360 -3.1757 -1.6217 -1.3997
 9181SOL     OW39001   2.792   1.865   9.955  0.3351 -0.3907 -0.3655
 9181SOL    HW139002   2.782   1.818  10.038  1.3193  0.0030 -0.0181
 9181SOL    HW239003   2.713   1.839   9.907  1.8153 -0.4035 -2.8012
 9182SOL     OW39004   2.901   2.389  11.485  0.4731  0.0564 -0.3995
 9182SOL    HW139005   2.894   2.313  11.542 -0.9663  1.1184  0.8537
 9182SOL    HW239006   2.992   2.382  11.457  0.5416 -0.5123 -0.0282
 9183SOL     OW39007   3.487   2.826   6.807 -0.6834 -0.6486  0.5832
 9183SOL    HW139008   3.406   2.779   6.828 -1.3746 -0.0155 -0.6585
 9183SOL    HW239009   3.451   2.877   6.735  0.9596 -0.4715 -0.1107
 9184SOL     OW39010   4.247   4.361   8.329 -0.2464  0.0480 -0.4034
 9184SOL    HW139011   4.190   4.395   8.398  0.6204  0.1871  0.2506
 9184SOL    HW239012   4.259   4.271   8.361  1.8496  0.1470 -0.9470
 9185SOL     OW39013   3.629   2.824   0.128  0.1552  0.2308 -0.7883
 9185SOL    HW139014   3.640   2.804   0.221 -0.9875 -0.4648 -0.8133
 9185SOL    HW239015   3.538   2.799   0.114  0.1114  0.6518 -1.2373
 9186SOL     OW39016   2.135   3.634  13.200  0.3455  0.0395  0.7189
 9186SOL    HW139017   2.127   3.558  13.142  1.9216  0.2443  0.2280
 9186SOL    HW239018   2.190   3.603  13.271  2.2946  0.1513 -0.7400
 9187SOL     OW39019   0.697   0.210  10.775  0.1029  0.0416  0.2675
 9187SOL    HW139020   0.762   0.159  10.823  1.4298  1.2340 -0.2475
 9187SOL    HW239021   0.744   0.202  10.692  0.9177  0.0397  0.7340
 9188SOL     OW39022   1.868   1.461   5.857 -0.1622  0.2791 -0.2038
 9188SOL    HW139023   1.839   1.474   5.947  0.8079 -1.1454  0.3085
 9188SOL    HW239024   1.878   1.367   5.845  1.7057  0.3805  0.4743
 9189SOL     OW39025   0.643   4.603   3.994 -0.0268  0.4423 -0.0821
 9189SOL    HW139026   0.629   4.510   4.013 -1.0438  0.6665  0.2702
 9189SOL    HW239027   0.585   4.655   4.050 -1.6715 -1.6472  0.1547
 9190SOL     OW39028   2.708   4.580   9.514 -0.1926 -0.3621 -0.6545
 9190SOL    HW139029   2.669   4.640   9.450  0.0275 -0.4314 -0.8537
 9190SOL    HW239030   2.690   4.609   9.603  0.0884  0.0281 -0.7245
 9191SOL     OW39031   2.036   3.985  12.686  0.1241  0.1171 -0.0851
 9191SOL    HW139032   1.958   4.029  12.719  0.9366  1.0330  0.6124
 9191SOL    HW239033   2.104   4.031  12.735  1.2216 -1.4615 -0.1084
 9192SOL     OW39034   4.721   1.905   1.972 -0.2282 -0.0072 -0.4638
 9192SOL    HW139035   4.701   1.963   2.045 -0.6831 -0.4184 -0.2597
 9192SOL    HW239036   0.085   1.935   1.951  0.7640 -2.1790  0.5777
 9193SOL     OW39037   0.102   1.602  17.103 -0.3684 -0.6882  0.3031
 9193SOL    HW139038   0.064   1.648  17.028 -1.9615 -3.0497 -0.3383
 9193SOL    HW239039   0.195   1.604  17.081 -0.5410 -0.8042 -0.4283
 9194SOL     OW39040   2.274   2.536  16.409  0.1750 -0.7630 -0.2909
 9194SOL    HW139041   2.215   2.568  16.340 -1.7876 -0.7897  1.3822
 9194SOL    HW239042   2.333   2.491  16.349  0.7995 -0.5136  0.1475
 9195SOL     OW39043   1.809   0.653  10.203  0.8283 -0.1587  0.0186
 9195SOL    HW139044   1.862   0.575  10.218  2.2847  1.0036  1.0231
 9195SOL    HW239045   1.837   0.712  10.274  0.7549  0.0689 -0.1406
 9196SOL     OW39046   1.892   3.036  11.643 -0.3381 -0.2816  0.2283
 9196SOL    HW139047   1.940   2.953  11.653 -1.0052 -0.9165 -1.9074
 9196SOL    HW239048   1.806   3.003  11.668  0.7937 -4.1662 -1.0083
 9197SOL     OW39049   2.365   3.208  16.138  0.2802 -0.4743  0.4416
 9197SOL    HW139050   2.325   3.278  16.087 -0.0015  0.0004  1.3066
 9197SOL    HW239051   2.326   3.223  16.224 -0.2247 -1.9625  0.4640
 9198SOL     OW39052   1.390   2.890   2.236 -0.3702 -0.2514 -0.1578
 9198SOL    HW139053   1.328   2.959   2.216  0.6434  0.7431  0.1126
 9198SOL    HW239054   1.472   2.923   2.200 -1.6311  2.0598 -0.8565
 9199SOL     OW39055   3.296   3.097   8.240 -0.1236 -0.1055 -0.0560
 9199SOL    HW139056   3.319   3.045   8.163  1.5858  1.0935 -0.3551
 9199SOL    HW239057   3.205   3.071   8.255 -0.4838  2.1273  1.6515
 9200SOL     OW39058   3.738   4.371   0.820 -0.6527  0.1914  0.3961
 9200SOL    HW139059   3.800   4.307   0.785  1.3892  2.8607 -0.8617
 9200SOL    HW239060   3.778   4.357   0.906 -0.0067  0.7929  0.1956
 9201SOL     OW39061   1.559   3.977   3.194  0.2324 -0.6238 -0.3186
 9201SOL    HW139062   1.467   3.956   3.207  0.5092 -0.3380  1.9742
 9201SOL    HW239063   1.604   3.893   3.199  2.4762  0.7771  3.3213
 9202SOL     OW39064   1.153   3.388   5.239  0.5986  0.1274  0.2799
 9202SOL    HW139065   1.143   3.480   5.263  0.4698  0.4048 -0.8517
 9202SOL    HW239066   1.067   3.379   5.198 -0.0971  2.7120  1.2068
 9203SOL     OW39067   0.311   0.736   9.078  0.0484  0.6862  0.3691
 9203SOL    HW139068   0.302   0.641   9.071  0.9227  0.5999  0.4094
 9203SOL    HW239069   0.403   0.763   9.085  0.0777  0.8326 -0.4803
 9204SOL     OW39070   2.551   1.872   9.739 -0.0336 -0.0837 -0.1203
 9204SOL    HW139071   2.536   1.961   9.706 -1.3599 -0.7199 -1.2286
 9204SOL    HW239072   2.467   1.862   9.784 -1.0881  0.5656 -1.9446
 9205SOL     OW39073   0.878   2.761   3.990  0.0802 -0.1886  0.3775
 9205SOL    HW139074   0.962   2.770   3.945 -0.1642 -0.8830 -0.2213
 9205SOL    HW239075   0.857   2.851   4.016 -1.4627 -0.1534 -1.0280
 9206SOL     OW39076   1.749   2.658   5.940  0.2204  0.0220 -0.2771
 9206SOL    HW139077   1.713   2.711   6.011 -0.9455 -1.2680  0.0796
 9206SOL    HW239078   1.705   2.686   5.861  0.0558 -1.2900 -0.6538
 9207SOL     OW39079   2.784   1.832   8.172  0.0434 -0.1536  0.5348
 9207SOL    HW139080   2.720   1.802   8.108  1.7106 -3.6471  0.5361
 9207SOL    HW239081   2.795   1.927   8.161 -1.3180 -0.0826 -0.2496
 9208SOL     OW39082   3.721   3.664  11.374 -0.2866 -0.3746  0.8850
 9208SOL    HW139083   3.678   3.696  11.295  1.8143  0.9622  0.2624
 9208SOL    HW239084   3.814   3.658  11.350 -0.6948 -1.2153 -0.4675
 9209SOL     OW39085   1.270   4.606   7.098 -0.3126  0.2062 -0.1376
 9209SOL    HW139086   1.331   4.662   7.050  0.2230 -0.3635 -0.1336
 9209SOL    HW239087   1.333   4.538   7.123  0.3098  0.7644 -0.1748
 9210SOL     OW39088   0.912   2.883   1.035 -0.4005 -0.6194  0.0007
 9210SOL    HW139089   0.834   2.935   1.016  0.2609  0.1510 -0.5867
 9210SOL    HW239090   0.900   2.858   1.127 -1.8487  2.7812  0.7474
 9211SOL     OW39091   4.213   2.951   3.686 -0.6596 -0.2197 -0.6890
 9211SOL    HW139092   4.249   2.977   3.771  1.7872  0.2130 -1.8454
 9211SOL    HW239093   4.119   2.963   3.698 -0.6960 -2.0436  0.7948
 9212SOL     OW39094   3.693   3.970   1.390  0.3126 -0.3455  0.4688
 9212SOL    HW139095   3.696   3.900   1.324  1.3906  0.4892 -0.3764
 9212SOL    HW239096   3.607   4.007   1.368  0.6204 -0.6374 -1.2741
 9213SOL     OW39097   4.478   0.853   6.250 -0.3325 -0.2317 -0.5976
 9213SOL    HW139098   4.450   0.920   6.187  1.2525  1.1084  0.1127
 9213SOL    HW239099   4.422   0.779   6.227 -0.4822  0.3678 -2.1484
 9214SOL     OW39100   2.396   4.673   2.208 -0.6086 -0.4866  0.1893
 9214SOL    HW139101   2.329   4.655   2.274  0.3019  0.8677  1.4939
 9214SOL    HW239102   2.385   4.599   2.149 -0.6545 -0.0816 -0.3142
 9215SOL     OW39103   3.034   2.934   7.606 -0.3740  0.9094 -0.2226
 9215SOL    HW139104   3.046   3.007   7.668 -2.1751  0.7377  0.3295
 9215SOL    HW239105   2.941   2.922   7.622 -0.0874 -1.3462 -0.2414
 9216SOL     OW39106   2.782   0.393   9.218  0.2647  0.0505 -0.0979
 9216SOL    HW139107   2.718   0.390   9.290 -0.0482 -0.2122 -0.3854
 9216SOL    HW239108   2.795   0.298   9.210 -1.8547 -0.3505  1.0089
 9217SOL     OW39109   1.627   3.422   7.950  0.0654 -0.0736 -0.1127
 9217SOL    HW139110   1.537   3.392   7.960  0.5218 -0.6053  2.4041
 9217SOL    HW239111   1.678   3.347   7.918 -0.0067 -0.0677 -0.2405
 9218SOL     OW39112   1.549   0.887   5.359 -0.0837  0.1240 -0.3182
 9218SOL    HW139113   1.568   0.830   5.433 -1.5556  0.1320  0.0659
 9218SOL    HW239114   1.457   0.911   5.371  0.1955  1.8601 -1.5149
 9219SOL     OW39115   3.227   2.599   3.923 -0.3682 -0.4601 -0.1080
 9219SOL    HW139116   3.138   2.633   3.921 -0.2597 -0.1494  0.5513
 9219SOL    HW239117   3.240   2.600   3.828  0.0825  0.6489 -0.0333
 9220SOL     OW39118   4.480   3.311   7.237  0.9619  1.2224  0.3118
 9220SOL    HW139119   4.554   3.366   7.264  0.2485  1.2392  2.2129
 9220SOL    HW239120   4.413   3.330   7.302 -0.5581 -1.0225 -0.5605
 9221SOL     OW39121   2.391   3.460   3.613  0.1058 -0.5174  0.3413
 9221SOL    HW139122   2.398   3.377   3.661  1.2506 -0.3479  0.4631
 9221SOL    HW239123   2.376   3.523   3.683 -3.2163  0.6458 -1.4186
 9222SOL     OW39124   2.116   1.683   7.365 -0.2188  0.1405 -0.2943
 9222SOL    HW139125   2.115   1.591   7.391  1.2619  0.3112  0.3379
 9222SOL    HW239126   2.163   1.730   7.434  0.3796 -0.0208 -0.5988
 9223SOL     OW39127   0.086   1.044   3.051  0.2123 -0.0133  0.5121
 9223SOL    HW139128   0.048   1.127   3.080 -1.7302 -0.1687 -1.5609
 9223SOL    HW239129   0.035   0.987   3.110 -0.8989  1.1571  0.6772
 9224SOL     OW39130   1.555   0.756  10.476 -0.3566  0.1099  0.1938
 9224SOL    HW139131   1.487   0.772  10.541 -0.3051  1.4407 -0.0872
 9224SOL    HW239132   1.588   0.669  10.501 -1.6835 -0.6415 -0.7017
 9225SOL     OW39133   0.718   0.009   9.332 -0.0605 -0.1316  0.1690
 9225SOL    HW139134   0.650   4.686   9.285  0.0615  2.5250 -2.7232
 9225SOL    HW239135   0.664   0.030   9.409  0.2555 -0.5254  0.4992
 9226SOL     OW39136   1.808   1.019   2.335  0.3716 -0.2880  0.2447
 9226SOL    HW139137   1.749   0.980   2.271 -1.0910 -0.3209  1.6148
 9226SOL    HW239138   1.858   1.062   2.265 -3.1792  0.3825 -1.8742
 9227SOL     OW39139   1.432   4.270  14.131  0.5669  0.2493  0.7141
 9227SOL    HW139140   1.461   4.352  14.091 -1.0119  0.2755 -0.3615
 9227SOL    HW239141   1.516   4.232  14.155  1.5210  0.7171 -1.9167
 9228SOL     OW39142   2.571   2.649  12.160 -1.0748 -0.1656 -0.2123
 9228SOL    HW139143   2.565   2.664  12.066  1.6257  0.2183 -0.3111
 9228SOL    HW239144   2.532   2.730  12.193  0.1583  1.5631 -3.0106
 9229SOL     OW39145   1.893   1.683   8.163  0.1190  0.0397 -0.1337
 9229SOL    HW139146   1.957   1.712   8.098 -0.8591 -0.7979 -1.4741
 9229SOL    HW239147   1.834   1.646   8.098 -2.2690 -0.2574  2.1978
 9230SOL     OW39148   2.840   1.105   9.244 -0.1481  0.2889  0.3729
 9230SOL    HW139149   2.903   1.088   9.174 -0.3012 -0.6994  0.4632
 9230SOL    HW239150   2.810   1.018   9.271  0.2209  0.0208 -0.0907
 9231SOL     OW39151   2.688   4.614   7.271 -0.1630 -0.1757  0.1988
 9231SOL    HW139152   2.781   4.619   7.293  0.0224 -0.6294 -0.5019
 9231SOL    HW239153   2.641   4.609   7.355  0.8268  0.5782  0.7961
 9232SOL     OW39154   3.186   0.426   3.355 -0.4665  0.3486 -0.1002
 9232SOL    HW139155   3.149   0.438   3.443 -0.3839  2.0148 -0.2879
 9232SOL    HW239156   3.248   0.499   3.355  0.2683 -0.2986 -1.9621
 9233SOL     OW39157   4.543   1.989  12.385 -0.2037  0.2742 -0.3291
 9233SOL    HW139158   4.608   1.982  12.456 -0.8258  1.4501  0.3461
 9233SOL    HW239159   4.492   1.909  12.399  1.3848 -0.7398 -0.3676
 9234SOL     OW39160   2.326   4.261   5.328 -0.0509 -0.0892  0.3832
 9234SOL    HW139161   2.347   4.275   5.420 -2.1643 -1.1277  1.0131
 9234SOL    HW239162   2.265   4.188   5.336  1.5594 -1.5343 -0.4176
 9235SOL     OW39163   0.095   1.811   2.733 -0.1304  0.1038  0.3006
 9235SOL    HW139164   0.016   1.760   2.718 -0.2262  0.7597 -1.4700
 9235SOL    HW239165   0.142   1.752   2.792  0.3950  0.0961 -0.1264
 9236SOL     OW39166   1.346   3.864  16.175  0.4291  0.1738 -0.2812
 9236SOL    HW139167   1.351   3.912  16.257  2.0095 -1.3672  0.5302
 9236SOL    HW239168   1.328   3.777  16.213  1.5490  0.0399 -0.0674
 9237SOL     OW39169   2.025   3.950   3.912 -0.0671 -0.2269 -0.1877
 9237SOL    HW139170   1.936   3.949   3.947  0.4302 -1.1975  1.0276
 9237SOL    HW239171   2.015   3.937   3.817 -1.3673 -0.6024 -0.0002
 9238SOL     OW39172   0.957   1.297   9.068 -0.0321  0.1152  0.2175
 9238SOL    HW139173   1.001   1.342   8.996 -0.2060  0.5531  0.3789
 9238SOL    HW239174   0.895   1.369   9.087  0.3356  0.3484  0.5439
 9239SOL     OW39175   0.144   1.234   6.073 -0.4256 -0.5343  0.7728
 9239SOL    HW139176   0.099   1.213   6.155 -4.0710 -1.8939 -1.5700
 9239SOL    HW239177   0.217   1.174   6.066 -1.3816 -1.6258  0.0820
 9240SOL     OW39178   2.950   2.916   1.827  0.0438  0.4073  0.1503
 9240SOL    HW139179   2.913   2.887   1.911  0.9631 -0.2969  0.2996
 9240SOL    HW239180   2.862   2.928   1.790 -1.0139 -2.4298  1.6843
 9241SOL     OW39181   2.872   3.757   3.510  0.3632 -0.2104 -0.0854
 9241SOL    HW139182   2.786   3.787   3.541  0.6549  0.4179  0.1316
 9241SOL    HW239183   2.924   3.837   3.499 -0.4733  0.6126  1.9346
 9242SOL     OW39184   3.028   4.517   6.530  0.2630  0.3378 -0.6058
 9242SOL    HW139185   3.030   4.437   6.478 -1.7734  1.5253 -2.5145
 9242SOL    HW239186   3.084   4.570   6.474  2.7537 -0.1894  1.3756
 9243SOL     OW39187   3.657   4.565  10.784 -0.0359 -0.0755  0.5371
 9243SOL    HW139188   3.724   4.632  10.771 -0.6291  0.6046  0.9793
 9243SOL    HW239189   3.577   4.604  10.750 -1.5226 -1.2922  2.6513
 9244SOL     OW39190   3.453   2.210  12.700 -0.4420  0.0277 -0.1596
 9244SOL    HW139191   3.414   2.124  12.715 -0.2203  0.1268  1.0500
 9244SOL    HW239192   3.408   2.264  12.764 -1.4556 -2.4744  1.2429
 9245SOL     OW39193   1.428   0.260  13.348 -0.0562 -0.1521  0.0400
 9245SOL    HW139194   1.399   0.261  13.439  2.1376  0.6361  0.7436
 9245SOL    HW239195   1.509   0.311  13.358  1.3702 -1.7424 -3.0663
 9246SOL     OW39196   3.483   1.690   5.440  0.0345 -0.6619 -0.6414
 9246SOL    HW139197   3.419   1.690   5.369  0.7366  1.3742 -1.2624
 9246SOL    HW239198   3.429   1.732   5.506 -0.4606  0.0089 -1.4719
 9247SOL     OW39199   2.722   3.394   9.746 -0.0260  0.3302 -0.2786
 9247SOL    HW139200   2.799   3.390   9.802 -1.6793  0.7288  2.0427
 9247SOL    HW239201   2.742   3.482   9.713 -0.4897  0.9872  1.1687
 9248SOL     OW39202   0.415   2.330   4.255 -0.5698 -0.6772  0.2277
 9248SOL    HW139203   0.356   2.262   4.287  0.9913 -2.3026 -0.3244
 9248SOL    HW239204   0.434   2.312   4.163 -1.8742  1.0435 -0.3623
 9249SOL     OW39205   0.414   4.002   8.559 -0.1879  0.1186 -0.3950
 9249SOL    HW139206   0.394   4.012   8.466 -1.1481 -1.2383 -0.3392
 9249SOL    HW239207   0.509   4.009   8.551 -0.3455  0.4829 -1.7765
 9250SOL     OW39208   2.301   3.062  17.026  0.5997 -0.2099  0.5772
 9250SOL    HW139209   2.342   3.071  17.112  1.9132 -1.0408  0.0512
 9250SOL    HW239210   2.281   3.153  17.008  0.9067 -0.2518 -0.0003
 9251SOL     OW39211   2.099   3.823   6.851  0.3046  0.2386  0.0173
 9251SOL    HW139212   2.111   3.768   6.774  0.4483 -0.0754  0.2669
 9251SOL    HW239213   2.134   3.909   6.826  0.5173 -0.3825 -1.8451
 9252SOL     OW39214   3.140   1.596   8.724 -0.6243  1.0851  0.3223
 9252SOL    HW139215   3.133   1.678   8.773 -2.9220  1.5947 -0.8411
 9252SOL    HW239216   3.080   1.537   8.768  0.9603  0.3332  1.4546
 9253SOL     OW39217   1.718   1.560   0.977 -0.7026 -0.0418 -0.5631
 9253SOL    HW139218   1.675   1.477   0.997  1.0750 -0.0315  3.3047
 9253SOL    HW239219   1.650   1.625   0.993  0.7859  1.5943 -0.8440
 9254SOL     OW39220   3.661   2.584  17.414 -0.0427 -0.8131  0.0438
 9254SOL    HW139221   3.688   2.670  17.382 -2.5875  0.2849  0.8373
 9254SOL    HW239222   3.612   2.606  17.493  0.4869 -0.4473  0.2768
 9255SOL     OW39223   4.222   2.875   8.371 -0.1473 -0.2279  0.0440
 9255SOL    HW139224   4.300   2.854   8.318  0.5869 -1.5307  1.6399
 9255SOL    HW239225   4.159   2.824   8.319 -2.1441  2.2113  0.0942
 9256SOL     OW39226   2.562   1.574   9.627 -0.3025 -0.2450  0.0093
 9256SOL    HW139227   2.640   1.543   9.580 -0.5717 -1.4348  0.3471
 9256SOL    HW239228   2.579   1.666   9.647  1.8424 -0.1940 -1.9875
 9257SOL     OW39229   2.572   0.041  11.318  0.5504  0.3672  0.3297
 9257SOL    HW139230   2.579   0.127  11.276  1.0700 -0.7697 -1.8939
 9257SOL    HW239231   2.641   4.721  11.269  0.3478  1.4558 -0.9602
 9258SOL     OW39232   0.352   3.987   8.278  0.1533  0.7375 -0.0480
 9258SOL    HW139233   0.285   3.919   8.284  0.8950 -0.1264 -1.5210
 9258SOL    HW239234   0.321   4.034   8.201  1.9722  2.2422  0.1477
 9259SOL     OW39235   3.200   4.433   6.192 -0.2911  0.0151 -0.1782
 9259SOL    HW139236   3.116   4.389   6.185 -0.8452  1.3984 -2.1798
 9259SOL    HW239237   3.233   4.375   6.261 -0.5325  0.4740  0.3225
 9260SOL     OW39238   1.078   1.645   0.910  0.4038  0.7159 -0.0590
 9260SOL    HW139239   1.103   1.726   0.954  0.3348  0.8232 -0.2172
 9260SOL    HW239240   0.985   1.636   0.931  0.6108 -1.7988 -0.2475
 9261SOL     OW39241   1.479   1.718   0.741  0.2644 -0.1475  0.1410
 9261SOL    HW139242   1.438   1.648   0.791 -1.8850 -0.2685 -1.7593
 9261SOL    HW239243   1.511   1.775   0.811 -0.2114  1.2993 -0.8192
 9262SOL     OW39244   3.251   4.395   4.989 -0.0727 -0.2132 -0.8764
 9262SOL    HW139245   3.193   4.470   5.001 -0.9461 -0.5334 -3.2348
 9262SOL    HW239246   3.229   4.360   4.903  0.1171 -0.2889 -0.8937
 9263SOL     OW39247   3.641   4.330  15.921 -0.0219 -0.2815 -0.1015
 9263SOL    HW139248   3.589   4.259  15.883 -0.6586 -0.0058  0.2705
 9263SOL    HW239249   3.569   4.381  15.956  0.3742  1.1844 -1.4110
 9264SOL     OW39250   2.333   2.209   8.944 -0.0943  0.1308 -0.2104
 9264SOL    HW139251   2.349   2.230   9.036  0.0509 -0.5537 -0.0735
 9264SOL    HW239252   2.296   2.122   8.956 -0.0784 -0.2066 -2.5165
 9265SOL     OW39253   3.908   0.086  10.439  0.0751 -0.0292  0.2147
 9265SOL    HW139254   3.948   0.014  10.488  1.1307  0.5682  0.2459
 9265SOL    HW239255   3.850   0.034  10.383  0.4902 -1.9260  1.5450
 9266SOL     OW39256   4.668   2.662   5.756 -0.5044  0.1294 -0.6714
 9266SOL    HW139257   0.024   2.639   5.802 -1.2966 -1.7780 -0.2204
 9266SOL    HW239258   4.628   2.729   5.811 -1.8251 -0.7284 -0.6020
 9267SOL     OW39259   1.999   2.899   4.907  0.5614  0.0448  0.5432
 9267SOL    HW139260   1.985   2.935   4.994 -0.6829  1.1476 -0.1133
 9267SOL    HW239261   2.086   2.861   4.914  0.4334 -0.6549 -1.4984
 9268SOL     OW39262   2.283   4.454   7.292 -0.1823  0.3742  0.3621
 9268SOL    HW139263   2.325   4.424   7.212 -0.7690  2.3010 -0.6767
 9268SOL    HW239264   2.190   4.446   7.273 -0.0428 -1.2503  0.3505
 9269SOL     OW39265   2.197   3.666  14.633  0.4384  0.2267 -0.6338
 9269SOL    HW139266   2.267   3.697  14.575  0.2255  0.7771 -0.5997
 9269SOL    HW239267   2.249   3.625  14.702 -1.6014  0.8251  1.2469
 9270SOL     OW39268   0.231   1.841   6.514  0.1630 -0.0217  0.1624
 9270SOL    HW139269   0.237   1.802   6.427  1.8357  0.1993  0.1670
 9270SOL    HW239270   0.235   1.769   6.577 -0.7719  0.1224  0.3766
 9271SOL     OW39271   3.356   0.065   6.793 -0.1034 -0.0362  0.1650
 9271SOL    HW139272   3.301   4.714   6.774 -0.6291  1.2230 -3.4484
 9271SOL    HW239273   3.439   0.028   6.762  1.2588  2.2105  1.1167
 9272SOL     OW39274   1.265   2.083   8.800  0.2716  0.0786 -0.3334
 9272SOL    HW139275   1.268   2.010   8.862 -1.0175  0.4463  0.1538
 9272SOL    HW239276   1.288   2.156   8.858  1.1465 -0.9386  0.6054
 9273SOL     OW39277   3.413   2.325   2.102 -0.2459 -0.0891  0.4159
 9273SOL    HW139278   3.481   2.387   2.077 -0.2030 -0.2035  0.2522
 9273SOL    HW239279   3.400   2.342   2.195  2.0356 -0.0311  0.7134
 9274SOL     OW39280   1.827   1.247   7.767  0.1558 -0.7326 -0.0882
 9274SOL    HW139281   1.857   1.240   7.858 -1.8703  2.1554  0.8240
 9274SOL    HW239282   1.890   1.311   7.733  1.2963 -1.9864 -0.3005
 9275SOL     OW39283   3.584   2.246   9.248  0.4118  0.1426 -0.0712
 9275SOL    HW139284   3.573   2.250   9.343 -2.5650  1.1922 -0.4568
 9275SOL    HW239285   3.489   2.254   9.232  0.3707  1.7551  0.9862
 9276SOL     OW39286   1.711   4.475   2.194  0.2714 -0.1474  0.0294
 9276SOL    HW139287   1.776   4.525   2.145 -2.5809  4.2746  0.6968
 9276SOL    HW239288   1.633   4.522   2.163 -0.6615 -2.5029 -1.2397
 9277SOL     OW39289   1.789   0.621   2.004  1.0689  0.1264  0.7884
 9277SOL    HW139290   1.814   0.545   2.057  1.6329 -0.6674 -0.6300
 9277SOL    HW239291   1.838   0.688   2.053  1.0896  0.0412  0.8834
 9278SOL     OW39292   3.016   1.424   8.942  0.4097  0.1828 -0.7952
 9278SOL    HW139293   2.993   1.510   8.978  2.2960 -0.0240  0.9465
 9278SOL    HW239294   3.053   1.384   9.021  0.2668 -1.2419 -1.4546
 9279SOL     OW39295   3.856   2.617  10.856 -0.1115  0.3520  0.3383
 9279SOL    HW139296   3.802   2.552  10.901 -2.2105  2.1798  0.4509
 9279SOL    HW239297   3.897   2.660  10.931 -1.4747  0.5670  0.9607
 9280SOL     OW39298   4.261   0.342  16.073  0.1637  0.5214 -0.0618
 9280SOL    HW139299   4.284   0.355  16.165  2.3135 -2.0129 -0.2180
 9280SOL    HW239300   4.223   0.427  16.055  0.5513  0.8766  0.7897
 9281SOL     OW39301   4.342   0.920   7.093 -0.4355 -0.0199  0.3796
 9281SOL    HW139302   4.403   0.991   7.114 -1.7124  0.6225  1.8696
 9281SOL    HW239303   4.370   0.849   7.151  1.0315  0.3640  0.1448
 9282SOL     OW39304   1.445   1.687  14.755 -0.1359  0.2663 -0.1493
 9282SOL    HW139305   1.482   1.615  14.805  0.6742 -0.7658 -2.2486
 9282SOL    HW239306   1.352   1.664  14.763 -0.0760  0.5553  1.4633
 9283SOL     OW39307   3.516   2.697   2.898  0.3040 -0.4192  0.2782
 9283SOL    HW139308   3.501   2.786   2.864  1.0502 -0.4025 -0.0162
 9283SOL    HW239309   3.460   2.693   2.976 -1.9280  0.1562 -1.2882
 9284SOL     OW39310   0.330   2.867  13.613  0.0355  0.0058  0.8874
 9284SOL    HW139311   0.411   2.838  13.572  0.2366  2.3219 -0.3511
 9284SOL    HW239312   0.272   2.889  13.540 -1.3507 -0.0900  1.9704
 9285SOL     OW39313   3.685   4.517   0.558  0.4563 -0.4191  0.0425
 9285SOL    HW139314   3.681   4.470   0.642 -2.0928 -0.8225 -0.2989
 9285SOL    HW239315   3.729   4.598   0.581  1.2328 -1.0836  0.9029
 9286SOL     OW39316   1.084   1.689  15.923  0.0946  0.1437  0.2563
 9286SOL    HW139317   1.031   1.611  15.942  1.4393 -0.9344 -0.4214
 9286SOL    HW239318   1.121   1.708  16.009  1.3169 -0.1410 -0.2137
 9287SOL     OW39319   0.557   0.514   7.996 -0.1467  0.3666  0.1095
 9287SOL    HW139320   0.637   0.485   7.952 -0.6983  1.8415 -1.8535
 9287SOL    HW239321   0.588   0.557   8.076 -2.2607  0.5582  0.8167
 9288SOL     OW39322   0.871   4.110   0.628 -0.2279  0.1379  0.1446
 9288SOL    HW139323   0.782   4.104   0.662 -0.6246 -1.8620 -1.2822
 9288SOL    HW239324   0.862   4.072   0.541 -0.8881 -0.1320  0.3308
 9289SOL     OW39325   1.982   3.973   3.639  0.2595  0.3012 -0.0078
 9289SOL    HW139326   2.023   4.059   3.630 -0.3883  0.8791  2.4553
 9289SOL    HW239327   1.967   3.952   3.547  2.9360 -0.8225 -0.1810
 9290SOL     OW39328   2.621   0.157   8.003  0.6819  0.3701 -0.3748
 9290SOL    HW139329   2.643   0.109   8.083  0.9160 -1.7079 -1.6940
 9290SOL    HW239330   2.575   0.082   7.967 -0.2332  0.5920  0.3489
 9291SOL     OW39331   4.567   2.847  11.785  0.5132  0.0454 -0.0726
 9291SOL    HW139332   4.660   2.839  11.809  1.0989  0.0011 -2.3725
 9291SOL    HW239333   4.527   2.824  11.869  0.6921  2.2839  0.6180
 9292SOL     OW39334   3.389   0.951  15.065  0.1930 -0.2704  0.1493
 9292SOL    HW139335   3.361   1.032  15.107 -1.2298  1.2678 -3.7581
 9292SOL    HW239336   3.467   0.992  15.029 -0.3827  0.0648 -0.7200
 9293SOL     OW39337   2.172   2.667  13.737  0.1961  0.1470  0.2104
 9293SOL    HW139338   2.213   2.728  13.797 -1.6116  0.6367  0.9507
 9293SOL    HW239339   2.082   2.695  13.755 -1.1382 -2.0585 -2.9531
 9294SOL     OW39340   2.896   3.166   8.467  0.2227 -0.7567  0.0261
 9294SOL    HW139341   2.867   3.137   8.553  0.7919 -1.6451 -0.0812
 9294SOL    HW239342   2.963   3.227   8.499  0.4033 -0.5233 -0.7901
 9295SOL     OW39343   0.993   1.126  16.423  0.1219  0.0342 -0.3480
 9295SOL    HW139344   1.017   1.088  16.338  0.9336  0.2524 -0.2156
 9295SOL    HW239345   1.072   1.108  16.474  0.5037 -0.4836 -1.1233
 9296SOL     OW39346   4.633   2.970   4.691  0.1281 -0.4054  0.8770
 9296SOL    HW139347   4.558   2.919   4.721  0.6755  0.2095  3.2492
 9296SOL    HW239348   4.707   2.929   4.735  1.9080  2.5697  0.6637
 9297SOL     OW39349   1.159   2.674   6.115 -0.1930  0.0374  0.2350
 9297SOL    HW139350   1.226   2.670   6.047 -0.9720 -0.1142 -0.5304
 9297SOL    HW239351   1.115   2.591   6.100  0.5682 -0.0474 -1.5824
 9298SOL     OW39352   4.410   0.927   1.055 -0.0320 -0.5519 -0.3586
 9298SOL    HW139353   4.493   0.892   1.021  0.2308 -1.0834  0.8367
 9298SOL    HW239354   4.355   0.875   0.996  0.1365  0.2122 -1.1953
 9299SOL     OW39355   1.562   3.151   2.470 -0.0483  0.4711  0.4325
 9299SOL    HW139356   1.529   3.202   2.397 -0.0208  0.7621  0.6227
 9299SOL    HW239357   1.483   3.113   2.508  0.4031 -0.3887  0.5188
 9300SOL     OW39358   2.312   0.028  13.851 -0.4340  0.3204  0.4970
 9300SOL    HW139359   2.260   0.060  13.778 -0.5308  1.0698  0.8966
 9300SOL    HW239360   2.291   4.660  13.842  0.0649  0.3221 -0.7374
 9301SOL     OW39361   1.549   1.268   7.770  0.0936 -0.5311 -0.2218
 9301SOL    HW139362   1.570   1.352   7.811 -2.3216  1.3612 -2.8420
 9301SOL    HW239363   1.640   1.239   7.773  0.5003  0.7317 -0.1765
 9302SOL     OW39364   2.270   1.556   9.492 -0.5875  0.5975  0.2000
 9302SOL    HW139365   2.234   1.633   9.536 -0.2096  1.8280 -1.6192
 9302SOL    HW239366   2.357   1.552   9.533  0.9177  2.1550 -2.8011
 9303SOL     OW39367   1.544   2.905   9.968 -0.0371  0.4429 -0.0098
 9303SOL    HW139368   1.578   2.819   9.945 -0.3526  0.2275  0.3299
 9303SOL    HW239369   1.624   2.950   9.994  0.3852 -1.2380  1.6042
 9304SOL     OW39370   4.480   3.336   2.245  0.3713  0.0801 -0.0717
 9304SOL    HW139371   4.414   3.351   2.178  1.2633  2.9698 -0.2838
 9304SOL    HW239372   4.541   3.407   2.225 -0.6844  1.3903  1.3775
 9305SOL     OW39373   0.434   1.863   6.818 -0.0640 -0.0589  0.0109
 9305SOL    HW139374   0.470   1.907   6.895  3.1100 -2.7250  0.1032
 9305SOL    HW239375   0.346   1.900   6.820  0.2076  0.6020 -0.1976
 9306SOL     OW39376   2.616   1.085  16.138  0.2642  0.5377 -0.1523
 9306SOL    HW139377   2.589   1.005  16.093  0.4393  1.1309 -1.3110
 9306SOL    HW239378   2.687   1.038  16.181 -0.8938  1.7558  3.0996
 9307SOL     OW39379   2.150   0.518   2.272 -0.5909 -0.1220  0.0424
 9307SOL    HW139380   2.184   0.431   2.291 -0.9572  0.1584  1.9641
 9307SOL    HW239381   2.170   0.526   2.179 -0.1204 -0.6604  0.0997
 9308SOL     OW39382   3.999   4.050   0.123 -0.4266  0.0787 -0.0969
 9308SOL    HW139383   4.003   4.132   0.173 -0.0971  0.4737 -0.7596
 9308SOL    HW239384   3.974   4.076   0.034 -0.4563 -1.6737 -0.5871
 9309SOL     OW39385   1.138   2.123  14.628  0.5317 -0.4502  0.2867
 9309SOL    HW139386   1.108   2.106  14.539  0.0658  0.6179  0.2427
 9309SOL    HW239387   1.100   2.046  14.671  3.1201 -2.0962 -0.3528
 9310SOL     OW39388   1.055   4.336   6.732  0.4439 -0.2726 -0.0123
 9310SOL    HW139389   1.069   4.413   6.787 -0.6079 -0.9131  1.1442
 9310SOL    HW239390   1.082   4.267   6.792 -0.5619 -0.2258  0.4984
 9311SOL     OW39391   0.825   2.032  16.237 -0.1438  0.0425  0.6206
 9311SOL    HW139392   0.907   2.071  16.269 -0.6324  1.5246  0.0721
 9311SOL    HW239393   0.769   2.091  16.287 -2.1128 -1.2562 -0.0925
 9312SOL     OW39394   0.226   4.254   3.994 -0.2136  0.2171 -0.3868
 9312SOL    HW139395   0.305   4.273   3.943 -0.5695 -0.4545 -1.1760
 9312SOL    HW239396   0.215   4.160   3.979  2.0294 -0.1002 -0.0965
 9313SOL     OW39397   2.523   3.682   3.901 -0.3883  0.3680 -0.4083
 9313SOL    HW139398   2.598   3.685   3.841  0.8998 -0.7492  1.1580
 9313SOL    HW239399   2.450   3.706   3.845 -1.6971 -2.8519 -0.0517
 9314SOL     OW39400   1.858   0.954   6.813  0.1926 -0.7233  0.1315
 9314SOL    HW139401   1.879   0.953   6.906 -0.7931  1.8257  0.3871
 9314SOL    HW239402   1.840   1.048   6.804  1.9490 -0.5596 -1.7084
 9315SOL     OW39403   0.823   2.453   3.947 -0.4729  0.2383  0.0450
 9315SOL    HW139404   0.877   2.532   3.946 -1.7975  1.1412  0.3609
 9315SOL    HW239405   0.886   2.393   3.908 -1.5818  0.6840 -2.3740
 9316SOL     OW39406   2.404   4.064  10.539  0.5583  0.1679 -0.2849
 9316SOL    HW139407   2.421   3.975  10.569  0.1350  0.3686  0.5550
 9316SOL    HW239408   2.311   4.066  10.516  0.0434 -0.8884  1.7306
 9317SOL     OW39409   0.123   1.127   7.828 -0.2229  0.1628 -0.0253
 9317SOL    HW139410   0.072   1.139   7.748  0.8503 -0.3296 -0.7811
 9317SOL    HW239411   0.195   1.079   7.786 -1.1339 -0.1879 -1.2008
 9318SOL     OW39412   3.279   2.512   1.347  0.5680 -0.2901 -0.3154
 9318SOL    HW139413   3.265   2.520   1.442 -0.4181 -1.0636 -0.3913
 9318SOL    HW239414   3.311   2.599   1.325  2.2430 -0.7988  0.1134
 9319SOL     OW39415   4.615   0.514  14.465  0.7457 -0.0542 -0.1065
 9319SOL    HW139416   4.637   0.509  14.372 -1.0393  1.1471 -0.6116
 9319SOL    HW239417   4.536   0.568  14.459  1.9848  1.6927 -0.8120
 9320SOL     OW39418   4.646   0.646   6.522 -0.4390 -0.5531  0.2433
 9320SOL    HW139419   0.016   0.635   6.518 -0.5330 -2.3777  2.8809
 9320SOL    HW239420   4.638   0.704   6.598 -1.3858 -1.1773  0.6228
 9321SOL     OW39421   4.187   4.707   6.406 -0.3507 -0.2554 -0.3527
 9321SOL    HW139422   4.202   0.075   6.425 -1.7398  0.5178 -3.0620
 9321SOL    HW239423   4.273   4.673   6.434  0.1926  0.1212 -1.5542
 9322SOL     OW39424   2.322   4.524   4.525 -0.1717 -0.1346  0.1141
 9322SOL    HW139425   2.396   4.471   4.553  0.4261 -0.6089 -2.3287
 9322SOL    HW239426   2.251   4.513   4.587 -1.0368 -0.9820 -1.0310
 9323SOL     OW39427   3.305   2.315   9.554  0.7992 -0.1620 -0.3277
 9323SOL    HW139428   3.305   2.318   9.650  1.0973  1.4200 -0.3786
 9323SOL    HW239429   3.397   2.306   9.532  1.2648 -1.9844  2.3263
 9324SOL     OW39430   0.291   3.781   7.570 -0.5419 -0.1626 -0.6709
 9324SOL    HW139431   0.285   3.861   7.622 -1.0871 -0.5992 -0.0688
 9324SOL    HW239432   0.206   3.738   7.570 -0.2487 -0.7328  0.9340
 9325SOL     OW39433   0.892   1.661   1.678 -0.3935 -0.0463  0.4110
 9325SOL    HW139434   0.957   1.597   1.648  1.9817  2.7242 -0.4552
 9325SOL    HW239435   0.804   1.630   1.658 -0.3643  2.3691 -3.3632
 9326SOL     OW39436   0.484   0.176  10.915 -0.6767  0.3057  0.2276
 9326SOL    HW139437   0.561   0.188  10.860  0.3893  0.6894  1.8163
 9326SOL    HW239438   0.413   0.217  10.865  0.6169 -0.3623 -2.1568
 9327SOL     OW39439   3.529   3.830   6.346  0.1200 -0.0957 -0.2879
 9327SOL    HW139440   3.470   3.782   6.288 -0.3712 -1.2456  1.1669
 9327SOL    HW239441   3.469   3.905   6.344 -0.4260 -0.5508 -1.2553
 9328SOL     OW39442   4.594   0.213  11.643  0.1817 -0.1321 -0.1575
 9328SOL    HW139443   4.622   0.156  11.572 -0.9278  0.8527 -1.4018
 9328SOL    HW239444   4.518   0.254  11.601 -1.6542  0.0141  3.2188
 9329SOL     OW39445   0.011   4.032   4.581  0.0817 -0.5003  0.0097
 9329SOL    HW139446   4.668   3.965   4.579 -0.6287  0.2838 -2.1857
 9329SOL    HW239447   4.706   4.093   4.649  0.4465 -1.3410  0.9213
 9330SOL     OW39448   0.446   3.620  12.356 -0.9402  0.1101 -0.2883
 9330SOL    HW139449   0.445   3.567  12.435 -0.5379 -0.6063 -0.7661
 9330SOL    HW239450   0.368   3.675  12.361 -1.3505 -0.4306 -0.6535
 9331SOL     OW39451   3.182   2.545   3.349  0.2916  0.0865 -0.2405
 9331SOL    HW139452   3.271   2.564   3.378 -0.6608  1.6963  1.5684
 9331SOL    HW239453   3.209   2.463   3.308  1.0039 -0.8909  2.1492
 9332SOL     OW39454   1.152   4.161   6.177 -0.0760 -0.2768 -0.2458
 9332SOL    HW139455   1.109   4.077   6.190  0.1680 -0.5832 -1.4259
 9332SOL    HW239456   1.152   4.180   6.083  0.6575 -1.4210 -0.4645
 9333SOL     OW39457   3.039   4.128   3.968  0.1460 -0.5263  0.6828
 9333SOL    HW139458   3.021   4.041   4.004  1.2956 -0.1902  2.0292
 9333SOL    HW239459   2.949   4.161   3.957  0.6326  0.5796  0.0374
 9334SOL     OW39460   0.501   0.032   1.760 -0.4447 -0.0794  0.4820
 9334SOL    HW139461   0.450   4.676   1.765 -1.3984  0.3398 -2.5106
 9334SOL    HW239462   0.447   0.094   1.810  0.2278  0.7287  0.2019
 9335SOL     OW39463   1.596   4.335  12.488  0.1204  0.2620  0.3374
 9335SOL    HW139464   1.673   4.315  12.435 -2.3703 -1.2088 -2.6776
 9335SOL    HW239465   1.626   4.418  12.525  2.6785 -1.8273  2.9441
 9336SOL     OW39466   2.600   3.880   6.805  0.3826  0.1344 -0.3795
 9336SOL    HW139467   2.581   3.826   6.882 -0.2541 -1.4509 -1.6408
 9336SOL    HW239468   2.694   3.894   6.808  0.0159  2.7422 -0.9085
 9337SOL     OW39469   2.044   2.600   9.676  0.2954 -0.0385 -0.2775
 9337SOL    HW139470   2.071   2.636   9.592 -0.2654  0.4617 -0.2390
 9337SOL    HW239471   1.987   2.529   9.648  0.0298  0.7613 -1.7461
 9338SOL     OW39472   3.613   1.266   2.685 -0.5847 -0.5137  0.2099
 9338SOL    HW139473   3.522   1.237   2.679 -1.1371  1.7030 -1.9505
 9338SOL    HW239474   3.647   1.231   2.603 -1.8938 -1.5021  0.0910
 9339SOL     OW39475   2.522   2.487  13.146 -0.2636 -0.0195  0.4117
 9339SOL    HW139476   2.518   2.535  13.063 -1.4523  3.1708  2.2928
 9339SOL    HW239477   2.616   2.488  13.163  0.0431 -1.4728 -1.1475
 9340SOL     OW39478   3.703   0.962   5.950 -0.5608 -0.2944  0.0446
 9340SOL    HW139479   3.774   0.898   5.958 -1.5033 -1.5653 -1.9743
 9340SOL    HW239480   3.681   0.977   6.042 -1.6719  0.2662 -0.3113
 9341SOL     OW39481   0.313   0.954   7.698  0.0347  0.1477 -0.9604
 9341SOL    HW139482   0.297   0.902   7.619 -1.6171  1.4023 -1.4472
 9341SOL    HW239483   0.381   0.899   7.737 -0.5080 -0.1453 -0.4384
 9342SOL     OW39484   1.893   0.719   9.677  0.3347  0.3292 -0.1977
 9342SOL    HW139485   1.904   0.671   9.759  0.0093  0.9201  0.1826
 9342SOL    HW239486   1.893   0.644   9.617  2.3099  0.2496 -0.1065
 9343SOL     OW39487   2.598   3.402   8.188 -0.2013  0.1408 -0.2588
 9343SOL    HW139488   2.684   3.362   8.194  0.6757  1.9186 -0.8942
 9343SOL    HW239489   2.540   3.326   8.195 -0.0227 -0.2353 -3.1062
 9344SOL     OW39490   0.019   0.040   7.486 -0.3787  0.4475 -0.3730
 9344SOL    HW139491   0.115   0.033   7.484 -0.1803  2.8631  0.0914
 9344SOL    HW239492   4.716   0.046   7.395  1.5136  1.1577 -0.9249
 9345SOL     OW39493   1.672   1.815  14.709 -0.2841 -0.4681 -0.5840
 9345SOL    HW139494   1.663   1.888  14.770 -0.1534 -1.1958  0.3065
 9345SOL    HW239495   1.596   1.766  14.740  0.4811 -1.2625  0.0214
 9346SOL     OW39496   0.737   1.468   9.037  0.2159  0.4469 -0.2585
 9346SOL    HW139497   0.706   1.531   8.973 -2.7145 -0.9079 -0.1423
 9346SOL    HW239498   0.657   1.439   9.081 -0.2185  1.2272 -0.5473
 9347SOL     OW39499   1.934   0.364  17.100  0.1529  0.4338 -0.3971
 9347SOL    HW139500   2.021   0.329  17.080  0.3924 -0.3243  1.9785
 9347SOL    HW239501   1.892   0.299  17.157  1.3922 -0.9880 -1.1109
 9348SOL     OW39502   2.519   3.077   0.480  0.6395 -0.1504  0.6072
 9348SOL    HW139503   2.450   3.054   0.543 -0.2816 -0.1477 -0.4186
 9348SOL    HW239504   2.600   3.096   0.527  0.9323 -0.7814  0.3585
 9349SOL     OW39505   4.566   2.730   5.259 -0.0417 -0.5595 -0.1746
 9349SOL    HW139506   4.597   2.782   5.333  0.8601  1.3032 -1.8437
 9349SOL    HW239507   4.647   2.695   5.222 -0.7475 -1.5245 -0.8076
 9350SOL     OW39508   4.713   1.593   3.712  0.3457  0.0759  0.4313
 9350SOL    HW139509   4.625   1.580   3.746 -0.5830  0.5242 -1.8273
 9350SOL    HW239510   0.018   1.661   3.772 -0.4065 -0.5720  1.5382
 9351SOL     OW39511   0.149   1.210   5.055 -0.1472 -0.3314 -0.1359
 9351SOL    HW139512   0.059   1.180   5.041  0.1918 -1.1872 -0.4435
 9351SOL    HW239513   0.155   1.305   5.046  2.0540 -0.7279 -2.7618
 9352SOL     OW39514   1.331   0.457   5.409 -0.3918  0.1104 -0.1651
 9352SOL    HW139515   1.239   0.474   5.389 -1.0593 -0.5645  2.3337
 9352SOL    HW239516   1.374   0.529   5.363  0.5037 -1.3957 -1.6834
 9353SOL     OW39517   3.436   0.288   3.258 -0.1084 -0.2411 -0.1662
 9353SOL    HW139518   3.366   0.244   3.210 -0.2822  1.5500 -1.5907
 9353SOL    HW239519   3.386   0.328   3.329 -1.9033 -2.2753 -0.3042
 9354SOL     OW39520   1.623   4.185   4.358 -0.2062  0.0731  0.5294
 9354SOL    HW139521   1.564   4.125   4.313 -0.1871 -0.4621  1.2179
 9354SOL    HW239522   1.662   4.146   4.436 -0.9546 -0.7334  0.4905
 9355SOL     OW39523   3.390   0.095   6.304  0.1961  0.1668  0.6728
 9355SOL    HW139524   3.380   0.180   6.262  0.6637 -0.9035 -1.6123
 9355SOL    HW239525   3.357   0.127   6.388  0.5788  3.4199 -0.4269
 9356SOL     OW39526   3.275   2.909  11.443 -0.1614  0.3544  0.0846
 9356SOL    HW139527   3.336   2.873  11.377  0.3031  1.8521 -0.2964
 9356SOL    HW239528   3.199   2.918  11.386 -0.5577 -1.5603  0.2908
 9357SOL     OW39529   1.823   1.844   0.851  0.2333  0.0434  0.0875
 9357SOL    HW139530   1.842   1.755   0.822  1.6782  0.7258 -1.1078
 9357SOL    HW239531   1.750   1.832   0.912 -0.5649  2.6667 -0.3195
 9358SOL     OW39532   2.903   1.802   6.546 -0.4118  0.4015 -0.3990
 9358SOL    HW139533   2.936   1.776   6.632 -1.9982 -0.6283 -0.1159
 9358SOL    HW239534   2.921   1.895   6.555  1.7766  0.0627 -1.2076
 9359SOL     OW39535   0.847   1.187   5.889 -0.2668  0.0209  0.1073
 9359SOL    HW139536   0.766   1.236   5.902  0.3146  1.0698 -0.1667
 9359SOL    HW239537   0.895   1.212   5.968  1.7844 -1.5665 -0.6554
 9360SOL     OW39538   2.449   3.985  10.165  0.1305 -0.7371  0.2514
 9360SOL    HW139539   2.520   4.027  10.214  0.4350 -0.3390 -0.5296
 9360SOL    HW239540   2.478   3.989  10.074  1.4487 -5.0410  0.4644
 9361SOL     OW39541   1.720   1.850   8.310 -0.2659  0.2433 -0.0903
 9361SOL    HW139542   1.720   1.858   8.405  2.7741 -0.8711  0.0061
 9361SOL    HW239543   1.799   1.802   8.286  0.2807  1.8226 -1.3727
 9362SOL     OW39544   4.598   0.517   8.408  0.1336  0.0091  0.9664
 9362SOL    HW139545   4.509   0.525   8.443 -1.4112 -3.2823 -2.1763
 9362SOL    HW239546   4.650   0.581   8.456  0.2893  1.6266 -1.3524
 9363SOL     OW39547   3.896   0.336   2.974 -0.5008  0.1569  0.0234
 9363SOL    HW139548   3.928   0.251   2.945  0.2908  0.8182 -1.0393
 9363SOL    HW239549   3.820   0.309   3.025 -0.8802 -0.4182 -0.8386
 9364SOL     OW39550   3.062   0.121   4.265 -0.4330 -0.4608  0.3916
 9364SOL    HW139551   3.117   0.043   4.260 -1.9099 -1.3403 -2.2539
 9364SOL    HW239552   3.047   0.129   4.359 -0.6526  1.3948  0.1993
 9365SOL     OW39553   0.587   1.104  12.772  0.0195 -1.0750 -0.0811
 9365SOL    HW139554   0.511   1.162  12.777  0.7851  0.0057 -0.6921
 9365SOL    HW239555   0.560   1.027  12.820 -0.7669  0.8184  2.4944
 9366SOL     OW39556   3.078   0.222   3.010 -0.0340  0.3425 -0.0868
 9366SOL    HW139557   3.031   0.141   2.990 -1.0017  1.1248 -0.9585
 9366SOL    HW239558   3.139   0.187   3.075  0.2452  0.5983 -0.2152
 9367SOL     OW39559   3.144   2.135   8.722  0.4620 -0.2482 -0.3696
 9367SOL    HW139560   3.114   2.220   8.688 -4.0419 -1.4284  0.6462
 9367SOL    HW239561   3.235   2.143   8.693  1.5211  1.0276  3.3137
 9368SOL     OW39562   2.927   2.047   5.838 -0.5948  0.3607 -0.0513
 9368SOL    HW139563   2.913   2.140   5.857  0.5128  0.5855 -0.3730
 9368SOL    HW239564   2.865   2.019   5.905 -1.0446  0.9301 -0.2165
 9369SOL     OW39565   2.887   2.949   2.421  0.9410  0.3137 -0.3893
 9369SOL    HW139566   2.812   2.891   2.406  0.2585  1.6529 -2.1443
 9369SOL    HW239567   2.875   3.000   2.341  1.7877  2.0247  0.5641
 9370SOL     OW39568   2.954   3.834   1.114 -0.2375 -0.1805  0.3677
 9370SOL    HW139569   2.920   3.752   1.152 -0.3290 -0.7768 -1.0035
 9370SOL    HW239570   2.919   3.822   1.026 -0.9198  0.0676  0.6054
 9371SOL     OW39571   1.714   3.299   2.982  0.4322 -0.2856  0.4851
 9371SOL    HW139572   1.713   3.210   3.016 -0.5948 -0.4239  0.0843
 9371SOL    HW239573   1.665   3.339   3.054 -0.4485  1.3602 -1.0105
 9372SOL     OW39574   2.269   4.169  12.234  0.5265 -0.3953 -0.3564
 9372SOL    HW139575   2.204   4.211  12.178 -2.4379 -1.2130  2.5249
 9372SOL    HW239576   2.346   4.179  12.178  0.1767  0.1283 -0.7389
 9373SOL     OW39577   1.935   3.573   7.904  0.4936  0.5675  0.0937
 9373SOL    HW139578   1.893   3.655   7.929  0.7507  0.5128  0.7206
 9373SOL    HW239579   1.859   3.527   7.867  1.3708 -0.7408 -0.0746
 9374SOL     OW39580   0.211   1.088  14.994 -0.5350  0.4684  0.1562
 9374SOL    HW139581   0.118   1.071  14.985 -0.5082  0.5444 -0.3057
 9374SOL    HW239582   0.223   1.136  14.912  0.9191  0.2872  0.2562
 9375SOL     OW39583   0.637   0.164   5.346 -0.5445  0.0573 -0.9626
 9375SOL    HW139584   0.585   0.180   5.267 -0.6249  0.5692 -0.8047
 9375SOL    HW239585   0.572   0.189   5.411 -0.3500  1.1040 -1.1827
 9376SOL     OW39586   2.581   0.290   2.168 -0.3480 -0.1187 -0.2352
 9376SOL    HW139587   2.530   0.240   2.231 -0.4662  1.3301  0.8190
 9376SOL    HW239588   2.508   0.343   2.134 -0.9918  0.4634  2.0864
 9377SOL     OW39589   1.097   0.436   8.152 -0.5379  0.5325 -0.2665
 9377SOL    HW139590   1.066   0.433   8.243  0.3842 -1.8836 -0.0441
 9377SOL    HW239591   1.046   0.358   8.130  0.5243 -0.3735  0.4831
 9378SOL     OW39592   3.390   3.110   9.386 -0.5536 -0.3634 -0.6643
 9378SOL    HW139593   3.364   3.073   9.471  0.2583 -0.4570 -0.4526
 9378SOL    HW239594   3.356   3.199   9.395  2.7471  0.8064  0.3759
 9379SOL     OW39595   2.366   1.209  14.930 -0.0057  0.3263 -0.0427
 9379SOL    HW139596   2.335   1.194  14.841 -3.9180 -0.6031  1.5090
 9379SOL    HW239597   2.319   1.149  14.987  0.3293 -0.5763 -0.7221
 9380SOL     OW39598   4.433   3.577   1.685  0.2846 -0.0439 -0.0120
 9380SOL    HW139599   4.382   3.632   1.744  0.3343  0.8217 -0.7774
 9380SOL    HW239600   4.382   3.587   1.605  2.1143 -1.1825 -1.3086
 9381SOL     OW39601   2.645   0.564   7.475  0.7541 -0.2332  0.5025
 9381SOL    HW139602   2.599   0.566   7.559 -1.6851  0.3447 -0.8648
 9381SOL    HW239603   2.603   0.488   7.436 -0.8970  1.0697 -0.2377
 9382SOL     OW39604   2.418   3.092   5.057  0.0701 -0.2617 -0.1273
 9382SOL    HW139605   2.463   3.023   5.106 -1.2242 -1.6573 -0.8812
 9382SOL    HW239606   2.393   3.145   5.132  1.5200  2.7352 -1.7884
 9383SOL     OW39607   0.213   2.530   3.453 -0.4595  0.7037 -0.3421
 9383SOL    HW139608   0.233   2.535   3.359 -1.0649  2.4053 -0.3900
 9383SOL    HW239609   0.257   2.447   3.468 -1.8409 -0.4506 -2.6107
 9384SOL     OW39610   0.388   1.635   1.499 -0.4335  0.1852 -0.3744
 9384SOL    HW139611   0.335   1.713   1.479 -0.3845  0.1566 -0.6067
 9384SOL    HW239612   0.358   1.612   1.587  0.3292 -0.0758 -0.1818
 9385SOL     OW39613   4.543   0.548  16.074 -0.0526 -0.0231 -0.3979
 9385SOL    HW139614   4.633   0.573  16.092 -0.3458  0.2196  0.7134
 9385SOL    HW239615   4.498   0.621  16.116  0.7227  0.6140 -0.6862
 9386SOL     OW39616   0.376   1.660   9.448 -0.5274 -0.3888 -0.1341
 9386SOL    HW139617   0.329   1.582   9.419  1.8142 -1.4414 -1.0827
 9386SOL    HW239618   0.401   1.703   9.366 -1.2677  0.7661  0.2492
 9387SOL     OW39619   1.218   1.773   3.533 -0.4175  0.3813 -0.2219
 9387SOL    HW139620   1.240   1.815   3.617  1.5624 -2.4781  0.6911
 9387SOL    HW239621   1.154   1.703   3.549  0.9712 -0.9266 -0.3343
 9388SOL     OW39622   3.305   1.670  16.120  0.1216 -0.9676 -0.2061
 9388SOL    HW139623   3.260   1.659  16.203 -1.6762  0.2642 -1.0367
 9388SOL    HW239624   3.332   1.578  16.109  0.4457 -0.6020 -2.4683
 9389SOL     OW39625   1.124   0.983  14.634  0.1245 -0.3578 -0.6146
 9389SOL    HW139626   1.036   1.004  14.603  0.8344  1.8618 -1.0829
 9389SOL    HW239627   1.126   1.033  14.715  0.7860  1.2353 -1.6115
 9390SOL     OW39628   4.232   1.547  16.109  0.4136  0.7257 -0.5493
 9390SOL    HW139629   4.201   1.574  16.196  1.9219  4.5175 -1.1958
 9390SOL    HW239630   4.186   1.463  16.108  0.5744  0.6183  1.1407
 9391SOL     OW39631   4.436   3.506  17.695 -0.1837  0.3185  0.6415
 9391SOL    HW139632   4.496   3.573  17.661  2.4281 -2.0830  0.5376
 9391SOL    HW239633   4.487   3.428  17.672  1.4025  1.6465 -0.3607
 9392SOL     OW39634   3.463   3.277   2.899 -0.0785  0.2439  0.0827
 9392SOL    HW139635   3.372   3.260   2.923 -0.3812  2.2409  0.3944
 9392SOL    HW239636   3.504   3.243   2.979  0.7751 -0.9542 -0.8669
 9393SOL     OW39637   0.008   4.545  17.490  1.1771 -0.2888  0.3653
 9393SOL    HW139638   0.024   4.592  17.408 -2.7103 -2.3651 -1.6198
 9393SOL    HW239639   0.061   4.601  17.547 -0.4639  1.2706  0.3643
 9394SOL     OW39640   1.565   1.944   2.507 -0.1214 -0.8109  0.6275
 9394SOL    HW139641   1.594   1.874   2.565  0.0161 -0.8919  0.4610
 9394SOL    HW239642   1.504   1.888   2.459 -0.2384 -1.2398  1.2697
 9395SOL     OW39643   4.011   0.694  10.789  0.4369  0.0114  0.3351
 9395SOL    HW139644   3.975   0.608  10.813  3.0748 -1.6835 -1.8075
 9395SOL    HW239645   3.999   0.738  10.874  1.0985  0.4097  0.2160
 9396SOL     OW39646   0.364   0.051  14.795 -0.2630  0.0002  0.2648
 9396SOL    HW139647   0.291   0.109  14.773  0.9997  1.3402 -0.3483
 9396SOL    HW239648   0.392   0.086  14.880  0.6661  2.0122 -0.8783
 9397SOL     OW39649   4.472   1.927   6.716  0.2587 -0.0049 -0.0958
 9397SOL    HW139650   4.467   1.867   6.642  2.1259 -0.7380  0.3710
 9397SOL    HW239651   4.553   1.898   6.759 -1.1713 -1.0197  1.9006
 9398SOL     OW39652   2.128   3.462   3.158 -0.0428 -0.1046 -0.0584
 9398SOL    HW139653   2.072   3.441   3.232 -0.7944  0.6380 -0.4116
 9398SOL    HW239654   2.079   3.433   3.081  1.2757 -0.6155 -0.7202
 9399SOL     OW39655   2.379   4.326   2.418  0.2725  0.1974  0.3874
 9399SOL    HW139656   2.324   4.259   2.376 -0.5134  1.4602 -0.5997
 9399SOL    HW239657   2.398   4.367   2.334  2.0328 -0.5419  0.4204
 9400SOL     OW39658   0.589   3.811   8.770 -0.4894  0.0331 -0.1813
 9400SOL    HW139659   0.497   3.823   8.748  0.2417  1.3604 -2.5469
 9400SOL    HW239660   0.604   3.718   8.755  0.4610 -0.0682  1.3476
 9401SOL     OW39661   2.273   2.971   5.933 -0.2399  0.5698  0.2803
 9401SOL    HW139662   2.250   3.043   5.875 -3.2457 -1.0392 -0.5083
 9401SOL    HW239663   2.333   3.015   5.993 -0.3691  1.0866  0.0289
 9402SOL     OW39664   0.264   1.141  13.736  0.1980  0.2199  0.5784
 9402SOL    HW139665   0.308   1.226  13.739 -0.4925  0.6037  0.0623
 9402SOL    HW239666   0.192   1.153  13.797  1.0925  1.3796  1.4182
 9403SOL     OW39667   4.230   4.544   7.450  0.4163  0.1463 -0.0582
 9403SOL    HW139668   4.174   4.504   7.517  0.0803 -2.8287 -2.1159
 9403SOL    HW239669   4.163   4.530   7.383 -0.6605  0.8953  0.8638
 9404SOL     OW39670   1.509   1.863   7.025  0.2407  0.8132 -0.2361
 9404SOL    HW139671   1.517   1.808   6.947 -0.8018  0.3188  0.0031
 9404SOL    HW239672   1.566   1.935   7.000  0.8761 -0.2467 -1.8645
 9405SOL     OW39673   0.605   1.183   6.166 -0.3171  0.2534  0.0300
 9405SOL    HW139674   0.687   1.134   6.175 -0.2343  0.2854 -0.5467
 9405SOL    HW239675   0.564   1.154   6.247  1.0208 -2.2472 -0.1967
 9406SOL     OW39676   4.280   4.303   0.152  0.0403 -0.4312 -0.6764
 9406SOL    HW139677   4.306   4.218   0.185 -0.1634 -0.8020 -1.4743
 9406SOL    HW239678   4.325   4.360   0.215 -1.9097  2.2670 -1.7066
 9407SOL     OW39679   4.313   0.983   6.423  0.1870  0.0250 -0.1092
 9407SOL    HW139680   4.302   1.064   6.373  1.6290 -0.1096 -0.6415
 9407SOL    HW239681   4.371   0.929   6.370 -1.9774 -0.0902 -2.3616
 9408SOL     OW39682   2.357   2.891  12.684  0.2005 -0.4558 -0.1248
 9408SOL    HW139683   2.332   2.983  12.674 -0.5633 -0.7056 -0.4677
 9408SOL    HW239684   2.421   2.888  12.612  0.7016  0.6114  0.2751
 9409SOL     OW39685   0.680   4.608  15.381 -0.9002 -0.1292 -0.5141
 9409SOL    HW139686   0.690   4.530  15.326 -0.7141  1.6350 -2.9879
 9409SOL    HW239687   0.594   4.587  15.418 -0.8460  1.3223  0.4464
 9410SOL     OW39688   3.276   1.820   5.577  0.2947 -0.7049 -0.1634
 9410SOL    HW139689   3.192   1.822   5.531  0.8557  0.6116 -1.1507
 9410SOL    HW239690   3.244   1.841   5.665  1.0022 -1.9312  0.3910
 9411SOL     OW39691   3.455   4.706   8.566 -0.4422  0.2139  0.7242
 9411SOL    HW139692   3.385   0.030   8.522  0.6065  0.3082 -0.8196
 9411SOL    HW239693   3.459   0.018   8.654  2.8551  0.5936  0.4053
 9412SOL     OW39694   2.897   0.020   8.579 -0.1267  0.4666  0.0856
 9412SOL    HW139695   2.905   4.698   8.662  4.7148  0.5124 -0.3774
 9412SOL    HW239696   2.808   4.719   8.555 -0.3949  0.6172  0.8968
 9413SOL     OW39697   0.638   0.495   8.627 -0.2867 -0.2544 -0.2539
 9413SOL    HW139698   0.721   0.449   8.637 -0.7545 -0.9386  0.4259
 9413SOL    HW239699   0.681   0.581   8.634  4.2659 -2.5127 -0.6145
 9414SOL     OW39700   1.163   1.326   0.989  0.0714 -0.5199 -0.2818
 9414SOL    HW139701   1.077   1.297   0.959  0.6381 -0.4746 -1.9715
 9414SOL    HW239702   1.204   1.243   1.011  0.7589 -0.6362 -2.0026
 9415SOL     OW39703   2.771   1.750   8.451 -0.0563 -0.0808  0.1174
 9415SOL    HW139704   2.805   1.774   8.365 -0.5975  0.5898  0.0877
 9415SOL    HW239705   2.843   1.771   8.510  1.7615 -0.7737 -1.8504
 9416SOL     OW39706   2.103   2.005   7.626 -0.2590  0.2643  0.9127
 9416SOL    HW139707   2.094   2.087   7.674  1.4371  2.5741 -2.7264
 9416SOL    HW239708   2.199   1.999   7.619 -0.3934 -1.1333  0.1539
 9417SOL     OW39709   0.526   4.718   9.534  0.2895 -0.0698  0.3129
 9417SOL    HW139710   0.438   0.018   9.561 -0.1988 -2.3668  0.8782
 9417SOL    HW239711   0.561   4.667   9.607 -3.3476 -2.6539  0.2392
 9418SOL     OW39712   2.611   2.813   8.793 -0.5699 -0.6578 -0.4944
 9418SOL    HW139713   2.521   2.822   8.825 -0.0957 -1.2487  1.0008
 9418SOL    HW239714   2.652   2.897   8.809 -2.9953  0.2701  0.8112
 9419SOL     OW39715   1.763   2.335   2.150  0.4157 -0.0921 -0.0230
 9419SOL    HW139716   1.676   2.375   2.150 -0.4077 -1.8681  1.7826
 9419SOL    HW239717   1.767   2.304   2.240 -2.1854 -3.2918 -0.9676
 9420SOL     OW39718   0.607   1.181   8.342  0.0909 -0.4466  0.3428
 9420SOL    HW139719   0.530   1.211   8.391 -0.8176  1.8409 -2.4626
 9420SOL    HW239720   0.664   1.256   8.358 -0.2832  0.0050 -0.4273
 9421SOL     OW39721   4.414   2.422   9.493  0.3578  0.2538  0.5380
 9421SOL    HW139722   4.322   2.402   9.476 -0.0501  2.6402 -0.1150
 9421SOL    HW239723   4.431   2.365   9.568 -0.2295  0.7274  1.0382
 9422SOL     OW39724   2.065   2.318   4.705 -0.4766  0.5760  0.0004
 9422SOL    HW139725   2.123   2.310   4.629 -0.7525  0.2841 -0.1818
 9422SOL    HW239726   2.093   2.404   4.737  1.6762 -0.2464  0.2881
 9423SOL     OW39727   1.652   1.510   7.735 -0.0308 -0.5032 -0.4296
 9423SOL    HW139728   1.716   1.556   7.682 -0.9517  1.3848  0.0853
 9423SOL    HW239729   1.672   1.558   7.816  0.8934  1.2314 -1.6868
 9424SOL     OW39730   4.063   3.346  13.826 -0.7161 -0.4228  0.1293
 9424SOL    HW139731   4.026   3.383  13.746  0.7519  1.4709  0.3145
 9424SOL    HW239732   4.005   3.388  13.889 -0.5034  0.3512 -0.1966
 9425SOL     OW39733   0.797   2.027  10.520 -0.3573 -0.2793  0.1093
 9425SOL    HW139734   0.880   2.034  10.472  1.0421 -1.4374  2.3396
 9425SOL    HW239735   0.793   1.944  10.568  2.2653 -1.5087 -1.7966
 9426SOL     OW39736   3.027   3.429  14.078 -0.0461  0.0900  0.3480
 9426SOL    HW139737   2.992   3.370  14.144 -0.1428  3.0700  2.9008
 9426SOL    HW239738   3.067   3.490  14.139  1.1481  0.1980 -0.5330
 9427SOL     OW39739   0.278   1.330   3.814 -0.0100 -0.4946  0.7888
 9427SOL    HW139740   0.273   1.358   3.722  1.9416  0.0549  0.8564
 9427SOL    HW239741   0.272   1.418   3.851 -1.0965 -0.2020 -0.0754
 9428SOL     OW39742   0.577   3.979  17.371 -0.1665  0.1957 -0.0525
 9428SOL    HW139743   0.565   4.069  17.403  1.9951  0.5752 -0.3405
 9428SOL    HW239744   0.512   3.934  17.425 -0.1570  0.3125  0.0573
 9429SOL     OW39745   3.356   4.590   5.779 -0.0809  0.1838 -0.4399
 9429SOL    HW139746   3.345   4.506   5.825  3.0724  0.3941  0.6428
 9429SOL    HW239747   3.352   4.650   5.853  0.3955 -0.9070  0.4614
 9430SOL     OW39748   0.251   3.139  10.038 -0.6531  0.3688 -0.5673
 9430SOL    HW139749   0.191   3.169  10.105 -0.9146  1.8555 -1.4723
 9430SOL    HW239750   0.213   3.052  10.021 -1.0055  0.1430  1.3686
 9431SOL     OW39751   4.133   1.951   8.437 -0.0274 -0.2258 -0.1401
 9431SOL    HW139752   4.079   2.015   8.389  2.1630  2.1025  0.5069
 9431SOL    HW239753   4.084   1.871   8.418  0.0729 -0.0694 -1.0834
 9432SOL     OW39754   4.010   3.748  10.459  0.2254 -0.0721 -0.0665
 9432SOL    HW139755   4.052   3.832  10.437 -1.2499  0.6735 -0.0710
 9432SOL    HW239756   3.917   3.770  10.447  0.9769  3.0114 -0.2542
 9433SOL     OW39757   0.187   1.508  17.426 -0.3754  0.3845  0.4054
 9433SOL    HW139758   0.266   1.535  17.474  0.0651 -0.8683  0.3814
 9433SOL    HW239759   0.138   1.466  17.498 -0.5524 -1.9963 -1.0997
 9434SOL     OW39760   4.332   1.201   5.562 -0.5520  0.2071 -0.0444
 9434SOL    HW139761   4.299   1.290   5.567 -1.4037  0.0948 -3.8456
 9434SOL    HW239762   4.427   1.214   5.565 -0.3343 -1.0620 -1.5096
 9435SOL     OW39763   3.531   3.270   6.014 -0.2163 -0.2833  0.2398
 9435SOL    HW139764   3.514   3.191   6.065  0.1276  0.1315  0.9990
 9435SOL    HW239765   3.593   3.318   6.069  1.0869 -0.2548 -1.2665
 9436SOL     OW39766   3.932   0.621   7.256  0.0990  0.2890 -0.0340
 9436SOL    HW139767   3.962   0.668   7.178 -0.2708 -0.2861 -0.5224
 9436SOL    HW239768   3.918   0.533   7.221  0.1585  1.5777 -3.3029
 9437SOL     OW39769   1.749   3.366  15.704  0.2130 -0.3785  0.1007
 9437SOL    HW139770   1.724   3.333  15.617 -1.1369  0.4448  0.1720
 9437SOL    HW239771   1.688   3.438  15.718 -1.5115 -2.2895  2.5084
 9438SOL     OW39772   0.844   2.588   6.142 -0.5541 -0.2951  0.5147
 9438SOL    HW139773   0.755   2.614   6.166 -1.7794 -1.8736 -2.2970
 9438SOL    HW239774   0.877   2.528   6.208 -0.8154  0.9659  1.7856
 9439SOL     OW39775   0.376   3.595   2.501 -0.2084 -0.5349 -0.1916
 9439SOL    HW139776   0.283   3.617   2.503  0.1646  1.0218 -0.1412
 9439SOL    HW239777   0.410   3.673   2.545 -2.6183 -0.3297  1.3103
 9440SOL     OW39778   2.247   4.142   2.256 -0.1225  0.1890 -0.0927
 9440SOL    HW139779   2.180   4.150   2.189  1.5617 -0.4516 -1.8774
 9440SOL    HW239780   2.254   4.046   2.261 -0.6331  0.2121  1.0235
 9441SOL     OW39781   2.588   3.836   2.459  0.1011 -0.3103  0.6661
 9441SOL    HW139782   2.604   3.930   2.467  1.5910 -0.8147  3.5065
 9441SOL    HW239783   2.553   3.830   2.370  1.8414  0.9997 -0.1208
 9442SOL     OW39784   3.362   4.021   6.277 -0.0712  0.0029 -0.1280
 9442SOL    HW139785   3.344   4.113   6.295 -0.5416 -0.2863  0.8635
 9442SOL    HW239786   3.274   3.998   6.247  1.2668 -1.7779 -2.7246
 9443SOL     OW39787   0.846   4.699   8.896 -0.1754  0.3953 -0.0219
 9443SOL    HW139788   0.821   0.028   8.821  0.2183 -0.4465 -0.7575
 9443SOL    HW239789   0.907   0.025   8.949 -0.8795  1.7374 -0.4826
 9444SOL     OW39790   1.755   2.683   9.572 -0.2513  0.2573 -0.2920
 9444SOL    HW139791   1.801   2.607   9.536 -0.9997  0.5265 -1.8331
 9444SOL    HW239792   1.677   2.649   9.617 -1.1879  2.9112  0.0836
 9445SOL     OW39793   3.201   4.325  11.542 -0.3782 -0.5841  0.9678
 9445SOL    HW139794   3.227   4.384  11.612  0.5935 -0.8659  0.8439
 9445SOL    HW239795   3.140   4.268  11.589 -0.2474 -2.9621 -1.7178
 9446SOL     OW39796   0.190   2.566   6.716  0.5283 -0.6526 -0.0307
 9446SOL    HW139797   0.151   2.629   6.778  1.0192  1.4626 -1.8680
 9446SOL    HW239798   0.146   2.482   6.730  0.1227 -0.2302  1.2821
 9447SOL     OW39799   3.869   4.550   3.069 -0.0658  0.3271  0.6329
 9447SOL    HW139800   3.786   4.533   3.113 -0.1099 -0.2144  0.3290
 9447SOL    HW239801   3.922   4.475   3.095 -2.5403 -1.0155  1.7587
 9448SOL     OW39802   3.751   1.620   5.816 -0.3909 -0.3238 -0.3131
 9448SOL    HW139803   3.765   1.658   5.729 -1.0024 -0.9750 -0.6996
 9448SOL    HW239804   3.686   1.681   5.852  0.3728  0.0860  0.3578
 9449SOL     OW39805   4.554   4.071   7.598 -0.2717 -0.2362  0.6862
 9449SOL    HW139806   4.578   4.035   7.683  0.7966 -0.6513  0.2069
 9449SOL    HW239807   4.633   4.114   7.565  0.2655 -1.2267  0.6648
 9450SOL     OW39808   1.977   2.624   3.158 -0.1261  0.2802  0.1469
 9450SOL    HW139809   2.043   2.567   3.197  0.4920  0.9809  0.1095
 9450SOL    HW239810   1.979   2.593   3.068  0.4878 -1.0201  0.6117
 9451SOL     OW39811   2.538   2.838   1.122  0.1711 -0.4946 -0.1457
 9451SOL    HW139812   2.537   2.928   1.155 -1.6797 -0.7426  0.4608
 9451SOL    HW239813   2.603   2.847   1.052  1.1497 -4.0040  0.3140
 9452SOL     OW39814   1.371   1.549   0.911 -0.3966  0.4561 -0.0195
 9452SOL    HW139815   1.296   1.590   0.955  0.6644  0.8036  1.4859
 9452SOL    HW239816   1.420   1.503   0.980 -0.0371  0.0790 -0.5285
 9453SOL     OW39817   3.855   3.581  12.922 -0.0670 -0.3644  0.0995
 9453SOL    HW139818   3.764   3.549  12.922 -0.8927  2.0266 -2.2967
 9453SOL    HW239819   3.861   3.652  12.986 -1.4490  0.9671 -1.2439
 9454SOL     OW39820   1.276   1.417   6.694 -0.3407  0.1792 -0.5703
 9454SOL    HW139821   1.330   1.357   6.745  0.4196  2.8677  1.7792
 9454SOL    HW239822   1.197   1.402   6.746  0.7205  1.0567  1.2701
 9455SOL     OW39823   0.541   0.279  15.256 -0.3454 -0.2007  0.2357
 9455SOL    HW139824   0.575   0.368  15.264 -1.7105  0.3513 -0.0015
 9455SOL    HW239825   0.617   0.225  15.277  1.2718  2.6582  1.7862
 9456SOL     OW39826   3.628   2.819   3.916  0.1206 -0.1060  0.1299
 9456SOL    HW139827   3.549   2.799   3.966 -0.1310  0.5099 -0.0288
 9456SOL    HW239828   3.695   2.771   3.965  1.8116  0.5337 -1.5473
 9457SOL     OW39829   2.778   0.444  14.096 -0.1486  0.1452  0.4495
 9457SOL    HW139830   2.852   0.468  14.039 -0.3525  0.8389  0.4712
 9457SOL    HW239831   2.796   0.350  14.099 -4.0143 -0.5334  2.2668
 9458SOL     OW39832   2.432   0.440   6.094  0.0098  0.3697  0.3539
 9458SOL    HW139833   2.527   0.440   6.083 -0.2322 -0.4940 -1.6014
 9458SOL    HW239834   2.409   0.521   6.050 -0.2655  0.5661  0.8604
 9459SOL     OW39835   2.233   3.974  12.917  0.6399 -0.9151 -0.3056
 9459SOL    HW139836   2.237   3.939  13.007  1.5052  0.4167  0.1685
 9459SOL    HW239837   2.279   4.057  12.927 -1.9371  0.5676 -0.7552
 9460SOL     OW39838   0.637   1.921  13.279  0.1655 -0.0830  0.0531
 9460SOL    HW139839   0.602   2.003  13.315  2.3680 -0.3562  2.8097
 9460SOL    HW239840   0.727   1.946  13.258  0.0971  0.8993  0.9441
 9461SOL     OW39841   2.126   2.540  14.962 -0.0717 -0.5796  0.4939
 9461SOL    HW139842   2.162   2.526  15.050  1.0058 -2.3775 -0.2177
 9461SOL    HW239843   2.041   2.497  14.968 -0.4718  0.1439 -0.0612
 9462SOL     OW39844   4.023   4.648  11.467  0.4889 -0.2580 -0.0374
 9462SOL    HW139845   3.961   4.705  11.513 -0.7904 -0.6584 -1.2910
 9462SOL    HW239846   4.032   4.568  11.520  1.0785 -0.2146 -0.0680
 9463SOL     OW39847   2.097   3.505   4.214  0.0658  0.4700 -0.8230
 9463SOL    HW139848   2.117   3.596   4.237 -0.1977  0.1739  0.5668
 9463SOL    HW239849   2.092   3.521   4.119  0.3522  1.3076 -0.7014
 9464SOL     OW39850   0.697   1.410   4.299  0.4186  0.6145  0.0042
 9464SOL    HW139851   0.782   1.447   4.276  0.5823  0.5900  0.5799
 9464SOL    HW239852   0.643   1.487   4.282 -1.5428 -0.9777 -0.9697
 9465SOL     OW39853   2.231   4.658   5.682 -0.0950  0.2668  0.3750
 9465SOL    HW139854   2.291   0.003   5.707  1.1608 -0.4905 -0.4278
 9465SOL    HW239855   2.284   4.622   5.610 -0.1241  1.1338 -0.0755
 9466SOL     OW39856   2.442   0.042   4.061 -0.4235 -0.0779  0.3723
 9466SOL    HW139857   2.377   0.060   4.129 -0.3996 -2.3193  0.9972
 9466SOL    HW239858   2.398   4.695   4.015  0.9492 -2.0111  2.0210
 9467SOL     OW39859   2.807   0.520   4.025 -0.2097 -0.4541 -0.5414
 9467SOL    HW139860   2.781   0.495   3.937 -0.0087 -0.5868 -0.5629
 9467SOL    HW239861   2.858   0.442   4.045  1.6809  1.0507  0.6066
 9468SOL     OW39862   4.683   3.693   4.379 -0.2389  0.4002 -0.2328
 9468SOL    HW139863   4.604   3.672   4.329  0.4963 -1.2359 -0.6805
 9468SOL    HW239864   4.720   3.752   4.314 -0.0263 -0.7810 -1.1702
 9469SOL     OW39865   2.858   3.399  12.353 -0.6485 -0.0422 -0.2472
 9469SOL    HW139866   2.949   3.419  12.375 -0.7868 -0.6382  0.8576
 9469SOL    HW239867   2.885   3.370  12.266  0.6399  1.8292 -0.4800
 9470SOL     OW39868   4.469   2.202   8.438  0.5099 -0.8517 -0.4553
 9470SOL    HW139869   4.537   2.256   8.397  0.0819 -1.1907 -1.6325
 9470SOL    HW239870   4.505   2.113   8.443 -0.4887 -1.3176 -1.5675
 9471SOL     OW39871   3.309   3.114   7.652 -0.3148 -0.2861 -0.0010
 9471SOL    HW139872   3.323   3.105   7.558  0.2605 -0.8609  0.1347
 9471SOL    HW239873   3.267   3.200   7.650 -1.4017 -0.7512  2.2865
 9472SOL     OW39874   4.558   4.309  15.606 -0.0991  0.0565 -0.0374
 9472SOL    HW139875   4.641   4.288  15.563 -0.8979  1.4523 -2.2428
 9472SOL    HW239876   4.500   4.304  15.530  1.1585 -2.1476 -0.8564
 9473SOL     OW39877   1.903   1.738   6.523 -0.1646  0.1894 -0.3796
 9473SOL    HW139878   1.814   1.708   6.537 -0.7186  1.4785 -1.0847
 9473SOL    HW239879   1.943   1.734   6.610 -0.3873 -1.5433 -0.3613
 9474SOL     OW39880   4.717   3.712   5.135 -0.3419  0.0591 -0.3316
 9474SOL    HW139881   4.672   3.788   5.100 -2.5902 -1.4808 -0.7903
 9474SOL    HW239882   4.673   3.638   5.093  1.6377 -0.5508 -1.3200
 9475SOL     OW39883   3.692   0.099   1.469  0.3079  0.3553 -0.2056
 9475SOL    HW139884   3.769   0.156   1.473 -0.5545  1.4134  1.5683
 9475SOL    HW239885   3.633   0.150   1.525 -1.2150 -2.4400  0.7529
 9476SOL     OW39886   2.777   2.179   6.780 -0.0057  0.7560 -0.1997
 9476SOL    HW139887   2.850   2.238   6.766  3.0958 -2.6345  1.7174
 9476SOL    HW239888   2.729   2.169   6.697  0.0356  0.5657 -0.2016
 9477SOL     OW39889   1.584   1.485   3.543 -0.2265  0.8219 -0.5913
 9477SOL    HW139890   1.582   1.413   3.480 -0.0606  1.0400 -0.8480
 9477SOL    HW239891   1.546   1.561   3.499  0.0441  0.9532 -0.6002
 9478SOL     OW39892   2.350   2.492   4.940 -0.0827  0.3085 -0.0814
 9478SOL    HW139893   2.417   2.507   4.873  0.7031  1.2705  0.9250
 9478SOL    HW239894   2.297   2.568   4.914 -0.7037 -0.5663 -1.4028
 9479SOL     OW39895   3.196   0.340   7.665  0.1342 -0.4061  0.0987
 9479SOL    HW139896   3.163   0.426   7.691  1.1303  0.4788 -1.5254
 9479SOL    HW239897   3.292   0.343   7.658  0.0831  2.3903  0.4959
 9480SOL     OW39898   0.006   4.533  16.155  0.4602  0.5757  0.0419
 9480SOL    HW139899   4.647   4.565  16.122  0.5105  1.0764  0.4041
 9480SOL    HW239900   0.019   4.570  16.242  1.3334  1.9708 -0.6931
 9481SOL     OW39901   0.115   2.029   5.768 -0.2851  0.0340 -0.1001
 9481SOL    HW139902   0.153   2.107   5.808  1.9929 -2.0545  1.8110
 9481SOL    HW239903   0.103   2.048   5.675 -0.3726  0.1841 -0.0586
 9482SOL     OW39904   1.296   1.419   5.090  0.1066 -0.1011 -0.0327
 9482SOL    HW139905   1.360   1.444   5.024 -0.9666 -1.5497 -1.6324
 9482SOL    HW239906   1.235   1.492   5.102 -0.0057  0.2613 -2.7186
 9483SOL     OW39907   1.230   3.889   6.953  0.0551  0.2600 -0.3307
 9483SOL    HW139908   1.309   3.846   6.920  0.0395  0.1844 -0.2705
 9483SOL    HW239909   1.164   3.849   6.896 -0.0871 -1.4513  1.0310
 9484SOL     OW39910   2.558   2.705   9.487 -0.0096  0.0370 -0.0191
 9484SOL    HW139911   2.509   2.725   9.567  1.4439  0.1246  0.8573
 9484SOL    HW239912   2.644   2.681   9.523  0.0178 -1.1217 -0.8569
 9485SOL     OW39913   2.030   1.987   9.177 -0.5248 -0.5142  0.1624
 9485SOL    HW139914   2.067   2.063   9.221  0.1112 -1.7647  1.7955
 9485SOL    HW239915   1.975   2.018   9.105 -1.6762 -0.8865  0.8821
 9486SOL     OW39916   4.657   4.486   4.434 -0.0654 -0.4530 -0.4950
 9486SOL    HW139917   0.010   4.481   4.489 -0.4191 -2.8842 -0.2291
 9486SOL    HW239918   4.694   4.477   4.346 -0.3353 -2.9343 -0.3460
 9487SOL     OW39919   3.609   2.877   0.412 -0.0884 -0.0190 -0.1132
 9487SOL    HW139920   3.700   2.907   0.408  0.1753 -0.6330  0.9528
 9487SOL    HW239921   3.617   2.788   0.447 -0.8539  0.6200  1.6909
 9488SOL     OW39922   3.704   2.817   3.659  0.0520  0.1341 -0.1417
 9488SOL    HW139923   3.646   2.893   3.652 -0.2544 -0.0675  0.2675
 9488SOL    HW239924   3.684   2.803   3.751 -1.5713  0.8440 -0.3916
 9489SOL     OW39925   3.529   1.017   8.623  0.0828  0.2253  0.5661
 9489SOL    HW139926   3.475   1.025   8.701 -0.2440 -0.3605  0.4038
 9489SOL    HW239927   3.530   1.110   8.600 -3.1835  0.1360  0.0304
 9490SOL     OW39928   0.945   2.401   8.821  0.1382  0.0575  0.0438
 9490SOL    HW139929   0.877   2.414   8.755 -0.6888 -5.4302 -0.2185
 9490SOL    HW239930   0.932   2.307   8.833  2.9262 -0.4385 -0.7403
 9491SOL     OW39931   3.225   2.809   8.552 -0.1838  0.5283 -0.1007
 9491SOL    HW139932   3.261   2.897   8.541 -1.9901  1.6408  2.7160
 9491SOL    HW239933   3.307   2.765   8.574 -0.5406 -1.1111 -2.0622
 9492SOL     OW39934   2.062   2.678   8.514  0.0616 -0.5638  0.0210
 9492SOL    HW139935   2.116   2.727   8.451 -0.4325  0.1528  0.1500
 9492SOL    HW239936   2.051   2.745   8.582 -0.8179 -0.8972  0.1929
 9493SOL     OW39937   2.326   4.235   5.954  0.0808 -0.0853  0.1431
 9493SOL    HW139938   2.311   4.288   6.033  1.7876  2.0234 -0.9488
 9493SOL    HW239939   2.236   4.238   5.921 -0.5307  0.3977  1.8577
 9494SOL     OW39940   3.139   2.216   4.044  0.4694  0.5272  0.3592
 9494SOL    HW139941   3.064   2.261   4.084 -1.4414 -1.2391 -1.2139
 9494SOL    HW239942   3.101   2.153   3.982 -0.4133  2.1445 -0.7327
 9495SOL     OW39943   4.095   4.668   7.856 -0.0759  0.0661  0.2498
 9495SOL    HW139944   4.182   4.682   7.819  0.5646 -2.4674  0.7746
 9495SOL    HW239945   4.067   4.588   7.810  0.5350 -0.8926  1.5288
 9496SOL     OW39946   1.541   0.769   9.251  0.1000 -0.0829 -0.3227
 9496SOL    HW139947   1.461   0.728   9.218 -0.8423  1.2043  0.3534
 9496SOL    HW239948   1.519   0.857   9.220  2.1969 -0.0047 -1.5989
 9497SOL     OW39949   3.512   4.063   6.661 -0.7862  0.0704  0.2574
 9497SOL    HW139950   3.521   3.968   6.654 -0.3179  0.3401 -2.6303
 9497SOL    HW239951   3.494   4.059   6.755  1.4182  0.9769  0.7263
 9498SOL     OW39952   3.317   2.156  10.075 -0.4776  0.4592 -0.3891
 9498SOL    HW139953   3.264   2.090  10.120 -1.5298  2.9733  2.0823
 9498SOL    HW239954   3.282   2.239  10.109 -0.5204  0.0190  0.6367
 9499SOL     OW39955   2.905   2.682   8.776  0.1399 -0.3936 -0.9642
 9499SOL    HW139956   2.843   2.680   8.849  2.5382  0.4671  1.0832
 9499SOL    HW239957   2.982   2.695   8.831  0.4969  0.4735 -1.6822
 9500SOL     OW39958   1.120   3.167  12.304 -0.3315  0.1927 -0.3193
 9500SOL    HW139959   1.194   3.227  12.288  0.2335 -0.3451  0.2783
 9500SOL    HW239960   1.137   3.099  12.239 -1.1318 -0.8601  0.5729
 9501SOL     OW39961   4.557   2.119   7.473  0.1205  0.6269 -0.1540
 9501SOL    HW139962   4.499   2.113   7.548  1.2690  0.9574  0.7616
 9501SOL    HW239963   4.641   2.142   7.513 -0.2912  0.0779  1.0235
 9502SOL     OW39964   0.712   0.326   8.254 -0.1898 -0.0403 -0.2353
 9502SOL    HW139965   0.705   0.289   8.342  1.7648 -1.3778 -0.6497
 9502SOL    HW239966   0.627   0.323   8.210  0.6141 -0.9107 -1.7319
 9503SOL     OW39967   1.606   3.903  16.062 -0.1681 -0.3086  0.4536
 9503SOL    HW139968   1.549   3.829  16.084  0.9333 -1.6816 -1.3104
 9503SOL    HW239969   1.538   3.970  16.057  2.6988  2.5267  0.0328
 9504SOL     OW39970   0.870   3.333   6.986  0.1169  0.0362 -0.0215
 9504SOL    HW139971   0.838   3.333   7.076 -0.9500  2.8991 -0.4036
 9504SOL    HW239972   0.788   3.310   6.942 -0.9975 -0.3424  2.2514
 9505SOL     OW39973   4.201   3.887   6.370 -0.3043  0.2081  0.2079
 9505SOL    HW139974   4.169   3.833   6.299  4.0382 -0.7913 -0.9620
 9505SOL    HW239975   4.269   3.828   6.404  0.6673  1.7217  0.9164
 9506SOL     OW39976   4.467   3.211   8.109 -0.0924 -0.1651  0.5068
 9506SOL    HW139977   4.479   3.240   8.199 -0.3569  2.4143 -0.2947
 9506SOL    HW239978   4.385   3.162   8.119 -0.2505  0.3658  1.7858
 9507SOL     OW39979   1.365   2.912  12.226  0.3965 -0.8275 -0.3274
 9507SOL    HW139980   1.368   2.825  12.187  2.1500 -0.5186 -0.8981
 9507SOL    HW239981   1.328   2.964  12.155  0.4141  1.6599  1.4560
 9508SOL     OW39982   1.974   3.911  10.530 -0.0403  0.2172  0.3796
 9508SOL    HW139983   1.899   3.864  10.567  0.7737 -2.6217 -1.6341
 9508SOL    HW239984   2.031   3.836  10.516  2.2065  2.5070 -2.7965
 9509SOL     OW39985   0.733   3.459  16.441  0.3260 -0.1289 -0.4778
 9509SOL    HW139986   0.680   3.477  16.518  2.0091 -0.7351  0.8093
 9509SOL    HW239987   0.696   3.526  16.384  0.8743  0.3002 -0.3296
 9510SOL     OW39988   2.183   0.043   9.713  0.3156 -0.0265 -0.0954
 9510SOL    HW139989   2.211   0.011   9.798 -0.5356  0.2197  0.2775
 9510SOL    HW239990   2.165   4.686   9.667 -1.6449 -0.0632  0.7277
 9511SOL     OW39991   0.311   0.382   1.164 -0.0410  0.1425  0.3587
 9511SOL    HW139992   0.338   0.308   1.109  0.0411  0.8209 -0.5221
 9511SOL    HW239993   0.262   0.335   1.231 -1.8742  0.3457 -0.8380
 9512SOL     OW39994   3.820   2.184   3.928 -0.2173 -0.4708 -0.4322
 9512SOL    HW139995   3.787   2.194   4.018  2.2624  0.2066  0.3966
 9512SOL    HW239996   3.741   2.203   3.877  0.0195  0.0701 -0.5981
 9513SOL     OW39997   1.752   3.414   6.062 -0.4224 -0.3289  0.0930
 9513SOL    HW139998   1.828   3.470   6.046 -0.4082 -0.4047 -0.1089
 9513SOL    HW239999   1.779   3.353   6.131 -0.9474  0.8137  1.3161
 9514SOL     OW40000   3.547   3.524   4.925  0.8469  0.1711  0.3561
 9514SOL    HW140001   3.539   3.607   4.879  1.8115  0.8616  1.4536
 9514SOL    HW240002   3.598   3.478   4.859  2.2276 -0.7935  2.0841
 9515SOL     OW40003   0.592   2.694   3.565 -0.1130 -0.5985  0.0544
 9515SOL    HW140004   0.622   2.667   3.652  2.1306  1.6574 -0.0213
 9515SOL    HW240005   0.510   2.736   3.593  0.2316  0.0943  0.0341
 9516SOL     OW40006   3.606   1.215   7.022 -0.3333 -0.8275 -0.0988
 9516SOL    HW140007   3.673   1.148   7.002  0.4471  0.8169 -3.0733
 9516SOL    HW240008   3.646   1.264   7.093  1.1552  0.0592 -1.5339
 9517SOL     OW40009   4.449   3.760   0.316  0.1502 -0.3487 -0.0034
 9517SOL    HW140010   4.524   3.714   0.280  0.4545 -0.4337  0.7312
 9517SOL    HW240011   4.460   3.726   0.405  0.6444  2.1276  0.8837
 9518SOL     OW40012   0.433   2.424  13.416 -0.5852 -0.4832 -0.5640
 9518SOL    HW140013   0.376   2.397  13.345  0.6793  1.5307 -2.3307
 9518SOL    HW240014   0.374   2.422  13.491 -0.0908  0.4446 -0.1463
 9519SOL     OW40015   3.743   2.611   7.302 -0.0015 -0.0932 -0.3735
 9519SOL    HW140016   3.655   2.645   7.318 -0.3963 -0.8234 -1.0120
 9519SOL    HW240017   3.752   2.549   7.374 -0.2348  1.5132  1.0581
 9520SOL     OW40018   1.052   0.315   4.465 -0.0005  0.1581 -0.4537
 9520SOL    HW140019   1.011   0.308   4.551  0.3961  1.0790 -0.1996
 9520SOL    HW240020   1.030   0.407   4.451  0.8492  0.6847  1.7728
 9521SOL     OW40021   4.649   4.219  12.550 -0.0138 -0.0718 -1.1860
 9521SOL    HW140022   4.683   4.141  12.506 -0.7102 -1.2535  0.3681
 9521SOL    HW240023   4.669   4.197  12.641  2.6620  0.4989 -1.6241
 9522SOL     OW40024   2.808   4.512  12.445  0.0896  0.4441 -0.1076
 9522SOL    HW140025   2.799   4.605  12.422  0.9734  0.5720  0.0850
 9522SOL    HW240026   2.886   4.496  12.392  0.8993 -0.4689  1.3886
 9523SOL     OW40027   4.614   4.425  15.920  0.2203  0.0785 -0.1525
 9523SOL    HW140028   4.571   4.340  15.914 -2.2933  1.3394  0.1101
 9523SOL    HW240029   4.653   4.405  16.005 -0.0460  0.3990  0.0420
 9524SOL     OW40030   3.870   1.385  17.181  0.3993 -0.4923 -0.2499
 9524SOL    HW140031   3.830   1.325  17.245 -1.3434  2.7993  1.7124
 9524SOL    HW240032   3.876   1.324  17.107 -1.6564  0.6929 -1.3946
 9525SOL     OW40033   2.628   3.015   3.009  0.3320  0.5213  0.6122
 9525SOL    HW140034   2.647   3.032   3.101  1.6890  2.0427  0.0558
 9525SOL    HW240035   2.679   3.087   2.972 -0.3046  1.8976  2.4503
 9526SOL     OW40036   1.895   2.376  14.993 -0.8365 -0.3287 -1.0395
 9526SOL    HW140037   1.838   2.369  15.069 -0.3837  2.9271 -0.4087
 9526SOL    HW240038   1.876   2.467  14.970  1.8717  0.8952  1.6248
 9527SOL     OW40039   3.057   3.340   1.969  0.2238 -0.1523 -0.4747
 9527SOL    HW140040   3.117   3.326   2.043 -1.5222  1.1026  1.1599
 9527SOL    HW240041   3.077   3.261   1.918  0.6718  0.3082 -1.0069
 9528SOL     OW40042   0.947   0.518   7.501  0.0770 -0.0237  0.0932
 9528SOL    HW140043   1.026   0.538   7.451  1.0004 -1.4447  0.9766
 9528SOL    HW240044   0.900   0.600   7.509  0.0543  0.0892 -1.2183
 9529SOL     OW40045   4.496   4.262   4.417  0.0222  0.1811 -0.3753
 9529SOL    HW140046   4.546   4.339   4.445  1.8348 -1.8462  2.0245
 9529SOL    HW240047   4.409   4.266   4.457  0.1832 -1.0877  0.1236
 9530SOL     OW40048   4.665   1.844   4.603 -0.1806 -0.1343  0.1595
 9530SOL    HW140049   4.595   1.802   4.652 -3.0375  3.3237 -0.9526
 9530SOL    HW240050   4.663   1.929   4.646  0.0407  0.6284 -1.3224
 9531SOL     OW40051   0.057   3.285  13.839 -0.1952  0.1492 -0.3610
 9531SOL    HW140052   0.144   3.263  13.805  0.1951 -0.3887  0.9509
 9531SOL    HW240053   0.051   3.378  13.817  3.0638 -0.0994 -2.2191
 9532SOL     OW40054   3.249   3.195   7.049 -0.4155  0.8524 -0.0891
 9532SOL    HW140055   3.214   3.109   7.072  1.3412  0.0049 -0.5728
 9532SOL    HW240056   3.185   3.224   6.984 -1.5299 -0.5367  0.3791
 9533SOL     OW40057   2.728   3.408   7.884 -0.5218  0.4685  0.6844
 9533SOL    HW140058   2.635   3.405   7.909 -0.8844 -1.2376 -0.9346
 9533SOL    HW240059   2.733   3.441   7.795 -0.7697  0.3446  0.6242
 9534SOL     OW40060   0.572   0.789  16.613  0.7302 -0.3930  0.2383
 9534SOL    HW140061   0.493   0.841  16.598  0.2080 -2.1731 -3.4497
 9534SOL    HW240062   0.638   0.855  16.632 -0.6435  0.6822  1.1842
 9535SOL     OW40063   2.696   3.883   6.107 -0.5487  0.5054 -0.2826
 9535SOL    HW140064   2.641   3.815   6.146  0.6653 -0.3643 -0.1050
 9535SOL    HW240065   2.775   3.889   6.161 -0.0891  2.7520 -1.1822
 9536SOL     OW40066   1.104   0.061   4.683 -0.5302  0.0170 -0.5274
 9536SOL    HW140067   1.145   0.040   4.767  0.8317  2.5265 -0.5679
 9536SOL    HW240068   1.035   0.120   4.716 -0.9847 -0.3160 -0.8828
 9537SOL     OW40069   4.670   4.005   2.024  0.2586 -0.0437 -0.0879
 9537SOL    HW140070   4.625   4.086   2.004  1.6589  1.0102  1.0156
 9537SOL    HW240071   0.017   3.999   1.961 -0.5832 -2.3369 -0.8283
 9538SOL     OW40072   1.648   0.850   0.776 -0.2506 -0.0084 -0.5039
 9538SOL    HW140073   1.636   0.914   0.847  0.5616 -0.1155 -0.2751
 9538SOL    HW240074   1.669   0.765   0.815 -0.1619  0.0705 -0.3796
 9539SOL     OW40075   3.716   1.040   7.291 -0.3757  0.6992 -0.2116
 9539SOL    HW140076   3.691   0.960   7.338 -0.4913  0.5046 -0.6032
 9539SOL    HW240077   3.798   1.061   7.335  0.8114 -0.5382 -1.8431
 9540SOL     OW40078   2.795   1.145   4.097  0.6314 -0.2495  0.0277
 9540SOL    HW140079   2.848   1.072   4.129  0.3343 -0.4133  0.1457
 9540SOL    HW240080   2.718   1.100   4.062  2.1153 -1.8783 -1.1667
 9541SOL     OW40081   0.220   0.685  15.364 -0.2504 -0.6872  0.3029
 9541SOL    HW140082   0.250   0.607  15.316  1.2753 -1.1033  1.9452
 9541SOL    HW240083   0.150   0.711  15.304 -1.7472  0.1774  2.4286
 9542SOL     OW40084   0.630   3.689   3.967  0.8658 -0.5407  0.0667
 9542SOL    HW140085   0.613   3.655   4.055 -2.1106 -0.6070 -0.5280
 9542SOL    HW240086   0.636   3.783   3.986 -1.2410 -0.5121  0.5641
 9543SOL     OW40087   3.603   4.645   2.042  0.0442  0.5501  0.9558
 9543SOL    HW140088   3.646   4.583   1.983 -1.5848  2.7148 -2.4695
 9543SOL    HW240089   3.566   4.710   1.982 -2.0510 -2.9345 -1.5269
 9544SOL     OW40090   2.762   3.121   1.454  0.3138  0.4608 -0.8944
 9544SOL    HW140091   2.720   3.185   1.397 -1.7572 -1.3295 -1.4090
 9544SOL    HW240092   2.823   3.081   1.391 -1.7909 -2.7902 -0.8944
 9545SOL     OW40093   2.856   0.423   0.270 -0.1256 -0.1581 -0.2388
 9545SOL    HW140094   2.936   0.437   0.321  0.1425 -2.8270  0.0810
 9545SOL    HW240095   2.834   0.515   0.256 -0.8198 -0.4537 -1.0605
 9546SOL     OW40096   1.840   3.673   6.503 -0.7314 -0.4915 -0.2734
 9546SOL    HW140097   1.827   3.662   6.597  2.3484 -0.7463  0.1154
 9546SOL    HW240098   1.771   3.611   6.478 -0.3409 -0.6798 -0.8903
 9547SOL     OW40099   4.200   0.771  13.965  0.5783  0.6590 -0.5669
 9547SOL    HW140100   4.167   0.796  14.051 -0.1064  1.2104 -0.9860
 9547SOL    HW240101   4.165   0.682  13.967 -0.5392  1.1284  1.5743
 9548SOL     OW40102   4.685   0.825   4.436 -0.1007  0.8342  0.0442
 9548SOL    HW140103   4.606   0.797   4.389 -0.0088 -1.5467  1.3118
 9548SOL    HW240104   4.700   0.749   4.493  1.5699  0.2981 -1.1057
 9549SOL     OW40105   3.468   1.428  12.934 -0.5228  0.7920 -0.3433
 9549SOL    HW140106   3.384   1.472  12.941 -0.9924 -0.4552  1.8677
 9549SOL    HW240107   3.444   1.345  12.976 -0.2593  1.0821  0.3823
 9550SOL     OW40108   0.372   3.247   6.288 -0.0085  0.1173  0.1785
 9550SOL    HW140109   0.282   3.218   6.304  0.2770 -1.5227 -1.2151
 9550SOL    HW240110   0.379   3.228   6.194 -0.5298  2.1329 -0.2623
 9551SOL     OW40111   0.973   0.755  13.598 -0.2604 -0.2979  0.0749
 9551SOL    HW140112   0.919   0.781  13.523  0.7426 -0.9311 -0.8509
 9551SOL    HW240113   0.902   0.720  13.651 -1.2380  0.1392 -0.9490
 9552SOL     OW40114   2.227   0.570   7.733  0.8565 -0.4235 -0.3325
 9552SOL    HW140115   2.243   0.536   7.821 -2.3416 -2.6929 -0.6326
 9552SOL    HW240116   2.242   0.487   7.687 -0.0128 -0.7440 -0.0428
 9553SOL     OW40117   2.032   4.580   7.257 -0.0994  0.2515 -0.2071
 9553SOL    HW140118   1.945   4.540   7.266  0.6316 -1.2606 -0.0047
 9553SOL    HW240119   2.056   4.623   7.339  2.2686  0.5896 -1.0913
 9554SOL     OW40120   2.737   3.944   4.749 -0.4892 -0.2895  0.5066
 9554SOL    HW140121   2.706   3.985   4.830  3.1195  1.7210  0.8482
 9554SOL    HW240122   2.654   3.909   4.718 -0.8003  1.0080 -0.1472
 9555SOL     OW40123   0.632   0.698   3.245 -0.3609 -0.8914 -0.5854
 9555SOL    HW140124   0.619   0.769   3.182  0.3070 -1.2611 -1.1358
 9555SOL    HW240125   0.684   0.641   3.189 -0.3123 -0.2524 -1.1848
 9556SOL     OW40126   4.379   1.297  12.131 -0.4235 -0.0947  0.6045
 9556SOL    HW140127   4.316   1.254  12.073  0.8820  0.6747 -1.3635
 9556SOL    HW240128   4.444   1.230  12.151 -0.5917  0.1519  2.0257
 9557SOL     OW40129   3.126   1.169   4.724 -0.0586 -0.0943 -0.2335
 9557SOL    HW140130   3.146   1.080   4.753 -0.5769 -0.0991  0.1195
 9557SOL    HW240131   3.158   1.209   4.804 -1.2374  0.6321 -0.1184
 9558SOL     OW40132   0.626   3.640   7.005 -0.0590  0.4231  0.4769
 9558SOL    HW140133   0.557   3.576   7.024 -0.4170  1.2673  1.9853
 9558SOL    HW240134   0.630   3.663   7.098 -1.7136 -0.3417  0.7427
 9559SOL     OW40135   2.420   0.639  11.370  0.2641  0.5818 -0.5244
 9559SOL    HW140136   2.346   0.695  11.346  0.0312  1.1745  1.5813
 9559SOL    HW240137   2.388   0.552  11.347 -3.3198  1.0902  2.4168
 9560SOL     OW40138   4.506   1.158   9.727  0.5276 -1.0971  0.3913
 9560SOL    HW140139   4.458   1.120   9.653 -0.5843 -2.4799  1.8191
 9560SOL    HW240140   4.559   1.082   9.749  1.5867 -0.3152  0.5407
 9561SOL     OW40141   1.840   1.397   7.000  0.1026  0.6834 -0.0377
 9561SOL    HW140142   1.748   1.382   7.023  0.4929  1.8469  2.2166
 9561SOL    HW240143   1.872   1.454   7.070  1.7542  1.6742 -1.6093
 9562SOL     OW40144   2.250   3.758  13.561  0.0010 -0.4305  0.4685
 9562SOL    HW140145   2.255   3.710  13.478 -0.6167 -0.1543  0.2719
 9562SOL    HW240146   2.343   3.759  13.585  0.4014 -1.4263 -0.9950
 9563SOL     OW40147   0.931   2.485  16.170  0.2120  0.2889 -0.1948
 9563SOL    HW140148   0.914   2.445  16.255  0.3127 -2.1019 -1.2885
 9563SOL    HW240149   0.918   2.579  16.178  1.9017  0.5490 -0.5283
 9564SOL     OW40150   2.303   0.445   2.717  0.1754  0.1015 -0.0153
 9564SOL    HW140151   2.326   0.528   2.675 -2.6348  1.8007  1.7472
 9564SOL    HW240152   2.308   0.385   2.643  0.7820  0.2925 -0.1340
 9565SOL     OW40153   4.194   3.201  15.385 -0.0103  0.3624  0.2982
 9565SOL    HW140154   4.158   3.169  15.468  0.4813 -1.4371 -0.1850
 9565SOL    HW240155   4.182   3.120  15.335 -0.6828  2.2761 -2.6502
   4.72495   4.72495  17.70122
