Membrane in water
40155
    1TCq1    O1    1   0.522   0.350  11.112  0.3168 -0.5707  1.5267
    1TCq1    C1    2   0.516   0.215  11.099  0.4446 -0.4406 -0.5365
    1TCq1    O2    3   0.608   0.138  11.119 -0.1336  0.1542  0.7706
    1TCq1    C2    4   0.382   0.190  11.142  0.0798 -0.1253  1.0488
    1TCq1    C3    5   0.325   0.078  11.087  0.2795 -0.2757  0.9069
    1TCq1    C4    6   0.202   0.032  11.136  0.0288  0.4960 -0.6997
    1TCq1    C5    7   0.145   0.093  11.243  0.3093 -0.4399  0.0209
    1TCq1    C6    8   0.203   0.208  11.294  0.0038 -0.5756 -0.4256
    1TCq1    C7    9   0.322   0.261  11.246  0.6488 -0.3739 -0.0846
    1TCq1    C8   10   0.136   0.287  11.391  0.8398 -0.2844  0.1846
    1TCq1    O4   11   0.190   0.391  11.431  0.4610 -0.2059 -0.8041
    1TCq1    C9   12   0.151   4.636  11.078  0.1367 -0.4823  0.6070
    1TCq1    O5   13   0.077   4.568  11.150  0.0822 -0.4341 -0.2998
    1TCq1    O6   14   0.175   4.614  10.955 -0.8128 -0.0712  0.1911
    1TCq1    H1   15   0.434   0.383  11.084  1.0404  1.7162  1.9496
    1TCq1    H2   16   0.383   0.028  11.009  0.1009 -2.0757  1.9286
    1TCq1    H3   17   0.050   0.052  11.276 -0.1226  2.5809  2.5357
    1TCq1    H4   18   0.360   0.357  11.278 -0.3705  0.3731 -1.1309
    2MPD2     C   19   4.536   0.283  11.808 -0.7883 -0.3656  0.8438
    2MPD2    C1   20   4.643   0.362  11.784 -0.7412  0.0926  0.6379
    2MPD2    C2   21   4.713   0.358  11.658  0.5170  0.1707 -0.2279
    2MPD2    C3   22   4.685   0.250  11.573  0.1946 -0.4111  0.1880
    2MPD2    C4   23   4.580   0.172  11.597 -0.2095 -0.0242  0.1885
    2MPD2    C5   24   4.496   0.187  11.711  0.0170  0.1654  0.8459
    2MPD2     H   25   0.076   0.422  11.644  0.0808  0.9333  0.5631
    2MPD2    H1   26   4.547   0.094  11.530  0.6573 -1.3380  1.2865
    2MPD2    H2   27   4.489   0.281  11.905  0.8968 -1.7042  1.6257
    2MPD2    H3   28   4.409   0.124  11.724 -0.3613  0.4015 -0.5036
    2MPD2     N   29   0.022   0.232  11.443  0.8588 -0.4545  0.2459
    2MPD2    H5   30   4.710   0.148  11.397  2.5235 -1.0985  0.1389
    2MPD2    N1   31   4.678   0.454  11.883  0.1294 -0.2933 -0.0336
    2MPD2    H7   32   4.627   0.450  11.970  0.9180 -0.6474  0.4087
    3TCq1    O1   33   3.541   1.022  10.746  0.3601 -0.0128 -0.4521
    3TCq1    C1   34   3.644   1.036  10.656  0.2702 -0.0137 -0.1060
    3TCq1    O2   35   3.659   0.956  10.565 -0.1530  0.1763 -0.4748
    3TCq1    C2   36   3.740   1.138  10.690 -0.1344 -0.6096 -0.6945
    3TCq1    C3   37   3.837   1.181  10.599 -0.2087  0.4616 -0.2525
    3TCq1    C4   38   3.926   1.282  10.630  0.3566  0.1824 -0.0299
    3TCq1    C5   39   3.931   1.341  10.750 -0.1741  0.2563  0.3916
    3TCq1    C6   40   3.849   1.282  10.839 -0.8878  0.5917 -0.4615
    3TCq1    C7   41   3.754   1.190  10.815  0.0576 -0.4339 -0.2412
    3TCq1    C8   42   3.837   1.349  10.970 -0.2687  0.0880 -0.6353
    3TCq1    O4   43   3.756   1.304  11.051 -0.9132 -0.8917  0.3367
    3TCq1    C9   44   4.007   1.335  10.526  0.1713  0.2856 -0.6543
    3TCq1    O5   45   3.967   1.311  10.413  0.7047  0.3593  0.5992
    3TCq1    O6   46   4.098   1.423  10.555  0.4474 -0.4589  0.0982
    3TCq1    H1   47   3.530   1.091  10.815  0.5225 -3.4801  2.9802
    3TCq1    H2   48   3.824   1.159  10.494  0.0296  0.3073 -0.2486
    3TCq1    H3   49   3.995   1.427  10.765 -0.3112  0.2997  0.7206
    3TCq1    H4   50   3.690   1.158  10.897 -2.7859 -0.4018 -2.4740
    4MPD2     C   51   3.779   1.827  11.143 -0.7074 -0.0316  0.0979
    4MPD2    C1   52   3.898   1.822  11.076 -0.8047 -0.1154 -0.1946
    4MPD2    C2   53   3.945   1.700  11.031  0.0431  0.2876  0.2868
    4MPD2    C3   54   3.864   1.587  11.055 -1.0548  0.1574 -0.2485
    4MPD2    C4   55   3.737   1.592  11.118  0.6018 -0.2198 -0.1720
    4MPD2    C5   56   3.695   1.714  11.163  0.0773 -0.3747 -1.1789
    4MPD2     H   57   4.034   1.693  10.969 -1.3434  2.1432 -1.8778
    4MPD2    H1   58   3.667   1.510  11.132 -1.2881  1.3822 -0.1674
    4MPD2    H2   59   3.728   1.922  11.161 -3.1096 -1.3372  0.1953
    4MPD2    H3   60   3.596   1.713  11.207 -0.3462  1.2793 -2.0888
    4MPD2     N   61   3.899   1.472  10.980  0.2207 -0.1397 -0.7715
    4MPD2    H5   62   3.962   1.491  10.903  0.7797  0.7243 -0.0980
    4MPD2    N1   63   3.967   1.942  11.045 -0.1871  0.3229 -0.8082
    4MPD2    H7   64   4.048   1.936  10.983 -1.4683 -2.3473 -2.2261
    5TCq1    O1   65   0.507   4.106   9.650 -0.3366  0.7176  0.0601
    5TCq1    C1   66   0.421   4.058   9.559  1.1447  0.1221  0.7283
    5TCq1    O2   67   0.419   4.087   9.439 -0.0776 -0.7393  0.0211
    5TCq1    C2   68   0.382   3.925   9.608  0.6228 -1.2022  0.1342
    5TCq1    C3   69   0.286   3.863   9.538 -0.0905  1.0461 -0.2064
    5TCq1    C4   70   0.243   3.742   9.590  0.3533  0.6876  0.1995
    5TCq1    C5   71   0.276   3.686   9.715 -0.2706  0.0353 -0.3275
    5TCq1    C6   72   0.390   3.740   9.767 -0.0677  0.2413  0.0265
    5TCq1    C7   73   0.448   3.862   9.713 -0.8517  0.4210 -0.4164
    5TCq1    C8   74   0.446   3.649   9.870  0.2884 -0.3016  0.0698
    5TCq1    O4   75   0.374   3.567   9.925 -0.4137  0.3213  0.0499
    5TCq1    C9   76   0.148   3.668   9.513  0.4831 -0.3027  0.4391
    5TCq1    O5   77   0.111   3.714   9.401 -0.1887  0.3802  0.6384
    5TCq1    O6   78   0.108   3.563   9.563  0.0923  0.8844 -0.0774
    5TCq1    H1   79   0.489   4.085   9.744 -2.8256 -1.5478 -0.9171
    5TCq1    H2   80   0.256   3.898   9.439 -0.1382  0.7147 -0.3086
    5TCq1    H3   81   0.223   3.601   9.757 -2.0872  1.2208 -0.2080
    5TCq1    H4   82   0.542   3.902   9.750  1.0203 -1.8931 -2.5905
    6MPD2     C   83   0.805   3.630   9.964 -0.0622  0.2992  0.4626
    6MPD2    C1   84   0.673   3.589   9.971 -0.4813 -0.6414  0.1677
    6MPD2    C2   85   0.639   3.483  10.049 -0.4521 -0.4613  0.0043
    6MPD2    C3   86   0.727   3.416  10.128  0.1979  0.9257  0.6641
    6MPD2    C4   87   0.859   3.463  10.125 -0.6840  1.1531 -0.5124
    6MPD2    C5   88   0.892   3.563  10.040  0.2280 -0.0206  1.0656
    6MPD2     H   89   0.535   3.453  10.054  0.2617 -2.8126  0.7297
    6MPD2    H1   90   0.936   3.436  10.197 -2.0245 -0.4577  0.3102
    6MPD2    H2   91   0.843   3.712   9.904  1.6229 -0.5555  0.3420
    6MPD2    H3   92   0.990   3.610  10.040  1.3806 -2.3869  0.0611
    6MPD2     N   93   0.681   3.305  10.206 -0.0043 -0.0060 -0.1823
    6MPD2    H5   94   0.581   3.290  10.216 -0.0596 -0.2945 -1.1978
    6MPD2    N1   95   0.581   3.663   9.891  0.0796  0.5346 -0.1953
    6MPD2    H7   96   0.625   3.739   9.842 -2.5215 -0.1636 -3.6284
    7TCq1    O1   97   1.642   2.867  12.753  0.4777 -0.2475 -0.0766
    7TCq1    C1   98   1.676   2.817  12.875  0.0147 -0.2678  0.3437
    7TCq1    O2   99   1.704   2.883  12.975  0.3752 -0.0261  0.3616
    7TCq1    C2  100   1.727   2.683  12.863 -0.1131 -0.5799 -0.1639
    7TCq1    C3  101   1.690   2.612  12.756  0.2058 -0.2020  0.5751
    7TCq1    C4  102   1.752   2.489  12.739 -0.1764  0.6749 -0.6374
    7TCq1    C5  103   1.862   2.455  12.812  0.2580  0.1599  0.4361
    7TCq1    C6  104   1.901   2.543  12.914  0.4527  0.5707 -0.8305
    7TCq1    C7  105   1.829   2.656  12.945 -0.4452  0.7053  0.7748
    7TCq1    C8  106   1.996   2.496  13.016 -0.2269  0.1903 -0.3389
    7TCq1    O4  107   2.019   2.375  13.020  0.2077 -0.0081 -0.3653
    7TCq1    C9  108   1.717   2.408  12.626  0.4718 -0.2519  0.2522
    7TCq1    O5  109   1.648   2.468  12.537  0.3710  0.0395 -0.3510
    7TCq1    O6  110   1.757   2.290  12.624 -0.5055 -0.3846  0.0579
    7TCq1    H1  111   1.633   2.797  12.685 -1.7649  0.3552 -0.3836
    7TCq1    H2  112   1.593   2.629  12.711  0.7295  1.2658  0.0096
    7TCq1    H3  113   1.925   2.371  12.784  0.5927  0.5823 -0.0952
    7TCq1    H4  114   1.855   2.719  13.029 -2.3771  0.6727  1.3792
    8MPD2     C  115   2.339   2.592  13.391 -0.5589  0.4632  0.5499
    8MPD2    C1  116   2.305   2.469  13.340  0.2852  0.7507  0.0078
    8MPD2    C2  117   2.213   2.464  13.238  0.5315 -0.4718 -0.3155
    8MPD2    C3  118   2.157   2.583  13.190  0.5880  0.3626  0.6557
    8MPD2    C4  119   2.197   2.701  13.245  0.1202  0.7540 -0.1653
    8MPD2    C5  120   2.292   2.711  13.341 -0.0540  0.5081 -0.2408
    8MPD2     H  121   2.189   2.369  13.191  1.2097 -1.5375  1.5274
    8MPD2    H1  122   2.161   2.790  13.196 -1.8403  1.1598  2.0348
    8MPD2    H2  123   2.414   2.597  13.469 -0.1418  1.5449  0.0747
    8MPD2    H3  124   2.331   2.805  13.378  1.0041  0.1227 -0.3860
    8MPD2     N  125   2.055   2.601  13.087 -1.0032 -0.0157 -0.1443
    8MPD2    H5  126   2.031   2.696  13.062  2.3402  0.0950 -2.9502
    8MPD2    N1  127   2.373   2.355  13.388 -0.5765 -0.1882  0.2650
    8MPD2    H7  128   2.433   2.371  13.468 -2.2574 -0.1579  1.5221
    9TCq1    O1  129   4.129   1.604  10.734  0.1425  0.1069 -0.5872
    9TCq1    C1  130   4.181   1.731  10.733  0.3811 -0.3572 -0.2568
    9TCq1    O2  131   4.162   1.818  10.821  0.1635  0.3489  0.2882
    9TCq1    C2  132   4.275   1.747  10.623 -0.0799 -0.6725 -0.2899
    9TCq1    C3  133   4.284   1.654  10.525  0.5740 -0.0787  0.5318
    9TCq1    C4  134   4.397   1.647  10.442  0.9264 -0.3637 -0.3418
    9TCq1    C5  135   4.504   1.728  10.478 -1.0238  0.5725 -0.1998
    9TCq1    C6  136   4.493   1.812  10.587 -0.5289 -0.3267  0.2155
    9TCq1    C7  137   4.384   1.822  10.660 -0.4364 -0.6894 -0.0353
    9TCq1    C8  138   4.621   1.855  10.642 -0.5143 -0.0728  0.6611
    9TCq1    O4  139   4.719   1.866  10.564 -0.0630 -0.3391  0.4754
    9TCq1    C9  140   4.404   1.575  10.324  0.0461  0.1529 -0.0750
    9TCq1    O5  141   4.315   1.491  10.295  0.3545 -0.4169  0.1392
    9TCq1    O6  142   4.505   1.587  10.250  0.8637 -0.1721  0.7706
    9TCq1    H1  143   4.144   1.546  10.657  2.9039  0.7078 -0.4878
    9TCq1    H2  144   4.195   1.608  10.484  1.3908 -0.8305 -0.3761
    9TCq1    H3  145   4.596   1.723  10.421 -0.9102  0.5512 -0.0152
    9TCq1    H4  146   4.362   1.891  10.741 -2.0973 -0.1182 -0.9704
   10MPD2     C  147   0.135   1.894  10.832 -0.9639  0.9878 -0.3639
   10MPD2    C1  148   0.004   1.878  10.870  0.0010 -0.5052  0.1105
   10MPD2    C2  149   4.703   1.876  11.006 -0.1685  0.0000 -0.4205
   10MPD2    C3  150   0.083   1.859  11.096  0.1895  0.4229 -0.2731
   10MPD2    C4  151   0.208   1.876  11.055 -0.3126 -0.8989 -0.0770
   10MPD2    C5  152   0.235   1.903  10.922 -0.3077  0.2499 -0.0735
   10MPD2     H  153   4.596   1.874  11.025 -0.1844  1.2410 -0.3920
   10MPD2    H1  154   0.292   1.866  11.123  1.0533  2.6612 -1.2171
   10MPD2    H2  155   0.152   1.910  10.726 -2.7736 -1.9864 -1.1160
   10MPD2    H3  156   0.333   1.937  10.890 -0.3014  0.0731 -0.2475
   10MPD2     N  157   0.065   1.818  11.229  0.6140 -0.1338 -0.7393
   10MPD2    H5  158   0.150   1.810  11.283  0.1812  0.0728 -0.0170
   10MPD2    N1  159   4.613   1.866  10.777  0.2261 -0.2789  0.1618
   10MPD2    H7  160   4.521   1.857  10.818  0.5530 -0.1154  0.9287
   11TCq1    O1  161   0.883   1.939  14.427  0.6052  0.3832 -0.2907
   11TCq1    C1  162   0.905   2.018  14.329 -0.7835 -0.3428  0.2810
   11TCq1    O2  163   0.979   2.115  14.329 -0.2827 -0.0230  0.0715
   11TCq1    C2  164   0.835   1.959  14.221 -0.4382 -0.8093 -0.1806
   11TCq1    C3  165   0.886   1.985  14.091 -0.0015  0.0336 -0.2604
   11TCq1    C4  166   0.832   1.922  13.983  0.4008  0.4481 -0.1816
   11TCq1    C5  167   0.737   1.829  13.996 -0.3585 -0.2663  0.2623
   11TCq1    C6  168   0.678   1.809  14.117  0.5165 -0.5375 -0.3086
   11TCq1    C7  169   0.731   1.872  14.229  0.3969 -0.9105 -0.2747
   11TCq1    C8  170   0.536   1.780  14.128  0.0323  0.4433  0.1607
   11TCq1    O4  171   0.467   1.825  14.217  0.4213  0.3768 -0.0187
   11TCq1    C9  172   0.883   1.960  13.854  0.1375 -0.2895 -0.5338
   11TCq1    O5  173   0.955   2.059  13.834  0.2294  0.0958  0.0667
   11TCq1    O6  174   0.840   1.899  13.756  0.0804 -0.1707 -0.0170
   11TCq1    H1  175   0.843   1.850  14.415  1.1423  0.2863 -1.3644
   11TCq1    H2  176   0.967   2.055  14.076  0.8913 -1.0298 -0.3877
   11TCq1    H3  177   0.693   1.794  13.903 -0.8293  0.2120  0.3029
   11TCq1    H4  178   0.688   1.840  14.323 -0.8371 -2.1441 -1.2552
   12MPD2     C  179   0.244   1.776  14.032  0.3368 -0.0570  0.1595
   12MPD2    C1  180   0.350   1.698  13.984 -0.6593 -0.0785  0.1047
   12MPD2    C2  181   0.315   1.597  13.899 -0.4980  0.2018  0.3226
   12MPD2    C3  182   0.187   1.571  13.848 -0.5682  0.6984  0.4717
   12MPD2    C4  183   0.086   1.650  13.894  0.2352 -0.4728 -0.5006
   12MPD2    C5  184   0.119   1.758  13.979 -0.3964 -0.8872 -0.2025
   12MPD2     H  185   0.401   1.547  13.856  1.3322  2.2144  1.6601
   12MPD2    H1  186   4.708   1.636  13.859  0.0757  0.6025 -0.4738
   12MPD2    H2  187   0.259   1.856  14.103  0.6617 -0.2439  0.3010
   12MPD2    H3  188   0.039   1.821  14.017  0.7602  0.6699 -0.3743
   12MPD2     N  189   0.153   1.469  13.759  0.0642 -0.7378  0.1746
   12MPD2    H5  190   0.056   1.482  13.732 -0.2775 -2.1949  0.6657
   12MPD2    N1  191   0.493   1.705  14.026  0.0685 -0.3462  0.3363
   12MPD2    H7  192   0.563   1.653  13.975  1.5612  0.1458  1.9051
   13TCq1    O1  193   0.588   1.838  11.039 -0.3042 -0.0840  0.4120
   13TCq1    C1  194   0.536   1.717  11.056 -0.0244  0.2053 -0.5777
   13TCq1    O2  195   0.493   1.675  11.158 -0.1915 -0.7999 -0.5838
   13TCq1    C2  196   0.511   1.655  10.925 -0.8469 -1.0275  0.5649
   13TCq1    C3  197   0.601   1.663  10.821  0.5259 -0.6735  0.0938
   13TCq1    C4  198   0.567   1.600  10.703 -0.1376 -0.5945 -0.3832
   13TCq1    C5  199   0.445   1.549  10.688 -0.2509 -0.7945 -0.3190
   13TCq1    C6  200   0.353   1.543  10.793 -0.0957 -0.5127  0.8119
   13TCq1    C7  201   0.388   1.600  10.914 -0.6235  0.4299 -0.0596
   13TCq1    C8  202   0.214   1.507  10.751  0.4299 -0.0829 -0.3912
   13TCq1    O4  203   0.205   1.431  10.654 -0.0513 -0.1587  0.0411
   13TCq1    C9  204   0.662   1.602  10.597  0.5780 -0.1343 -0.1356
   13TCq1    O5  205   0.783   1.633  10.626  0.1422 -0.1200 -0.0794
   13TCq1    O6  206   0.636   1.539  10.495  0.6165 -0.4877  0.0753
   13TCq1    H1  207   0.588   1.875  10.948  1.7353 -0.3680  0.3109
   13TCq1    H2  208   0.699   1.705  10.840 -0.6442  0.8836  2.8280
   13TCq1    H3  209   0.416   1.512  10.591  0.1099 -1.3190 -0.2216
   13TCq1    H4  210   0.319   1.603  10.997  1.5036  0.0465  1.7363
   14MPD2     C  211   4.654   1.423  10.742 -1.0915 -0.1387  0.0942
   14MPD2    C1  212   4.705   1.514  10.838  0.6375  0.1509 -0.8969
   14MPD2    C2  213   4.617   1.567  10.937  0.7261  0.9524 -0.1516
   14MPD2    C3  214   4.481   1.533  10.935  0.0517 -0.6959  0.6872
   14MPD2    C4  215   4.436   1.449  10.840 -0.4047 -0.5241  0.1110
   14MPD2    C5  216   4.521   1.399  10.747 -0.4648  0.5611 -0.1637
   14MPD2     H  217   4.645   1.629  11.022 -2.5248  1.1128  0.7766
   14MPD2    H1  218   4.331   1.432  10.822 -1.0106  2.4922  0.7990
   14MPD2    H2  219   4.717   1.379  10.666 -0.5899  1.3131 -0.3170
   14MPD2    H3  220   4.476   1.327  10.680  0.3050  1.3490 -1.5215
   14MPD2     N  221   4.412   1.584  11.049  0.2583  0.2742 -0.6845
   14MPD2    H5  222   4.454   1.661  11.101  1.7123 -0.6309 -0.5007
   14MPD2    N1  223   0.120   1.542  10.843  0.1608 -0.3252 -0.4032
   14MPD2    H7  224   0.154   1.618  10.901 -1.0786 -0.9373  1.1156
   15TCq1    O1  225   0.577   0.516   1.643  0.1408 -0.0880 -0.5533
   15TCq1    C1  226   0.556   0.452   1.759  0.3373  0.1872 -0.1519
   15TCq1    O2  227   0.457   0.459   1.830  0.3117  0.0972  0.1040
   15TCq1    C2  228   0.685   0.402   1.808 -0.1829  0.4619 -0.2898
   15TCq1    C3  229   0.707   0.401   1.943  0.2680  0.1896 -0.1377
   15TCq1    C4  230   0.828   0.360   1.987  0.7967 -0.3638 -0.2342
   15TCq1    C5  231   0.931   0.355   1.898  0.6488 -0.0126 -0.2758
   15TCq1    C6  232   0.917   0.348   1.763 -0.6100  0.5354  0.0422
   15TCq1    C7  233   0.792   0.388   1.717  0.0168 -0.0240 -0.2462
   15TCq1    C8  234   1.033   0.318   1.685  0.2106 -0.1501  0.3119
   15TCq1    O4  235   1.128   0.276   1.748  0.0364 -0.0123 -0.3426
   15TCq1    C9  236   0.857   0.352   2.127 -0.0209 -0.0812  0.0251
   15TCq1    O5  237   0.972   0.324   2.174 -0.3258 -0.2132  0.1298
   15TCq1    O6  238   0.765   0.391   2.208 -0.1296  0.1177  0.5912
   15TCq1    H1  239   0.672   0.539   1.633  0.6337 -2.6194 -1.5224
   15TCq1    H2  240   0.621   0.420   2.005  0.6721 -0.5046  0.6355
   15TCq1    H3  241   1.028   0.348   1.946  0.8051  2.8395 -0.1583
   15TCq1    H4  242   0.756   0.368   1.617 -0.1968 -0.4286 -0.0899
   16MPD2     C  243   1.119   0.379   1.328 -0.4642  0.5456  0.2704
   16MPD2    C1  244   1.120   0.320   1.455  0.2203 -0.0416  0.1268
   16MPD2    C2  245   1.212   0.219   1.475  0.0717  0.0766  0.0953
   16MPD2    C3  246   1.298   0.181   1.377 -0.6225 -0.1494 -0.7144
   16MPD2    C4  247   1.297   0.245   1.258  0.1888  0.0127  0.2463
   16MPD2    C5  248   1.210   0.342   1.227  0.0782  0.6515  0.4006
   16MPD2     H  249   1.227   0.174   1.573  0.4727  0.9505  0.4277
   16MPD2    H1  250   1.374   0.219   1.187 -1.4066  0.7359 -1.7370
   16MPD2    H2  251   1.049   0.460   1.307 -0.2175  0.2486 -1.7122
   16MPD2    H3  252   1.205   0.390   1.130 -1.1890 -0.6529 -0.1763
   16MPD2     N  253   1.401   0.083   1.410  0.1275  0.2503 -0.2328
   16MPD2    H5  254   1.442   0.096   1.502 -1.1151 -0.7138  0.4601
   16MPD2    N1  255   1.024   0.355   1.555  0.3901  0.8349  0.2167
   16MPD2    H7  256   0.942   0.409   1.528  0.3080  0.4326 -0.3352
   17TCq1    O1  257   4.185   4.703   9.923  0.2222 -0.2716  0.1353
   17TCq1    C1  258   4.225   4.611  10.018  0.3472 -0.5363 -0.0361
   17TCq1    O2  259   4.163   4.516  10.061 -0.0678 -0.1550  0.0092
   17TCq1    C2  260   4.334   4.674  10.102  0.0295 -0.7673  0.3282
   17TCq1    C3  261   4.332   4.666  10.238  0.0960 -0.5096  0.3046
   17TCq1    C4  262   4.395   0.040  10.317 -0.5558  1.1830 -0.4248
   17TCq1    C5  263   4.491   0.120  10.261  0.2633  0.3274  0.4127
   17TCq1    C6  264   4.515   0.103  10.124  0.1008 -0.5974  0.4648
   17TCq1    C7  265   4.432   0.032  10.042  0.4090  0.0220  0.5038
   17TCq1    C8  266   4.647   0.152  10.062  0.0230 -0.1891 -0.0484
   17TCq1    O4  267   4.655   0.160   9.938  0.2498  0.6105 -0.0068
   17TCq1    C9  268   4.368   0.048  10.467 -0.3304  0.5480  1.2518
   17TCq1    O5  269   4.291   4.683  10.508 -0.0694  0.3974 -0.0734
   17TCq1    O6  270   4.429   0.137  10.527 -0.9124 -0.1303  0.0226
   17TCq1    H1  271   4.236   0.063   9.932 -0.4933  0.0161  1.4277
   17TCq1    H2  272   4.262   4.600  10.287  1.1826 -1.1184  1.0249
   17TCq1    H3  273   4.540   0.192  10.325  2.0785 -0.6253  0.0950
   17TCq1    H4  274   4.453   0.027   9.936  0.0144  0.1524  0.4222
   18MPD2     C  275   0.201   0.282  10.037  0.0506 -0.4041  0.3198
   18MPD2    C1  276   0.144   0.239  10.154 -0.2578 -0.3073 -0.2197
   18MPD2    C2  277   0.217   0.258  10.271  0.1421 -0.1039 -0.1397
   18MPD2    C3  278   0.344   0.319  10.272 -0.4437 -0.1504  0.4655
   18MPD2    C4  279   0.406   0.353  10.155 -0.3086 -0.3774  0.2146
   18MPD2    C5  280   0.333   0.334  10.036 -0.2697 -0.0400  0.7129
   18MPD2     H  281   0.168   0.224  10.362  1.2177 -1.4692 -0.0754
   18MPD2    H1  282   0.506   0.391  10.140 -0.4111  0.0667  0.6433
   18MPD2    H2  283   0.131   0.282   9.955  1.9648 -1.5491 -1.3038
   18MPD2    H3  284   0.368   0.374   9.941  2.5939 -0.4559  1.5918
   18MPD2     N  285   0.417   0.346  10.383 -0.1942  0.2309 -0.2900
   18MPD2    H5  286   0.512   0.378  10.365 -0.8621  2.4517  0.1150
   18MPD2    N1  287   0.010   0.191  10.162 -0.0931  0.4559 -0.4868
   18MPD2    H7  288   4.697   0.172  10.255  0.3129 -0.6151 -0.5481
   19TMC2    C1  289   1.560   1.480  13.400 -0.3916 -0.0259  0.5823
   19TMC2    C2  290   1.492   1.514  13.287 -0.1056  0.1649  0.2427
   19TMC2    C3  291   1.368   1.476  13.271  0.1582 -0.4620  0.0539
   19TMC2    C4  292   1.516   1.379  13.484  0.1244 -0.0883  0.0949
   19TMC2    C5  293   1.387   1.347  13.466  0.0472  0.0932 -0.7591
   19TMC2    C6  294   1.313   1.384  13.356 -0.2425 -0.0185  0.4110
   19TMC2     C  295   1.703   1.510  13.396  0.2029 -0.5134 -0.5905
   19TMC2     O  296   1.756   1.544  13.290 -0.0578  0.8148 -0.0823
   19TMC2     H  297   1.543   1.573  13.212 -1.2077 -1.4460 -1.7572
   19TMC2    H1  298   1.584   1.319  13.544  3.7707  3.0681 -0.8853
   19TMC2    H2  299   1.205   1.370  13.355 -0.2052 -0.1006 -1.5424
   19TMC2    C7  300   1.329   1.247  13.563 -0.0878  0.4645 -0.3953
   19TMC2    C8  301   1.321   1.465  13.136  0.8492 -0.1770 -0.0113
   19TMC2    O1  302   1.224   1.198  13.538 -0.0965  0.2286  0.3661
   19TMC2    O2  303   1.384   1.415  13.043 -0.3619 -0.1666 -0.3759
   19TMC2    O5  304   1.193   1.504  13.130  0.2299 -0.1674 -0.4048
   19TMC2    H5  305   1.162   1.535  13.217 -0.5883  1.0651 -1.1403
   20MPD2     C  306   1.963   1.644  13.478 -0.3149 -0.2534  0.0797
   20MPD2    C1  307   1.881   1.566  13.561 -0.4416  0.4254 -0.0887
   20MPD2    C2  308   1.925   1.525  13.681 -0.2522  0.8588 -0.2177
   20MPD2    C3  309   2.056   1.555  13.724 -0.6400 -0.4828  0.0356
   20MPD2    C4  310   2.131   1.640  13.644 -0.6073  0.1659 -0.1129
   20MPD2    C5  311   2.088   1.690  13.519 -0.4340 -0.3817 -0.5160
   20MPD2     H  312   1.858   1.463  13.740  0.4430  0.4520  0.1583
   20MPD2    H1  313   2.226   1.677  13.680 -1.4177  1.3960  0.7631
   20MPD2    H2  314   1.925   1.680  13.383  0.7302 -2.4079 -1.1705
   20MPD2    H3  315   2.145   1.756  13.456  0.4858 -1.4248 -0.7659
   20MPD2     N  316   2.106   1.500  13.843 -0.7389 -0.6966 -0.4954
   20MPD2    H5  317   2.205   1.508  13.864 -1.3074 -1.9081  2.6267
   20MPD2    N1  318   1.753   1.517  13.525 -0.5124 -0.5555  0.3096
   20MPD2    H7  319   1.698   1.464  13.591  0.4114  1.2510  2.5819
   21MPD2     C  320   3.705   1.664  14.196  0.5023  0.4125 -0.0297
   21MPD2    C1  321   3.766   1.582  14.291  0.0254  0.0319  0.0984
   21MPD2    C2  322   3.695   1.532  14.397  0.4716  0.3564 -0.9534
   21MPD2    C3  323   3.557   1.566  14.418  0.0794 -0.1717 -0.5538
   21MPD2    C4  324   3.496   1.639  14.318  0.3964  0.4425 -1.0785
   21MPD2    C5  325   3.568   1.687  14.206  0.1576 -0.1545  0.3384
   21MPD2     H  326   3.756   1.478  14.468 -0.6789 -0.7743 -0.8324
   21MPD2    H1  327   3.391   1.663  14.307  0.1780 -0.1819 -0.3085
   21MPD2    H2  328   3.754   1.713  14.112 -0.3958 -0.5891 -1.1523
   21MPD2    H3  329   3.519   1.745  14.129  0.3373  1.3856  1.3734
   21MPD2     N  330   3.483   1.520  14.529 -0.2032  0.7091 -0.4323
   21MPD2    H5  331   3.397   1.570  14.552 -0.5579  0.2731 -0.8301
   21MPD2    N1  332   3.905   1.565  14.300 -0.4398  0.0276 -0.3604
   21MPD2    H7  333   3.944   1.503  14.370 -0.1026  1.0641  0.3671
   22TCq2    C1  334   3.524   1.405  14.594 -0.0034  0.2496 -0.1967
   22TCq2    O2  335   3.597   1.317  14.553  0.1161  0.9652  0.2397
   22TCq2    C2  336   3.483   1.399  14.732  0.4104 -0.3080  0.2968
   22TCq2    C3  337   3.496   1.279  14.791  0.3367  0.3281 -0.3951
   22TCq2    C4  338   3.483   1.281  14.926  0.4331 -0.0967  0.4175
   22TCq2    C5  339   3.464   1.392  14.999  0.0794 -0.5532 -0.2469
   22TCq2    C6  340   3.460   1.512  14.936 -0.2884 -0.2573  0.5669
   22TCq2    C7  341   3.472   1.516  14.798 -0.3050  0.6706 -0.5437
   22TCq2    C8  342   3.416   1.628  15.017 -0.0238 -0.0520  0.5434
   22TCq2    O4  343   3.407   1.614  15.138 -0.2842  0.2493 -0.0037
   22TCq2    C9  344   3.491   1.154  14.998  0.2501  0.1726  0.5435
   22TCq2    O5  345   3.541   1.053  14.938  0.5819  0.4405  0.5297
   22TCq2    O6  346   3.443   1.158  15.112 -0.2787  0.0769  0.0051
   22TCq2    H2  347   3.505   1.184  14.738 -2.2337 -1.0790  1.6823
   22TCq2    H3  348   3.464   1.394  15.107  1.1133  1.4633 -0.2820
   22TCq2    H4  349   3.483   1.610  14.745 -1.9268  1.3415  0.3394
   23MPD2     C  350   0.755   2.725  14.686 -0.1495  0.7306 -0.3733
   23MPD2    C1  351   0.746   2.623  14.773 -0.0554 -0.3534 -0.2747
   23MPD2    C2  352   0.641   2.535  14.762 -0.2379 -0.0928 -0.0437
   23MPD2    C3  353   0.544   2.559  14.667  0.1185 -0.2352  0.2219
   23MPD2    C4  354   0.547   2.671  14.590  0.5102 -0.0200  0.1646
   23MPD2    C5  355   0.658   2.749  14.599  0.0476  0.2417 -0.6714
   23MPD2     H  356   0.630   2.453  14.832 -3.5672  1.0237  0.7562
   23MPD2    H1  357   0.470   2.702  14.521  1.1480  1.3012  0.0558
   23MPD2    H2  358   0.845   2.785  14.686 -0.0814  0.6305  0.0413
   23MPD2    H3  359   0.654   2.833  14.531  0.4487  0.1804 -0.7694
   23MPD2     N  360   0.434   2.466  14.657 -0.4486 -0.7628 -0.5192
   23MPD2    H5  361   0.351   2.495  14.605 -0.3311 -0.1905 -0.3782
   23MPD2    N1  362   0.843   2.583  14.865  0.2544 -0.0456 -0.6152
   23MPD2    H7  363   0.822   2.507  14.928  0.2763  2.0423  1.9017
   24TCq2    C1  364   0.428   2.340  14.702 -0.1997 -0.2942 -0.3659
   24TCq2    O2  365   0.511   2.267  14.762 -0.0108 -0.2928 -0.5576
   24TCq2    C2  366   0.300   2.291  14.657  1.0737 -0.4361  0.1110
   24TCq2    C3  367   0.300   2.156  14.627 -0.6774  0.1062  0.2360
   24TCq2    C4  368   0.176   2.100  14.605  0.8189 -0.2184 -0.3219
   24TCq2    C5  369   0.062   2.175  14.619 -0.2607  0.5210 -0.4388
   24TCq2    C6  370   0.065   2.308  14.645 -0.3163  0.3058 -0.6635
   24TCq2    C7  371   0.187   2.373  14.660  0.4843 -0.2317  0.4134
   24TCq2    C8  372   4.670   2.383  14.688  0.2000 -0.1068  0.5193
   24TCq2    O4  373   4.683   2.489  14.745  0.3371 -0.4027  0.5087
   24TCq2    C9  374   0.178   1.957  14.561 -0.3302  0.7715  1.5389
   24TCq2    O5  375   0.063   1.908  14.538 -0.0103  0.2956 -0.3209
   24TCq2    O6  376   0.283   1.890  14.568  0.3473  0.2899  0.6859
   24TCq2    H2  377   0.393   2.101  14.617 -1.5451 -1.7028  2.2821
   24TCq2    H3  378   4.688   2.131  14.601  0.5209 -0.4999 -2.0984
   24TCq2    H4  379   0.190   2.473  14.701 -1.8015 -1.3363  3.2173
   25TMC2    C1  380   4.394   4.174  11.836  0.5605  0.4344 -0.6368
   25TMC2    C2  381   4.444   4.076  11.915  0.2328 -1.0161  0.3116
   25TMC2    C3  382   4.430   4.081  12.047 -0.0029  0.1983 -0.8406
   25TMC2    C4  383   4.313   4.279  11.880  0.3007  0.4030 -0.9846
   25TMC2    C5  384   4.289   4.274  12.015 -0.1303  0.3935 -0.0229
   25TMC2    C6  385   4.344   4.181  12.099  0.1004  0.0943  0.2461
   25TMC2     C  386   4.359   4.123  11.706 -0.8677 -0.0199 -0.6608
   25TMC2     O  387   4.438   4.047  11.653 -0.1916 -0.5489  0.7788
   25TMC2     H  388   4.486   3.981  11.884  3.8139  0.5370  0.4240
   25TMC2    H1  389   4.275   4.351  11.808 -0.9845  1.0296  0.3256
   25TMC2    H2  390   4.311   4.179  12.203  0.5118  2.3813  0.4041
   25TMC2    C7  391   4.215   4.383  12.081 -0.2364  0.3552  0.2044
   25TMC2    C8  392   4.438   3.960  12.128  0.0846  0.4106  0.4690
   25TMC2    O1  393   4.215   4.378  12.206  1.5905  0.6139  0.6750
   25TMC2    O2  394   4.424   3.848  12.074  0.1482  0.5783 -0.1219
   25TMC2    O5  395   4.451   3.988  12.261  0.2054  0.0543 -0.4138
   25TMC2    H5  396   4.470   4.082  12.284  0.2413 -0.0703  0.0640
   26MPD2     C  397   4.069   4.047  11.295 -0.0619  0.9125  0.6804
   26MPD2    C1  398   3.985   4.077  11.403 -0.1985 -0.0692  0.7367
   26MPD2    C2  399   4.042   4.122  11.525 -0.3831 -0.8149  0.8785
   26MPD2    C3  400   4.180   4.116  11.540 -0.3704  0.4206 -0.0837
   26MPD2    C4  401   4.259   4.074  11.436  0.1497  0.3583  0.0966
   26MPD2    C5  402   4.205   4.047  11.314 -0.3710 -0.3572 -0.6174
   26MPD2     H  403   3.982   4.165  11.604  0.6483 -0.6299  1.5556
   26MPD2    H1  404   4.367   4.077  11.434  0.0919  0.6974 -2.1377
   26MPD2    H2  405   4.030   4.016  11.199  0.4583  1.1708  0.3849
   26MPD2    H3  406   4.267   4.029  11.227 -1.3629  1.5180 -1.7288
   26MPD2     N  407   4.235   4.153  11.666  0.6751 -0.1276  0.0460
   26MPD2    H5  408   4.173   4.187  11.739  0.9917 -0.1161  0.3107
   26MPD2    N1  409   3.846   4.065  11.381  0.2779 -0.3029  0.0757
   26MPD2    H7  410   3.817   4.005  11.304  0.2131 -0.1504 -0.0204
   27TMC2    C1  411   3.103   2.273  11.837  0.0891 -0.2818 -0.3701
   27TMC2    C2  412   2.999   2.303  11.745  0.3734  0.4095 -0.7248
   27TMC2    C3  413   2.932   2.421  11.759  0.1496  0.5036 -1.2498
   27TMC2    C4  414   3.136   2.370  11.923  0.0657 -0.5683  0.0191
   27TMC2    C5  415   3.071   2.489  11.936  0.5948  0.0499  0.9732
   27TMC2    C6  416   2.964   2.520  11.845  0.1236 -0.1210  0.1478
   27TMC2     C  417   3.062   2.159  11.913 -0.2605  0.3925 -0.6348
   27TMC2     O  418   3.063   2.051  11.864  0.1382 -0.6162  0.1830
   27TMC2     H  419   2.960   2.232  11.674  0.5235  1.1788 -1.5710
   27TMC2    H1  420   3.228   2.367  11.980  1.4155 -2.0960 -2.2847
   27TMC2    H2  421   2.897   2.603  11.861  0.3749  0.3856 -1.4611
   27TMC2    C7  422   3.069   2.541  12.067 -0.1318 -0.3762  0.3710
   27TMC2    C8  423   2.883   2.481  11.638  0.2871 -0.2815 -0.1187
   27TMC2    O1  424   3.127   2.476  12.151 -0.5773 -0.0853  0.2346
   27TMC2    O2  425   2.923   2.594  11.613  0.2588 -0.3954  0.4166
   27TMC2    O5  426   2.812   2.390  11.570  0.4045 -0.4202  0.2396
   27TMC2    H5  427   2.792   2.303  11.612 -1.6293 -0.9298 -1.7913
   28MPD2     C  428   2.819   1.948  12.299 -0.6004 -0.1961  0.5347
   28MPD2    C1  429   2.836   2.080  12.323 -0.3689  0.6098  0.2375
   28MPD2    C2  430   2.910   2.157  12.230 -0.5794  0.0666 -0.6197
   28MPD2    C3  431   2.968   2.098  12.127  0.3080 -0.7455  0.9155
   28MPD2    C4  432   2.951   1.965  12.109 -0.9197 -0.4342 -0.0965
   28MPD2    C5  433   2.875   1.885  12.192 -0.4118  0.3579 -0.3979
   28MPD2     H  434   2.934   2.261  12.251 -1.4522  0.3817 -1.2123
   28MPD2    H1  435   2.983   1.913  12.020 -1.2387 -1.5655  0.4455
   28MPD2    H2  436   2.746   1.891  12.355 -1.0487  1.3817  1.5375
   28MPD2    H3  437   2.849   1.781  12.178 -1.4670  0.4247  1.1434
   28MPD2     N  438   3.033   2.188  12.044 -0.0261 -0.0927 -0.4295
   28MPD2    H5  439   3.051   2.285  12.069 -1.9316  0.5144 -1.4695
   28MPD2    N1  440   2.764   2.133  12.431  0.1201  0.2829 -0.3119
   28MPD2    H7  441   2.688   2.073  12.459 -0.9654  1.3521 -0.9727
   29MPD2     C  442   2.128   4.104  14.132  0.3534 -0.0017 -0.5584
   29MPD2    C1  443   2.259   4.062  14.157 -0.4155 -0.1194  0.3689
   29MPD2    C2  444   2.335   4.140  14.246 -0.7350 -0.1199 -0.1225
   29MPD2    C3  445   2.283   4.247  14.317  0.0659  0.1610  0.3905
   29MPD2    C4  446   2.154   4.283  14.286  0.9135 -0.3630 -0.6337
   29MPD2    C5  447   2.077   4.205  14.200 -0.0525  0.3233 -0.5536
   29MPD2     H  448   2.426   4.089  14.275 -0.5879 -0.5681 -1.3713
   29MPD2    H1  449   2.106   4.371  14.329 -0.1483 -1.3723  0.2262
   29MPD2    H2  450   2.079   4.044  14.057 -2.3135 -0.2020  1.3419
   29MPD2    H3  451   1.976   4.238  14.179 -0.4539 -0.2336  0.4735
   29MPD2     N  452   2.356   4.325  14.412  1.1675  0.1017 -0.5637
   29MPD2    H5  453   2.307   4.396  14.466  1.9776  1.3629 -1.5027
   29MPD2    N1  454   2.318   3.946  14.102  0.1105  0.1153 -0.2409
   29MPD2    H7  455   2.417   3.926  14.108  0.5249  2.3122  0.2728
   30TCq2    C1  456   2.480   4.296  14.451 -0.3924 -0.2677 -0.2214
   30TCq2    O2  457   2.570   4.243  14.383  0.8642  0.0028  0.1069
   30TCq2    C2  458   2.523   4.393  14.549  0.1713 -0.4504  0.0392
   30TCq2    C3  459   2.441   4.420  14.652 -0.5590  0.7312 -0.2222
   30TCq2    C4  460   2.444   4.541  14.714  0.8321 -0.1131 -0.4891
   30TCq2    C5  461   2.533   4.635  14.678 -0.3486 -0.6922  0.2134
   30TCq2    C6  462   2.616   4.602  14.572 -0.0068 -0.0166 -1.0091
   30TCq2    C7  463   2.618   4.481  14.507 -0.7292 -1.2221 -0.0028
   30TCq2    C8  464   2.649   4.716  14.481  0.5844  0.5004 -0.9053
   30TCq2    O4  465   2.668   4.694  14.362 -0.0022  0.0434  0.3257
   30TCq2    C9  466   2.347   4.577  14.810 -0.4152  0.3153 -0.6956
   30TCq2    O5  467   2.275   4.475  14.856  0.4511  0.4499  0.8888
   30TCq2    O6  468   2.338   4.699  14.842 -0.0361  0.3112  0.4380
   30TCq2    H2  469   2.367   4.348  14.687  0.4741  0.6772  1.8550
   30TCq2    H3  470   2.550   4.722  14.742 -2.5416  0.1425 -0.3397
   30TCq2    H4  471   2.672   4.465  14.415  0.6919 -1.0769  0.8061
   31MPD2     C  472   0.849   3.543  14.612 -0.0832 -0.0064  0.1819
   31MPD2    C1  473   0.742   3.629  14.608  0.0656 -0.5712  0.3894
   31MPD2    C2  474   0.656   3.626  14.711  0.1246  0.3128  0.2515
   31MPD2    C3  475   0.666   3.543  14.823  0.3267 -0.2180  0.1670
   31MPD2    C4  476   0.777   3.453  14.822 -0.1589  0.1201  0.2005
   31MPD2    C5  477   0.866   3.458  14.715 -0.6565 -0.3970  0.1483
   31MPD2     H  478   0.580   3.703  14.714 -2.2174 -1.9950 -0.3643
   31MPD2    H1  479   0.785   3.377  14.899  0.0700 -0.0188  0.0371
   31MPD2    H2  480   0.912   3.537  14.524 -1.2009 -1.1043 -0.5486
   31MPD2    H3  481   0.941   3.379  14.707  1.1353  1.3287 -0.0936
   31MPD2     N  482   0.572   3.540  14.926  0.2722 -0.1758 -0.0749
   31MPD2    H5  483   0.593   3.476  15.001  0.2820  1.5828  1.4196
   31MPD2    N1  484   0.726   3.700  14.490 -0.1643  0.1711 -0.1228
   31MPD2    H7  485   0.805   3.703  14.425 -0.5698  0.5678 -0.5957
   32TCq2    C1  486   0.456   3.610  14.938 -0.3598 -0.7093 -0.5954
   32TCq2    O2  487   0.401   3.687  14.859  0.2692  0.0020  0.1633
   32TCq2    C2  488   0.384   3.599  15.067 -0.2702  0.6881  0.0054
   32TCq2    C3  489   0.265   3.664  15.066 -0.1541  0.1690 -0.0490
   32TCq2    C4  490   0.169   3.618  15.151 -0.2602  0.0115 -0.1631
   32TCq2    C5  491   0.198   3.517  15.237  0.4049 -0.3803 -0.2193
   32TCq2    C6  492   0.327   3.471  15.241 -0.4455 -0.0847 -0.4724
   32TCq2    C7  493   0.428   3.513  15.162 -0.1477 -0.1626 -0.3183
   32TCq2    C8  494   0.371   3.380  15.350 -0.1972  0.1733  0.5609
   32TCq2    O4  495   0.488   3.349  15.364  0.5876  0.6098  0.2393
   32TCq2    C9  496   0.031   3.667  15.143  0.3020  0.0452  0.5622
   32TCq2    O5  497   4.664   3.609  15.219  0.1435 -0.1001 -0.4785
   32TCq2    O6  498   0.008   3.751  15.051 -0.7408 -0.4663 -0.4552
   32TCq2    H2  499   0.234   3.738  14.993  1.2900 -0.2106 -1.0276
   32TCq2    H3  500   0.116   3.494  15.304  0.3789 -0.1886 -0.1865
   32TCq2    H4  501   0.532   3.486  15.182 -0.6901  1.1629  4.2648
   33MPD2     C  502   0.453   0.949  10.861  0.1880  0.0727 -0.2829
   33MPD2    C1  503   0.402   0.879  10.757  0.1506 -0.1436 -0.2825
   33MPD2    C2  504   0.326   0.930  10.656  0.1487  0.2938 -0.3605
   33MPD2    C3  505   0.294   1.066  10.660  0.0532  0.6301  0.0224
   33MPD2    C4  506   0.351   1.140  10.761 -0.8567  0.5836 -0.5266
   33MPD2    C5  507   0.437   1.088  10.856  0.0087 -0.1657 -0.0783
   33MPD2     H  508   0.273   0.867  10.586  0.4898  0.5840 -0.8726
   33MPD2    H1  509   0.339   1.248  10.764  1.8453  0.8320  2.4578
   33MPD2    H2  510   0.513   0.907  10.941  0.1421  0.7450  0.0961
   33MPD2    H3  511   0.475   1.146  10.939 -1.1640 -0.4773  0.6669
   33MPD2     N  512   0.212   1.131  10.568 -0.5518 -0.5926  0.2965
   33MPD2    H5  513   0.195   1.231  10.576 -0.9292 -0.6848  0.6472
   33MPD2    N1  514   0.435   0.745  10.741 -0.7278 -0.2351  0.0833
   33MPD2    H7  515   0.394   0.703  10.658 -0.8736 -1.5107  0.7939
   34TCq2    C1  516   0.167   1.069  10.451  0.3456 -1.0779 -0.4651
   34TCq2    O2  517   0.158   0.952  10.414  0.6058 -0.4968 -0.1901
   34TCq2    C2  518   0.094   1.161  10.375  0.2448  0.0856  0.0528
   34TCq2    C3  519   4.722   1.122  10.294  0.6901  0.1184 -1.1530
   34TCq2    C4  520   4.651   1.213  10.220  0.1528  0.4355 -0.7440
   34TCq2    C5  521   4.689   1.342  10.209 -0.3914  0.0408  0.0913
   34TCq2    C6  522   0.080   1.373  10.280 -0.0827 -0.3406  0.5291
   34TCq2    C7  523   0.134   1.291  10.367 -0.4941 -0.0312  0.0630
   34TCq2    C8  524   0.141   1.503  10.258 -0.1069  0.0454  0.6704
   34TCq2    O4  525   0.255   1.516  10.295  0.4197 -0.0132  0.3924
   34TCq2    C9  526   4.549   1.171  10.132  0.2997 -0.2435 -0.5344
   34TCq2    O5  527   4.493   1.260  10.066 -0.0314 -0.2359  0.1085
   34TCq2    O6  528   4.547   1.044  10.116 -0.2305 -0.5651 -0.5262
   34TCq2    H2  529   4.702   1.015  10.295 -1.2107  0.4883 -0.1003
   34TCq2    H3  530   4.646   1.417  10.143  1.1206 -0.0383 -0.9849
   34TCq2    H4  531   0.207   1.332  10.435  1.0386 -0.4643 -1.3076
   35MPD2     C  532   2.111   2.061  11.546 -0.0863  0.5528 -0.1479
   35MPD2    C1  533   2.072   2.063  11.676  0.8046  0.1790  0.3015
   35MPD2    C2  534   1.934   2.069  11.709  0.0999 -0.5943  0.7687
   35MPD2    C3  535   1.845   2.068  11.601  0.3293 -0.1065  0.4435
   35MPD2    C4  536   1.879   2.053  11.471  0.7655 -0.4387 -0.3555
   35MPD2    C5  537   2.017   2.058  11.444  0.2579  0.4898  0.1547
   35MPD2     H  538   1.908   2.080  11.813 -0.1026  1.3652  0.5065
   35MPD2    H1  539   1.808   2.040  11.390  1.2951  0.7020 -0.9928
   35MPD2    H2  540   2.217   2.067  11.528  0.1042 -0.5029  0.6256
   35MPD2    H3  541   2.057   2.053  11.343  1.6180 -0.8854  0.7758
   35MPD2     N  542   1.706   2.066  11.634  0.1742 -0.2770 -0.6441
   35MPD2    H5  543   1.678   2.051  11.730  1.2025  0.1213 -0.2783
   35MPD2    N1  544   2.179   2.050  11.767  0.0978 -0.6564 -0.0349
   35MPD2    H7  545   2.274   2.060  11.731 -0.9318  0.4635 -2.4434
   36TCq2    C1  546   1.604   2.105  11.544  0.7515 -0.5378 -0.2960
   36TCq2    O2  547   1.622   2.152  11.432 -0.2743  0.6343  0.8155
   36TCq2    C2  548   1.466   2.100  11.595  0.2798  0.1665 -0.3944
   36TCq2    C3  549   1.384   2.194  11.535  0.4205 -0.5198 -0.3375
   36TCq2    C4  550   1.255   2.184  11.573 -0.3619  1.0868 -1.0412
   36TCq2    C5  551   1.205   2.080  11.646 -0.4773  0.4089  0.6628
   36TCq2    C6  552   1.287   1.986  11.694 -0.1795 -0.6716 -0.0729
   36TCq2    C7  553   1.421   2.001  11.678  1.1049 -0.1648 -0.3195
   36TCq2    C8  554   1.242   1.858  11.744  0.1174  0.1493  0.0444
   36TCq2    O4  555   1.306   1.784  11.815 -0.0654 -0.0903  0.3890
   36TCq2    C9  556   1.158   2.291  11.543  0.4453 -0.1159  0.4595
   36TCq2    O5  557   1.048   2.288  11.605  0.0684 -0.0413  0.1602
   36TCq2    O6  558   1.212   2.384  11.477 -0.2960 -0.1316  0.0706
   36TCq2    H2  559   1.416   2.274  11.470 -1.0744 -0.5845 -1.1351
   36TCq2    H3  560   1.100   2.085  11.673 -1.3200 -1.9354 -2.1138
   36TCq2    H4  561   1.487   1.931  11.727  1.8563  0.6996 -0.0805
   37TMC2    C1  562   4.335   2.649  11.906 -0.1218  0.2550 -0.3786
   37TMC2    C2  563   4.347   2.601  11.775 -0.0293 -0.2333 -0.4941
   37TMC2    C3  564   4.462   2.542  11.733  0.1104 -0.9299  0.1685
   37TMC2    C4  565   4.438   2.632  11.987 -0.6592  0.2307  1.0985
   37TMC2    C5  566   4.552   2.584  11.942 -0.3954 -0.8751 -0.2231
   37TMC2    C6  567   4.569   2.527  11.815  0.5841 -0.0725 -0.2905
   37TMC2     C  568   4.195   2.657  11.946  0.2570  0.6360 -0.2555
   37TMC2     O  569   4.105   2.696  11.874  0.1782 -1.1544 -0.4958
   37TMC2     H  570   4.256   2.585  11.719 -0.0788  1.9974 -1.0107
   37TMC2    H1  571   4.423   2.668  12.088  4.1543  0.9063  1.5668
   37TMC2    H2  572   4.647   2.459  11.782  0.4558 -0.8542  1.0057
   37TMC2    C7  573   4.661   2.551  12.036 -0.1849 -0.1240  0.8142
   37TMC2    C8  574   4.474   2.503  11.596 -0.7903 -0.5279 -0.1165
   37TMC2    O1  575   4.629   2.568  12.153  0.1870  0.1342  0.2066
   37TMC2    O2  576   4.381   2.497  11.517  0.1281  0.4554  0.0506
   37TMC2    O5  577   4.593   2.548  11.556  0.2420  0.7098  0.1384
   37TMC2    H5  578   4.663   2.529  11.622  0.6777 -0.1601 -0.5842
   38MPD2     C  579   3.847   2.548  12.324 -0.0387 -0.0907  0.0565
   38MPD2    C1  580   3.977   2.528  12.367  0.5902  0.0429  0.1729
   38MPD2    C2  581   4.086   2.555  12.290  0.0007 -0.9010 -0.2379
   38MPD2    C3  582   4.073   2.593  12.156  0.7190  0.4966  0.3019
   38MPD2    C4  583   3.944   2.610  12.108  0.3365 -0.5154 -0.3887
   38MPD2    C5  584   3.832   2.580  12.189  0.3277 -0.5977 -0.3075
   38MPD2     H  585   4.186   2.532  12.322  0.6154  0.0189 -1.4779
   38MPD2    H1  586   3.926   2.632  12.004 -0.0226 -0.1441 -0.2495
   38MPD2    H2  587   3.763   2.523  12.388  0.4699 -0.4335  0.5842
   38MPD2    H3  588   3.732   2.581  12.148  0.3736  1.2890 -0.3672
   38MPD2     N  589   4.187   2.615  12.075 -0.5131 -0.3769  0.2835
   38MPD2    H5  590   4.269   2.576  12.122  0.4274  1.4287  0.1210
   38MPD2    N1  591   4.003   2.472  12.496  0.2776  0.6041  0.2807
   38MPD2    H7  592   4.101   2.454  12.518  0.3217  0.1675 -0.2670
   39MPD2     C  593   1.986   4.231   1.701 -0.3397 -0.2684  0.3022
   39MPD2    C1  594   1.933   4.357   1.708  0.3342  0.2778 -0.9371
   39MPD2    C2  595   1.800   4.372   1.685 -0.2876 -0.0200  0.6668
   39MPD2    C3  596   1.719   4.268   1.649 -0.3860 -0.0317 -0.4269
   39MPD2    C4  597   1.772   4.137   1.653  0.1218  0.6747 -0.0570
   39MPD2    C5  598   1.907   4.119   1.674 -0.3285  0.4775  0.7245
   39MPD2     H  599   1.760   4.472   1.691  2.6495  1.1111  1.4260
   39MPD2    H1  600   1.721   4.056   1.603  0.2843 -0.3375  1.4386
   39MPD2    H2  601   2.093   4.221   1.689 -0.2164 -0.3204  1.4323
   39MPD2    H3  602   1.958   4.024   1.658  0.1013  1.3480 -3.0171
   39MPD2     N  603   1.578   4.283   1.610 -0.3005 -0.4479  0.3137
   39MPD2    H5  604   1.530   4.198   1.582 -0.6659 -0.2527  0.3504
   39MPD2    N1  605   2.026   4.462   1.737  0.1515  0.3314 -0.1599
   39MPD2    H7  606   2.125   4.439   1.738 -0.1335 -0.8310  0.2570
   40TCq2    C1  607   1.977   4.591   1.750  1.6916 -0.0063  0.2731
   40TCq2    O2  608   1.865   4.640   1.762  0.0768 -0.0080  0.5852
   40TCq2    C2  609   2.083   4.691   1.772 -0.0581  0.5227 -0.4274
   40TCq2    C3  610   2.046   0.074   1.852 -0.0709 -0.3282  0.1569
   40TCq2    C4  611   2.142   0.162   1.892 -0.1958  0.7588 -1.2148
   40TCq2    C5  612   2.278   0.137   1.860 -0.7563  0.2794  0.0349
   40TCq2    C6  613   2.315   0.030   1.781  0.4572  0.5263  0.5946
   40TCq2    C7  614   2.214   4.661   1.748 -0.5417 -0.3935 -0.0935
   40TCq2    C8  615   2.430   0.045   1.696  0.7640  0.4180  0.0029
   40TCq2    O4  616   2.461   4.673   1.625  0.3056  0.4111  0.4641
   40TCq2    C9  617   2.111   0.283   1.965  0.8861 -0.2111  0.6215
   40TCq2    O5  618   1.990   0.324   1.965  0.0380  0.1403 -0.2347
   40TCq2    O6  619   2.207   0.332   2.036  0.0065  0.6742 -0.4453
   40TCq2    H2  620   1.941   0.083   1.876  0.6797 -1.0519  3.6971
   40TCq2    H3  621   2.353   0.206   1.895  0.1679  0.1090 -1.6252
   40TCq2    H4  622   2.240   4.581   1.680  0.9587  1.2108 -1.4259
   41TMC2    C1  623   1.485   2.313  14.011 -0.1402  0.6508  0.1147
   41TMC2    C2  624   1.386   2.404  14.052  0.7370  0.0641 -0.1390
   41TMC2    C3  625   1.307   2.454  13.955  0.7129  0.1895 -0.0563
   41TMC2    C4  626   1.510   2.290  13.879  0.1819  0.2132  0.6859
   41TMC2    C5  627   1.424   2.348  13.786  0.7773 -0.2758  0.2994
   41TMC2    C6  628   1.316   2.422  13.823 -0.0110 -0.3662 -0.1491
   41TMC2     C  629   1.579   2.248  14.108 -0.5493  0.1359  0.4560
   41TMC2     O  630   1.629   2.148  14.061  0.2879 -0.1944 -0.5104
   41TMC2     H  631   1.372   2.434  14.156 -0.8296  0.1182 -0.3654
   41TMC2    H1  632   1.599   2.238  13.846 -0.2462 -0.8675  1.2325
   41TMC2    H2  633   1.232   2.448  13.760 -0.5447  0.1561  0.7672
   41TMC2    C7  634   1.445   2.313  13.646 -0.4515  0.6110 -0.0452
   41TMC2    C8  635   1.203   2.540  13.979 -0.4775 -0.3176  0.0585
   41TMC2    O1  636   1.555   2.266  13.621 -0.3818 -0.1679 -0.1839
   41TMC2    O2  637   1.173   2.626  13.894  0.4282  0.5274 -0.2507
   41TMC2    O5  638   1.114   2.475  14.055  0.2259 -0.1039  0.0394
   41TMC2    H5  639   1.154   2.397  14.100  1.8679  0.2538 -0.8042
   42MPD2     C  640   1.753   2.190  14.350  0.1142 -0.4386 -0.0849
   42MPD2    C1  641   1.639   2.257  14.353 -0.0526 -0.1696  0.7079
   42MPD2    C2  642   1.600   2.327  14.467  0.1939  0.6205  0.0465
   42MPD2    C3  643   1.668   2.320  14.585 -0.4101  0.4214  0.1352
   42MPD2    C4  644   1.775   2.235  14.589 -0.9986  0.0926  1.0348
   42MPD2    C5  645   1.817   2.173  14.473 -0.7939 -0.6095  0.6229
   42MPD2     H  646   1.510   2.386  14.460  0.0361 -0.0998 -3.7801
   42MPD2    H1  647   1.838   2.231  14.677  0.3681 -1.9182 -0.0363
   42MPD2    H2  648   1.792   2.151  14.257 -4.1402 -0.4866 -1.8820
   42MPD2    H3  649   1.912   2.121  14.478 -1.1896 -1.5270 -1.1003
   42MPD2     N  650   1.629   2.397  14.702 -0.2548  0.1689  0.2428
   42MPD2    H5  651   1.677   2.368  14.786  0.1133  2.4643  0.7984
   42MPD2    N1  652   1.566   2.296  14.240 -0.2497  0.3911 -0.9826
   42MPD2    H7  653   1.511   2.381  14.249 -1.0887 -0.0686 -1.6847
   43MPD2     C  654   2.734   1.639   0.474 -0.1603 -0.1000  0.0800
   43MPD2    C1  655   2.738   1.575   0.595  0.1150  0.8811 -0.0333
   43MPD2    C2  656   2.639   1.595   0.681  0.2036  0.0392 -0.7500
   43MPD2    C3  657   2.533   1.672   0.655  0.2870 -1.4453  0.5703
   43MPD2    C4  658   2.523   1.728   0.526  0.0523  0.0919  0.1116
   43MPD2    C5  659   2.625   1.709   0.439  0.2540  0.5659  0.6737
   43MPD2     H  660   2.644   1.542   0.776 -0.9749  0.2993 -0.5417
   43MPD2    H1  661   2.437   1.782   0.489  0.6778  0.9688 -0.0632
   43MPD2    H2  662   2.819   1.636   0.406 -2.1289 -2.7275 -2.2358
   43MPD2    H3  663   2.617   1.746   0.338  0.2093  0.2594  0.5643
   43MPD2     N  664   2.427   1.693   0.750 -0.4144 -0.2424  0.2582
   43MPD2    H5  665   2.350   1.748   0.714 -1.4670 -1.4471  0.6796
   43MPD2    N1  666   2.836   1.478   0.625 -0.6264  0.2173 -0.0323
   43MPD2    H7  667   2.829   1.443   0.720 -2.2036 -2.1436 -1.0316
   44TCq2    C1  668   2.388   1.955   1.284 -0.2013 -0.8414  0.2907
   44TCq2    O2  669   2.498   1.928   1.326 -0.6058  0.7186 -0.0260
   44TCq2    C2  670   2.346   1.924   1.148  0.4389  1.0123 -0.1187
   44TCq2    C3  671   2.226   1.975   1.092 -0.0534 -0.4135 -0.3385
   44TCq2    C4  672   2.179   1.930   0.968  0.2530  0.1206  0.1336
   44TCq2    C5  673   2.249   1.825   0.912  0.5030 -0.1976  0.0769
   44TCq2    C6  674   2.363   1.771   0.967  0.3010 -0.2935  0.8219
   44TCq2    C7  675   2.411   1.822   1.084 -0.1132 -0.3832  0.1602
   44TCq2    C8  676   2.443   1.675   0.889  0.5272  0.1869 -0.5600
   44TCq2    O4  677   2.518   1.602   0.954 -0.5306 -0.2488 -0.6750
   44TCq2    C9  678   2.058   1.979   0.910  0.1531 -0.0510  0.6228
   44TCq2    O5  679   2.046   1.953   0.787 -0.2432  0.4701 -0.0173
   44TCq2    O6  680   1.983   2.049   0.983  0.1652  0.4192 -0.2872
   44TCq2    H2  681   2.171   2.053   1.144 -0.7026 -1.6981  0.9009
   44TCq2    H3  682   2.208   1.779   0.824  0.4955  1.4208 -0.7661
   44TCq2    H4  683   2.499   1.782   1.133 -0.1206 -0.5716  0.0195
   45TMC2    C1  684   3.432   3.644   9.666 -0.1443 -0.2752  0.8513
   45TMC2    C2  685   3.314   3.714   9.616 -0.5872 -0.1809  0.4046
   45TMC2    C3  686   3.267   3.820   9.685 -0.4456 -0.6683  0.0712
   45TMC2    C4  687   3.500   3.702   9.774  0.3664 -0.3129 -0.0652
   45TMC2    C5  688   3.453   3.821   9.825  0.8392  0.1997 -0.0330
   45TMC2    C6  689   3.330   3.864   9.795 -0.4673 -0.5689 -0.4161
   45TMC2     C  690   3.475   3.520   9.610  0.5501  0.3017  0.0589
   45TMC2     O  691   3.566   3.463   9.662 -0.3758  0.2049  0.7720
   45TMC2     H  692   3.242   3.673   9.545  1.0703 -1.0925 -0.7381
   45TMC2    H1  693   3.606   3.687   9.794  0.1659  1.2868  2.0968
   45TMC2    H2  694   3.289   3.931   9.871 -0.7632  0.9917 -1.9351
   45TMC2    C7  695   3.525   3.901   9.928 -0.2558  0.4314 -0.2850
   45TMC2    C8  696   3.124   3.842   9.680  0.1385  0.5131  0.1895
   45TMC2    O1  697   3.493   4.017   9.926 -0.3095  0.3891  0.2381
   45TMC2    O2  698   3.051   3.772   9.615 -0.5008 -0.0236 -0.2272
   45TMC2    O5  699   3.102   3.968   9.713 -0.2163 -0.1856  0.8262
   45TMC2    H5  700   3.168   4.024   9.758 -0.1839  0.4408  0.0114
   46MPD2     C  701   3.513   3.295   9.433  0.1815 -0.4505 -0.1466
   46MPD2    C1  702   3.422   3.396   9.406  0.0876 -0.1523  0.3213
   46MPD2    C2  703   3.337   3.379   9.289  0.0406 -0.2324 -0.4422
   46MPD2    C3  704   3.362   3.267   9.205 -0.1145  0.0936  1.6192
   46MPD2    C4  705   3.457   3.177   9.237  0.5815  0.5148  0.0475
   46MPD2    C5  706   3.528   3.185   9.352 -1.0594  0.9524  0.2160
   46MPD2     H  707   3.261   3.450   9.261 -1.7662 -1.4978  1.2865
   46MPD2    H1  708   3.476   3.086   9.180  1.0376 -0.4488  1.7256
   46MPD2    H2  709   3.571   3.282   9.523 -0.6062 -1.4470  0.2089
   46MPD2    H3  710   3.601   3.110   9.382 -0.5040  1.2242 -0.4498
   46MPD2     N  711   3.267   3.237   9.107 -0.0474  1.4384  0.3369
   46MPD2    H5  712   3.185   3.297   9.110 -2.4176 -1.7812  1.1112
   46MPD2    N1  713   3.405   3.504   9.496 -0.0303 -0.4944 -0.0640
   46MPD2    H7  714   3.335   3.569   9.464  0.4167 -1.4777 -2.9989
   47TMC2    C1  715   1.583   3.458   9.328  0.0254  0.2515 -0.0261
   47TMC2    C2  716   1.602   3.595   9.310 -0.2321 -0.5636  0.6718
   47TMC2    C3  717   1.505   3.670   9.247 -0.2255 -0.0837 -0.5030
   47TMC2    C4  718   1.471   3.402   9.281 -0.3888 -0.2716 -0.1955
   47TMC2    C5  719   1.387   3.477   9.205  0.2478 -0.4362  0.5259
   47TMC2    C6  720   1.397   3.610   9.186  0.3108 -0.2485  0.0201
   47TMC2     C  721   1.666   3.397   9.429  0.6734  0.4746 -0.2056
   47TMC2     O  722   1.761   3.467   9.471 -0.1587  0.0264  0.3737
   47TMC2     H  723   1.686   3.648   9.354 -1.1203 -0.5099  2.3126
   47TMC2    H1  724   1.470   3.294   9.273  2.0452 -0.2820 -0.4829
   47TMC2    H2  725   1.310   3.657   9.141 -0.1858 -1.2663 -0.0902
   47TMC2    C7  726   1.251   3.416   9.175 -0.2340 -0.8676 -0.6177
   47TMC2    C8  727   1.520   3.812   9.243  0.2625 -0.1525  0.7113
   47TMC2    O1  728   1.174   3.459   9.092  0.0086 -0.5127 -0.0714
   47TMC2    O2  729   1.580   3.868   9.334  0.2988  0.4147  0.1821
   47TMC2    O5  730   1.428   3.866   9.153 -0.0599 -0.1606  0.7621
   47TMC2    H5  731   1.399   3.804   9.083 -0.6741 -1.7687  2.4370
   48MPD2     C  732   1.834   3.221   9.591  0.2143 -0.7312  0.3940
   48MPD2    C1  733   1.737   3.177   9.504  0.5844 -1.0024  0.2401
   48MPD2    C2  734   1.720   3.042   9.485  0.5120  0.0973  0.3231
   48MPD2    C3  735   1.794   2.952   9.551 -0.0038  0.3837 -0.4834
   48MPD2    C4  736   1.885   2.992   9.645  0.6950 -0.1289 -0.8648
   48MPD2    C5  737   1.902   3.128   9.668  0.5955 -0.5911  0.4069
   48MPD2     H  738   1.645   3.002   9.419  0.3751 -1.8584  1.6686
   48MPD2    H1  739   1.949   2.919   9.693 -1.6426 -1.0344  0.8969
   48MPD2    H2  740   1.843   3.323   9.627 -0.8419 -0.4735 -0.0736
   48MPD2    H3  741   1.969   3.162   9.745 -1.2436  2.7872  0.5031
   48MPD2     N  742   1.756   2.815   9.530  0.2247  0.0215  0.4191
   48MPD2    H5  743   1.672   2.789   9.478 -0.5097 -0.4834  1.8505
   48MPD2    N1  744   1.651   3.265   9.438 -0.4180  0.0445  0.0485
   48MPD2    H7  745   1.579   3.236   9.372  0.0029 -0.1975 -0.3031
   49MPD2     C  746   3.482   0.638   9.940  0.4500 -0.1046 -0.5341
   49MPD2    C1  747   3.560   0.559  10.022  0.0201 -0.3944  0.0571
   49MPD2    C2  748   3.687   0.603  10.056  0.3740  0.0136  0.6508
   49MPD2    C3  749   3.729   0.737  10.036  0.1236  0.4109  0.5304
   49MPD2    C4  750   3.647   0.813   9.952 -0.1507 -0.3565 -0.3092
   49MPD2    C5  751   3.525   0.765   9.906 -0.1422 -0.2576  0.5484
   49MPD2     H  752   3.744   0.532  10.114 -1.3540 -0.6729  1.5069
   49MPD2    H1  753   3.682   0.910   9.917 -1.5789  0.0275 -0.6475
   49MPD2    H2  754   3.385   0.608   9.900 -0.6847  1.7170  0.8442
   49MPD2    H3  755   3.471   0.814   9.826  2.6931  0.2390 -1.0658
   49MPD2     N  756   3.851   0.791  10.083  0.3874 -0.1257  0.2517
   49MPD2    H5  757   3.872   0.886  10.055  1.3881 -1.3502 -3.1167
   49MPD2    N1  758   3.511   0.435  10.086 -0.8270 -0.9511 -0.4854
   49MPD2    H7  759   3.582   0.393  10.145  1.1147  0.0541 -2.1100
   50TCq2    C1  760   3.384   0.372  10.063 -0.3618 -0.6535  0.1944
   50TCq2    O2  761   3.291   0.403   9.984  0.2661  0.1398  0.2778
   50TCq2    C2  762   3.367   0.249  10.144 -0.1871 -0.2787 -0.2111
   50TCq2    C3  763   3.309   0.141  10.081  0.0670  0.2841 -0.2936
   50TCq2    C4  764   3.337   0.011  10.122  0.1034 -0.2637 -0.2784
   50TCq2    C5  765   3.415   4.712  10.231  0.2769  0.0250  0.3875
   50TCq2    C6  766   3.464   0.096  10.294 -0.3553  0.7022 -0.2930
   50TCq2    C7  767   3.444   0.228  10.253  0.3081  0.3703  0.0416
   50TCq2    C8  768   3.556   0.067  10.402  0.8262  0.0345  0.3746
   50TCq2    O4  769   3.555   4.677  10.445  0.9776 -0.4611 -0.0048
   50TCq2    C9  770   3.302   4.636  10.022 -0.7695 -0.2073 -0.4389
   50TCq2    O5  771   3.357   4.524  10.023 -0.2527  0.1265  0.7102
   50TCq2    O6  772   3.214   4.662   9.937  0.3034  0.0977  0.3922
   50TCq2    H2  773   3.252   0.160   9.991  0.5196 -1.2020 -0.8888
   50TCq2    H3  774   3.443   4.612  10.262  0.8704  0.2523  0.5779
   50TCq2    H4  775   3.488   0.318  10.292 -0.6464  1.6096 -1.6897
   51MPD2     C  776   0.732   3.346   1.522 -0.2603  1.1465  0.1709
   51MPD2    C1  777   0.640   3.390   1.432 -0.4000 -0.1301  0.0021
   51MPD2    C2  778   0.509   3.409   1.478  0.4486  0.2291  0.1259
   51MPD2    C3  779   0.480   3.390   1.608 -0.6985 -0.0698  0.4380
   51MPD2    C4  780   0.582   3.359   1.694 -0.3243  0.1574 -0.0456
   51MPD2    C5  781   0.714   3.339   1.652  0.3371  0.3053 -0.4925
   51MPD2     H  782   0.429   3.440   1.412  1.4514  1.3693 -0.5544
   51MPD2    H1  783   0.570   3.358   1.802 -1.4737  1.5423 -0.1539
   51MPD2    H2  784   0.837   3.336   1.497 -1.0155 -2.2779 -1.5933
   51MPD2    H3  785   0.798   3.327   1.719 -1.2426 -0.3324  1.3518
   51MPD2     N  786   0.357   3.418   1.669 -0.4866 -0.6115  0.0425
   51MPD2    H5  787   0.340   3.388   1.764  0.1408 -2.0873 -0.2970
   51MPD2    N1  788   0.656   3.405   1.295  0.3974  0.0443 -0.6375
   51MPD2    H7  789   0.578   3.440   1.241 -0.1758  0.9244  0.7698
   52TCq2    C1  790   0.239   3.459   1.607  0.5491 -0.0899 -0.0399
   52TCq2    O2  791   0.210   3.454   1.484  0.6302  0.1376  0.7657
   52TCq2    C2  792   0.146   3.524   1.699  0.4837  0.1357 -0.3333
   52TCq2    C3  793   0.161   3.517   1.836 -0.6063  0.0869 -0.7804
   52TCq2    C4  794   0.093   3.616   1.910 -0.2337  0.3422 -0.0763
   52TCq2    C5  795   0.014   3.707   1.846 -0.3206 -0.0599  0.1174
   52TCq2    C6  796   4.713   3.696   1.711 -1.4990 -0.9052 -0.8640
   52TCq2    C7  797   0.061   3.607   1.640 -0.6088 -0.0932  0.2713
   52TCq2    C8  798   4.621   3.792   1.644  0.1100 -0.6514 -0.6125
   52TCq2    O4  799   4.588   3.886   1.712  0.6364 -0.2915 -0.2732
   52TCq2    C9  800   0.127   3.646   2.046 -0.1242 -0.0254  0.3746
   52TCq2    O5  801   0.078   3.748   2.100 -0.7118  0.9131 -0.3060
   52TCq2    O6  802   0.215   3.574   2.098 -0.1064  0.8961  0.3146
   52TCq2    H2  803   0.232   3.448   1.880 -0.4544  0.1406 -0.9411
   52TCq2    H3  804   4.680   3.784   1.897 -0.5439  1.8104 -2.9802
   52TCq2    H4  805   0.062   3.622   1.533  1.3987  0.3713  0.3502
   53TMC2    C1  806   0.283   2.439  12.643  0.5854  0.4191 -0.5972
   53TMC2    C2  807   0.296   2.351  12.748 -0.4174 -0.6186  0.3060
   53TMC2    C3  808   0.196   2.355  12.840  0.5380  0.5083  0.5163
   53TMC2    C4  809   0.187   2.537  12.635  0.1840 -0.2977 -0.2567
   53TMC2    C5  810   0.093   2.536  12.738 -0.0753  0.1508  0.2734
   53TMC2    C6  811   0.096   2.447  12.837  0.2714 -0.0092 -0.0331
   53TMC2     C  812   0.327   2.398  12.512 -0.9932  0.2608 -0.2168
   53TMC2     O  813   0.429   2.329  12.505  0.1496  0.6607  0.5349
   53TMC2     H  814   0.372   2.273  12.750 -1.2747 -1.4804 -0.6167
   53TMC2    H1  815   0.180   2.606  12.552 -1.9632  0.3385  0.4442
   53TMC2    H2  816   0.012   2.428  12.903 -0.2771 -2.3943 -1.4266
   53TMC2    C7  817   4.696   2.602  12.700  0.5932 -0.6045 -0.6141
   53TMC2    C8  818   0.193   2.267  12.952 -0.1223 -0.8377  0.1540
   53TMC2    O1  819   4.690   2.633  12.581 -0.5733 -0.4177  0.3827
   53TMC2    O2  820   0.089   2.223  13.003 -0.0573  0.2851  0.2539
   53TMC2    O5  821   0.320   2.237  12.980  0.2119 -0.5035 -0.1576
   53TMC2    H5  822   0.381   2.293  12.927 -0.2576 -0.2843 -0.4586
   54MPD2     C  823   0.374   2.359  12.223  0.0760  0.3157  0.1136
   54MPD2    C1  824   0.264   2.413  12.278 -0.4895 -0.4507  0.4104
   54MPD2    C2  825   0.165   2.469  12.196  0.3415 -0.0605 -0.0663
   54MPD2    C3  826   0.163   2.451  12.058  1.0421  0.7517 -0.1346
   54MPD2    C4  827   0.276   2.382  12.005  0.1002  1.0805  0.3770
   54MPD2    C5  828   0.383   2.347  12.087  0.2361  0.3146  0.1954
   54MPD2     H  829   0.087   2.520  12.252  0.6450 -0.6345  0.8812
   54MPD2    H1  830   0.290   2.366  11.899 -1.1111  0.8077  0.2546
   54MPD2    H2  831   0.461   2.332  12.282  0.0108 -0.1933 -0.0250
   54MPD2    H3  832   0.471   2.305  12.040 -1.9621 -0.2412 -3.4293
   54MPD2     N  833   0.054   2.500  11.978  0.0251 -0.8659  0.0385
   54MPD2    H5  834   0.072   2.503  11.878 -1.6053  1.9559 -0.1626
   54MPD2    N1  835   0.241   2.440  12.412  0.5731  0.1706  0.1652
   54MPD2    H7  836   0.160   2.494  12.440  0.7009 -0.5047  1.8436
   55MPD2     C  837   0.910   1.016  17.230  0.3970  0.0197 -0.6168
   55MPD2    C1  838   0.875   0.913  17.318 -0.0785 -0.4842  0.4938
   55MPD2    C2  839   0.801   0.956  17.430  0.2230  0.0327  0.2200
   55MPD2    C3  840   0.767   1.090  17.448  0.2451 -0.1394 -0.0230
   55MPD2    C4  841   0.797   1.184  17.352  0.1295  0.5887 -0.1036
   55MPD2    C5  842   0.874   1.151  17.243 -0.6832  0.2355  0.3831
   55MPD2     H  843   0.766   0.881  17.501 -0.6640  1.3473  1.1599
   55MPD2    H1  844   0.767   1.288  17.358  0.3169  0.6170  0.3625
   55MPD2    H2  845   0.963   0.991  17.139 -0.7502 -2.2451 -0.6708
   55MPD2    H3  846   0.916   1.231  17.183  0.0502  0.7415  1.5692
   55MPD2     N  847   0.699   1.125  17.566 -0.0807  0.2562  0.4183
   55MPD2    H5  848   0.691   1.047  17.631 -1.8676 -1.0022 -1.3313
   55MPD2    N1  849   0.924   0.780  17.297  0.3480  0.0760  0.0544
   55MPD2    H7  850   0.975   0.758  17.212 -2.2509  0.0433 -1.5131
   56TCq2    C1  851   0.917   0.682  17.395  0.8540  0.9133  0.1976
   56TCq2    O2  852   0.892   0.690  17.515  0.4445 -0.0216  0.0785
   56TCq2    C2  853   0.965   0.552  17.352 -0.0568  0.4009  0.6004
   56TCq2    C3  854   0.983   0.520  17.220  0.0174 -0.8499  0.1900
   56TCq2    C4  855   1.041   0.399  17.187  0.2034 -0.4538  0.4636
   56TCq2    C5  856   1.070   0.307  17.290 -0.1026  0.4135 -0.0372
   56TCq2    C6  857   1.059   0.347  17.425 -0.1713 -0.1485  0.6384
   56TCq2    C7  858   1.006   0.468  17.457 -0.7395  0.1726  0.4218
   56TCq2    C8  859   1.092   0.258  17.527 -0.1687  0.0856 -0.5649
   56TCq2    O4  860   1.170   0.169  17.503 -0.0158 -0.1463 -0.7921
   56TCq2    C9  861   1.093   0.373  17.053  0.3925 -1.2551 -0.2766
   56TCq2    O5  862   1.120   0.476  16.987 -0.6737 -0.5640  0.6977
   56TCq2    O6  863   1.125   0.256  17.024  0.1351 -0.4097  0.0624
   56TCq2    H2  864   0.948   0.577  17.135  1.9068  2.1528  1.4223
   56TCq2    H3  865   1.129   0.221  17.262  0.0667  0.5332 -0.0451
   56TCq2    H4  866   1.004   0.506  17.558 -1.0503  1.7747 -0.1802
   57TMC2    C1  867   0.133   1.662  13.415  1.1045 -0.5903 -0.0460
   57TMC2    C2  868   0.175   1.768  13.483  0.4901  0.5251 -0.2297
   57TMC2    C3  869   0.267   1.856  13.428 -0.1892  0.1165 -0.0621
   57TMC2    C4  870   0.202   1.620  13.298  0.0560 -0.0387 -0.4374
   57TMC2    C5  871   0.294   1.719  13.247 -0.5605  0.6953  0.1858
   57TMC2    C6  872   0.329   1.828  13.313  0.1356  0.1584 -0.3708
   57TMC2     C  873   4.723   1.612  13.458 -0.1755  0.1750  0.3452
   57TMC2     O  874   4.696   1.632  13.577 -0.4563  0.4825  0.0431
   57TMC2     H  875   0.136   1.806  13.576 -0.0863  2.3939 -1.2431
   57TMC2    H1  876   0.179   1.530  13.241  0.7248 -1.3140  1.2952
   57TMC2    H2  877   0.396   1.903  13.273  1.2038 -1.6297 -1.9261
   57TMC2    C7  878   0.361   1.678  13.125 -0.2200 -0.5690  0.0829
   57TMC2    C8  879   0.267   1.992  13.485  0.1205  0.5022 -0.2167
   57TMC2    O1  880   0.414   1.768  13.067  0.5269 -0.5438 -0.2906
   57TMC2    O2  881   0.301   2.008  13.602 -0.3034  0.2964 -0.1440
   57TMC2    O5  882   0.193   2.066  13.405  0.0793  0.4360 -0.7820
   57TMC2    H5  883   0.172   2.011  13.327  2.2667 -1.4042 -0.0703
   58MPD2     C  884   4.256   1.446  13.386  0.3812  0.1701 -0.4889
   58MPD2    C1  885   4.314   1.534  13.480 -0.2374 -0.0354 -0.2387
   58MPD2    C2  886   4.448   1.564  13.471 -0.2319 -0.7040  0.1081
   58MPD2    C3  887   4.526   1.505  13.368  0.2642 -0.0734  0.4887
   58MPD2    C4  888   4.466   1.420  13.278 -0.1251 -0.4642  0.3090
   58MPD2    C5  889   4.331   1.383  13.291 -0.1876 -0.5052  0.3258
   58MPD2     H  890   4.489   1.647  13.526 -0.2311 -1.1140  0.7283
   58MPD2    H1  891   4.528   1.378  13.199  0.9952  2.8249 -0.5604
   58MPD2    H2  892   4.149   1.432  13.383  0.3506  0.5043 -0.9383
   58MPD2    H3  893   4.292   1.303  13.230 -0.8634 -1.7038  2.3744
   58MPD2     N  894   4.663   1.546  13.360  0.2096  0.1581 -0.1527
   58MPD2    H5  895   4.708   1.519  13.273 -0.3994 -2.4757  0.3412
   58MPD2    N1  896   4.241   1.600  13.582  0.0958  0.2797  0.2565
   58MPD2    H7  897   4.293   1.662  13.644  1.8002  1.0601 -1.9736
   59MPD2     C  898   2.670   2.321  13.186 -0.7986 -0.1380 -0.2296
   59MPD2    C1  899   2.774   2.233  13.214 -0.3180 -0.0324  0.9008
   59MPD2    C2  900   2.873   2.276  13.293  0.5012  0.4376 -0.3692
   59MPD2    C3  901   2.874   2.408  13.336 -0.0494  0.1643  0.1318
   59MPD2    C4  902   2.778   2.495  13.296 -0.3383  0.0401 -0.1087
   59MPD2    C5  903   2.668   2.450  13.226  0.3250  0.4733  0.0636
   59MPD2     H  904   2.959   2.211  13.310  0.6781  0.8296  0.2498
   59MPD2    H1  905   2.781   2.602  13.311  2.8162  0.0298 -0.5110
   59MPD2    H2  906   2.595   2.282  13.119 -1.1728  1.1043 -0.5245
   59MPD2    H3  907   2.601   2.522  13.180  0.3851  0.6637  0.2758
   59MPD2     N  908   2.977   2.460  13.423  0.0716  0.1218  0.2460
   59MPD2    H5  909   2.960   2.557  13.449  0.9625  0.3458  0.0032
   59MPD2    N1  910   2.794   2.107  13.151  0.1537 -0.4661  0.2013
   59MPD2    H7  911   2.874   2.050  13.177  2.2400  1.0929 -2.7346
   60TCq2    C1  912   2.707   2.042  13.061 -0.0657  0.2493 -0.0992
   60TCq2    O2  913   2.597   2.082  13.025  0.3739  0.5906 -0.2414
   60TCq2    C2  914   2.748   1.913  13.024 -0.2416  0.5253 -0.1651
   60TCq2    C3  915   2.878   1.877  13.043  0.1144 -0.6188 -0.5208
   60TCq2    C4  916   2.897   1.745  13.016 -0.5499 -0.4781 -0.3607
   60TCq2    C5  917   2.805   1.657  12.966 -0.1131 -0.0137  0.3219
   60TCq2    C6  918   2.679   1.693  12.941  0.0076 -0.1244 -0.4742
   60TCq2    C7  919   2.648   1.825  12.968  0.2387  0.1180  0.3181
   60TCq2    C8  920   2.621   1.615  12.833 -0.4155  0.4095  0.2799
   60TCq2    O4  921   2.635   1.494  12.841 -0.0717 -0.7817 -0.4493
   60TCq2    C9  922   3.026   1.686  13.040 -0.2444 -0.0936  0.3784
   60TCq2    O5  923   3.055   1.572  12.997  0.0128  0.3509 -0.0710
   60TCq2    O6  924   3.116   1.753  13.093  0.0692 -0.3168 -0.6638
   60TCq2    H2  925   2.964   1.942  13.054  0.7866 -1.6938  0.5352
   60TCq2    H3  926   2.836   1.554  12.948 -2.5956 -0.6399 -0.2653
   60TCq2    H4  927   2.544   1.855  12.961  0.4017  0.7113  0.4469
   61MPD2     C  928   1.816   2.771  14.652  0.3813  0.0432 -0.6130
   61MPD2    C1  929   1.886   2.848  14.736 -0.1763 -0.4176  0.4048
   61MPD2    C2  930   1.921   2.976  14.688  0.3932  0.2461  0.4370
   61MPD2    C3  931   1.865   3.022  14.568 -0.1808 -0.6623 -0.1130
   61MPD2    C4  932   1.783   2.940  14.488 -0.4078 -0.2709  0.2932
   61MPD2    C5  933   1.770   2.814  14.535  0.2141 -0.1739  0.3347
   61MPD2     H  934   1.986   3.033  14.753  2.1129 -0.5865 -0.5394
   61MPD2    H1  935   1.747   2.972  14.391  0.0713 -0.7067 -0.0280
   61MPD2    H2  936   1.807   2.664  14.671 -0.5761  0.0367 -1.0770
   61MPD2    H3  937   1.711   2.748  14.472  0.5502 -1.8667  1.7744
   61MPD2     N  938   1.882   3.151  14.521 -0.0382 -0.1011 -0.3869
   61MPD2    H5  939   1.836   3.184  14.436  3.0200 -1.0781 -2.4398
   61MPD2    N1  940   1.929   2.802  14.867 -0.3847 -0.5049  0.0094
   61MPD2    H7  941   1.979   2.869  14.924  0.3960 -1.1358  0.0714
   62TCq2    C1  942   1.916   2.673  14.912  0.2108  0.3186  0.0418
   62TCq2    O2  943   1.900   2.572  14.849  0.2490  0.4896  0.3956
   62TCq2    C2  944   1.906   2.672  15.055 -0.7574  0.3514  0.2888
   62TCq2    C3  945   1.881   2.549  15.102  0.1281 -0.4875  0.3240
   62TCq2    C4  946   1.845   2.542  15.233 -0.4494 -0.4190  0.0129
   62TCq2    C5  947   1.825   2.658  15.310 -0.5405 -0.5364  0.1786
   62TCq2    C6  948   1.862   2.776  15.253  0.8042  0.7604 -0.6929
   62TCq2    C7  949   1.909   2.790  15.126  0.0047  0.1536 -0.0986
   62TCq2    C8  950   1.829   2.908  15.321 -1.0797 -0.3004  0.7709
   62TCq2    O4  951   1.835   3.001  15.246 -0.5547  0.4318 -0.5011
   62TCq2    C9  952   1.819   2.409  15.287 -0.2059 -0.1637  0.0902
   62TCq2    O5  953   1.807   2.323  15.199  1.1363 -0.8632 -0.5147
   62TCq2    O6  954   1.783   2.405  15.407  0.0550  0.3636 -0.2345
   62TCq2    H2  955   1.883   2.456  15.047 -3.4019  0.8586 -2.0924
   62TCq2    H3  956   1.793   2.650  15.414  2.1013  0.4467  1.0651
   62TCq2    H4  957   1.931   2.888  15.085 -0.2724 -0.8340 -2.5455
   63TMC2    C1  958   1.459   3.058  10.108  0.4718 -1.4975  0.1857
   63TMC2    C2  959   1.597   3.057  10.116  0.3474  0.4290 -0.3488
   63TMC2    C3  960   1.666   3.115  10.012  0.1960  0.4723  0.7449
   63TMC2    C4  961   1.390   3.111  10.004  0.9588  0.4733 -0.3538
   63TMC2    C5  962   1.466   3.184   9.914 -0.0611  0.0006  0.1103
   63TMC2    C6  963   1.602   3.175   9.903  0.4027 -0.2205  0.0069
   63TMC2     C  964   1.388   2.962  10.203  0.2865 -0.3631 -0.0509
   63TMC2     O  965   1.458   2.896  10.287 -0.1398  0.2577 -0.2804
   63TMC2     H  966   1.650   3.003  10.194 -0.2593 -2.4686 -1.9363
   63TMC2    H1  967   1.285   3.097   9.985  0.9994 -0.3849  0.0390
   63TMC2    H2  968   1.658   3.224   9.824  0.4751 -0.0386  0.1690
   63TMC2    C7  969   1.395   3.259   9.811  0.3733  0.1104  0.5940
   63TMC2    C8  970   1.810   3.108  10.024  0.4005 -0.1007 -0.0511
   63TMC2    O1  971   1.280   3.230   9.772  0.2119 -0.8765  0.5966
   63TMC2    O2  972   1.872   3.009  10.070 -0.3152  0.3619 -0.5814
   63TMC2    O5  973   1.856   3.226   9.989 -0.5465  0.1469 -0.3462
   63TMC2    H5  974   1.792   3.297   9.970  0.8151  0.7066 -2.9895
   64MPD2     C  975   0.951   2.708  10.318  0.5416  0.1555 -0.1581
   64MPD2    C1  976   1.083   2.677  10.329  0.1463  0.0960 -0.5329
   64MPD2    C2  977   1.184   2.759  10.293  0.8198  0.2258  0.3978
   64MPD2    C3  978   1.154   2.882  10.240  0.3535 -0.3493 -0.9142
   64MPD2    C4  979   1.023   2.905  10.201  0.1454 -0.7066  0.2061
   64MPD2    C5  980   0.922   2.820  10.248  0.9249 -0.6340 -0.1040
   64MPD2     H  981   1.286   2.735  10.317  0.6558  2.0121  2.8413
   64MPD2    H1  982   0.998   2.992  10.143  1.8587  0.7602  1.6510
   64MPD2    H2  983   0.873   2.642  10.354 -0.4708  0.3867 -1.9241
   64MPD2    H3  984   0.817   2.843  10.227  0.7480 -2.4064 -1.1405
   64MPD2     N  985   1.253   2.971  10.198  0.1011  0.2236  0.0505
   64MPD2    H5  986   1.215   3.060  10.168 -0.3264 -0.1977 -0.6878
   64MPD2    N1  987   1.116   2.548  10.392  0.0086  0.1645 -0.1237
   64MPD2    H7  988   1.050   2.508  10.459  0.7607 -0.9487 -0.0549
   65MPD2     C  989   2.105   2.055  15.309 -0.2259  0.5021  0.6833
   65MPD2    C1  990   2.168   2.108  15.198 -0.5905  0.8803  0.1615
   65MPD2    C2  991   2.209   2.011  15.104 -0.3120  0.2313 -0.3242
   65MPD2    C3  992   2.174   1.879  15.107  0.2020 -0.0705 -0.0136
   65MPD2    C4  993   2.115   1.835  15.218 -0.0650  0.4301  0.2792
   65MPD2    C5  994   2.071   1.921  15.314 -0.8668  0.7263  0.0578
   65MPD2     H  995   2.271   2.056  15.028 -0.8215 -2.3253 -2.2509
   65MPD2    H1  996   2.099   1.730  15.239  2.8306 -0.1189 -0.2967
   65MPD2    H2  997   2.078   2.125  15.387 -3.4660 -1.3365  1.2257
   65MPD2    H3  998   2.016   1.874  15.394  0.2054 -0.2168  0.2446
   65MPD2     N  999   2.237   1.790  15.014 -0.0629 -0.2765  0.2111
   65MPD2    H5 1000   2.215   1.694  15.036 -2.5011  0.2716  0.2190
   65MPD2    N1 1001   2.194   2.241  15.161  0.6024  0.6808  0.2372
   65MPD2    H7 1002   2.243   2.259  15.074  0.3750  0.8102  0.1386
   66TCq2    C1 1003   2.152   2.349  15.232  0.5154  0.1752 -0.0834
   66TCq2    O2 1004   2.106   2.355  15.346 -0.1818  0.0269 -0.1009
   66TCq2    C2 1005   2.177   2.473  15.159  0.0937  0.6415 -0.0254
   66TCq2    C3 1006   2.199   2.465  15.021 -0.1198 -0.4002  0.2401
   66TCq2    C4 1007   2.256   2.572  14.964 -0.2248 -0.1029  0.0870
   66TCq2    C5 1008   2.299   2.677  15.030 -0.5584 -0.2096 -0.7548
   66TCq2    C6 1009   2.277   2.690  15.170  0.7733 -0.7302  0.3871
   66TCq2    C7 1010   2.212   2.591  15.229 -0.5143 -0.0265 -0.1452
   66TCq2    C8 1011   2.253   2.826  15.212 -0.1031 -0.3088 -0.0730
   66TCq2    O4 1012   2.291   2.909  15.129 -0.0980 -0.6681 -0.0101
   66TCq2    C9 1013   2.279   2.567  14.822  0.1681  0.0529  0.2672
   66TCq2    O5 1014   2.335   2.667  14.772  0.5199 -0.3987  0.3012
   66TCq2    O6 1015   2.221   2.475  14.756  0.0148 -0.4765  0.2104
   66TCq2    H2 1016   2.155   2.385  14.962  1.9830 -0.0782 -1.7519
   66TCq2    H3 1017   2.349   2.757  14.976  2.2625 -1.8581 -0.5709
   66TCq2    H4 1018   2.198   2.593  15.337 -0.7000 -2.8986 -0.1180
   67MPD2     C 1019   2.376   2.028  13.799  0.5209 -0.6209  0.2506
   67MPD2    C1 1020   2.379   2.153  13.860  0.0829 -0.6416 -0.1385
   67MPD2    C2 1021   2.299   2.250  13.795 -0.6446 -0.3408 -0.2862
   67MPD2    C3 1022   2.229   2.226  13.687  0.1748  0.4649 -0.4205
   67MPD2    C4 1023   2.236   2.104  13.626 -0.4899 -1.1358  0.3392
   67MPD2    C5 1024   2.297   1.999  13.695  0.0661  0.0698 -0.6705
   67MPD2     H 1025   2.291   2.342  13.852 -0.3016  0.2051 -1.1222
   67MPD2    H1 1026   2.179   2.072  13.540  0.6479  0.4056 -1.0029
   67MPD2    H2 1027   2.421   1.935  13.832  0.0270 -1.4773 -1.5032
   67MPD2    H3 1028   2.300   1.896  13.661  0.3594  0.2811 -1.2854
   67MPD2     N 1029   2.157   2.335  13.626 -0.7268 -0.0304 -0.1526
   67MPD2    H5 1030   2.085   2.307  13.561  0.5863  0.6252 -1.8681
   67MPD2    N1 1031   2.452   2.187  13.975  0.1670  0.8823 -0.5420
   67MPD2    H7 1032   2.451   2.285  14.002 -1.5285  0.4133  1.1072
   68TCq2    C1 1033   2.524   2.105  14.051  0.0837  0.0870  0.2497
   68TCq2    O2 1034   2.539   1.979  14.048  0.0920  0.1377  0.3165
   68TCq2    C2 1035   2.555   2.158  14.183 -0.4175  0.0983  0.6809
   68TCq2    C3 1036   2.481   2.264  14.235  0.3476  0.0549 -0.1330
   68TCq2    C4 1037   2.503   2.287  14.366  0.1072 -0.0966  0.4722
   68TCq2    C5 1038   2.603   2.224  14.435 -0.9992 -0.2181 -0.1962
   68TCq2    C6 1039   2.679   2.125  14.380  0.2375  0.2024 -0.2241
   68TCq2    C7 1040   2.653   2.088  14.248  0.2417 -0.0499  0.4309
   68TCq2    C8 1041   2.766   2.043  14.466 -0.7986 -0.0007  0.3256
   68TCq2    O4 1042   2.865   2.002  14.408 -0.2920 -0.6239 -0.0863
   68TCq2    C9 1043   2.421   2.384  14.436 -0.8188  0.0168  0.0321
   68TCq2    O5 1044   2.329   2.437  14.364  0.4099  0.4522  0.0266
   68TCq2    O6 1045   2.433   2.402  14.560 -0.0296 -0.0332  0.1943
   68TCq2    H2 1046   2.398   2.309  14.181 -0.3280 -0.3128  0.6054
   68TCq2    H3 1047   2.612   2.256  14.538 -4.1232  0.6752 -0.2002
   68TCq2    H4 1048   2.696   1.999  14.205 -2.7553  0.1637 -2.9797
   69TMC2    C1 1049   4.227   3.440  11.715 -0.1445 -0.2171  0.2689
   69TMC2    C2 1050   4.093   3.405  11.705 -0.7927  0.3310 -0.4420
   69TMC2    C3 1051   4.042   3.358  11.583 -0.8582 -0.2388 -0.3982
   69TMC2    C4 1052   4.306   3.415  11.607  0.5514  0.3527  0.3293
   69TMC2    C5 1053   4.260   3.363  11.494 -1.0487 -0.1052 -0.2004
   69TMC2    C6 1054   4.125   3.343  11.476  0.2350  0.3853 -0.7126
   69TMC2     C 1055   4.275   3.388  11.841 -0.3387 -0.4650  0.1530
   69TMC2     O 1056   4.210   3.415  11.938  0.7448  0.0644  0.5022
   69TMC2     H 1057   4.027   3.419  11.789 -1.2603 -1.6944 -0.4722
   69TMC2    H1 1058   4.406   3.455  11.613  1.0615 -1.0356  1.3029
   69TMC2    H2 1059   4.087   3.285  11.392  1.2748  0.3439 -1.1631
   69TMC2    C7 1060   4.349   3.263  11.437  0.1063 -0.0626 -0.1462
   69TMC2    C8 1061   3.905   3.314  11.565 -0.4784  0.5299 -0.3681
   69TMC2    O1 1062   4.433   3.236  11.520  0.0355  0.2676 -0.4164
   69TMC2    O2 1063   3.838   3.335  11.465  0.0787 -0.0667  0.4978
   69TMC2    O5 1064   3.890   3.222  11.662  0.3506 -0.0011  0.1928
   69TMC2    H5 1065   3.978   3.215  11.703 -0.0069 -2.0249  0.5913
   70MPD2     C 1066   4.628   3.295  11.901  0.1469 -0.0345 -0.0308
   70MPD2    C1 1067   4.496   3.322  11.935 -0.0301 -0.1612  0.0079
   70MPD2    C2 1068   4.458   3.323  12.071  0.2272  0.5030 -0.0566
   70MPD2    C3 1069   4.556   3.308  12.166 -0.5780  0.1884  0.7604
   70MPD2    C4 1070   4.687   3.287  12.129  0.5936  0.5260 -0.5010
   70MPD2    C5 1071   4.721   3.281  11.996 -0.2369  0.5241  0.1903
   70MPD2     H 1072   4.355   3.328  12.107 -0.0546 -1.4131 -0.5815
   70MPD2    H1 1073   0.043   3.278  12.203  1.1707 -1.2311 -1.3375
   70MPD2    H2 1074   4.656   3.296  11.797 -2.9436 -0.6904 -0.8551
   70MPD2    H3 1075   0.101   3.276  11.966 -0.9710 -0.1526 -2.2365
   70MPD2     N 1076   4.526   3.300  12.305  0.2394  0.1981  0.4596
   70MPD2    H5 1077   4.601   3.274  12.368 -0.8517 -2.4076  0.6683
   70MPD2    N1 1078   4.405   3.331  11.831  0.0058  0.0854 -0.4716
   70MPD2    H7 1079   4.439   3.310  11.738  0.6736  3.0844 -0.8861
   71TMC2    C1 1080   0.919   3.636   1.574 -0.0459  0.7446  0.5098
   71TMC2    C2 1081   0.970   3.576   1.688  0.0643  0.2535 -0.0213
   71TMC2    C3 1082   0.902   3.590   1.803  0.0261 -0.0678 -0.0397
   71TMC2    C4 1083   0.803   3.709   1.577 -0.2003 -0.6237  0.5524
   71TMC2    C5 1084   0.724   3.697   1.689 -0.2724  0.0480 -0.7511
   71TMC2    C6 1085   0.778   3.647   1.804  0.1935  0.7997 -0.3098
   71TMC2     C 1086   1.007   3.633   1.461 -0.4424  0.8121  1.0709
   71TMC2     O 1087   1.121   3.592   1.482 -0.2861 -0.2040 -0.2622
   71TMC2     H 1088   1.068   3.529   1.694 -0.9806 -1.7456  1.4358
   71TMC2    H1 1089   0.770   3.788   1.510 -0.0395 -1.4164 -0.4695
   71TMC2    H2 1090   0.720   3.647   1.896 -1.0124  0.3678 -1.0606
   71TMC2    C7 1091   0.598   3.764   1.707 -0.0737  0.1907  0.8538
   71TMC2    C8 1092   0.927   3.507   1.917  0.0379  0.7929 -0.3799
   71TMC2    O1 1093   0.566   3.809   1.817 -0.1348 -0.4342  0.4559
   71TMC2    O2 1094   0.990   3.402   1.902  0.2002  0.2179  0.9127
   71TMC2    O5 1095   0.945   3.586   2.022 -0.2847 -0.2193  0.3981
   71TMC2    H5 1096   0.895   3.670   2.023  0.6371  0.3237  0.8060
   72MPD2     C 1097   1.153   3.681   0.965 -0.1722  0.4558 -0.2930
   72MPD2    C1 1098   1.223   3.662   1.086  0.0296  0.9658  0.1998
   72MPD2    C2 1099   1.159   3.658   1.208  0.1488  0.0738 -0.3768
   72MPD2    C3 1100   1.020   3.683   1.218  0.6844 -0.1000 -0.7511
   72MPD2    C4 1101   0.956   3.702   1.099  0.3679  0.3689 -0.3135
   72MPD2    C5 1102   1.020   3.708   0.980 -0.3629 -0.7014  0.3540
   72MPD2     H 1103   1.218   3.626   1.293 -0.1455  2.1946  0.5970
   72MPD2    H1 1104   0.849   3.719   1.092  0.2758  0.0679  0.3929
   72MPD2    H2 1105   1.205   3.693   0.871 -0.5190  1.9510 -0.2872
   72MPD2    H3 1106   0.971   3.727   0.886  1.1922 -1.9532 -0.7007
   72MPD2     N 1107   0.945   3.674   1.340 -0.3647  0.3647 -0.8154
   72MPD2    H5 1108   0.847   3.702   1.334 -0.8277 -0.6366  1.6688
   72MPD2    N1 1109   1.365   3.650   1.086 -0.0524 -0.0872  0.0875
   72MPD2    H7 1110   1.408   3.637   1.177  3.3551 -0.9703 -1.6319
   73TMC2    C1 1111   1.819   0.806  13.979 -0.0926 -0.2537  0.0535
   73TMC2    C2 1112   1.740   0.831  14.090 -0.0992 -0.0205 -0.1667
   73TMC2    C3 1113   1.799   0.833  14.214 -0.0870 -0.1055  0.4002
   73TMC2    C4 1114   1.955   0.801  14.002 -0.3193  0.2040 -0.1853
   73TMC2    C5 1115   2.010   0.808  14.129  0.7817  0.2422 -0.4045
   73TMC2    C6 1116   1.933   0.826  14.240 -0.9806  0.1664  0.0672
   73TMC2     C 1117   1.799   0.897  13.880  0.1774  0.3649  0.2213
   73TMC2     O 1118   1.874   0.995  13.882 -0.1538 -0.2476  0.5093
   73TMC2     H 1119   1.633   0.841  14.076 -0.3051  1.0513  2.1373
   73TMC2    H1 1120   2.018   0.772  13.918 -2.7651  1.2069 -2.3756
   73TMC2    H2 1121   1.970   0.850  14.339 -2.6211 -0.1872  0.7584
   73TMC2    C7 1122   2.132   0.881  14.131  0.1773  0.5990  0.3238
   73TMC2    C8 1123   1.701   0.826  14.322 -0.4040 -0.5617 -0.2791
   73TMC2    O1 1124   2.219   0.856  14.213 -0.0666 -0.7778 -0.9374
   73TMC2    O2 1125   1.584   0.861  14.311  0.1746 -0.2228  0.0061
   73TMC2    O5 1126   1.739   0.729  14.414  0.0732 -0.1385  0.0989
   73TMC2    H5 1127   1.831   0.695  14.410  0.3783  0.8147 -0.8768
   74MPD2     C 1128   1.642   1.033  13.417 -0.1857  0.7857 -0.4229
   74MPD2    C1 1129   1.742   1.084  13.495 -0.5465  0.5805  0.0256
   74MPD2    C2 1130   1.754   1.041  13.622  0.2008 -0.5516  0.1501
   74MPD2    C3 1131   1.671   0.942  13.682  0.2217  0.3265 -0.4600
   74MPD2    C4 1132   1.564   0.904  13.603 -0.1732 -0.0952 -0.3190
   74MPD2    C5 1133   1.547   0.946  13.473  0.6148  0.5167 -0.5510
   74MPD2     H 1134   1.850   1.057  13.671  0.6328  2.3333 -1.6347
   74MPD2    H1 1135   1.502   0.817  13.621  1.1802 -1.0287 -0.2411
   74MPD2    H2 1136   1.637   1.069  13.315 -1.4909 -0.5364 -0.8218
   74MPD2    H3 1137   1.466   0.905  13.414 -0.2333  2.8145 -0.9879
   74MPD2     N 1138   1.699   0.869  13.796  0.2032  0.1687  0.0092
   74MPD2    H5 1139   1.651   0.784  13.824 -1.1398  0.3212 -1.7774
   74MPD2    N1 1140   1.835   1.165  13.426 -0.0539  0.1522  0.0661
   74MPD2    H7 1141   1.824   1.189  13.327  2.9572 -0.1575 -0.3558
   75TCq2    C1 1142   2.181   2.464  13.650 -0.2876  0.6006  0.1792
   75TCq2    O2 1143   2.277   2.519  13.704  0.1753 -0.4802  0.3313
   75TCq2    C2 1144   2.076   2.547  13.592  0.4123  0.2297 -0.3378
   75TCq2    C3 1145   2.058   2.676  13.638  0.0145 -0.4862 -0.0896
   75TCq2    C4 1146   1.959   2.755  13.587 -0.6685  0.4442  0.1938
   75TCq2    C5 1147   1.874   2.710  13.485  0.1194  0.2351 -0.3686
   75TCq2    C6 1148   1.886   2.574  13.450 -0.0156  0.1445 -0.9357
   75TCq2    C7 1149   1.989   2.496  13.503  0.4361  0.3423  0.3766
   75TCq2    C8 1150   1.795   2.516  13.354  0.0526  0.5099  0.4998
   75TCq2    O4 1151   1.833   2.419  13.292 -0.1556 -0.2566  0.7878
   75TCq2    C9 1152   1.949   2.891  13.637 -0.8700  0.8831  0.1327
   75TCq2    O5 1153   1.872   2.973  13.581  0.1078  0.0508 -0.0765
   75TCq2    O6 1154   2.031   2.922  13.728 -0.9861 -0.3756  0.5787
   75TCq2    H2 1155   2.111   2.710  13.727 -0.9311 -1.2060  0.7470
   75TCq2    H3 1156   1.799   2.776  13.444 -0.0976  0.4829  0.4266
   75TCq2    H4 1157   2.003   2.398  13.458 -0.4245  0.3961 -0.0088
   76MPD2     C 1158   0.421   2.763  11.910  0.5778 -0.0766 -1.0665
   76MPD2    C1 1159   0.505   2.757  11.799  0.8654 -0.4638 -0.4575
   76MPD2    C2 1160   0.642   2.743  11.813  1.1027  0.4378  0.0786
   76MPD2    C3 1161   0.698   2.756  11.939  0.4834  0.1111  0.5278
   76MPD2    C4 1162   0.622   2.758  12.050  0.4112 -0.0937  0.4766
   76MPD2    C5 1163   0.491   2.756  12.030  0.0098 -0.0881 -0.2126
   76MPD2     H 1164   0.701   2.744  11.722 -0.6561 -2.7293 -1.0746
   76MPD2    H1 1165   0.660   2.755  12.152  1.3757 -0.0561  0.1228
   76MPD2    H2 1166   0.314   2.747  11.910  0.8315 -1.8198  1.3272
   76MPD2    H3 1167   0.422   2.747  12.114  0.8322  1.7402  0.6592
   76MPD2     N 1168   0.837   2.739  11.968 -0.2850 -0.0361 -0.1683
   76MPD2    H5 1169   0.862   2.727  12.066  1.2349 -0.2306 -0.5856
   76MPD2    N1 1170   0.458   2.747  11.671 -0.8800 -0.3278 -0.6915
   76MPD2    H7 1171   0.532   2.730  11.604 -0.5513  1.2676 -0.7385
   77TCq2    C1 1172   0.934   2.744  11.872  0.1116 -0.0545  0.1092
   77TCq2    O2 1173   0.935   2.785  11.755  0.0236  0.0073  0.4344
   77TCq2    C2 1174   1.060   2.724  11.940  0.3522 -0.1363  0.6824
   77TCq2    C3 1175   1.170   2.736  11.852  0.6769  1.0955 -1.1782
   77TCq2    C4 1176   1.299   2.747  11.904  0.3305  0.2644 -0.1631
   77TCq2    C5 1177   1.314   2.736  12.039 -0.1828 -0.1196 -0.6219
   77TCq2    C6 1178   1.209   2.734  12.121  1.0028 -0.3360 -0.5802
   77TCq2    C7 1179   1.079   2.734  12.073  0.3700  0.2376  0.0699
   77TCq2    C8 1180   1.246   2.757  12.262  0.1691  0.1926  0.4716
   77TCq2    O4 1181   1.355   2.801  12.294  0.0992  0.3282  0.3158
   77TCq2    C9 1182   1.427   2.770  11.831  0.8031 -0.2358  0.8425
   77TCq2    O5 1183   1.538   2.758  11.895 -0.5536  0.3077  0.2887
   77TCq2    O6 1184   1.425   2.784  11.706  0.1057  0.6931 -0.4917
   77TCq2    H2 1185   1.156   2.751  11.746 -4.0881  1.3333 -0.5098
   77TCq2    H3 1186   1.414   2.734  12.081  0.5232  2.2074 -2.1843
   77TCq2    H4 1187   0.998   2.751  12.143 -1.5102  1.8937 -2.5062
   78MPD1     C 1188   4.622   3.180   1.870 -0.1818 -0.2018  0.3155
   78MPD1    C1 1189   4.609   3.041   1.865 -0.4696  0.1087  0.1874
   78MPD1    C2 1190   4.519   2.984   1.953 -0.6415 -0.0170  0.3545
   78MPD1    C3 1191   4.430   3.063   2.026  0.3741  0.3695 -0.1153
   78MPD1    C4 1192   4.442   3.204   2.013  0.4517  0.4091  0.0278
   78MPD1    C5 1193   4.543   3.261   1.942 -0.2685  0.4926 -0.5507
   78MPD1     H 1194   4.510   2.877   1.963  0.1552 -0.1126  0.1247
   78MPD1    H1 1195   4.366   3.264   2.062  0.0727 -1.1316  1.3309
   78MPD1    H2 1196   4.696   3.227   1.806  2.8681 -2.9995  1.7661
   78MPD1    H3 1197   4.548   3.368   1.927 -1.5904  0.8291  1.3696
   78MPD1     N 1198   4.323   3.016   2.107 -0.2665 -0.2851  0.5567
   78MPD1    H5 1199   4.250   3.081   2.133 -0.9148 -0.8962  0.2406
   78MPD1    N1 1200   4.699   2.961   1.794  0.4955 -0.0196  0.1962
   78MPD1    H6 1201   0.040   3.015   1.737  1.6441 -1.3859  0.2017
   78MPD1    H7 1202   4.666   2.878   1.745 -1.6747  0.4609  0.8345
   79TCq2    C1 1203   4.328   2.890   2.163 -0.2732  0.2461 -0.0904
   79TCq2    O2 1204   4.422   2.822   2.193  0.0351 -0.1258 -0.2400
   79TCq2    C2 1205   4.206   2.851   2.237 -0.2520  0.6585  0.2178
   79TCq2    C3 1206   4.213   2.759   2.337  0.9376 -0.6327 -0.2304
   79TCq2    C4 1207   4.099   2.718   2.402 -0.7538  0.9351 -0.3878
   79TCq2    C5 1208   3.981   2.783   2.383 -0.2351  0.5762  0.3147
   79TCq2    C6 1209   3.979   2.887   2.289  0.2586 -0.0021  0.4560
   79TCq2    C7 1210   4.098   2.925   2.226  0.0866 -0.3501 -0.0223
   79TCq2    C8 1211   3.848   2.936   2.237  0.6615  0.1637  0.2998
   79TCq2    O4 1212   3.853   3.017   2.146 -0.9908  0.0159  0.0713
   79TCq2    C9 1213   4.113   2.625   2.511  0.1870 -0.1489 -0.2799
   79TCq2    O5 1214   4.011   2.612   2.585  0.2395  0.3164  0.2542
   79TCq2    O6 1215   4.233   2.602   2.548 -0.0282  0.1590  0.1014
   79TCq2    H2 1216   4.306   2.705   2.353  1.2790  0.4927  1.5418
   79TCq2    H3 1217   3.898   2.748   2.444 -1.4309  1.2684 -0.9210
   79TCq2    H4 1218   4.089   3.002   2.149  1.4923  0.1339  0.3050
   80MPD2     C 1219   0.019   2.140  12.460  0.4695 -0.0160  0.6933
   80MPD2    C1 1220   4.639   2.200  12.388  0.9937  0.6735  0.0774
   80MPD2    C2 1221   4.537   2.269  12.460  0.1112  0.1175 -0.0004
   80MPD2    C3 1222   4.541   2.268  12.598 -0.1734 -0.1697 -0.2002
   80MPD2    C4 1223   4.645   2.204  12.668  0.8057 -0.0287 -0.4859
   80MPD2    C5 1224   0.028   2.150  12.596  0.0897 -0.3307  0.3482
   80MPD2     H 1225   4.453   2.305  12.402  0.7770  0.4764 -0.7489
   80MPD2    H1 1226   4.650   2.209  12.776  1.2074 -2.6337 -0.3773
   80MPD2    H2 1227   0.104   2.094  12.412 -0.3162 -1.0235  0.2743
   80MPD2    H3 1228   0.116   2.099  12.634 -0.0158  1.0522  2.4800
   80MPD2     N 1229   4.442   2.330  12.676 -0.0510 -0.0831  0.2895
   80MPD2    H5 1230   4.453   2.325  12.777  0.2285  0.7189  0.3009
   80MPD2    N1 1231   4.624   2.183  12.248 -0.0016 -0.0512 -0.1373
   80MPD2    H7 1232   4.543   2.226  12.204 -0.5041 -2.5081 -1.5954
   81TCq2    C1 1233   4.720   2.126  12.167 -0.2964  0.5497 -0.6543
   81TCq2    O2 1234   0.097   2.064  12.194 -0.2021 -0.4069  0.4181
   81TCq2    C2 1235   4.682   2.127  12.029  0.8267 -0.0409  0.1987
   81TCq2    C3 1236   0.072   2.120  11.952 -0.3891  0.5908  0.3513
   81TCq2    C4 1237   0.051   2.081  11.822 -0.1572  0.0268  0.5292
   81TCq2    C5 1238   4.651   2.043  11.777  0.4532  0.1235 -0.7427
   81TCq2    C6 1239   4.552   2.031  11.867 -0.1598 -0.6738  0.4279
   81TCq2    C7 1240   4.554   2.090  11.989 -0.0360  0.2934 -0.3393
   81TCq2    C8 1241   4.442   1.941  11.826 -0.6351 -0.4470 -0.2215
   81TCq2    O4 1242   4.428   1.928  11.705  0.7844 -0.4341  0.0821
   81TCq2    C9 1243   0.157   2.082  11.724 -0.0148  0.0431  0.6924
   81TCq2    O5 1244   0.132   2.073  11.603  0.0899 -0.5708  0.1216
   81TCq2    O6 1245   0.273   2.102  11.768  0.3189  0.6659  0.2116
   81TCq2    H2 1246   0.169   2.157  11.983 -0.8024  0.9952  1.1755
   81TCq2    H3 1247   4.654   1.995  11.680 -0.7249  0.5765 -1.0008
   81TCq2    H4 1248   4.459   2.096  12.040  0.0285 -0.1293 -0.1653
   82MPD2     C 1249   2.620   2.344  10.399 -0.0849 -0.2861  0.5409
   82MPD2    C1 1250   2.535   2.241  10.388 -0.1589 -0.1084  0.1897
   82MPD2    C2 1251   2.509   2.165  10.506  0.5001 -0.1820 -0.2740
   82MPD2    C3 1252   2.578   2.196  10.630  0.7218 -0.5255  0.1208
   82MPD2    C4 1253   2.661   2.300  10.631 -0.5750  0.1341 -0.0107
   82MPD2    C5 1254   2.683   2.371  10.516  0.2221 -0.9774 -0.3158
   82MPD2     H 1255   2.439   2.084  10.488 -0.5579  1.0127 -1.5362
   82MPD2    H1 1256   2.716   2.326  10.721 -0.8978 -1.8948  0.7694
   82MPD2    H2 1257   2.647   2.415  10.321  0.3705  1.7009  2.4985
   82MPD2    H3 1258   2.747   2.459  10.512 -2.0885  0.6257 -2.0408
   82MPD2     N 1259   2.577   2.117  10.745 -0.4335  0.1486 -0.2755
   82MPD2    H5 1260   2.632   2.143  10.826 -0.8533  1.9270 -0.5712
   82MPD2    N1 1261   2.473   2.226  10.264 -0.5814  0.2185 -0.2385
   82MPD2    H7 1262   2.502   2.291  10.192  3.5791  0.0349  1.2559
   83TCq2    C1 1263   2.538   1.984  10.744  0.4636  0.0947 -0.7231
   83TCq2    O2 1264   2.523   1.913  10.646  0.1855  0.2176 -0.6185
   83TCq2    C2 1265   2.523   1.920  10.873  0.0455 -0.1904  0.8453
   83TCq2    C3 1266   2.580   1.974  10.986  0.6764  0.0992 -0.1376
   83TCq2    C4 1267   2.605   1.890  11.098  0.3715  0.1162 -0.5533
   83TCq2    C5 1268   2.571   1.760  11.095 -0.6948  0.0535 -0.8787
   83TCq2    C6 1269   2.519   1.709  10.977 -0.1773 -0.2670  0.3811
   83TCq2    C7 1270   2.495   1.786  10.867  0.1562 -0.1684 -0.1711
   83TCq2    C8 1271   2.498   1.567  10.969  0.1108  0.2982  0.7749
   83TCq2    O4 1272   2.552   1.508  11.060  0.3998 -1.4772  0.2969
   83TCq2    C9 1273   2.649   1.934  11.226  0.0673  0.4782 -0.7274
   83TCq2    O5 1274   2.631   2.054  11.246  0.5794  0.0399  0.1104
   83TCq2    O6 1275   2.686   1.848  11.315  0.3838 -0.0454  0.4307
   83TCq2    H2 1276   2.608   2.078  10.999  0.5351  0.3689 -2.0689
   83TCq2    H3 1277   2.580   1.700  11.185  0.0102  1.9573  0.3133
   83TCq2    H4 1278   2.431   1.749  10.787 -1.7698  1.4658  0.6132
   84TCq2    C1 1279   3.954   0.722  10.142  1.1050 -0.4978  0.8854
   84TCq2    O2 1280   3.973   0.607  10.181  0.4787  0.2660 -0.1511
   84TCq2    C2 1281   4.043   0.819  10.193 -0.4701  0.1850 -0.0685
   84TCq2    C3 1282   4.069   0.930  10.119  0.1789  0.3577 -0.1095
   84TCq2    C4 1283   4.116   1.038  10.191  1.0097  0.0445 -0.1498
   84TCq2    C5 1284   4.139   1.028  10.327 -0.2477  0.2636  0.1885
   84TCq2    C6 1285   4.107   0.916  10.399  0.4277 -0.5331 -0.0057
   84TCq2    C7 1286   4.055   0.810  10.330 -0.0841 -0.2162 -0.2057
   84TCq2    C8 1287   4.074   0.917  10.533 -0.5737  0.2167 -0.8260
   84TCq2    O4 1288   3.983   0.847  10.573  0.1421  0.3209  0.0911
   84TCq2    C9 1289   4.156   1.163  10.119 -0.4620  0.5036  0.9317
   84TCq2    O5 1290   4.195   1.256  10.193 -0.1339  0.5071  0.1129
   84TCq2    O6 1291   4.160   1.160   9.998 -0.1746 -0.0594  0.0531
   84TCq2    H2 1292   4.051   0.948  10.014 -3.2208 -1.0316  0.2614
   84TCq2    H3 1293   4.161   1.121  10.378  0.5700 -0.4101  1.0568
   84TCq2    H4 1294   4.013   0.727  10.387  1.9996 -1.0604  0.0780
   85MPD2     C 1295   4.676   3.543  16.322  0.7384 -0.4115 -0.2030
   85MPD2    C1 1296   4.598   3.549  16.208 -0.0641  0.2397  0.3920
   85MPD2    C2 1297   4.640   3.630  16.102 -0.0284  0.5666 -0.8809
   85MPD2    C3 1298   0.035   3.707  16.108 -0.1385 -0.0433  0.0576
   85MPD2    C4 1299   0.107   3.699  16.230  0.5434 -0.0969 -0.4095
   85MPD2    C5 1300   0.060   3.620  16.330 -0.1210  0.0171  0.0341
   85MPD2     H 1301   4.589   3.616  16.008  0.1729  0.0142 -0.9059
   85MPD2    H1 1302   0.203   3.749  16.238 -0.1554  1.0990  0.5500
   85MPD2    H2 1303   4.655   3.468  16.398  1.1385 -2.6647 -2.3253
   85MPD2    H3 1304   0.125   3.607  16.416  1.2736 -0.3719 -1.0663
   85MPD2     N 1305   0.080   3.775  15.996 -0.0481  0.0743  0.1914
   85MPD2    H5 1306   0.019   3.804  15.919  2.6586  3.0299 -0.8511
   85MPD2    N1 1307   4.493   3.446  16.183 -0.0577  0.2864  0.3034
   85MPD2    H7 1308   4.451   3.449  16.091 -0.5797  0.4951  0.5488
   86TCq2    C1 1309   0.217   3.797  15.968 -0.1781 -0.7385 -0.1860
   86TCq2    O2 1310   0.313   3.752  16.035 -0.0944  0.3197 -0.2596
   86TCq2    C2 1311   0.256   3.875  15.853 -0.4684 -0.0990 -1.0208
   86TCq2    C3 1312   0.175   3.976  15.805  0.8113  0.2442  0.2457
   86TCq2    C4 1313   0.214   4.060  15.705  0.6372  0.5440  0.0327
   86TCq2    C5 1314   0.339   4.055  15.653 -0.0192 -0.6572 -1.0271
   86TCq2    C6 1315   0.424   3.964  15.710  0.3046 -0.0813 -0.5054
   86TCq2    C7 1316   0.387   3.873  15.813  0.4244 -0.5239 -0.3723
   86TCq2    C8 1317   0.534   3.913  15.639 -0.0330  0.6067 -0.1805
   86TCq2    O4 1318   0.614   3.840  15.691 -0.8022  0.1712  0.2548
   86TCq2    C9 1319   0.120   4.155  15.655  0.0502 -0.1221 -0.4509
   86TCq2    O5 1320   0.167   4.224  15.557 -0.0850  0.7489  0.2540
   86TCq2    O6 1321   0.006   4.143  15.698  0.4036 -0.4012 -0.4344
   86TCq2    H2 1322   0.071   3.974  15.837 -0.2121  0.2926 -3.0039
   86TCq2    H3 1323   0.366   4.142  15.593  0.4525  1.1296  1.7595
   86TCq2    H4 1324   0.455   3.797  15.850  0.4158  0.2887  1.2984
   87MPD2     C 1325   0.846   2.625   1.297  0.2240 -0.1191 -0.1303
   87MPD2    C1 1326   0.957   2.675   1.232  0.1013 -0.1107  0.2738
   87MPD2    C2 1327   0.935   2.752   1.116  0.3668  0.6139  0.5271
   87MPD2    C3 1328   0.801   2.786   1.075 -0.0719 -0.0226 -0.3755
   87MPD2    C4 1329   0.692   2.734   1.148  0.1369  0.2062  0.0751
   87MPD2    C5 1330   0.719   2.642   1.247  0.3613 -0.1127  0.0511
   87MPD2     H 1331   1.015   2.760   1.043 -0.5971  0.0221 -0.6125
   87MPD2    H1 1332   0.587   2.751   1.131  0.4937  0.2458 -2.0251
   87MPD2    H2 1333   0.865   2.564   1.385 -1.1729 -0.7147 -0.2543
   87MPD2    H3 1334   0.628   2.609   1.296 -1.1450  1.0145 -1.9757
   87MPD2     N 1335   0.777   2.869   0.962  0.4358  0.1608 -0.8531
   87MPD2    H5 1336   0.690   2.865   0.910  0.4165  2.1363 -0.9759
   87MPD2    N1 1337   1.087   2.644   1.286 -0.3736 -0.1624  0.4970
   87MPD2    H7 1338   1.086   2.602   1.378  2.3221 -2.2973 -0.4681
   88TCq2    C1 1339   1.201   2.659   1.209 -1.1496  0.4871 -0.3877
   88TCq2    O2 1340   1.214   2.659   1.087  0.0351  0.0671 -0.0379
   88TCq2    C2 1341   1.316   2.614   1.286 -0.3835  0.0178  0.0753
   88TCq2    C3 1342   1.325   2.659   1.418  0.5003 -0.1067 -0.4223
   88TCq2    C4 1343   1.445   2.678   1.476 -0.0579 -1.1002  0.5737
   88TCq2    C5 1344   1.557   2.642   1.404  0.1205  0.1334  0.1129
   88TCq2    C6 1345   1.546   2.595   1.274  0.4566 -0.0255 -0.0695
   88TCq2    C7 1346   1.421   2.581   1.213 -1.1340  0.0756 -0.0420
   88TCq2    C8 1347   1.665   2.576   1.196  0.2030 -0.1313 -0.8009
   88TCq2    O4 1348   1.666   2.503   1.098 -0.0269  0.4849 -0.4069
   88TCq2    C9 1349   1.449   2.727   1.617  0.3590 -0.0322 -0.2320
   88TCq2    O5 1350   1.337   2.730   1.679  0.0984  0.3721 -0.2466
   88TCq2    O6 1351   1.565   2.755   1.662 -0.1307 -0.1109 -0.0686
   88TCq2    H2 1352   1.240   2.701   1.471  0.3220  1.2707 -1.8196
   88TCq2    H3 1353   1.651   2.630   1.456 -1.2815 -0.2941  2.4986
   88TCq2    H4 1354   1.412   2.534   1.116 -1.0243 -0.0792  0.0232
   89MPD2     C 1355   2.684   0.124   1.575 -0.2937 -0.1833 -0.2154
   89MPD2    C1 1356   2.598   0.217   1.637 -0.1144  0.2607  1.6212
   89MPD2    C2 1357   2.633   0.350   1.642 -0.8789 -0.4509  0.1253
   89MPD2    C3 1358   2.757   0.397   1.606  0.0231  0.2285 -0.0308
   89MPD2    C4 1359   2.838   0.298   1.550  0.8252  0.5349  0.9218
   89MPD2    C5 1360   2.803   0.168   1.522 -0.0349  0.2043  0.6808
   89MPD2     H 1361   2.561   0.414   1.692  0.6803  0.4024  1.2884
   89MPD2    H1 1362   2.943   0.319   1.530  1.2929 -3.0677 -0.4031
   89MPD2    H2 1363   2.669   0.017   1.584 -0.4551 -0.1525 -0.1141
   89MPD2    H3 1364   2.878   0.101   1.482  0.9585  1.2501  0.7840
   89MPD2     N 1365   2.785   0.537   1.620 -0.1161 -0.6264 -0.5875
   89MPD2    H5 1366   2.720   0.596   1.670  1.9345  2.1453 -1.1479
   89MPD2    N1 1367   2.482   0.177   1.697 -0.1256 -0.4620 -0.5955
   89MPD2    H7 1368   2.430   0.246   1.750 -0.7671 -1.3956  0.0089
   90TCq2    C1 1369   2.885   0.611   1.558 -0.2873  0.8169  0.2063
   90TCq2    O2 1370   2.978   0.568   1.490 -0.0631 -0.2467 -0.7114
   90TCq2    C2 1371   2.882   0.751   1.604 -0.1926 -0.3320  0.7156
   90TCq2    C3 1372   2.819   0.769   1.728  0.5617  0.6999 -0.0037
   90TCq2    C4 1373   2.769   0.890   1.758  0.1152  0.7886 -0.9256
   90TCq2    C5 1374   2.784   0.995   1.674 -0.3726 -0.2152 -0.1664
   90TCq2    C6 1375   2.859   0.981   1.560 -0.2968 -0.2302  0.0650
   90TCq2    C7 1376   2.914   0.858   1.521  0.6971 -0.6586 -0.3605
   90TCq2    C8 1377   2.875   1.101   1.490  0.0947 -0.2410  0.3756
   90TCq2    O4 1378   2.791   1.188   1.517 -0.1411  0.5181  0.3488
   90TCq2    C9 1379   2.714   0.919   1.890  0.6926 -0.2743 -0.1854
   90TCq2    O5 1380   2.757   0.851   1.987  0.0557  0.3276  0.1155
   90TCq2    O6 1381   2.648   1.027   1.897  0.1401 -0.4614 -0.2617
   90TCq2    H2 1382   2.805   0.688   1.799  1.3824 -0.8160 -1.5848
   90TCq2    H3 1383   2.731   1.084   1.704 -3.4738 -2.4539  1.0561
   90TCq2    H4 1384   2.953   0.841   1.421 -0.8674  0.9708 -1.2353
   91TMC2    C1 1385   4.575   0.120  16.309  0.8953 -0.2945 -0.7170
   91TMC2    C2 1386   4.604   0.036  16.420  0.3693  0.6087 -0.2411
   91TMC2    C3 1387   4.515   0.031  16.521 -0.4511 -0.5305  0.0256
   91TMC2    C4 1388   4.452   0.183  16.303 -0.7967 -0.1995  0.0031
   91TMC2    C5 1389   4.373   0.179  16.410  1.0093 -0.5318  0.1849
   91TMC2    C6 1390   4.403   0.109  16.521  1.0268  0.2691 -0.8593
   91TMC2     C 1391   4.679   0.136  16.210  0.2033  0.0019  0.5366
   91TMC2     O 1392   4.639   0.208  16.119  0.0828 -0.0378 -0.3369
   91TMC2     H 1393   4.686   4.690  16.428 -0.5215 -0.5102 -0.8480
   91TMC2    H1 1394   4.422   0.249  16.222  1.7057  1.4900  0.4658
   91TMC2    H2 1395   4.341   0.103  16.609  0.6214 -0.4761 -1.1902
   91TMC2    C7 1396   4.238   0.230  16.399 -0.0348 -0.0353  0.6495
   91TMC2    C8 1397   4.523   4.652  16.621 -0.2704 -1.1045 -0.6531
   91TMC2    O1 1398   4.170   0.252  16.501 -0.0476 -0.1261  0.5720
   91TMC2    O2 1399   4.634   4.616  16.660  0.0656  0.5112 -0.2930
   91TMC2    O5 1400   4.402   4.617  16.667 -0.2172  0.1208  1.1705
   91TMC2    H5 1401   4.325   4.645  16.614 -0.5214 -0.8246  1.1139
   92MPD2     C 1402   0.161   0.114  16.018  1.5397  0.7541  0.1028
   92MPD2    C1 1403   0.194   0.115  16.154 -0.2254 -0.5211  0.1125
   92MPD2    C2 1404   0.321   0.113  16.205 -0.0651 -0.0831 -0.2899
   92MPD2    C3 1405   0.424   0.113  16.114 -0.0278 -0.2427 -0.1544
   92MPD2    C4 1406   0.397   0.112  15.977 -0.0256  0.0348 -0.0044
   92MPD2    C5 1407   0.268   0.114  15.933  0.3459 -0.0235  0.8545
   92MPD2     H 1408   0.337   0.118  16.312 -2.0722 -0.5921  0.0435
   92MPD2    H1 1409   0.473   0.099  15.901  0.5980  0.2697  0.5888
   92MPD2    H2 1410   0.061   0.113  15.977  0.3651  3.3668  2.9290
   92MPD2    H3 1411   0.243   0.105  15.828  1.3552 -0.6701  0.6701
   92MPD2     N 1412   0.557   0.104  16.162 -0.2263 -0.6843  0.7288
   92MPD2    H5 1413   0.562   0.103  16.264  0.1398  1.6717  0.7379
   92MPD2    N1 1414   0.084   0.114  16.248  0.1865  0.2258 -0.1554
   92MPD2    H7 1415   0.121   0.089  16.340 -0.3428  1.9730  0.5348
   93MPD2     C 1416   1.539   4.646  13.374  0.6224  1.0693  0.6886
   93MPD2    C1 1417   1.481   0.007  13.470  0.2908  0.2423  0.1508
   93MPD2    C2 1418   1.351   4.699  13.522 -1.0745 -0.3515 -1.0334
   93MPD2    C3 1419   1.286   4.577  13.487 -0.0429 -0.7248 -0.0494
   93MPD2    C4 1420   1.350   4.494  13.399 -0.1863  0.5740 -0.3496
   93MPD2    C5 1421   1.471   4.533  13.342 -0.8018 -0.2878  0.8779
   93MPD2     H 1422   1.306   0.048  13.589 -1.2947 -2.6925  1.3862
   93MPD2    H1 1423   1.304   4.406  13.356  0.0045  0.2182  0.1710
   93MPD2    H2 1424   1.638   4.672  13.337  0.4229  0.2981 -0.4081
   93MPD2    H3 1425   1.516   4.469  13.267  2.1748 -1.2662  3.4566
   93MPD2     N 1426   1.163   4.524  13.539 -0.4593 -0.2472  0.3461
   93MPD2    H5 1427   1.147   4.424  13.525  1.0505 -0.2746 -1.1994
   93MPD2    N1 1428   1.541   0.122  13.524  0.3889  1.3478 -0.0452
   93MPD2    H7 1429   1.489   0.157  13.604  1.6012 -0.0074  1.3211
   94TCq2    C1 1430   1.652   0.183  13.483  0.4626 -0.8183  0.0240
   94TCq2    O2 1431   1.727   0.153  13.389  0.2430 -0.4675  0.6084
   94TCq2    C2 1432   1.697   0.302  13.549 -0.8436 -0.0160 -0.1408
   94TCq2    C3 1433   1.605   0.372  13.631  0.9411  0.2956 -0.1310
   94TCq2    C4 1434   1.652   0.467  13.713 -0.4968  0.5186 -0.6229
   94TCq2    C5 1435   1.785   0.501  13.718  0.6202  0.6091  0.0941
   94TCq2    C6 1436   1.868   0.432  13.632 -0.1011 -0.8987  0.0693
   94TCq2    C7 1437   1.830   0.327  13.549 -0.5674  0.2153 -0.1214
   94TCq2    C8 1438   1.999   0.409  13.684  0.3153 -0.2440 -0.3311
   94TCq2    O4 1439   2.055   0.301  13.663 -0.3539  0.2896  0.5257
   94TCq2    C9 1440   1.553   0.532  13.796 -0.6703 -0.0609  0.0170
   94TCq2    O5 1441   1.432   0.495  13.777  0.3643  0.1727 -0.1983
   94TCq2    O6 1442   1.593   0.626  13.869 -0.2958 -0.0101 -0.8707
   94TCq2    H2 1443   1.501   0.341  13.628  0.5757  1.5985 -1.3013
   94TCq2    H3 1444   1.826   0.574  13.787  0.2624  1.3116 -0.4373
   94TCq2    H4 1445   1.897   0.270  13.487  1.5887  0.1951  2.2421
   95TMC2    C1 1446   2.096   0.905  15.379 -0.2026  0.9863  0.2218
   95TMC2    C2 1447   2.157   0.799  15.449 -0.1723  0.3733  0.3342
   95TMC2    C3 1448   2.086   0.755  15.559 -0.2585  1.0823  0.2790
   95TMC2    C4 1449   1.986   0.966  15.433 -0.5166 -0.1063 -0.0910
   95TMC2    C5 1450   1.934   0.929  15.550 -0.0219 -0.1594 -0.3271
   95TMC2    C6 1451   1.978   0.818  15.620  0.0555  0.1910 -0.4799
   95TMC2     C 1452   2.169   0.966  15.271 -0.1152 -0.4778  0.4037
   95TMC2     O 1453   2.103   1.065  15.234 -0.1933  0.1233  0.8414
   95TMC2     H 1454   2.244   0.747  15.410  1.1674  1.4393  1.9125
   95TMC2    H1 1455   1.945   1.054  15.385 -1.9480  1.2293  3.5248
   95TMC2    H2 1456   1.928   0.787  15.711 -0.6542  1.7687 -0.3240
   95TMC2    C7 1457   1.822   0.998  15.606 -0.0876 -0.0122 -0.4254
   95TMC2    C8 1458   2.158   0.665  15.647 -0.0444  0.1366  0.2876
   95TMC2    O1 1459   1.757   1.063  15.521 -0.0805 -0.1161  0.0171
   95TMC2    O2 1460   2.101   0.599  15.735  0.6946 -0.3283 -0.1896
   95TMC2    O5 1461   2.288   0.690  15.644 -0.3609 -0.5044  0.4212
   95TMC2    H5 1462   2.309   0.779  15.609 -0.1077 -0.1326  1.5213
   96MPD2     C 1463   2.503   1.000  14.906 -0.2508  0.2434  1.1378
   96MPD2    C1 1464   2.437   1.104  14.964  0.2334 -1.4681 -0.2626
   96MPD2    C2 1465   2.369   1.071  15.074  0.6348  0.3068 -0.3842
   96MPD2    C3 1466   2.362   0.940  15.120  0.4305 -0.0622  0.4884
   96MPD2    C4 1467   2.436   0.838  15.061  0.3546 -0.0366  0.1372
   96MPD2    C5 1468   2.509   0.872  14.949 -0.5052 -0.9231  0.2131
   96MPD2     H 1469   2.308   1.142  15.129  0.6635 -1.2270  1.6193
   96MPD2    H1 1470   2.446   0.739  15.103  1.1748  0.3072  0.7417
   96MPD2    H2 1471   2.564   1.019  14.818 -0.6587  3.3126  1.5116
   96MPD2    H3 1472   2.580   0.800  14.908 -0.2891  0.0810 -1.1877
   96MPD2     N 1473   2.279   0.895  15.224 -0.4731 -0.0755  0.3223
   96MPD2    H5 1474   2.297   0.802  15.259 -2.3930 -0.3064  0.6828
   96MPD2    N1 1475   2.449   1.238  14.910 -0.1237  0.3046  0.6051
   96MPD2    H7 1476   2.516   1.260  14.837  0.4262  1.4047  1.4329
   97MPD2     C 1477   3.673   3.861   0.769 -0.3465 -0.2342 -1.0894
   97MPD2    C1 1478   3.656   3.993   0.771  0.5720 -0.4076 -0.1571
   97MPD2    C2 1479   3.769   4.071   0.745 -0.7813  0.2916  0.1160
   97MPD2    C3 1480   3.895   4.011   0.739 -0.0035  0.4379 -0.3153
   97MPD2    C4 1481   3.909   3.876   0.757  0.2184  0.5777  0.1812
   97MPD2    C5 1482   3.795   3.803   0.760  0.2509  0.0020 -0.5972
   97MPD2     H 1483   3.760   4.179   0.750  0.9352  0.4187  0.5286
   97MPD2    H1 1484   4.006   3.828   0.748  1.1405  2.9055 -2.2643
   97MPD2    H2 1485   3.595   3.789   0.792  0.9213 -1.4504 -0.6515
   97MPD2    H3 1486   3.808   3.697   0.780 -0.8213 -0.5026 -2.5746
   97MPD2     N 1487   4.009   4.087   0.701 -0.2150 -0.1379 -0.1497
   97MPD2    H5 1488   4.093   4.034   0.683  0.2484  0.5144  0.0761
   97MPD2    N1 1489   3.520   4.038   0.779 -0.1561  0.2958  0.0020
   97MPD2    H7 1490   3.446   3.969   0.784  1.1780 -1.3091 -2.4148
   98TCq2    C1 1491   4.015   4.221   0.694  0.6313 -0.0201  0.5363
   98TCq2    O2 1492   3.931   4.304   0.708 -0.3043 -0.5536 -1.1774
   98TCq2    C2 1493   4.144   4.270   0.650 -0.3228  0.1309  0.1034
   98TCq2    C3 1494   4.252   4.182   0.647  0.0928  0.0451 -0.1923
   98TCq2    C4 1495   4.368   4.229   0.603  0.2293 -0.0611  0.0925
   98TCq2    C5 1496   4.380   4.364   0.574  0.5114  0.3231 -0.6006
   98TCq2    C6 1497   4.271   4.446   0.576 -0.1882 -0.1875  0.3089
   98TCq2    C7 1498   4.150   4.402   0.615 -0.2249  0.4335 -0.5924
   98TCq2    C8 1499   4.287   4.560   0.499 -0.3598 -0.1260  0.3115
   98TCq2    O4 1500   4.397   4.577   0.449 -0.0427 -0.2555 -0.2300
   98TCq2    C9 1501   4.479   4.134   0.603  0.0946 -0.2862  0.2894
   98TCq2    O5 1502   4.597   4.174   0.590  0.3799 -0.2562 -0.6485
   98TCq2    O6 1503   4.454   4.013   0.600  0.1296 -0.1351  0.1970
   98TCq2    H2 1504   4.251   4.077   0.674 -0.4703  0.0884 -0.0439
   98TCq2    H3 1505   4.475   4.390   0.528  1.0952 -0.4658  0.1698
   98TCq2    H4 1506   4.070   4.474   0.621  1.1334  2.1183 -2.8552
   99MPD2     C 1507   2.259   2.088   1.756 -0.1345  0.2702  0.6292
   99MPD2    C1 1508   2.145   2.069   1.677 -0.0873  0.3592  0.5451
   99MPD2    C2 1509   2.154   2.045   1.543 -0.1575  0.1313 -0.3516
   99MPD2    C3 1510   2.283   2.029   1.487  0.0326  0.5197 -0.5146
   99MPD2    C4 1511   2.394   2.055   1.563  0.1717 -0.0123 -1.3113
   99MPD2    C5 1512   2.383   2.094   1.694 -0.3389  0.0229 -0.2170
   99MPD2     H 1513   2.065   2.028   1.483 -0.5489  0.6038  0.0818
   99MPD2    H1 1514   2.489   2.061   1.513  1.3614 -3.6503  0.4785
   99MPD2    H2 1515   2.262   2.099   1.864  0.6839  0.9781  0.5283
   99MPD2    H3 1516   2.462   2.132   1.758 -0.0365 -2.2689  0.7713
   99MPD2     N 1517   2.277   1.988   1.354  0.2991 -0.0441  0.5778
   99MPD2    H5 1518   2.185   1.988   1.311  0.3203  0.1139  0.5300
   99MPD2    N1 1519   2.019   2.069   1.734  0.2542  0.0515 -0.0157
   99MPD2    H7 1520   1.943   2.067   1.667 -0.8133  0.4274  1.1657
  100TCq2    C1 1521   1.992   2.084   1.870  0.3320 -0.0878  0.0360
  100TCq2    O2 1522   2.063   2.070   1.971  0.3154 -0.3365 -0.8714
  100TCq2    C2 1523   1.849   2.103   1.898 -0.1052 -0.3388  0.3201
  100TCq2    C3 1524   1.818   2.129   2.032  0.2632 -0.1193 -0.6436
  100TCq2    C4 1525   1.689   2.164   2.062  0.3820  0.6680  0.1840
  100TCq2    C5 1526   1.589   2.157   1.968  0.4678 -0.2750  1.4703
  100TCq2    C6 1527   1.620   2.130   1.834  0.3855 -0.4914  0.2264
  100TCq2    C7 1528   1.752   2.102   1.800  0.4686  0.1675  0.2864
  100TCq2    C8 1529   1.517   2.113   1.731  0.4501  0.2008  0.4851
  100TCq2    O4 1530   1.543   2.036   1.637 -0.4901 -0.0144 -0.2677
  100TCq2    C9 1531   1.652   2.175   2.196 -0.4960 -0.9916  0.3522
  100TCq2    O5 1532   1.531   2.187   2.219 -0.1182 -0.5911 -0.4593
  100TCq2    O6 1533   1.742   2.176   2.283  0.3739 -0.1793  0.1283
  100TCq2    H2 1534   1.891   2.142   2.111 -0.0996  0.5842 -0.4276
  100TCq2    H3 1535   1.488   2.168   2.004 -0.0911  2.6676 -1.0502
  100TCq2    H4 1536   1.774   2.090   1.694  0.5661  0.6905  0.2454
  101MPD2     C 1537   3.307   3.219  13.161 -1.1213  0.5379 -0.2618
  101MPD2    C1 1538   3.259   3.112  13.091  0.0674  0.9300  0.5039
  101MPD2    C2 1539   3.242   2.996  13.170  0.2406  0.4392  0.2925
  101MPD2    C3 1540   3.291   2.986  13.306  0.4424 -0.2636 -0.2129
  101MPD2    C4 1541   3.332   3.098  13.364 -0.3030  1.4052  0.6107
  101MPD2    C5 1542   3.339   3.212  13.298  0.8126 -0.2867 -0.5287
  101MPD2     H 1543   3.203   2.900  13.137 -1.5947  0.9196  1.0957
  101MPD2    H1 1544   3.355   3.098  13.469  0.4378 -0.7700  0.4588
  101MPD2    H2 1545   3.317   3.316  13.113  0.8143  0.3713 -0.2066
  101MPD2    H3 1546   3.367   3.305  13.346 -0.6009 -0.5561  0.8199
  101MPD2     N 1547   3.272   2.859  13.366 -0.6837 -0.0378  0.5385
  101MPD2    H5 1548   3.225   2.784  13.315  2.0063 -0.6045 -1.0968
  101MPD2    N1 1549   3.233   3.128  12.956  0.6719  0.4307  0.3838
  101MPD2    H7 1550   3.256   3.221  12.921  2.3318 -0.1488 -0.1060
  102TCq2    C1 1551   3.329   3.118  12.427 -0.2646  0.2653  0.3753
  102TCq2    O2 1552   3.388   3.011  12.441  0.3934  0.4044 -0.1613
  102TCq2    C2 1553   3.229   3.146  12.524 -0.2780  0.9794 -0.3157
  102TCq2    C3 1554   3.124   3.229  12.506  0.4358  0.7625 -0.1864
  102TCq2    C4 1555   3.041   3.261  12.606 -0.7153 -0.0460  0.1062
  102TCq2    C5 1556   3.055   3.198  12.724 -0.1621  0.3228  0.8306
  102TCq2    C6 1557   3.150   3.102  12.739  0.3444 -0.5346 -0.8541
  102TCq2    C7 1558   3.242   3.077  12.643 -0.1509  0.0708  0.0676
  102TCq2    C8 1559   3.172   3.042  12.872  0.1628 -0.7340 -0.2900
  102TCq2    O4 1560   3.133   2.929  12.892  0.2980  0.1901  0.1757
  102TCq2    C9 1561   2.927   3.357  12.584 -0.3645  0.1146  0.5553
  102TCq2    O5 1562   2.851   3.381  12.685 -0.0569 -0.1453  0.0030
  102TCq2    O6 1563   2.894   3.371  12.464  0.0399 -0.1549  0.0566
  102TCq2    H2 1564   3.112   3.286  12.415  1.7642 -4.2382 -3.4683
  102TCq2    H3 1565   2.980   3.222  12.799 -1.0953  0.1142 -0.0400
  102TCq2    H4 1566   3.314   2.996  12.654 -0.2561 -0.0673 -0.2450
  103TMC2    C1 1567   0.825   2.450  12.859 -0.7218 -0.3188 -0.2005
  103TMC2    C2 1568   0.697   2.482  12.884 -0.3652  0.2282  0.0529
  103TMC2    C3 1569   0.658   2.483  13.018  0.1268  0.3131  0.2869
  103TMC2    C4 1570   0.914   2.403  12.957  0.2763 -0.2388  0.8630
  103TMC2    C5 1571   0.873   2.412  13.086 -0.0536 -0.3018  0.2461
  103TMC2    C6 1572   0.747   2.458  13.119  0.0614 -0.7003  0.1416
  103TMC2     C 1573   0.896   2.493  12.738 -0.7069  0.6111 -1.0103
  103TMC2     O 1574   0.831   2.481  12.635 -0.1608  0.5370 -0.0323
  103TMC2     H 1575   0.642   2.532  12.805  0.6893  0.0406 -0.8041
  103TMC2    H1 1576   1.019   2.391  12.933  0.3216 -0.0993  0.9892
  103TMC2    H2 1577   0.730   2.473  13.225 -1.8804  1.8513 -0.5238
  103TMC2    C7 1578   0.969   2.367  13.189 -0.2161  0.0127  0.6562
  103TMC2    C8 1579   0.545   2.568  13.049  0.0187 -0.3380  0.0360
  103TMC2    O1 1580   0.931   2.366  13.305  0.2371 -0.1605 -0.1025
  103TMC2    O2 1581   0.502   2.651  12.971  0.1567  0.2289  0.2434
  103TMC2    O5 1582   0.468   2.477  13.113 -0.3723  0.4928 -0.3416
  103TMC2    H5 1583   0.521   2.402  13.146 -0.8964  0.3465  0.1585
  104MPD2     C 1584   1.180   2.715  12.744 -0.0060  0.2466 -0.9444
  104MPD2    C1 1585   1.088   2.642  12.682 -0.1744  0.0186  0.0920
  104MPD2    C2 1586   1.065   2.644  12.549  1.0066 -0.4711  0.0648
  104MPD2    C3 1587   1.145   2.721  12.476  0.6745 -0.7120 -0.6316
  104MPD2    C4 1588   1.233   2.809  12.540 -0.7006  0.0927  0.0774
  104MPD2    C5 1589   1.243   2.807  12.674  0.5396  0.8294 -0.3210
  104MPD2     H 1590   0.991   2.582  12.501  0.2698  0.8888 -0.5438
  104MPD2    H1 1591   1.284   2.886  12.483 -1.7498  1.2760  0.7460
  104MPD2    H2 1592   1.200   2.706  12.850 -1.5716  3.5856 -0.3710
  104MPD2    H3 1593   1.307   2.882  12.719 -0.5551  1.3793  0.3038
  104MPD2     N 1594   1.138   2.719  12.339  0.4431 -0.2358 -0.6455
  104MPD2    H5 1595   1.061   2.669  12.296  1.9648 -0.9768 -2.5116
  104MPD2    N1 1596   1.003   2.570  12.767 -0.3297  0.4469 -0.1517
  104MPD2    H7 1597   1.018   2.582  12.867  0.7862 -0.1597 -0.2417
  105MPD2     C 1598   2.951   1.867   0.454 -0.4351  0.3794 -0.6055
  105MPD2    C1 1599   2.884   1.952   0.372 -0.1374 -0.0153  0.3729
  105MPD2    C2 1600   2.782   2.035   0.420 -0.1628 -0.6891 -0.5996
  105MPD2    C3 1601   2.735   2.013   0.553  0.2293  0.3808  0.3398
  105MPD2    C4 1602   2.801   1.926   0.632  0.5684 -0.1839  0.1986
  105MPD2    C5 1603   2.918   1.879   0.588 -0.0663  0.2689  0.1190
  105MPD2     H 1604   2.730   2.095   0.347  1.3074  1.1252 -0.1739
  105MPD2    H1 1605   2.780   1.917   0.737  0.5276  0.5200  0.2481
  105MPD2    H2 1606   3.048   1.820   0.437  0.0211  1.2140 -0.3161
  105MPD2    H3 1607   2.972   1.809   0.652 -1.9449 -1.2180  0.0662
  105MPD2     N 1608   2.616   2.080   0.592 -0.3776  0.2352  0.5958
  105MPD2    H5 1609   2.568   2.132   0.520 -0.5391 -2.1737 -1.0251
  105MPD2    N1 1610   2.929   1.975   0.242 -0.2554  0.1328  0.5964
  105MPD2    H7 1611   2.881   2.046   0.188  1.4818 -0.0303 -1.1895
  106TCq2    C1 1612   2.557   2.071   0.719 -0.8202 -0.2290 -0.5811
  106TCq2    O2 1613   2.591   2.012   0.821 -0.0625  0.6189 -0.3328
  106TCq2    C2 1614   2.421   2.136   0.721  1.1658  0.2282  0.1802
  106TCq2    C3 1615   2.342   2.141   0.610  0.0079 -0.4808 -0.3539
  106TCq2    C4 1616   2.218   2.202   0.618 -0.4081 -0.1385 -0.1615
  106TCq2    C5 1617   2.173   2.265   0.731  0.8272 -0.0499  0.3583
  106TCq2    C6 1618   2.255   2.260   0.842 -0.2441 -0.5991  0.2327
  106TCq2    C7 1619   2.377   2.199   0.836 -0.5234  0.1457 -0.0675
  106TCq2    C8 1620   2.250   2.358   0.951  0.5834 -0.4432  0.0501
  106TCq2    O4 1621   2.359   2.404   0.983 -0.8668 -0.1242 -0.6338
  106TCq2    C9 1622   2.124   2.202   0.511 -0.8282  0.3768  0.4035
  106TCq2    O5 1623   2.012   2.242   0.533 -0.0276  0.5321 -0.1287
  106TCq2    O6 1624   2.158   2.161   0.398 -0.1315 -0.2044 -0.6338
  106TCq2    H2 1625   2.364   2.106   0.510 -2.8519 -0.5655 -0.9701
  106TCq2    H3 1626   2.077   2.313   0.729  0.7309 -0.3062 -2.3880
  106TCq2    H4 1627   2.438   2.192   0.925 -0.5377  1.5998  0.0629
  107TMC2    C1 1628   3.651   0.893  11.417  0.1754 -0.3389 -0.2046
  107TMC2    C2 1629   3.538   0.897  11.333 -0.4260  0.7269  0.3166
  107TMC2    C3 1630   3.558   0.913  11.198  0.8378 -0.0468  0.5945
  107TMC2    C4 1631   3.778   0.921  11.364 -0.0787 -0.2608 -0.0322
  107TMC2    C5 1632   3.788   0.953  11.229  0.4703 -0.2394 -0.1767
  107TMC2    C6 1633   3.680   0.952  11.143  0.1086  0.6086  0.0096
  107TMC2     C 1634   3.633   0.850  11.553  0.1426  0.1449 -0.0707
  107TMC2     O 1635   3.516   0.822  11.581  0.1633 -0.0366  0.2646
  107TMC2     H 1636   3.435   0.877  11.362  0.0956 -1.0358  0.9101
  107TMC2    H1 1637   3.872   0.900  11.414  0.5981  2.5178 -0.1087
  107TMC2    H2 1638   3.684   0.997  11.045 -1.0691 -0.1246 -0.3699
  107TMC2    C7 1639   3.917   1.002  11.176 -0.0431 -0.0228 -0.0329
  107TMC2    C8 1640   3.435   0.885  11.127  0.2758 -1.1565 -0.3465
  107TMC2    O1 1641   4.002   1.033  11.259 -0.0554  0.2189 -0.2028
  107TMC2    O2 1642   3.324   0.881  11.175  0.2883 -0.3486 -0.2314
  107TMC2    O5 1643   3.481   0.816  11.017 -0.0772  0.0553  0.4474
  107TMC2    H5 1644   3.579   0.819  11.012 -0.0031 -1.8938  0.9105
  108MPD2     C 1645   3.837   0.932  11.847 -0.2746  0.2147  0.1928
  108MPD2    C1 1646   3.748   0.856  11.772 -0.4053  0.8805 -0.6922
  108MPD2    C2 1647   3.660   0.776  11.836  0.0794  0.6364  0.7526
  108MPD2    C3 1648   3.647   0.781  11.974 -0.2860 -0.6421  0.5383
  108MPD2    C4 1649   3.740   0.849  12.045  0.6659  0.0125 -0.4415
  108MPD2    C5 1650   3.835   0.917  11.981 -0.1985  0.0740  0.5779
  108MPD2     H 1651   3.587   0.716  11.783  0.5104  0.1074  0.7494
  108MPD2    H1 1652   3.718   0.856  12.151 -0.5828 -0.5595 -0.6590
  108MPD2    H2 1653   3.905   1.003  11.802 -1.1512 -0.0746 -1.5817
  108MPD2    H3 1654   3.908   0.972  12.039 -0.4636  1.3614 -0.3097
  108MPD2     N 1655   3.540   0.719  12.043 -0.1459  0.5255 -0.5857
  108MPD2    H5 1656   3.546   0.735  12.143  0.6008 -0.9675 -0.3955
  108MPD2    N1 1657   3.745   0.877  11.632  0.7716  0.5175 -0.6479
  108MPD2    H7 1658   3.813   0.941  11.591 -0.3869  0.9298 -1.9021
  109MPD2     C 1659   2.734   3.439   1.843 -0.0590  0.2769 -0.2444
  109MPD2    C1 1660   2.822   3.454   1.739  0.0480  0.2746 -0.3003
  109MPD2    C2 1661   2.781   3.488   1.612 -0.0681  0.1863 -0.3391
  109MPD2    C3 1662   2.647   3.492   1.586 -0.3759  0.0127 -0.4555
  109MPD2    C4 1663   2.559   3.474   1.689 -0.3599 -0.0914  0.2597
  109MPD2    C5 1664   2.600   3.460   1.818  0.8139 -0.9485 -0.0746
  109MPD2     H 1665   2.850   3.480   1.529  1.1398  2.2141  0.4773
  109MPD2    H1 1666   2.454   3.480   1.663 -0.0678 -1.6538 -1.3443
  109MPD2    H2 1667   2.753   3.424   1.949 -2.8192 -0.3989  0.1583
  109MPD2    H3 1668   2.525   3.435   1.892  0.1741 -0.2838 -0.4941
  109MPD2     N 1669   2.604   3.509   1.449  0.0886 -0.2076 -0.0944
  109MPD2    H5 1670   2.671   3.522   1.374  0.1774 -1.6002 -0.2603
  109MPD2    N1 1671   2.965   3.445   1.760  0.1394  0.1524  0.5222
  109MPD2    H7 1672   3.027   3.470   1.683 -1.8309 -1.2061 -1.5022
  110TCq2    C1 1673   2.473   3.491   1.406  0.1696 -0.5209  0.7711
  110TCq2    O2 1674   2.366   3.457   1.457  0.0951 -0.0302  0.0128
  110TCq2    C2 1675   2.470   3.518   1.261 -0.3864 -0.1954 -0.0452
  110TCq2    C3 1676   2.397   3.415   1.204 -0.1427 -0.1291 -0.2509
  110TCq2    C4 1677   2.420   3.380   1.077 -0.2744  0.6133 -0.1115
  110TCq2    C5 1678   2.523   3.440   1.007  0.3381  0.3253 -0.1651
  110TCq2    C6 1679   2.602   3.528   1.068 -0.7206  0.6207 -0.0026
  110TCq2    C7 1680   2.577   3.571   1.194  0.1491  0.3673  0.7022
  110TCq2    C8 1681   2.699   3.615   0.993  0.1303 -0.8642  0.6643
  110TCq2    O4 1682   2.747   3.711   1.049  0.8474  0.2008 -0.3011
  110TCq2    C9 1683   2.328   3.289   1.009  0.3667  0.0026  0.3803
  110TCq2    O5 1684   2.326   3.286   0.882  0.2481 -0.2396  0.6631
  110TCq2    O6 1685   2.252   3.229   1.087 -0.1074  0.2922  0.4361
  110TCq2    H2 1686   2.303   3.380   1.245 -0.3531 -0.3945 -0.9567
  110TCq2    H3 1687   2.535   3.421   0.901  1.3439  0.8271 -0.1425
  110TCq2    H4 1688   2.633   3.653   1.237  0.5878  0.0973  0.6446
  111TMC2    C1 1689   4.198   2.864  11.303 -0.2716  0.2664  1.1279
  111TMC2    C2 1690   4.279   2.784  11.228  0.5149 -0.0880 -0.4184
  111TMC2    C3 1691   4.395   2.733  11.294 -0.3273 -0.2664  0.1116
  111TMC2    C4 1692   4.239   2.918  11.419  0.5488  0.3442  0.5253
  111TMC2    C5 1693   4.360   2.880  11.471  0.1872 -0.3402  0.4512
  111TMC2    C6 1694   4.437   2.788  11.414 -0.1321  0.0384  0.4543
  111TMC2     C 1695   4.083   2.926  11.249  0.4286 -0.5225 -0.2080
  111TMC2     O 1696   4.077   2.959  11.133  0.6855 -0.7296 -0.5122
  111TMC2     H 1697   4.245   2.745  11.132 -1.8644 -0.2378  0.4648
  111TMC2    H1 1698   4.182   2.996  11.469 -2.4034 -0.3950 -1.6666
  111TMC2    H2 1699   4.529   2.769  11.469  1.2196  2.7477 -0.8971
  111TMC2    C7 1700   4.376   2.919  11.612  0.5219  0.0103 -0.2875
  111TMC2    C8 1701   4.493   2.672  11.208  0.1532  0.1311  0.0232
  111TMC2    O1 1702   4.269   2.918  11.678 -0.0084 -0.3328 -0.2524
  111TMC2    O2 1703   4.488   2.669  11.083 -0.4416 -0.0764  0.3687
  111TMC2    O5 1704   4.601   2.640  11.281 -0.3257  0.4268 -0.2568
  111TMC2    H5 1705   4.587   2.629  11.378 -0.9946 -0.2546 -0.4334
  112MPD2     C 1706   3.611   3.120  11.312  0.7085  0.4460 -0.2410
  112MPD2    C1 1707   3.701   3.122  11.203  0.2822  0.8657  1.0168
  112MPD2    C2 1708   3.820   3.054  11.215  0.1938 -0.5161 -0.8167
  112MPD2    C3 1709   3.855   2.997  11.328  0.2625  0.8870  0.7817
  112MPD2    C4 1710   3.770   3.001  11.439  0.5629 -0.6706  0.1400
  112MPD2    C5 1711   3.648   3.061  11.428 -0.4580  0.0853  0.1714
  112MPD2     H 1712   3.888   3.050  11.131 -0.6817 -0.7522 -1.5143
  112MPD2    H1 1713   3.797   2.969  11.539 -1.7461 -0.4906  0.8071
  112MPD2    H2 1714   3.510   3.159  11.306  0.5245  0.1044  0.6815
  112MPD2    H3 1715   3.571   3.053  11.504 -0.1123 -0.2249  0.4875
  112MPD2     N 1716   3.989   2.942  11.346 -0.1133 -0.4440 -0.0880
  112MPD2    H5 1717   4.009   2.908  11.439  0.1305  0.4899  0.1980
  112MPD2    N1 1718   3.663   3.176  11.077 -0.1221  0.4042 -0.1671
  112MPD2    H7 1719   3.727   3.175  10.999  0.5122 -3.0878  0.3638
  113MPD2     C 1720   1.667   1.605   1.323  1.0553 -0.4053 -0.2618
  113MPD2    C1 1721   1.572   1.684   1.264 -0.3546  0.6550  0.4465
  113MPD2    C2 1722   1.467   1.628   1.193 -0.1997 -0.2469  0.4988
  113MPD2    C3 1723   1.452   1.489   1.189  0.1828 -0.0035 -0.2695
  113MPD2    C4 1724   1.548   1.411   1.258 -0.5001  0.4078 -0.2024
  113MPD2    C5 1725   1.654   1.469   1.316  0.2028 -0.1001 -0.3459
  113MPD2     H 1726   1.410   1.703   1.140  2.6537  0.7142 -1.2356
  113MPD2    H1 1727   1.539   1.303   1.267  2.2682  0.1379 -0.6223
  113MPD2    H2 1728   1.759   1.640   1.369 -1.3114  4.3152  0.9320
  113MPD2    H3 1729   1.734   1.411   1.361 -0.0307 -1.2081 -1.3913
  113MPD2     N 1730   1.360   1.422   1.102 -0.0141  0.0766 -0.2579
  113MPD2    H5 1731   1.369   1.321   1.109 -1.0249  0.0782  0.9371
  113MPD2    N1 1732   1.584   1.824   1.260  0.2218 -0.3443  0.2830
  113MPD2    H7 1733   1.515   1.880   1.211  0.8478  1.0275  0.9708
  114TCq2    C1 1734   1.279   1.475   1.004  0.7447 -0.3041 -0.4659
  114TCq2    O2 1735   1.279   1.593   0.965 -0.4842 -0.9346  0.0017
  114TCq2    C2 1736   1.182   1.378   0.962 -0.3206 -0.3056  0.1715
  114TCq2    C3 1737   1.087   1.425   0.878  0.4552 -0.1081  0.4169
  114TCq2    C4 1738   1.001   1.332   0.823  0.7899  0.1818 -0.6253
  114TCq2    C5 1739   1.004   1.203   0.878 -0.1690  0.5636 -0.5891
  114TCq2    C6 1740   1.092   1.164   0.979 -0.2651 -0.4675  0.1062
  114TCq2    C7 1741   1.185   1.249   1.013 -0.1293 -0.3019  0.6863
  114TCq2    C8 1742   1.098   1.023   1.009  0.2071  0.3817 -0.1210
  114TCq2    O4 1743   1.197   0.990   1.075  0.2470 -0.3592 -0.3712
  114TCq2    C9 1744   0.907   1.366   0.722  0.9400  0.4771  0.3766
  114TCq2    O5 1745   0.819   1.279   0.687  0.3543 -0.3013  0.0060
  114TCq2    O6 1746   0.930   1.484   0.683 -0.1967  0.2269 -0.1363
  114TCq2    H2 1747   1.085   1.527   0.842 -0.8282 -0.7159 -1.2489
  114TCq2    H3 1748   0.943   1.127   0.831  2.6037 -1.6734 -0.5652
  114TCq2    H4 1749   1.253   1.216   1.091 -0.0428 -0.1549  0.6736
  115TMC2    C1 1750   2.274   3.932   0.070 -0.4780  0.1685 -0.0264
  115TMC2    C2 1751   2.405   3.901   0.068 -0.1799  0.1037 -0.2412
  115TMC2    C3 1752   2.491   4.000   0.074  0.2445  0.7156  0.5121
  115TMC2    C4 1753   2.224   4.056   0.094 -0.2017  0.7667  0.3703
  115TMC2    C5 1754   2.321   4.154   0.099  0.0481 -0.0389  0.3828
  115TMC2    C6 1755   2.454   4.131   0.079  0.0302 -0.6330  1.1599
  115TMC2     C 1756   2.179   3.832   0.019 -0.2958 -0.4342 -0.7396
  115TMC2     O 1757   2.227   3.737  17.661  0.3826 -0.0162 -0.0213
  115TMC2     H 1758   2.438   3.803   0.036  4.7572  1.6109  0.2346
  115TMC2    H1 1759   2.119   4.080   0.110 -0.8981 -1.0103 -1.5404
  115TMC2    H2 1760   2.526   4.211   0.092 -1.0652  0.5687 -0.2999
  115TMC2    C7 1761   2.282   4.283   0.158 -0.1175 -1.1166  0.1206
  115TMC2    C8 1762   2.632   3.961   0.057  0.2441 -0.0419 -0.2037
  115TMC2    O1 1763   2.192   4.274   0.240 -0.2471 -0.1546  0.4426
  115TMC2    O2 1764   2.677   3.858   0.014 -0.6092  0.5122 -0.1484
  115TMC2    O5 1765   2.705   4.046   0.127 -0.0788 -0.0621  0.1966
  115TMC2    H5 1766   2.664   4.121   0.175  0.4736 -0.6308  1.5722
  116MPD2     C 1767   1.707   3.670  17.599  0.4741 -0.2010 -0.5598
  116MPD2    C1 1768   1.834   3.605  17.593  0.3489 -0.2483 -0.4859
  116MPD2    C2 1769   1.947   3.675  17.616 -0.4806  0.1911 -0.0185
  116MPD2    C3 1770   1.940   3.795  17.679 -0.0223  0.0066  0.1241
  116MPD2    C4 1771   1.814   3.852   0.010 -0.5294  0.4267  0.1871
  116MPD2    C5 1772   1.701   3.784  17.666 -0.6908  0.2461  0.5715
  116MPD2     H 1773   2.047   3.637  17.596 -0.0175  1.8893 -0.9137
  116MPD2    H1 1774   1.802   3.941   0.072 -1.6932  0.6057 -0.2821
  116MPD2    H2 1775   1.613   3.627  17.566  0.4352 -0.7073  0.2107
  116MPD2    H3 1776   1.603   3.826  17.683  0.1434  1.2623  2.9205
  116MPD2     N 1777   2.048   3.871   0.026 -0.2458  0.1309 -0.1637
  116MPD2    H5 1778   2.035   3.931   0.107 -3.0707 -0.3743 -0.2367
  116MPD2    N1 1779   1.832   3.475  17.543  0.7871  0.1986 -0.1156
  116MPD2    H7 1780   1.739   3.437  17.531  1.3190 -1.2730  0.4638
  117TMC2    C1 1781   0.897   0.538  13.624  0.0838  0.1639  0.0256
  117TMC2    C2 1782   0.974   0.426  13.650  0.5849 -0.4178  0.2422
  117TMC2    C3 1783   1.089   0.453  13.727 -0.0532 -0.3625 -0.4801
  117TMC2    C4 1784   0.935   0.665  13.665  0.3038 -0.4119 -0.7393
  117TMC2    C5 1785   1.043   0.676  13.745 -0.3663 -0.2737  0.6201
  117TMC2    C6 1786   1.131   0.574  13.774 -0.2209 -0.4271  0.0479
  117TMC2     C 1787   0.783   0.517  13.537  0.5843  0.0665  0.1006
  117TMC2     O 1788   0.785   0.413  13.469 -0.2225  0.1275  0.9393
  117TMC2     H 1789   0.946   0.330  13.609  0.5943 -0.2146 -0.2382
  117TMC2    H1 1790   0.878   0.754  13.640 -0.7186 -0.4199  1.5596
  117TMC2    H2 1791   1.215   0.582  13.841 -1.2645 -1.0456  1.4271
  117TMC2    C7 1792   1.090   0.808  13.775 -0.4030  0.4319 -0.8278
  117TMC2    C8 1793   1.117   0.331  13.799  0.1689  0.0140  0.0976
  117TMC2    O1 1794   1.027   0.903  13.734 -0.0564 -0.4766 -0.4692
  117TMC2    O2 1795   1.024   0.256  13.834  0.3466  0.3735 -0.0036
  117TMC2    O5 1796   1.246   0.330  13.846 -0.6390  0.0521  0.4890
  117TMC2    H5 1797   1.316   0.392  13.815  0.0796  0.4446  2.8800
  118MPD2     C 1798   1.381   0.929  13.962  0.0710 -0.0300  0.1200
  118MPD2    C1 1799   1.298   0.927  13.852  0.2139  0.0474  0.0236
  118MPD2    C2 1800   1.301   1.029  13.754  0.0987 -0.8902  0.2472
  118MPD2    C3 1801   1.386   1.134  13.775 -0.4557 -0.3500  0.3517
  118MPD2    C4 1802   1.471   1.137  13.882  0.4430 -0.2156  0.0404
  118MPD2    C5 1803   1.463   1.040  13.979  0.0129  0.5144 -0.2047
  118MPD2     H 1804   1.243   1.007  13.665  0.6106  0.3292 -0.3836
  118MPD2    H1 1805   1.541   1.220  13.889  0.7611 -0.2972 -2.1972
  118MPD2    H2 1806   1.379   0.849  14.035  4.1917 -1.3714 -1.2313
  118MPD2    H3 1807   1.518   1.056  14.071  1.3120  0.3694 -0.9502
  118MPD2     N 1808   1.398   1.232  13.677 -0.1079  0.1895 -0.4041
  118MPD2    H5 1809   1.475   1.298  13.687  0.0026 -0.0264  0.1771
  118MPD2    N1 1810   1.214   0.816  13.846 -0.4811  0.1511 -0.4381
  118MPD2    H7 1811   1.241   0.735  13.902  2.7641  0.2477 -1.9239
  119MPD2     C 1812   4.352   2.051  13.597 -0.1318 -0.3776  0.0815
  119MPD2    C1 1813   4.232   2.045  13.662 -0.2683  0.9253  0.2992
  119MPD2    C2 1814   4.113   2.035  13.591  0.1242  0.1651  0.4053
  119MPD2    C3 1815   4.123   2.021  13.453 -0.0022  0.0134  0.6882
  119MPD2    C4 1816   4.243   2.024  13.384 -0.1556  1.0138  0.0297
  119MPD2    C5 1817   4.353   2.041  13.461 -0.6391 -0.2614  0.2273
  119MPD2     H 1818   4.017   2.026  13.640  0.5995  0.4581  1.3830
  119MPD2    H1 1819   4.255   2.013  13.277 -1.0134 -0.8269  0.1268
  119MPD2    H2 1820   4.448   2.051  13.648 -0.2389 -0.7781  0.2811
  119MPD2    H3 1821   4.442   2.041  13.401 -0.7978 -0.9332 -0.0091
  119MPD2     N 1822   4.004   2.020  13.375 -0.1025  0.5363  0.0164
  119MPD2    H5 1823   4.013   2.015  13.274  1.4565 -1.6364  0.2526
  119MPD2    N1 1824   4.229   2.037  13.806 -0.0808  0.0007 -0.3674
  119MPD2    H7 1825   4.306   2.083  13.853 -0.6697 -0.3336  0.9318
  120TCq2    C1 1826   3.882   1.973  13.422  0.8186 -0.3248 -0.0375
  120TCq2    O2 1827   3.866   1.914  13.524 -0.1628 -0.2533  0.1093
  120TCq2    C2 1828   3.778   1.964  13.319 -0.1844  0.5135  0.5459
  120TCq2    C3 1829   3.779   2.042  13.205 -0.0890  0.5714  0.3952
  120TCq2    C4 1830   3.670   2.041  13.132 -0.2892  0.0740 -0.2478
  120TCq2    C5 1831   3.559   1.968  13.165 -0.2094  0.1803 -0.2772
  120TCq2    C6 1832   3.568   1.878  13.268  0.2901  0.3707  0.1392
  120TCq2    C7 1833   3.680   1.867  13.342 -0.5643  0.1271 -0.4957
  120TCq2    C8 1834   3.457   1.792  13.288 -0.4676 -0.0323  0.1344
  120TCq2    O4 1835   3.358   1.804  13.213 -0.1179 -0.0031 -0.2562
  120TCq2    C9 1836   3.661   2.134  13.019 -0.5980  0.3880 -0.1999
  120TCq2    O5 1837   3.555   2.141  12.954 -0.1622  0.1472 -0.0976
  120TCq2    O6 1838   3.760   2.207  12.994  0.4328 -1.0413  0.2193
  120TCq2    H2 1839   3.857   2.117  13.200  1.4750 -1.0407  0.5802
  120TCq2    H3 1840   3.466   1.978  13.110  1.5733  0.2366 -3.2834
  120TCq2    H4 1841   3.692   1.800  13.426 -0.3576  1.3796  0.4766
  121TMC2    C1 1842   0.778   3.605  13.893 -0.2788 -0.0160 -0.0511
  121TMC2    C2 1843   0.897   3.538  13.860 -0.6823  0.5130 -1.0847
  121TMC2    C3 1844   0.924   3.436  13.951 -0.6789  0.6106  0.3043
  121TMC2    C4 1845   0.697   3.581  14.001 -0.7990 -0.3011  0.0926
  121TMC2    C5 1846   0.729   3.471  14.079  0.0862  1.0363 -0.2508
  121TMC2    C6 1847   0.836   3.394  14.049 -0.3574 -0.1806 -0.3018
  121TMC2     C 1848   0.741   3.722  13.810  0.3299  0.2478 -0.5882
  121TMC2     O 1849   0.648   3.796  13.845 -0.6617 -0.2436 -0.7205
  121TMC2     H 1850   0.967   3.547  13.778  0.5613 -1.1570 -0.2139
  121TMC2    H1 1851   0.613   3.646  14.023 -0.2964  0.1307  0.7484
  121TMC2    H2 1852   0.868   3.304  14.102  0.1269  0.2274  0.0979
  121TMC2    C7 1853   0.652   3.438  14.197  0.0643  0.1448 -0.1809
  121TMC2    C8 1854   1.051   3.366  13.921  0.4054  0.5537 -0.3522
  121TMC2    O1 1855   0.703   3.366  14.280 -0.1319 -0.3906  0.4727
  121TMC2    O2 1856   1.144   3.417  13.864 -0.1250 -0.8173  0.1992
  121TMC2    O5 1857   1.033   3.228  13.919 -0.5224 -0.0388  0.2516
  121TMC2    H5 1858   0.954   3.197  13.969  1.5906 -1.7836  2.4963
  122MPD2     C 1859   0.715   3.901  13.581  0.2693  0.1080  0.1655
  122MPD2    C1 1860   0.832   3.831  13.613  0.3575 -0.3647 -0.3385
  122MPD2    C2 1861   0.945   3.862  13.543  0.5095  0.5827  0.1450
  122MPD2    C3 1862   0.946   3.941  13.435  0.5470 -0.3934 -0.5938
  122MPD2    C4 1863   0.830   4.009  13.408  0.4315 -0.8139  0.4807
  122MPD2    C5 1864   0.713   3.993  13.479 -0.2015 -0.1658 -0.0197
  122MPD2     H 1865   1.036   3.816  13.578  0.2922 -0.2769 -0.3910
  122MPD2    H1 1866   0.822   4.074  13.321 -1.8044 -0.2740  1.0887
  122MPD2    H2 1867   0.620   3.874  13.624  0.5639  0.6091  1.1277
  122MPD2    H3 1868   0.625   4.052  13.455  1.0827  1.7568  0.0550
  122MPD2     N 1869   1.059   3.967  13.355  0.2911  0.0924 -0.3623
  122MPD2    H5 1870   1.049   4.026  13.272 -1.6074 -1.8572 -1.5175
  122MPD2    N1 1871   0.841   3.741  13.719  0.3273 -0.2267 -0.4187
  122MPD2    H7 1872   0.930   3.695  13.737  0.4267  0.3726  0.6226
  123MPD2     C 1873   3.979   1.947  10.542  0.4558  0.0264 -0.4263
  123MPD2    C1 1874   4.004   1.855  10.448 -0.3200  0.3355  1.3330
  123MPD2    C2 1875   4.101   1.881  10.354 -0.4459 -0.2336 -0.4961
  123MPD2    C3 1876   4.185   1.986  10.369  0.0084 -0.2107  0.3777
  123MPD2    C4 1877   4.162   2.074  10.474  0.1696 -0.1749  0.7185
  123MPD2    C5 1878   4.067   2.053  10.567 -0.3225 -0.1249  0.3754
  123MPD2     H 1879   4.125   1.807  10.279  2.6566 -0.7482  0.9928
  123MPD2    H1 1880   4.230   2.154  10.499  0.2019  0.1131 -0.2705
  123MPD2    H2 1881   3.899   1.931  10.614  0.5649 -2.3463 -0.8342
  123MPD2    H3 1882   4.062   2.120  10.652  1.5129 -1.8069  1.8204
  123MPD2     N 1883   4.289   2.008  10.281  0.1241 -0.3459 -0.0273
  123MPD2    H5 1884   4.288   1.959  10.192 -0.6075 -1.2257  0.4682
  123MPD2    N1 1885   3.920   1.742  10.447  0.2055  0.0243  0.6472
  123MPD2    H7 1886   3.852   1.747  10.521 -0.5458 -1.7593  0.0863
  124TCq2    C1 1887   4.381   2.106  10.286  0.1261  0.1902 -0.7831
  124TCq2    O2 1888   4.428   2.157  10.391 -0.2043  0.4310 -0.0968
  124TCq2    C2 1889   4.425   2.163  10.162 -0.3519 -0.0105 -0.0836
  124TCq2    C3 1890   4.544   2.222  10.164 -1.0906 -0.0062 -0.5618
  124TCq2    C4 1891   4.595   2.272  10.050 -0.0877 -0.1301 -0.0567
  124TCq2    C5 1892   4.531   2.268   9.931 -0.1698 -0.0620  0.1067
  124TCq2    C6 1893   4.422   2.189   9.927 -0.2153 -1.0789 -0.2716
  124TCq2    C7 1894   4.357   2.144  10.041  0.2573  0.3071 -0.5284
  124TCq2    C8 1895   4.367   2.186   9.791 -0.1407 -0.4183 -0.4383
  124TCq2    O4 1896   4.410   2.270   9.712  0.0988 -0.3631  0.3484
  124TCq2    C9 1897   0.009   2.336  10.054 -0.0165 -0.0054 -0.6716
  124TCq2    O5 1898   0.057   2.362   9.939  0.2274  0.0105 -0.4452
  124TCq2    O6 1899   0.061   2.354  10.165 -0.5825 -0.7624  0.6111
  124TCq2    H2 1900   4.597   2.232  10.258 -1.3924 -0.9610 -0.2906
  124TCq2    H3 1901   4.583   2.308   9.845 -0.9684  0.0185 -0.3371
  124TCq2    H4 1902   4.261   2.094  10.043  0.1977  0.5137  1.3219
  125TMC2    C1 1903   0.449   2.959   8.840  0.7439 -0.1297  0.1382
  125TMC2    C2 1904   0.504   3.008   8.722 -0.0954 -0.1483 -0.3571
  125TMC2    C3 1905   0.623   3.064   8.732  0.7726  0.0440 -0.2248
  125TMC2    C4 1906   0.515   2.964   8.960  0.1586  0.6439 -0.0865
  125TMC2    C5 1907   0.635   3.027   8.958  0.0056 -0.1640  0.1278
  125TMC2    C6 1908   0.693   3.083   8.850 -0.1363  0.4901 -0.7787
  125TMC2     C 1909   0.315   2.906   8.838 -0.1978  0.2861 -0.1138
  125TMC2     O 1910   0.273   2.876   8.726  0.5665 -0.6747 -0.0463
  125TMC2     H 1911   0.459   2.989   8.626 -0.5749  1.7711 -0.5062
  125TMC2    H1 1912   0.467   2.935   9.052  0.2071  2.2774  0.4646
  125TMC2    H2 1913   0.790   3.130   8.842 -0.3408  0.7842 -1.5515
  125TMC2    C7 1914   0.705   3.042   9.089 -0.1771 -0.8959 -0.4980
  125TMC2    C8 1915   0.672   3.121   8.608 -0.3877 -0.2272 -0.6697
  125TMC2    O1 1916   0.653   2.980   9.178 -0.3114  0.0188  0.2967
  125TMC2    O2 1917   0.691   3.057   8.502  0.0515 -0.2463 -0.1302
  125TMC2    O5 1918   0.702   3.249   8.629 -0.0207  0.0145 -0.5832
  125TMC2    H5 1919   0.654   3.289   8.705 -0.0758  0.6636 -0.9613
  126MPD1     C 1920   4.570   2.819   9.006  0.0619  0.6606 -0.3693
  126MPD1    C1 1921   4.647   2.860   9.114  0.1141  0.7004 -0.0423
  126MPD1    C2 1922   0.054   2.882   9.092 -0.2660  0.2783 -0.6795
  126MPD1    C3 1923   0.105   2.888   8.964 -1.0370 -0.2202  0.0643
  126MPD1    C4 1924   0.021   2.874   8.860 -0.1163 -0.1753 -0.5797
  126MPD1    C5 1925   4.618   2.830   8.883 -0.4145  0.0372  0.6084
  126MPD1     H 1926   0.113   2.903   9.180 -1.1661  0.2363 -0.0578
  126MPD1    H1 1927   0.044   2.894   8.755  0.6084 -0.5912 -0.5030
  126MPD1    H2 1928   4.467   2.787   9.017  0.2122 -0.1554 -1.3814
  126MPD1    H3 1929   4.539   2.809   8.812  0.8818 -0.3708 -0.7139
  126MPD1     N 1930   0.242   2.913   8.953 -0.2449 -0.5822 -0.3424
  126MPD1    H5 1931   0.295   2.927   9.039  0.1256 -1.3989 -0.4367
  126MPD1    N1 1932   4.596   2.846   9.246 -0.5137 -0.8040  0.0575
  126MPD1    H6 1933   4.496   2.853   9.259 -0.6719  0.2989 -1.7754
  126MPD1    H7 1934   4.643   2.903   9.316  1.8195 -0.3768 -1.8518
  127MPD2     C 1935   0.882   2.375   9.642 -0.2930 -0.4384 -0.0489
  127MPD2    C1 1936   0.951   2.290   9.718 -1.0396 -0.4828  0.1642
  127MPD2    C2 1937   1.088   2.305   9.720 -0.1803 -0.0049 -0.0746
  127MPD2    C3 1938   1.153   2.396   9.638  0.8684  0.1853 -0.1469
  127MPD2    C4 1939   1.077   2.485   9.561  0.0644  0.0299 -0.3857
  127MPD2    C5 1940   0.947   2.472   9.564 -0.2833  0.0469 -0.0577
  127MPD2     H 1941   1.149   2.248   9.789 -1.9869  0.3161  1.7739
  127MPD2    H1 1942   1.124   2.558   9.497 -2.1476  0.7055 -1.1946
  127MPD2    H2 1943   0.777   2.360   9.624 -0.2851  0.3105 -0.6951
  127MPD2    H3 1944   0.887   2.530   9.494 -0.0491  2.7760  2.0181
  127MPD2     N 1945   1.297   2.400   9.634 -0.1535 -0.1900 -0.6076
  127MPD2    H5 1946   1.347   2.331   9.689  2.0470  0.3556 -1.9404
  127MPD2    N1 1947   0.877   2.187   9.787 -0.0760 -0.1459 -0.1241
  127MPD2    H7 1948   0.778   2.206   9.793 -0.2494 -0.4783 -2.1607
  128TCq2    C1 1949   0.932   2.085   9.873 -0.2088  0.5449 -0.2914
  128TCq2    O2 1950   1.055   2.061   9.897 -0.0653  0.1915 -0.4312
  128TCq2    C2 1951   0.832   2.008   9.950 -0.2232 -0.2338 -0.2781
  128TCq2    C3 1952   0.880   1.960  10.070  0.8871  0.2830 -0.0467
  128TCq2    C4 1953   0.794   1.959  10.183  0.2921 -0.3246 -0.2477
  128TCq2    C5 1954   0.658   1.982  10.169 -0.8220 -0.3455  0.6065
  128TCq2    C6 1955   0.613   2.008  10.042 -0.1153  0.4098  0.7095
  128TCq2    C7 1956   0.698   2.033   9.937 -0.0531 -0.3146 -0.4322
  128TCq2    C8 1957   0.467   2.029  10.029  0.3792  0.3860  0.3011
  128TCq2    O4 1958   0.418   2.106   9.946 -0.0406 -0.4242  0.1001
  128TCq2    C9 1959   0.836   1.892  10.302  0.0118 -0.1498  0.1399
  128TCq2    O5 1960   0.752   1.856  10.384  0.5037  0.1093 -0.5462
  128TCq2    O6 1961   0.949   1.835  10.301 -0.0910  0.4285 -0.3241
  128TCq2    H2 1962   0.979   1.919  10.079  0.4677 -1.1949 -2.0956
  128TCq2    H3 1963   0.592   1.966  10.253 -0.1580  1.9019  1.5503
  128TCq2    H4 1964   0.659   2.062   9.841  0.2063  2.5331  0.3246
  129MPD2     C 1965   0.038   2.876   1.183  0.2742  0.3091  1.6430
  129MPD2    C1 1966   0.060   2.994   1.249  0.0546  0.1751 -0.1224
  129MPD2    C2 1967   0.169   3.072   1.215  0.1647  0.5209  0.2643
  129MPD2    C3 1968   0.259   3.026   1.117  0.3548  0.6173 -0.9840
  129MPD2    C4 1969   0.232   2.908   1.050 -0.6997 -0.3378 -0.2152
  129MPD2    C5 1970   0.124   2.829   1.085  0.3637 -0.0169  0.2518
  129MPD2     H 1971   0.194   3.163   1.268  2.5961 -0.8277  1.4376
  129MPD2    H1 1972   0.289   2.876   0.963  0.5909  0.5897  0.2996
  129MPD2    H2 1973   4.673   2.820   1.210  0.1749  0.0432  0.7901
  129MPD2    H3 1974   0.116   2.738   1.027 -2.4988  1.2036 -1.2719
  129MPD2     N 1975   0.373   3.106   1.077  0.0704  0.4535 -0.4665
  129MPD2    H5 1976   0.381   3.189   1.134 -2.2709 -0.1952  0.8107
  129MPD2    N1 1977   4.702   3.042   1.358 -0.6242 -0.4426  0.2179
  129MPD2    H7 1978   0.004   3.129   1.402 -2.2522 -0.0468  0.3888
  130TCq2    C1 1979   4.588   2.984   1.401 -0.3704 -0.3562  0.5560
  130TCq2    O2 1980   4.535   2.885   1.352 -0.2713  0.0789  0.3070
  130TCq2    C2 1981   4.511   3.076   1.485  0.1220  0.1094  0.0453
  130TCq2    C3 1982   4.526   3.211   1.464 -0.4769  0.7699  0.1118
  130TCq2    C4 1983   4.440   3.292   1.536 -0.1518 -0.0143  0.0558
  130TCq2    C5 1984   4.343   3.243   1.626 -0.3040  0.3083  0.1858
  130TCq2    C6 1985   4.336   3.104   1.635  0.8382  0.8941 -0.1800
  130TCq2    C7 1986   4.419   3.018   1.571  0.7135  0.0017 -0.1299
  130TCq2    C8 1987   4.228   3.044   1.713  0.5468 -0.6480  0.0717
  130TCq2    O4 1988   4.141   3.123   1.740 -0.0652 -0.1303  0.2763
  130TCq2    C9 1989   4.451   3.438   1.526 -0.2309  0.4573  0.9481
  130TCq2    O5 1990   4.559   3.479   1.474 -0.1585 -0.5772 -0.5917
  130TCq2    O6 1991   4.377   3.504   1.601  0.4343  0.3040  0.1550
  130TCq2    H2 1992   4.594   3.254   1.390 -2.0135 -1.9584 -2.8989
  130TCq2    H3 1993   4.292   3.309   1.696 -1.6921 -1.3045  0.6908
  130TCq2    H4 1994   4.412   2.909   1.570  0.7840 -0.0107  0.5268
  131MPD2     C 1995   3.456   1.779   9.684 -1.0208  0.1546  0.6258
  131MPD2    C1 1996   3.550   1.849   9.755 -0.5240  0.6907  0.2727
  131MPD2    C2 1997   3.589   1.784   9.876 -0.5064  0.1396 -0.1696
  131MPD2    C3 1998   3.518   1.675   9.930  0.8005  0.2629  0.3744
  131MPD2    C4 1999   3.415   1.616   9.849  0.2244 -0.4824 -0.0920
  131MPD2    C5 2000   3.383   1.673   9.732  0.1527  0.4172 -0.1827
  131MPD2     H 2001   3.671   1.826   9.932 -0.5744 -0.5345  0.4421
  131MPD2    H1 2002   3.360   1.534   9.894  1.1970  0.1958  2.3706
  131MPD2    H2 2003   3.422   1.813   9.587 -0.7862 -0.2907  0.3871
  131MPD2    H3 2004   3.298   1.638   9.675 -0.3778 -1.6167  1.8634
  131MPD2     N 2005   3.567   1.622  10.049  0.1792  0.6201 -0.3390
  131MPD2    H5 2006   3.634   1.681  10.097  0.4290 -0.3094  0.4615
  131MPD2    N1 2007   3.598   1.976   9.700 -0.2593  0.4257  0.2980
  131MPD2    H7 2008   3.566   2.004   9.607  0.3791  2.4297  0.6884
  132TCq2    C1 2009   3.610   2.408   9.416  0.0037 -0.7578  0.3333
  132TCq2    O2 2010   3.527   2.341   9.358  0.1326 -0.3249 -0.1408
  132TCq2    C2 2011   3.669   2.358   9.541  0.7526 -0.2262  0.1749
  132TCq2    C3 2012   3.757   2.445   9.610  0.1973  0.6193  0.1120
  132TCq2    C4 2013   3.826   2.394   9.717 -0.2475 -0.2797 -0.3999
  132TCq2    C5 2014   3.810   2.266   9.753 -0.6131  0.5081  0.6921
  132TCq2    C6 2015   3.720   2.178   9.692  0.3602 -0.2433  0.6015
  132TCq2    C7 2016   3.643   2.227   9.588 -0.3037  0.7026  1.0711
  132TCq2    C8 2017   3.684   2.058   9.767 -0.8331 -0.5454 -0.2606
  132TCq2    O4 2018   3.725   2.049   9.880 -0.0860 -0.5195  0.2214
  132TCq2    C9 2019   3.931   2.468   9.782  1.1292 -0.3457  0.0764
  132TCq2    O5 2020   3.963   2.417   9.894 -0.6583 -0.1585 -0.1047
  132TCq2    O6 2021   3.965   2.581   9.735 -0.2805  0.6695 -0.5802
  132TCq2    H2 2022   3.784   2.546   9.581  1.6890  0.3169  0.4194
  132TCq2    H3 2023   3.870   2.228   9.835  1.2665 -0.0829 -0.9441
  132TCq2    H4 2024   3.580   2.168   9.522  0.7555 -1.3447  1.9189
  133MPD2     C 2025   3.200   2.322   8.971  0.6387 -0.2822  0.3536
  133MPD2    C1 2026   3.078   2.379   8.996  0.3988  0.0798 -0.3397
  133MPD2    C2 2027   3.064   2.515   8.964 -0.5973 -0.1763 -0.0224
  133MPD2    C3 2028   3.154   2.579   8.888 -0.2399  0.3290 -0.4174
  133MPD2    C4 2029   3.279   2.524   8.864 -0.0023  0.0827 -0.4633
  133MPD2    C5 2030   3.301   2.396   8.906  0.0326  0.3590 -0.0461
  133MPD2     H 2031   2.966   2.557   8.983  0.0974  0.9351  1.0711
  133MPD2    H1 2032   3.364   2.572   8.818  1.2745 -0.6666  1.1472
  133MPD2    H2 2033   3.228   2.223   9.006  0.5129 -0.8257 -1.1181
  133MPD2    H3 2034   3.393   2.341   8.889 -1.5064 -1.9587 -0.9453
  133MPD2     N 2035   3.134   2.716   8.849 -0.1106 -0.4487  0.4122
  133MPD2    H5 2036   3.207   2.760   8.794 -1.8472  1.4105 -0.3710
  133MPD2    N1 2037   2.967   2.309   9.055  0.4456  0.5915  0.4617
  133MPD2    H7 2038   2.891   2.371   9.081 -0.8932 -2.2363  3.3736
  134TCq2    C1 2039   2.957   2.169   9.079  0.3575  0.2825  0.2887
  134TCq2    O2 2040   3.040   2.078   9.070 -0.0541  0.2730  0.2522
  134TCq2    C2 2041   2.842   2.138   9.173  0.6635  0.3644 -0.4160
  134TCq2    C3 2042   2.725   2.212   9.148  0.1243  0.9277 -0.6214
  134TCq2    C4 2043   2.623   2.200   9.243  0.1626 -0.1228 -1.4021
  134TCq2    C5 2044   2.642   2.117   9.351 -0.5893 -0.4857 -0.5786
  134TCq2    C6 2045   2.761   2.060   9.378 -0.2564  0.1654  0.3211
  134TCq2    C7 2046   2.864   2.062   9.285 -0.3003  0.7262 -0.2582
  134TCq2    C8 2047   2.755   1.958   9.483 -0.0936 -0.4551  0.5546
  134TCq2    O4 2048   2.688   1.973   9.585  0.6103 -0.1647  0.5844
  134TCq2    C9 2049   2.500   2.273   9.227 -0.1635 -0.1266 -0.3058
  134TCq2    O5 2050   2.515   2.383   9.168  0.4036 -0.2662 -0.3327
  134TCq2    O6 2051   2.409   2.242   9.307  0.4727 -0.4639  0.3081
  134TCq2    H2 2052   2.720   2.269   9.056 -1.8250  1.3614 -0.2477
  134TCq2    H3 2053   2.564   2.093   9.423  0.3171  0.3020  0.6585
  134TCq2    H4 2054   2.954   2.002   9.302  0.2949  1.7777  0.3084
  135MPD2     C 2055   0.889   3.913   8.565  0.0087 -0.7061 -0.1018
  135MPD2    C1 2056   0.884   3.909   8.705 -0.2552  0.4116  0.3337
  135MPD2    C2 2057   0.985   3.961   8.782 -0.3342  0.3255 -0.6117
  135MPD2    C3 2058   1.100   4.004   8.719 -0.2109  0.5839 -0.1768
  135MPD2    C4 2059   1.106   4.001   8.580  0.2260 -0.4956  0.5809
  135MPD2    C5 2060   1.001   3.960   8.504  0.2145  0.8273 -0.8659
  135MPD2     H 2061   0.973   3.959   8.890  0.1434 -0.6366 -0.5788
  135MPD2    H1 2062   1.190   4.047   8.529 -0.8886  2.9198  1.8245
  135MPD2    H2 2063   0.824   3.870   8.490 -1.3224  1.2191 -0.0409
  135MPD2    H3 2064   1.009   3.948   8.397 -2.2259  2.4169 -1.2188
  135MPD2     N 2065   1.218   4.064   8.791  0.2447 -0.4430 -0.1052
  135MPD2    H5 2066   1.296   4.093   8.733  1.0653 -2.6720 -0.1209
  135MPD2    N1 2067   0.771   3.861   8.770 -0.0571 -0.0432 -0.1252
  135MPD2    H7 2068   0.771   3.849   8.871  0.6547 -1.5042 -0.3062
  136TCq2    C1 2069   0.658   3.816   8.707 -0.2042  0.2323 -0.4332
  136TCq2    O2 2070   0.620   3.831   8.591 -0.0150  0.1126  0.1881
  136TCq2    C2 2071   0.569   3.746   8.798  0.2022  0.1800 -0.1126
  136TCq2    C3 2072   0.432   3.779   8.786 -0.3502 -0.2783 -0.7769
  136TCq2    C4 2073   0.344   3.726   8.878  0.3142  0.4341  0.5177
  136TCq2    C5 2074   0.386   3.636   8.973 -0.3628  0.0879 -0.1763
  136TCq2    C6 2075   0.526   3.614   8.982  0.3201  0.2571  0.2569
  136TCq2    C7 2076   0.623   3.662   8.896  0.3976 -0.2937 -0.4361
  136TCq2    C8 2077   0.584   3.574   9.108 -0.9284 -0.8064 -0.2499
  136TCq2    O4 2078   0.707   3.551   9.111 -0.0059  0.1819  0.3569
  136TCq2    C9 2079   0.197   3.744   8.866 -0.1661 -0.8755  0.4118
  136TCq2    O5 2080   0.125   3.711   8.964 -0.6239 -0.0589  0.1757
  136TCq2    O6 2081   0.157   3.773   8.755 -0.2156  0.5743 -0.1060
  136TCq2    H2 2082   0.389   3.839   8.706 -0.4432  0.2231 -0.3525
  136TCq2    H3 2083   0.319   3.592   9.046  0.4709  0.0074  0.5334
  136TCq2    H4 2084   0.730   3.653   8.914  0.1220  3.9604  3.3146
  137MPD2     C 2085   4.626   3.157   9.335  0.3289 -0.2210 -0.6563
  137MPD2    C1 2086   0.042   3.145   9.322 -0.0741 -0.0743  0.5481
  137MPD2    C2 2087   0.103   3.077   9.428  0.0055  0.9559 -0.5852
  137MPD2    C3 2088   0.039   3.020   9.535 -0.8837 -0.0619 -0.0073
  137MPD2    C4 2089   4.627   3.029   9.542  0.0736  0.0732  0.2768
  137MPD2    C5 2090   4.565   3.107   9.444 -0.8511  0.0098 -0.5146
  137MPD2     H 2091   0.210   3.060   9.420 -0.0400  0.9120 -1.0603
  137MPD2    H1 2092   4.563   2.987   9.618 -0.4052 -0.2453 -0.3010
  137MPD2    H2 2093   4.564   3.213   9.266 -0.2914  0.5439  0.5180
  137MPD2    H3 2094   4.461   3.131   9.460 -0.9280 -0.6910  0.0459
  137MPD2     N 2095   0.111   2.945   9.634 -0.1909  0.7429  0.4687
  137MPD2    H5 2096   0.208   2.920   9.618 -0.3349  0.2032  0.4402
  137MPD2    N1 2097   0.102   3.208   9.213  0.5586 -0.9731  0.3613
  137MPD2    H7 2098   0.040   3.257   9.149  1.1159 -2.3619 -1.2578
  138TCq2    C1 2099   0.227   3.203   9.169  0.1982 -0.0854  0.0773
  138TCq2    O2 2100   0.324   3.148   9.221 -0.3534  0.2970 -0.4215
  138TCq2    C2 2101   0.225   3.248   9.031 -0.3012 -0.9034 -0.3961
  138TCq2    C3 2102   0.348   3.280   8.973  0.5135 -0.2960 -0.4110
  138TCq2    C4 2103   0.342   3.312   8.842 -0.0515  0.2599  0.2029
  138TCq2    C5 2104   0.223   3.307   8.765  0.0739  0.5769  0.0205
  138TCq2    C6 2105   0.116   3.260   8.830  0.2227 -0.2794  0.5689
  138TCq2    C7 2106   0.108   3.224   8.965 -0.3016 -0.5029 -0.6068
  138TCq2    C8 2107   0.002   3.238   8.735  0.2608 -0.4727  0.4927
  138TCq2    O4 2108   0.028   3.195   8.624 -0.2345  0.1196 -0.1373
  138TCq2    C9 2109   0.463   3.369   8.780 -0.3750  0.7720  0.0045
  138TCq2    O5 2110   0.575   3.341   8.837  0.2938  0.2216  0.3058
  138TCq2    O6 2111   0.454   3.397   8.654  0.8056  0.4604  0.1233
  138TCq2    H2 2112   0.442   3.299   9.025  0.0492 -2.6832  1.2818
  138TCq2    H3 2113   0.220   3.337   8.661 -0.2972 -0.1044 -0.1595
  138TCq2    H4 2114   0.020   3.170   8.998  0.7221 -1.5614  0.3714
  139TMC2    C1 2115   0.899   1.329  12.980 -0.5681 -0.1952  0.6075
  139TMC2    C2 2116   0.934   1.390  12.858 -0.7965  0.2387  0.7632
  139TMC2    C3 2117   0.899   1.522  12.842  0.1569  0.3986  0.4202
  139TMC2    C4 2118   0.822   1.403  13.069  0.4540 -0.1304  0.1946
  139TMC2    C5 2119   0.793   1.535  13.044  1.1304 -0.1401 -1.1299
  139TMC2    C6 2120   0.837   1.602  12.935 -1.0751  0.1664 -0.0753
  139TMC2     C 2121   0.921   1.186  12.995 -0.3399 -0.5561  0.5144
  139TMC2     O 2122   0.924   1.113  12.896 -0.4586  0.4959 -0.5673
  139TMC2     H 2123   0.993   1.341  12.781 -2.9065  1.9638 -1.9389
  139TMC2    H1 2124   0.780   1.361  13.159 -1.2723  2.8293  0.7648
  139TMC2    H2 2125   0.825   1.708  12.918 -1.2869  0.2767  0.7314
  139TMC2    C7 2126   0.749   1.628  13.150 -0.2167  0.1079 -0.4370
  139TMC2    C8 2127   0.927   1.588  12.711  0.7394  0.2059  0.3559
  139TMC2    O1 2128   0.746   1.747  13.121 -0.0638  0.1618  0.2573
  139TMC2    O2 2129   0.847   1.672  12.667  0.7316 -0.2379  0.0593
  139TMC2    O5 2130   1.038   1.547  12.652 -0.2650  0.0313  0.3236
  139TMC2    H5 2131   1.106   1.492  12.696  2.0323  0.0968 -3.1051
  140MPD2     C 2132   0.951   1.015  13.320  0.0879 -0.2841  0.2275
  140MPD2    C1 2133   0.960   1.022  13.186 -0.1933 -0.2927  0.5482
  140MPD2    C2 2134   0.999   0.915  13.111 -0.3251  0.1564 -0.2793
  140MPD2    C3 2135   1.039   0.793  13.174  0.4807  0.2766  1.1885
  140MPD2    C4 2136   1.024   0.789  13.310 -0.7345  0.3599  0.6293
  140MPD2    C5 2137   0.988   0.900  13.384 -0.6409  0.0841  0.3530
  140MPD2     H 2138   1.038   0.933  13.011 -2.9528  0.1629 -1.2875
  140MPD2    H1 2139   1.058   0.703  13.368 -2.0307 -0.2742  0.4489
  140MPD2    H2 2140   0.912   1.092  13.386  1.4206  1.5740 -1.1694
  140MPD2    H3 2141   0.980   0.902  13.492  0.1658  1.2736  0.3833
  140MPD2     N 2142   1.094   0.690  13.083 -0.0110  0.0265  0.4624
  140MPD2    H5 2143   1.101   0.714  12.985  1.7958  0.5401  0.7136
  140MPD2    N1 2144   0.932   1.150  13.128  0.4703  0.2988 -0.0007
  140MPD2    H7 2145   0.911   1.221  13.197  0.0609 -2.9093  3.2163
  141TCq2    C1 2146   1.559   2.510  14.700  0.1150  0.5253  0.3222
  141TCq2    O2 2147   1.529   2.580  14.605  0.6345  0.2496  0.4499
  141TCq2    C2 2148   1.538   2.551  14.840 -0.3509  0.9333  0.5916
  141TCq2    C3 2149   1.534   2.464  14.942 -0.0445 -0.0141  0.3241
  141TCq2    C4 2150   1.529   2.494  15.075 -0.2625  0.0598  0.1773
  141TCq2    C5 2151   1.539   2.635  15.100  1.2214  0.6039  0.4449
  141TCq2    C6 2152   1.533   2.721  14.998  0.4274 -0.0177 -0.4451
  141TCq2    C7 2153   1.533   2.685  14.866  0.0278 -0.2497 -0.6647
  141TCq2    C8 2154   1.505   2.859  15.042  0.4938 -0.4096 -0.2897
  141TCq2    O4 2155   1.456   2.886  15.149  0.3056 -0.7672  0.0544
  141TCq2    C9 2156   1.507   2.396  15.179 -0.3703 -0.1678  0.4923
  141TCq2    O5 2157   1.506   2.276  15.146  0.3726 -0.6010 -0.1488
  141TCq2    O6 2158   1.495   2.437  15.296 -0.1635  0.2489  0.9737
  141TCq2    H2 2159   1.520   2.361  14.915  0.6588  0.3703 -1.4659
  141TCq2    H3 2160   1.539   2.678  15.199  2.0186  0.3920  0.5433
  141TCq2    H4 2161   1.518   2.747  14.779  0.8419  0.7625 -0.0862
  142MPD2     C 2162   3.704   1.095  10.209  0.1716 -0.3408 -0.0107
  142MPD2    C1 2163   3.597   1.111  10.122 -0.1849 -0.3054  0.4350
  142MPD2    C2 2164   3.607   1.194  10.011  0.4287 -0.9820  0.0856
  142MPD2    C3 2165   3.724   1.259   9.983  0.5583 -0.8041  0.0583
  142MPD2    C4 2166   3.832   1.246  10.064 -0.1286 -0.3802  0.1528
  142MPD2    C5 2167   3.818   1.169  10.176 -0.1875  0.2934  0.5217
  142MPD2     H 2168   3.523   1.214   9.946 -0.1514  2.4784  1.9090
  142MPD2    H1 2169   3.923   1.291  10.026 -2.0116  2.4068 -1.0740
  142MPD2    H2 2170   3.690   1.032  10.296  0.9016  1.4223  1.3639
  142MPD2    H3 2171   3.905   1.167  10.241 -1.9236 -0.7531  2.8069
  142MPD2     N 2172   3.743   1.336   9.863  0.9289 -0.5642 -0.0090
  142MPD2    H5 2173   3.836   1.372   9.849  0.5398  0.5735  0.3781
  142MPD2    N1 2174   3.470   1.045  10.147 -0.4472 -0.7471 -0.1240
  142MPD2    H7 2175   3.460   0.993  10.233 -0.0481 -0.6242 -0.0020
  143TCq2    C1 2176   3.649   1.358   9.767  0.4569  0.1872  0.1028
  143TCq2    O2 2177   3.534   1.323   9.760 -0.1063  0.4795 -0.5866
  143TCq2    C2 2178   3.698   1.441   9.655 -0.1638  0.4818 -0.0245
  143TCq2    C3 2179   3.617   1.452   9.541  0.1744 -0.3254  0.3193
  143TCq2    C4 2180   3.655   1.554   9.459 -0.7005  0.1124 -0.5736
  143TCq2    C5 2181   3.750   1.647   9.483  0.5913  0.1137  1.0781
  143TCq2    C6 2182   3.830   1.628   9.593 -0.0349 -0.1349 -0.0858
  143TCq2    C7 2183   3.807   1.521   9.674  0.0122  0.5439 -0.0080
  143TCq2    C8 2184   3.932   1.720   9.641 -0.2863  0.5242 -0.4335
  143TCq2    O4 2185   3.999   1.692   9.737  0.2001 -0.7037  0.2598
  143TCq2    C9 2186   3.568   1.575   9.345  0.4232  0.8678  0.3621
  143TCq2    O5 2187   3.463   1.505   9.336 -0.4093  0.4509  0.3999
  143TCq2    O6 2188   3.601   1.667   9.263 -0.0519  0.4254  0.3764
  143TCq2    H2 2189   3.530   1.390   9.523 -1.7526  2.7504 -0.9180
  143TCq2    H3 2190   3.757   1.737   9.424 -1.7493  0.2102  0.9379
  143TCq2    H4 2191   3.875   1.511   9.757  2.0328  0.0576 -1.7300
  144MPD2     C 2192   1.320   0.869   0.600 -0.2168  0.6920 -0.3386
  144MPD2    C1 2193   1.370   0.743   0.626 -0.0925 -0.4119 -0.3906
  144MPD2    C2 2194   1.430   0.710   0.754  0.5487 -0.3293 -0.5270
  144MPD2    C3 2195   1.418   0.809   0.854  0.4721 -0.6387  0.9698
  144MPD2    C4 2196   1.373   0.933   0.822  0.2131 -0.1749  1.2675
  144MPD2    C5 2197   1.324   0.961   0.698 -0.1160 -0.0603  0.8149
  144MPD2     H 2198   1.466   0.611   0.777  0.2522 -0.7620 -1.9557
  144MPD2    H1 2199   1.362   1.008   0.900  0.5063  1.8949 -0.6939
  144MPD2    H2 2200   1.278   0.908   0.508 -1.5826  1.0359  0.4393
  144MPD2    H3 2201   1.275   1.058   0.689 -1.1914 -0.8816 -2.3376
  144MPD2     N 2202   1.445   0.790   0.988  0.7302  0.0926  0.1409
  144MPD2    H5 2203   1.412   0.869   1.043 -4.5900 -2.3045  0.3885
  144MPD2    N1 2204   1.359   0.641   0.534  0.0642 -0.1530 -0.6329
  144MPD2    H7 2205   1.383   0.545   0.559  0.4984 -0.0410 -0.6245
  145TCq2    C1 2206   1.491   0.675   1.049 -0.0751 -0.1346  0.7369
  145TCq2    O2 2207   1.555   0.578   1.000  0.2601  0.2026  0.0079
  145TCq2    C2 2208   1.442   0.654   1.185 -0.3006  0.0120 -0.2908
  145TCq2    C3 2209   1.501   0.558   1.261  0.0715 -0.3394  1.1172
  145TCq2    C4 2210   1.452   0.538   1.384 -0.3446 -0.0840  0.6218
  145TCq2    C5 2211   1.340   0.603   1.435  0.4661  0.2201  0.0855
  145TCq2    C6 2212   1.284   0.694   1.355 -0.2013 -0.0657  0.0529
  145TCq2    C7 2213   1.336   0.728   1.231 -0.4792  0.5152 -0.1786
  145TCq2    C8 2214   1.158   0.746   1.396  0.2417 -0.2095  0.2889
  145TCq2    O4 2215   1.087   0.686   1.469  0.1172  0.3582 -0.4395
  145TCq2    C9 2216   1.521   0.444   1.469  0.0398 -0.3401 -0.1678
  145TCq2    O5 2217   1.498   0.453   1.593  0.2348  0.2637 -0.1019
  145TCq2    O6 2218   1.624   0.386   1.426 -0.0304 -0.1742  0.1661
  145TCq2    H2 2219   1.575   0.491   1.218  0.1453 -0.0859  0.8447
  145TCq2    H3 2220   1.306   0.580   1.535  0.9206  0.5380  0.3101
  145TCq2    H4 2221   1.288   0.794   1.159 -1.4403  0.4997  0.4543
  146TMC2    C1 2222   2.957   3.752  12.563  0.3934  0.6852 -0.6593
  146TMC2    C2 2223   2.883   3.740  12.454 -0.2918  0.2713 -0.8978
  146TMC2    C3 2224   2.941   3.679  12.347 -0.1761  0.1639  0.1885
  146TMC2    C4 2225   3.081   3.701  12.581 -0.5021  0.0862  0.0934
  146TMC2    C5 2226   3.126   3.629  12.480  0.4144 -0.2330 -0.2754
  146TMC2    C6 2227   3.061   3.612  12.365  0.2805  0.2162  0.2091
  146TMC2     C 2228   2.905   3.846  12.667  0.2032 -0.3277  0.1369
  146TMC2     O 2229   2.888   3.960  12.627 -0.1018  0.0808 -0.7317
  146TMC2     H 2230   2.783   3.781  12.443 -0.7304 -0.9305 -1.4343
  146TMC2    H1 2231   3.137   3.734  12.668  0.7951  0.0140 -0.7214
  146TMC2    H2 2232   3.100   3.555  12.282  1.0225 -2.7699  2.6466
  146TMC2    C7 2233   3.256   3.558  12.492 -0.7355 -0.1618  0.7897
  146TMC2    C8 2234   2.850   3.641  12.246  0.7474 -0.2167  0.0381
  146TMC2    O1 2235   3.302   3.503  12.395 -0.4074  0.3072  0.2542
  146TMC2    O2 2236   2.798   3.721  12.170  0.2174  0.4590  0.3726
  146TMC2    O5 2237   2.817   3.511  12.258  0.1626 -0.1051 -0.5635
  146TMC2    H5 2238   2.859   3.456  12.328 -0.2186 -0.7316 -0.8238
  147MPD2     C 2239   3.660   3.428  12.770  0.0697  0.2218  1.0764
  147MPD2    C1 2240   3.558   3.454  12.865 -0.2834  0.2273  0.5908
  147MPD2    C2 2241   3.429   3.480  12.819  0.5056 -0.1375 -0.0248
  147MPD2    C3 2242   3.413   3.494  12.675  0.1050 -0.2771  0.2785
  147MPD2    C4 2243   3.516   3.468  12.587 -0.0062 -0.0502  0.0758
  147MPD2    C5 2244   3.635   3.429  12.635  0.4673 -0.0106 -0.1534
  147MPD2     H 2245   3.353   3.520  12.884  0.1704 -0.2414 -0.3493
  147MPD2    H1 2246   3.507   3.478  12.479 -2.0008  0.1097  0.2536
  147MPD2    H2 2247   3.760   3.409  12.806  0.3462  0.2663  0.3414
  147MPD2    H3 2248   3.718   3.412  12.567  1.1923 -1.1267  1.0073
  147MPD2     N 2249   3.292   3.549  12.624  0.0514  0.4707 -0.4986
  147MPD2    H5 2250   3.227   3.586  12.693 -1.0250 -2.0655 -0.1325
  147MPD2    N1 2251   3.600   3.458  13.000  0.2277 -0.0196 -0.3288
  147MPD2    H7 2252   3.697   3.432  13.014  0.0643  0.0799  0.9683
  148MPD2     C 2253   3.088   1.778  11.006 -0.0131  0.3145 -0.5898
  148MPD2    C1 2254   3.151   1.832  10.901  0.6303  0.2541  0.4123
  148MPD2    C2 2255   3.077   1.865  10.792 -0.1983 -0.4273  0.1991
  148MPD2    C3 2256   2.943   1.845  10.781  0.9719 -0.6120 -0.8701
  148MPD2    C4 2257   2.880   1.786  10.888 -0.6715 -0.1499  0.4955
  148MPD2    C5 2258   2.953   1.768  11.002 -0.2941  0.4345 -0.3916
  148MPD2     H 2259   3.133   1.908  10.710  0.6194  1.9050  1.9986
  148MPD2    H1 2260   2.776   1.757  10.896 -0.9936  0.1778 -2.7446
  148MPD2    H2 2261   3.138   1.751  11.099  2.8242 -0.4441 -2.3393
  148MPD2    H3 2262   2.906   1.740  11.096  2.7154 -0.1043  0.9373
  148MPD2     N 2263   2.873   1.873  10.666 -0.3128 -0.0654  0.1218
  148MPD2    H5 2264   2.776   1.849  10.654 -0.9609  2.7416 -0.4262
  148MPD2    N1 2265   3.288   1.858  10.891  0.1691  0.0273  0.3021
  148MPD2    H7 2266   3.309   1.898  10.800  0.0274  0.7167  0.5720
  149TCq2    C1 2267   3.380   1.851  10.993  0.7545 -0.1738  0.0380
  149TCq2    O2 2268   3.349   1.846  11.109  0.1767  0.7673 -0.3824
  149TCq2    C2 2269   3.502   1.914  10.951 -0.4099  0.7864 -0.8450
  149TCq2    C3 2270   3.532   2.032  11.006 -0.1114 -0.4984 -0.1492
  149TCq2    C4 2271   3.620   2.123  10.937 -0.4660  0.4890 -0.4353
  149TCq2    C5 2272   3.637   2.104  10.801  0.4300 -0.0982  0.2013
  149TCq2    C6 2273   3.591   1.990  10.743 -0.1701  0.7657  0.4821
  149TCq2    C7 2274   3.535   1.890  10.821 -0.5052 -0.5188 -1.2542
  149TCq2    C8 2275   3.566   1.992  10.603 -0.4778  0.1971 -0.0654
  149TCq2    O4 2276   3.467   1.929  10.567  0.2922 -0.4821 -0.2769
  149TCq2    C9 2277   3.630   2.264  10.976  0.4522 -0.1190  0.6047
  149TCq2    O5 2278   3.620   2.345  10.879  0.0203  0.4673  0.3583
  149TCq2    O6 2279   3.626   2.293  11.102  0.6078  0.0325 -0.5676
  149TCq2    H2 2280   3.492   2.065  11.102 -0.8017  1.0175 -0.9508
  149TCq2    H3 2281   3.685   2.179  10.739  0.2319 -1.1250 -1.1852
  149TCq2    H4 2282   3.504   1.798  10.772  0.4186 -1.4101 -0.1428
  150MPD2     C 2283   0.287   1.485  11.995 -0.2858 -0.4620  0.6211
  150MPD2    C1 2284   0.287   1.588  11.907  0.5754  0.2684  0.2923
  150MPD2    C2 2285   0.399   1.666  11.911  0.0249 -0.6921  0.8146
  150MPD2    C3 2286   0.508   1.633  11.993 -0.6183  0.2648 -0.5967
  150MPD2    C4 2287   0.505   1.531  12.083  0.2373  0.0878 -0.0794
  150MPD2    C5 2288   0.397   1.454  12.074 -0.2112  0.4468 -0.5495
  150MPD2     H 2289   0.406   1.761  11.860  1.5789 -0.9678  0.5250
  150MPD2    H1 2290   0.585   1.512  12.154 -0.9182 -2.0397  0.6870
  150MPD2    H2 2291   0.213   1.406  11.997  0.8852 -1.5805 -0.3446
  150MPD2    H3 2292   0.391   1.367  12.138  0.2664  1.1924  0.5136
  150MPD2     N 2293   0.617   1.723  11.984 -0.3145  0.0877 -0.1410
  150MPD2    H5 2294   0.596   1.789  11.910 -0.7088  0.3233  0.1793
  150MPD2    N1 2295   0.181   1.609  11.813  0.4121 -0.3040 -0.0930
  150MPD2    H7 2296   0.111   1.537  11.815  0.0771  0.0024 -0.9226
  151TCq2    C1 2297   0.736   1.737  12.049  0.2106  0.4091 -0.0024
  151TCq2    O2 2298   0.787   1.655  12.127 -0.0083 -0.0427  0.2132
  151TCq2    C2 2299   0.796   1.870  12.044 -0.7146  0.7551 -0.2311
  151TCq2    C3 2300   0.720   1.968  11.982 -0.3520 -0.3665 -0.4583
  151TCq2    C4 2301   0.771   2.084  11.943 -1.3336 -0.1380 -0.8093
  151TCq2    C5 2302   0.907   2.108  11.971 -0.3074 -0.0912 -0.2580
  151TCq2    C6 2303   0.972   2.008  12.043 -1.2743 -0.8879 -0.6162
  151TCq2    C7 2304   0.917   1.894  12.095 -0.1866  0.4812  0.2389
  151TCq2    C8 2305   1.110   2.046  12.074 -0.1916  0.1198 -0.8375
  151TCq2    O4 2306   1.142   2.152  12.024  0.0514 -0.6506 -0.5052
  151TCq2    C9 2307   0.692   2.184  11.874  0.7455  0.0420  0.3768
  151TCq2    O5 2308   0.742   2.290  11.827 -0.1901  0.5685 -0.1228
  151TCq2    O6 2309   0.574   2.150  11.856 -0.3889  0.1340  0.2856
  151TCq2    H2 2310   0.623   1.960  11.935  0.4610 -0.3551 -2.1626
  151TCq2    H3 2311   0.943   2.207  11.945  0.7413 -0.2197  0.7497
  151TCq2    H4 2312   0.970   1.809  12.136  1.2560  1.5517  0.5869
  152MPD2     C 2313   0.200   1.216  12.764  0.5675  0.2407  0.6864
  152MPD2    C1 2314   0.181   1.313  12.667 -0.5467  0.3635 -0.3453
  152MPD2    C2 2315   0.054   1.346  12.619 -0.1382 -0.4808  0.1424
  152MPD2    C3 2316   4.670   1.276  12.668 -0.5852  0.8122  0.5162
  152MPD2    C4 2317   4.685   1.180  12.769 -0.0253  0.0368 -0.0048
  152MPD2    C5 2318   0.089   1.146  12.814  0.2224  0.1311 -0.5210
  152MPD2     H 2319   0.034   1.424  12.547  3.2969 -1.1296 -1.5389
  152MPD2    H1 2320   4.610   1.107  12.796 -0.6298  0.1926 -1.2545
  152MPD2    H2 2321   0.300   1.190  12.798  0.5253 -0.6064  0.1826
  152MPD2    H3 2322   0.101   1.060  12.879  2.1046  1.1761  0.4972
  152MPD2     N 2323   4.537   1.298  12.613 -0.0670  0.5116  0.4573
  152MPD2    H5 2324   4.544   1.351  12.527  1.1227 -0.5046 -0.0708
  152MPD2    N1 2325   0.296   1.364  12.604  1.0704 -0.2749 -0.3743
  152MPD2    H7 2326   0.389   1.339  12.636  0.3673 -0.7303  1.3170
  153TCq2    C1 2327   0.299   1.467  12.514  0.7187 -0.5302 -0.4043
  153TCq2    O2 2328   0.211   1.547  12.475 -0.5720 -0.4621  0.7925
  153TCq2    C2 2329   0.434   1.502  12.467 -0.3714 -0.8214 -0.2041
  153TCq2    C3 2330   0.531   1.404  12.472 -0.3949  0.4860 -0.2924
  153TCq2    C4 2331   0.660   1.435  12.440 -0.3087  1.0697  0.7258
  153TCq2    C5 2332   0.697   1.563  12.416 -0.1223 -0.2376 -0.7649
  153TCq2    C6 2333   0.597   1.660  12.390 -0.1623  0.4424 -0.7284
  153TCq2    C7 2334   0.465   1.628  12.421 -0.4441  0.2302  0.1320
  153TCq2    C8 2335   0.624   1.799  12.363 -0.0631  1.0521  0.2620
  153TCq2    O4 2336   0.540   1.855  12.295  0.3313 -0.2696 -0.1876
  153TCq2    C9 2337   0.757   1.326  12.443 -0.0423  0.1551 -0.3228
  153TCq2    O5 2338   0.863   1.352  12.384  0.3208  0.8907  0.8580
  153TCq2    O6 2339   0.725   1.217  12.503 -0.2668 -0.6493  0.1735
  153TCq2    H2 2340   0.503   1.303  12.499  1.2842  0.3442  0.8749
  153TCq2    H3 2341   0.804   1.583  12.408 -0.0055 -1.2019 -1.6229
  153TCq2    H4 2342   0.390   1.706  12.420  0.8026  1.4129 -0.1793
  154MPD2     C 2343   1.386   1.316   0.343 -0.6462  0.4008 -0.4044
  154MPD2    C1 2344   1.374   1.332   0.480  0.8359  0.1314  0.5317
  154MPD2    C2 2345   1.275   1.423   0.531 -0.0872  0.8586  0.4514
  154MPD2    C3 2346   1.197   1.496   0.445 -0.3799  0.3581  0.0270
  154MPD2    C4 2347   1.231   1.486   0.312 -0.4962  0.4570 -0.0884
  154MPD2    C5 2348   1.323   1.399   0.265  0.2567 -0.8379 -0.2814
  154MPD2     H 2349   1.267   1.442   0.637 -0.5447  1.9489  0.2173
  154MPD2    H1 2350   1.174   1.537   0.235  0.8513  1.9607 -0.0822
  154MPD2    H2 2351   1.454   1.246   0.297 -1.0154 -0.3655  0.2115
  154MPD2    H3 2352   1.336   1.397   0.157  1.4133  0.0111 -0.1446
  154MPD2     N 2353   1.093   1.579   0.488 -0.1470  0.4488 -0.5775
  154MPD2    H5 2354   1.040   1.557   0.572  1.7523  0.8286  0.7204
  154MPD2    N1 2355   1.467   1.260   0.553  0.1135 -0.0354 -0.4896
  154MPD2    H7 2356   1.524   1.200   0.495  0.0139  0.3428 -0.9825
  155TCq2    C1 2357   1.491   1.275   0.693  0.7389  0.1709  0.2932
  155TCq2    O2 2358   1.427   1.342   0.774 -0.1151 -0.1791  0.3844
  155TCq2    C2 2359   1.601   1.196   0.741 -0.3803  0.8983 -0.1176
  155TCq2    C3 2360   1.599   1.172   0.872 -0.1217  0.2712  0.4405
  155TCq2    C4 2361   1.692   1.075   0.911 -0.5124 -0.6801  1.2798
  155TCq2    C5 2362   1.777   1.007   0.828  0.6514  0.1747  0.4287
  155TCq2    C6 2363   1.772   1.043   0.698 -0.7607 -0.3522 -0.0671
  155TCq2    C7 2364   1.681   1.137   0.651 -0.2640  0.6056  0.0780
  155TCq2    C8 2365   1.880   1.001   0.609 -1.2288 -0.0216  0.8496
  155TCq2    O4 2366   1.865   1.029   0.489 -0.2337  0.0516  0.2421
  155TCq2    C9 2367   1.680   1.035   1.049 -0.0507 -0.0520  0.6870
  155TCq2    O5 2368   1.772   0.964   1.100  0.4348 -0.7038  0.5342
  155TCq2    O6 2369   1.585   1.091   1.112 -0.1395 -0.4507  0.4015
  155TCq2    H2 2370   1.529   1.215   0.942 -0.0911  2.1845 -0.7209
  155TCq2    H3 2371   1.839   0.928   0.868 -1.6729 -1.6857  0.3436
  155TCq2    H4 2372   1.688   1.172   0.548 -0.4462  0.8818  0.1585
  156MPD2     C 2373   0.813   3.707  11.972 -0.3916 -0.3317  0.6314
  156MPD2    C1 2374   0.794   3.786  11.862 -0.3611  0.0044  0.0210
  156MPD2    C2 2375   0.722   3.903  11.873 -0.1376 -0.3420  0.4929
  156MPD2    C3 2376   0.682   3.953  11.992  0.2677  0.1457 -1.6393
  156MPD2    C4 2377   0.706   3.881  12.111 -0.7068 -0.3235  0.5064
  156MPD2    C5 2378   0.772   3.758  12.098  0.2024  0.1336  0.1476
  156MPD2     H 2379   0.708   3.965  11.785  1.2791 -0.7454 -0.0109
  156MPD2    H1 2380   0.674   3.912  12.209 -0.5650  0.4082  0.3198
  156MPD2    H2 2381   0.853   3.606  11.973  1.8545  0.5409 -2.5295
  156MPD2    H3 2382   0.784   3.703  12.190  0.9756 -1.0693 -0.6580
  156MPD2     N 2383   0.624   4.087  11.987 -0.1085 -0.1808  0.1733
  156MPD2    H5 2384   0.595   4.123  11.896 -0.8632 -0.2174  0.3996
  156MPD2    N1 2385   0.828   3.754  11.727 -0.4023 -0.0654 -0.0155
  156MPD2    H7 2386   0.805   3.818  11.651  1.0960  0.8277  0.2954
  157TCq2    C1 2387   0.892   3.638  11.696  0.4738 -0.7458  0.2779
  157TCq2    O2 2388   0.948   3.558  11.767 -0.6940  0.3806 -0.6462
  157TCq2    C2 2389   0.890   3.630  11.552  0.8559  0.4696 -0.1442
  157TCq2    C3 2390   1.002   3.587  11.488  0.5022 -0.7210  0.0617
  157TCq2    C4 2391   0.995   3.557  11.354  0.1053  0.3662  0.0220
  157TCq2    C5 2392   0.888   3.589  11.282  0.5782 -0.6955 -0.7767
  157TCq2    C6 2393   0.777   3.637  11.348  0.2355 -0.4036 -0.0061
  157TCq2    C7 2394   0.776   3.655  11.483  0.3248  0.5320  0.3198
  157TCq2    C8 2395   0.666   3.690  11.272 -0.1492 -0.8943  0.4730
  157TCq2    O4 2396   0.692   3.744  11.165  0.1699  0.2009 -0.1345
  157TCq2    C9 2397   1.116   3.519  11.285  0.2572  0.3011  0.0820
  157TCq2    O5 2398   1.097   3.474  11.169  0.1899  0.2665 -0.3662
  157TCq2    O6 2399   1.227   3.527  11.345  0.1187 -0.3556  0.4427
  157TCq2    H2 2400   1.096   3.580  11.541  0.9544 -0.3660 -0.6882
  157TCq2    H3 2401   0.885   3.581  11.174 -1.7953  0.0462 -0.7453
  157TCq2    H4 2402   0.682   3.673  11.533 -0.3994 -0.3308 -0.7179
  158TMC2    C1 2403   1.415   3.044  13.783  0.0538 -0.3851  0.3726
  158TMC2    C2 2404   1.489   3.150  13.761 -0.0600 -0.7857  0.0448
  158TMC2    C3 2405   1.426   3.254  13.698 -0.6788 -0.0330  0.3676
  158TMC2    C4 2406   1.282   3.024  13.750  0.0450 -0.1001 -0.5021
  158TMC2    C5 2407   1.234   3.131  13.679 -0.0066 -0.0117  0.6091
  158TMC2    C6 2408   1.298   3.250  13.665 -0.0769  0.1586 -0.1999
  158TMC2     C 2409   1.473   2.921  13.844  0.1583  1.1838 -0.0585
  158TMC2     O 2410   1.576   2.885  13.787 -0.1041  0.0600 -0.4523
  158TMC2     H 2411   1.594   3.147  13.786 -0.6684  3.2412  3.0334
  158TMC2    H1 2412   1.224   2.937  13.780  1.7073 -0.7772  0.7452
  158TMC2    H2 2413   1.257   3.326  13.599 -1.5238 -0.9975 -0.6261
  158TMC2    C7 2414   1.123   3.108  13.588  0.0423 -0.4247 -0.8094
  158TMC2    C8 2415   1.502   3.380  13.707 -0.0775 -0.2624  0.1659
  158TMC2    O1 2416   1.096   3.199  13.512  0.0952  0.1770 -0.5206
  158TMC2    O2 2417   1.624   3.382  13.736  0.1954 -0.2341  0.3370
  158TMC2    O5 2418   1.420   3.466  13.770  0.3009 -0.4347  0.0366
  158TMC2    H5 2419   1.331   3.427  13.787  0.8172 -0.9296  1.5824
  159MPD2     C 2420   1.559   2.632  14.266  0.7324 -0.1165 -0.6148
  159MPD2    C1 2421   1.428   2.682  14.270  0.3421 -0.3833 -0.1421
  159MPD2    C2 2422   1.387   2.761  14.165  0.0769 -1.0444  0.0846
  159MPD2    C3 2423   1.466   2.788  14.057  0.4529 -0.7055  0.3072
  159MPD2    C4 2424   1.592   2.724  14.043 -0.6035  0.3672  0.4129
  159MPD2    C5 2425   1.637   2.650  14.155  0.2200  0.5393  0.6230
  159MPD2     H 2426   1.295   2.819  14.166  0.7462  0.0302  0.6451
  159MPD2    H1 2427   1.658   2.733  13.958  2.0917 -1.0725  2.3497
  159MPD2    H2 2428   1.599   2.566  14.342  1.3658  2.4737  1.2945
  159MPD2    H3 2429   1.737   2.608  14.149  0.3346  1.0927 -1.3789
  159MPD2     N 2430   1.412   2.886  13.965  0.4304 -0.1510 -0.5160
  159MPD2    H5 2431   1.326   2.935  13.987  0.3390 -0.5050 -0.0834
  159MPD2    N1 2432   1.355   2.650  14.383 -0.3899  1.1402 -0.0532
  159MPD2    H7 2433   1.409   2.617  14.462 -1.1713  0.5797  0.2468
  160TMC2    C1 2434   0.764   0.889   0.712  0.3926 -0.1505 -0.2132
  160TMC2    C2 2435   0.826   0.760   0.713  0.3932  0.0036  0.2102
  160TMC2    C3 2436   0.931   0.751   0.623 -0.0574  0.2730  0.2502
  160TMC2    C4 2437   0.792   0.986   0.620  0.1339 -0.2335 -0.9843
  160TMC2    C5 2438   0.891   0.966   0.530 -0.3314  0.0695 -0.0953
  160TMC2    C6 2439   0.959   0.845   0.530 -0.0447  0.1902 -0.7673
  160TMC2     C 2440   0.687   0.923   0.832 -0.0461  1.1466  0.4565
  160TMC2     O 2441   0.650   0.827   0.899  0.3900  0.1764 -0.0293
  160TMC2     H 2442   0.802   0.678   0.780 -0.6556 -0.9998 -1.3876
  160TMC2    H1 2443   0.725   1.069   0.602 -0.5036 -0.2723  1.2442
  160TMC2    H2 2444   1.044   0.825   0.466  1.1172  1.0554  0.5090
  160TMC2    C7 2445   0.926   1.058   0.420  0.6011 -0.3533  0.0786
  160TMC2    C8 2446   0.975   0.613   0.600  0.6389 -0.3244 -0.5038
  160TMC2    O1 2447   0.973   1.009   0.318  0.7075 -0.8708  0.1656
  160TMC2    O2 2448   0.980   0.531   0.691  0.2458  0.0464 -0.2403
  160TMC2    O5 2449   0.959   0.592   0.468 -0.0418 -0.0563 -0.0957
  160TMC2    H5 2450   0.923   0.674   0.427  1.0836  0.5100  0.0384
  161MPD2     C 2451   0.567   1.068   1.079 -0.9936  0.3962  0.4197
  161MPD2    C1 2452   0.601   1.124   0.956 -0.0063  0.0587  0.2157
  161MPD2    C2 2453   0.574   1.256   0.938 -0.5373 -0.5457  0.4979
  161MPD2    C3 2454   0.503   1.318   1.038  0.2957  0.1740 -0.4157
  161MPD2    C4 2455   0.473   1.262   1.158  0.1721 -0.6684  1.2274
  161MPD2    C5 2456   0.515   1.137   1.183  0.6268 -0.2588 -0.1066
  161MPD2     H 2457   0.616   1.307   0.852 -0.7675  0.4384  0.9724
  161MPD2    H1 2458   0.424   1.312   1.240  0.7295  0.5269  0.8289
  161MPD2    H2 2459   0.592   0.965   1.101  0.7439  0.9032  0.8651
  161MPD2    H3 2460   0.504   1.098   1.284  0.9400  2.5997  1.0476
  161MPD2     N 2461   0.452   1.451   1.024 -0.2649  0.7097 -0.4865
  161MPD2    H5 2462   0.394   1.488   1.099  1.6044 -0.0876  1.3406
  161MPD2    N1 2463   0.681   1.060   0.857  0.6565  0.5891  0.4346
  161MPD2    H7 2464   0.728   1.122   0.791  0.8844 -2.3450 -2.1682
  162TMC2    C1 2465   3.696   3.549   1.113 -0.2071 -0.2400 -0.3115
  162TMC2    C2 2466   3.697   3.686   1.100  0.1181 -0.1096  0.1829
  162TMC2    C3 2467   3.600   3.756   1.167  0.5042  0.5638  0.0948
  162TMC2    C4 2468   3.596   3.487   1.181  0.3316 -0.4520 -0.5015
  162TMC2    C5 2469   3.509   3.560   1.260 -0.0157 -0.0069  0.2074
  162TMC2    C6 2470   3.506   3.697   1.244 -0.0284  0.6490  0.6750
  162TMC2     C 2471   3.779   3.464   1.020 -0.0317  0.1856 -0.5341
  162TMC2     O 2472   3.744   3.353   0.979 -0.9146 -0.5071  0.3119
  162TMC2     H 2473   3.749   3.737   1.020 -1.5758  2.7304  0.9010
  162TMC2    H1 2474   3.586   3.379   1.186  0.3303 -0.4683 -0.8657
  162TMC2    H2 2475   3.427   3.756   1.290 -1.2287 -2.2382  2.3544
  162TMC2    C7 2476   3.395   3.503   1.322 -0.4133 -0.0502 -0.3404
  162TMC2    C8 2477   3.603   3.901   1.140  0.0198  0.4066  0.1985
  162TMC2    O1 2478   3.295   3.572   1.346 -1.0290  0.0012  0.3329
  162TMC2    O2 2479   3.501   3.962   1.171 -0.0818 -0.1400 -0.3897
  162TMC2    O5 2480   3.734   3.942   1.159  0.0911 -0.4156 -0.1894
  162TMC2    H5 2481   3.799   3.870   1.144 -2.2378 -2.6363  0.4056
  163MPD2     C 2482   4.167   3.446   0.676  0.1272  0.3230 -0.4157
  163MPD2    C1 2483   4.058   3.366   0.682 -0.3032  0.9957  0.7478
  163MPD2    C2 2484   3.969   3.390   0.787 -0.6413  0.7061  0.5672
  163MPD2    C3 2485   3.984   3.495   0.879  0.0748 -0.2003  0.7881
  163MPD2    C4 2486   4.106   3.567   0.878  0.1175 -0.2098  0.3905
  163MPD2    C5 2487   4.188   3.542   0.771 -0.6495 -0.0503  0.2247
  163MPD2     H 2488   3.882   3.326   0.800 -1.0833  1.3041  0.5394
  163MPD2    H1 2489   4.127   3.648   0.947 -2.5038 -0.4389  1.4291
  163MPD2    H2 2490   4.235   3.435   0.592  2.3142 -0.9915  1.5554
  163MPD2    H3 2491   4.265   3.616   0.750 -2.1001  1.0289 -1.3100
  163MPD2     N 2492   3.891   3.532   0.981 -0.1502  0.2876  0.2885
  163MPD2    H5 2493   3.923   3.611   1.035  1.2091 -1.1677  1.6250
  163MPD2    N1 2494   4.046   3.263   0.577 -0.4406  0.6260 -0.2402
  163MPD2    H7 2495   4.107   3.280   0.497  1.1698 -1.0569  0.6242
  164TCq2    C1 2496   3.951   2.052  11.121  0.4243 -0.2817 -0.4677
  164TCq2    O2 2497   3.901   2.067  11.233  0.0070 -0.3326  0.3055
  164TCq2    C2 2498   4.009   2.171  11.058 -0.4256  0.3521 -0.0267
  164TCq2    C3 2499   4.102   2.173  10.957 -0.3154 -0.5998  0.1210
  164TCq2    C4 2500   4.148   2.292  10.909 -0.2214 -0.1523 -0.5136
  164TCq2    C5 2501   4.090   2.412  10.952  0.0986  0.2282  0.1765
  164TCq2    C6 2502   4.006   2.405  11.054 -0.7391 -0.1637  1.0521
  164TCq2    C7 2503   3.956   2.288  11.099  0.1005 -0.0687 -0.4159
  164TCq2    C8 2504   3.930   2.528  11.074  0.0348  0.0205 -0.1063
  164TCq2    O4 2505   3.912   2.598  10.977  0.3504 -0.1670 -0.1865
  164TCq2    C9 2506   4.267   2.306  10.823 -0.1147  0.0566  0.0208
  164TCq2    O5 2507   4.323   2.203  10.783  0.2863 -0.7250 -0.2249
  164TCq2    O6 2508   4.282   2.430  10.784 -0.2208  0.2616 -0.2123
  164TCq2    H2 2509   4.149   2.083  10.918  0.7388  0.3781 -0.8591
  164TCq2    H3 2510   4.141   2.504  10.924 -0.3005  0.9540  1.8336
  164TCq2    H4 2511   3.872   2.282  11.168  0.6009 -0.7313  0.1309
  165MPD2     C 2512   4.468   3.764   1.315  0.3948  0.2493  0.1620
  165MPD2    C1 2513   4.509   3.826   1.433 -0.4150  0.2210 -0.6223
  165MPD2    C2 2514   4.472   3.959   1.458  0.1575 -0.3623 -0.0686
  165MPD2    C3 2515   4.403   4.022   1.351 -0.2470 -0.2769 -0.0499
  165MPD2    C4 2516   4.357   3.950   1.243  0.0913 -0.1720 -0.6548
  165MPD2    C5 2517   4.383   3.820   1.226 -0.0292  0.0260 -0.0162
  165MPD2     H 2518   4.505   4.013   1.546  0.9964  2.5039 -2.1260
  165MPD2    H1 2519   4.284   4.007   1.186  1.1558  0.1324 -1.7141
  165MPD2    H2 2520   4.497   3.662   1.293 -1.5066 -0.7731  2.3615
  165MPD2    H3 2521   4.338   3.768   1.142 -2.3303  2.0408 -0.0481
  165MPD2     N 2522   4.365   4.157   1.354  0.2517  0.1426  0.4824
  165MPD2    H5 2523   4.302   4.195   1.284 -0.9266 -0.6705  1.1057
  165MPD2    N1 2524   4.579   3.749   1.523 -0.2137 -0.1604 -0.6442
  165MPD2    H7 2525   4.592   3.649   1.507 -2.2728 -0.2496 -1.6513
  166TCq2    C1 2526   4.398   4.246   1.448 -0.6162 -0.2577  0.4909
  166TCq2    O2 2527   4.489   4.242   1.530  0.2319  0.4043 -0.5426
  166TCq2    C2 2528   4.328   4.373   1.433 -0.1311  1.2393 -0.0850
  166TCq2    C3 2529   4.209   4.384   1.370  0.3644  0.0573  0.0449
  166TCq2    C4 2530   4.173   4.506   1.331  0.2244 -0.2601 -0.3793
  166TCq2    C5 2531   4.252   4.616   1.333  0.4506  0.0522 -0.2230
  166TCq2    C6 2532   4.371   4.601   1.400 -0.2682 -0.0104 -0.3464
  166TCq2    C7 2533   4.407   4.485   1.463  0.9942  0.1640 -0.5008
  166TCq2    C8 2534   4.468   4.709   1.402  0.1764 -0.1380 -0.2151
  166TCq2    O4 2535   4.584   4.680   1.422  0.0554  0.5974 -0.0133
  166TCq2    C9 2536   4.045   4.515   1.261  0.3403  0.2195  0.0423
  166TCq2    O5 2537   4.037   4.609   1.179 -0.0991  0.1815  0.6185
  166TCq2    O6 2538   3.961   4.418   1.264  0.0510  0.2569  0.2708
  166TCq2    H2 2539   4.137   4.303   1.363  0.0229  0.4338 -0.7465
  166TCq2    H3 2540   4.228   4.697   1.265 -0.6038 -1.7679 -2.0121
  166TCq2    H4 2541   4.502   4.470   1.513 -1.1777  1.8790  4.1267
  167TMC2    C1 2542   2.927   2.597  12.791 -0.0014 -0.4802  0.5316
  167TMC2    C2 2543   2.948   2.654  12.914  0.0036  0.1860 -0.3361
  167TMC2    C3 2544   3.007   2.579  13.004 -0.5676  0.3412 -1.0351
  167TMC2    C4 2545   2.954   2.471  12.757 -0.1956 -0.7091  0.0720
  167TMC2    C5 2546   3.012   2.399  12.854  0.7044  0.5202 -0.5672
  167TMC2    C6 2547   3.046   2.453  12.976  0.8960  0.3311  0.5174
  167TMC2     C 2548   2.900   2.692  12.681 -0.9257  0.2576 -0.6834
  167TMC2     O 2549   2.863   2.804  12.709  0.5722 -0.2207  0.2319
  167TMC2     H 2550   2.918   2.755  12.938  0.5433 -0.1277  1.6259
  167TMC2    H1 2551   2.935   2.432  12.658  2.7453  0.4995 -0.9577
  167TMC2    H2 2552   3.097   2.389  13.047  2.6087  2.5374  1.2681
  167TMC2    C7 2553   3.015   2.259  12.849  0.3190 -0.2283 -0.7478
  167TMC2    C8 2554   3.061   2.637  13.122 -0.2675  0.4364 -0.1416
  167TMC2    O1 2555   2.968   2.202  12.946 -0.3175  0.1243  0.0443
  167TMC2    O2 2556   3.175   2.618  13.167 -0.2661  0.1749  0.3417
  167TMC2    O5 2557   2.978   2.738  13.167  0.1250  0.1437  0.1477
  167TMC2    H5 2558   2.892   2.740  13.121 -0.1108  0.8459  0.6231
  168MPD2     C 2559   2.871   2.850  12.421 -0.1477  0.4271  0.3615
  168MPD2    C1 2560   2.912   2.720  12.433 -0.2728 -0.0220 -0.4352
  168MPD2    C2 2561   2.955   2.654  12.316  0.7380  0.2793 -0.3707
  168MPD2    C3 2562   2.958   2.715  12.191 -0.3430 -0.5261 -0.4082
  168MPD2    C4 2563   2.917   2.848  12.191 -0.0692  0.6438  0.7726
  168MPD2    C5 2564   2.871   2.907  12.305  0.3359  0.3415 -0.9999
  168MPD2     H 2565   2.980   2.549  12.325 -0.3483  0.3027  2.8790
  168MPD2    H1 2566   2.915   2.903  12.097 -2.2725  0.2448  0.5972
  168MPD2    H2 2567   2.820   2.903  12.501 -0.9962  0.3259 -0.1148
  168MPD2    H3 2568   2.830   3.007  12.296 -0.5586  0.2136  1.9080
  168MPD2     N 2569   2.988   2.655  12.072 -0.2721 -0.2966  0.3920
  168MPD2    H5 2570   2.975   2.709  11.987 -1.4399 -1.8632 -0.4359
  168MPD2    N1 2571   2.924   2.646  12.555  0.4455 -0.5087 -0.3416
  168MPD2    H7 2572   2.970   2.555  12.553  0.8043 -0.3836  2.5368
  169MPD1     C 2573   4.469   1.866   9.594 -0.3800 -0.1008  0.4022
  169MPD1    C1 2574   4.577   1.933   9.635  0.2856  0.1649 -0.2710
  169MPD1    C2 2575   4.674   1.863   9.696 -0.4934 -0.4736 -0.0600
  169MPD1    C3 2576   4.659   1.730   9.730  0.4001  0.1582  0.0725
  169MPD1    C4 2577   4.537   1.664   9.705 -0.2578  0.2852 -0.0908
  169MPD1    C5 2578   4.438   1.744   9.646 -0.1899 -0.5508  0.7695
  169MPD1     H 2579   0.045   1.908   9.727 -1.4432  0.9123  0.8225
  169MPD1    H1 2580   4.509   1.570   9.752  1.1998 -1.1374 -2.0744
  169MPD1    H2 2581   4.385   1.909   9.539 -0.1348  1.8656  1.5805
  169MPD1    H3 2582   4.339   1.706   9.622  1.1578 -4.0420  0.8232
  169MPD1     N 2583   0.043   1.665   9.798  1.0099 -0.3015 -0.1486
  169MPD1    H5 2584   0.126   1.723   9.808  0.5437  0.2169  0.6494
  169MPD1    N1 2585   4.601   2.066   9.588 -0.0956  0.5927 -0.3370
  169MPD1    H6 2586   4.664   2.120   9.646  0.6670 -1.1002  0.3935
  169MPD1    H7 2587   4.507   2.104   9.599 -0.1542  0.1665  0.5837
  170MPD1     C 2588   3.981   4.217  12.862  0.3042  0.5358 -0.3850
  170MPD1    C1 2589   4.067   4.189  12.967  0.0521  0.1284 -0.1638
  170MPD1    C2 2590   4.074   4.286  13.067 -0.0432 -0.0446  0.2827
  170MPD1    C3 2591   4.006   4.407  13.064 -0.0768 -0.1872 -0.0896
  170MPD1    C4 2592   3.923   4.429  12.954  0.1814  0.5785 -0.9397
  170MPD1    C5 2593   3.911   4.334  12.858 -0.4155 -0.4609 -0.0017
  170MPD1     H 2594   4.125   4.260  13.159  0.2069  2.2186  0.7629
  170MPD1    H1 2595   3.864   4.520  12.948  0.6697  1.0752  1.7191
  170MPD1    H2 2596   3.969   4.145  12.782  0.0682  1.0871 -0.8495
  170MPD1    H3 2597   3.850   4.356  12.771  0.3845  0.8456 -0.2449
  170MPD1     N 2598   4.014   4.501  13.167  0.6696 -0.2797  0.1100
  170MPD1    H5 2599   4.082   4.491  13.242 -0.7012 -1.2738  1.2106
  170MPD1    N1 2600   4.123   4.057  12.989 -0.3101 -0.3215  0.2420
  170MPD1    H6 2601   4.220   4.077  13.014 -0.3649  1.7905 -1.2445
  170MPD1    H7 2602   4.134   4.002  12.904 -0.6677  1.0019 -0.6589
  171MPD1     C 2603   2.645   1.064  15.797  0.2007 -0.0081  0.4671
  171MPD1    C1 2604   2.732   0.983  15.729  0.1810 -0.7670 -0.1387
  171MPD1    C2 2605   2.764   0.863  15.783 -0.4388  0.0695  0.2381
  171MPD1    C3 2606   2.688   0.818  15.889 -0.4317  0.3616 -0.6292
  171MPD1    C4 2607   2.598   0.896  15.955  0.4536  0.2736 -0.2171
  171MPD1    C5 2608   2.575   1.023  15.911 -0.1981  0.3314  0.6937
  171MPD1     H 2609   2.841   0.807  15.733 -1.2553 -1.4385  0.6638
  171MPD1    H1 2610   2.539   0.859  16.038 -3.0277 -0.7319 -3.1438
  171MPD1    H2 2611   2.640   1.169  15.771  0.7126 -1.1288 -4.1405
  171MPD1    H3 2612   2.514   1.087  15.973  0.6339  1.8658 -0.0605
  171MPD1     N 2613   2.716   0.693  15.952  0.9895  0.3245  0.5581
  171MPD1    H5 2614   2.668   0.677  16.039 -0.1314 -2.0825 -0.4987
  171MPD1    N1 2615   2.805   1.040  15.623 -0.2453 -0.1157 -0.0143
  171MPD1    H6 2616   2.764   1.119  15.573 -0.1477 -0.6164 -0.8779
  171MPD1    H7 2617   2.803   0.976  15.545 -0.3922 -0.9315  0.6596
  172MPD1     C 2618   2.007   1.673   1.199 -1.0250 -0.4353  0.2508
  172MPD1    C1 2619   2.092   1.577   1.156 -0.2887 -0.1419 -0.0865
  172MPD1    C2 2620   2.076   1.526   1.027 -0.3543  0.0945  0.3367
  172MPD1    C3 2621   1.988   1.577   0.935 -0.5358 -0.3377 -0.1978
  172MPD1    C4 2622   1.896   1.672   0.985 -0.1577 -0.3858  0.6193
  172MPD1    C5 2623   1.913   1.725   1.112 -0.0003  0.3198  0.6183
  172MPD1     H 2624   2.137   1.442   0.995  1.3292  0.8259  1.6864
  172MPD1    H1 2625   1.814   1.710   0.925 -0.5580 -0.8691  0.8559
  172MPD1    H2 2626   2.011   1.719   1.297 -2.3545 -0.3876  0.2847
  172MPD1    H3 2627   1.840   1.796   1.150 -1.2271 -0.3851 -0.4199
  172MPD1     N 2628   1.958   1.527   0.804  0.3037 -0.3580 -0.4724
  172MPD1    H5 2629   1.907   1.589   0.743  1.7047  1.6267  0.3501
  172MPD1    N1 2630   2.179   1.514   1.245  0.4427 -0.1120 -0.1268
  172MPD1    H6 2631   2.270   1.494   1.204  0.5633  2.0746 -0.8999
  172MPD1    H7 2632   2.196   1.568   1.330 -2.3463 -1.5402  1.3229
  173MPD1     C 2633   3.822   0.657  14.300 -0.2195 -0.5378 -0.0869
  173MPD1    C1 2634   3.689   0.694  14.324  0.1510  0.0039  0.8748
  173MPD1    C2 2635   3.595   0.587  14.345 -0.4675 -0.1644  0.0252
  173MPD1    C3 2636   3.639   0.455  14.351 -0.4989  0.1539 -0.7162
  173MPD1    C4 2637   3.771   0.428  14.338  0.1436 -0.3887  0.4684
  173MPD1    C5 2638   3.858   0.523  14.313  0.3034 -1.0732 -0.8231
  173MPD1     H 2639   3.495   0.622  14.364 -0.4720 -0.0182 -0.2670
  173MPD1    H1 2640   3.803   0.325  14.342 -0.4878 -0.6008  0.1664
  173MPD1    H2 2641   3.898   0.733  14.288 -1.8369  0.9544 -1.0193
  173MPD1    H3 2642   3.960   0.493  14.292  0.2484 -0.1305 -2.3506
  173MPD1     N 2643   3.555   0.350  14.389 -0.1374 -0.3661  0.2941
  173MPD1    H5 2644   3.603   0.261  14.387  0.2273 -0.1434 -0.7463
  173MPD1    N1 2645   3.640   0.822  14.282  0.2713 -0.0180 -1.1881
  173MPD1    H6 2646   3.555   0.854  14.329 -0.5321 -0.9417 -2.0033
  173MPD1    H7 2647   3.714   0.889  14.297  0.2900 -0.6337  1.5670
  174MPD1     C 2648   3.844   4.337  14.387  0.2161  0.7770 -0.0970
  174MPD1    C1 2649   3.750   4.319  14.485 -0.5780  0.5571 -0.1570
  174MPD1    C2 2650   3.639   4.404  14.481 -0.7659  0.6902 -0.5342
  174MPD1    C3 2651   3.637   4.511  14.397  0.4280  0.0544  0.7320
  174MPD1    C4 2652   3.736   4.534  14.304  0.2455 -0.0596  0.1914
  174MPD1    C5 2653   3.840   4.444  14.304  0.0506 -0.0230 -0.0120
  174MPD1     H 2654   3.558   4.371  14.546  0.4442 -2.0575 -0.4158
  174MPD1    H1 2655   3.749   4.622  14.242  1.6703 -0.7365 -0.4494
  174MPD1    H2 2656   3.920   4.264  14.362 -0.5180  0.6295 -1.8691
  174MPD1    H3 2657   3.920   4.452  14.231 -1.4274 -1.9744 -1.8374
  174MPD1     N 2658   3.538   4.612  14.402  0.7918  0.0606 -0.2262
  174MPD1    H5 2659   3.553   4.685  14.334  1.3621 -0.4654 -0.6780
  174MPD1    N1 2660   3.751   4.214  14.581  0.4676  0.3546 -0.2993
  174MPD1    H6 2661   3.694   4.232  14.663  0.9616 -2.4638  0.6867
  174MPD1    H7 2662   3.834   4.163  14.612 -2.4794 -3.2859  1.6574
  175MPD1     C 2663   2.405   1.363  15.851 -0.0265  0.0160  0.0942
  175MPD1    C1 2664   2.396   1.370  15.986 -0.3699 -0.7092  0.1441
  175MPD1    C2 2665   2.325   1.273  16.053 -0.0924 -0.0094 -0.0553
  175MPD1    C3 2666   2.276   1.164  15.978  0.2827 -0.1630 -0.5608
  175MPD1    C4 2667   2.290   1.158  15.835  0.0400  0.3248  0.2487
  175MPD1    C5 2668   2.361   1.262  15.781 -0.0518 -0.4212 -0.4024
  175MPD1     H 2669   2.311   1.281  16.161 -0.1642 -1.7023  0.0608
  175MPD1    H1 2670   2.267   1.080  15.763  2.1356  0.1289 -0.2312
  175MPD1    H2 2671   2.455   1.446  15.802 -1.9182  1.3285  0.3720
  175MPD1    H3 2672   2.383   1.269  15.675 -2.0900 -3.3389 -1.0269
  175MPD1     N 2673   2.220   1.062  16.053  0.8590 -0.5057  0.3093
  175MPD1    H5 2674   2.235   1.070  16.153 -0.0854 -1.9919  0.5688
  175MPD1    N1 2675   2.436   1.491  16.045 -0.9158  0.4665 -0.1210
  175MPD1    H6 2676   2.441   1.477  16.145  0.4330  0.9951 -0.1158
  175MPD1    H7 2677   2.521   1.536  16.011  0.2855 -2.6167 -1.1721
  176MPD1     C 2678   3.917   3.555  16.970 -0.4598  0.6145 -0.3447
  176MPD1    C1 2679   3.820   3.497  17.047  0.1950 -0.4769 -0.2315
  176MPD1    C2 2680   3.812   3.530  17.177 -0.2885 -0.5430  0.9444
  176MPD1    C3 2681   3.907   3.596  17.246 -0.2749  0.2842  0.4533
  176MPD1    C4 2682   4.017   3.633  17.174 -1.0738  0.5348 -0.6018
  176MPD1    C5 2683   4.022   3.615  17.036 -0.3893 -0.1585 -0.2494
  176MPD1     H 2684   3.726   3.487  17.227 -2.3458 -0.6840 -2.7719
  176MPD1    H1 2685   4.108   3.663  17.224 -1.7952  1.0552  0.3842
  176MPD1    H2 2686   3.924   3.556  16.861  1.1546  0.4468 -0.2400
  176MPD1    H3 2687   4.105   3.654  16.979  0.3063 -1.6483 -0.2425
  176MPD1     N 2688   3.890   3.611  17.387 -0.2816 -0.6162 -0.1824
  176MPD1    H5 2689   3.812   3.559  17.424 -0.2681 -0.7322 -0.3176
  176MPD1    N1 2690   3.720   3.419  16.989  0.1726  0.2259  0.4179
  176MPD1    H6 2691   3.754   3.350  16.923 -0.4847  1.4085 -1.1536
  176MPD1    H7 2692   3.686   3.363  17.067 -1.3796 -0.8509 -1.0211
  177MPD1     C 2693   2.105   1.884   9.809 -0.0173 -0.4498 -0.5359
  177MPD1    C1 2694   2.173   1.998   9.755  1.4175 -0.0528  0.6375
  177MPD1    C2 2695   2.095   2.094   9.698  0.7292  0.1561  0.2259
  177MPD1    C3 2696   1.955   2.098   9.713 -0.5296  0.4588 -0.6491
  177MPD1    C4 2697   1.894   1.996   9.785 -0.2544 -0.6945 -0.3845
  177MPD1    C5 2698   1.969   1.890   9.827  0.0072  0.5475 -0.1260
  177MPD1     H 2699   2.147   2.170   9.641 -0.3892  1.2271  0.6160
  177MPD1    H1 2700   1.787   1.993   9.802 -0.1920 -1.7557 -0.2133
  177MPD1    H2 2701   2.146   1.790   9.846 -0.2490 -0.2541  0.2136
  177MPD1    H3 2702   1.933   1.799   9.873 -1.7142  0.9090 -0.7709
  177MPD1     N 2703   1.892   2.215   9.664  0.1197  0.5610  0.4938
  177MPD1    H5 2704   1.953   2.276   9.610  0.9196  1.2953  2.2287
  177MPD1    N1 2705   2.302   1.983   9.728  0.7952  0.5974  0.0366
  177MPD1    H6 2706   2.341   1.929   9.805 -2.0440  0.1448  1.1677
  177MPD1    H7 2707   2.360   2.061   9.698  0.6070  0.4409 -0.7296
  178MPD1     C 2708   4.250   4.568  17.493 -0.0238 -0.4448  0.4698
  178MPD1    C1 2709   4.253   4.426  17.488  0.1693  0.0790  0.0870
  178MPD1    C2 2710   4.315   4.358  17.389  0.1257  0.2548  0.6656
  178MPD1    C3 2711   4.377   4.429  17.288 -0.8400  0.6641  0.4880
  178MPD1    C4 2712   4.355   4.564  17.278 -0.1706  0.3281 -0.1557
  178MPD1    C5 2713   4.290   4.633  17.377  1.2718 -0.7586  0.2762
  178MPD1     H 2714   4.306   4.250  17.392  1.6839  0.1031 -0.4338
  178MPD1    H1 2715   4.399   4.615  17.192 -1.8019  0.8466 -0.6763
  178MPD1    H2 2716   4.186   4.630  17.555  1.0390  1.6843 -0.5879
  178MPD1    H3 2717   4.252   0.009  17.359  0.0713 -1.3092 -0.2057
  178MPD1     N 2718   4.440   4.366  17.185  0.2318 -0.4581  0.2678
  178MPD1    H5 2719   4.480   4.427  17.115  2.0705 -0.8445  0.9820
  178MPD1    N1 2720   4.164   4.358  17.572 -0.0687 -0.5725  0.3223
  178MPD1    H6 2721   4.199   4.265  17.590 -2.5468 -1.8917 -1.7374
  178MPD1    H7 2722   4.178   4.403  17.663  0.7589 -1.2657  0.5326
  179MPD1     C 2723   4.272   1.251  15.449 -0.1200  0.0632 -0.0196
  179MPD1    C1 2724   4.189   1.333  15.377 -0.2833 -0.1104 -0.0828
  179MPD1    C2 2725   4.081   1.397  15.444 -0.2216 -0.8656  0.5788
  179MPD1    C3 2726   4.066   1.382  15.581 -0.1738  0.1591  0.2807
  179MPD1    C4 2727   4.162   1.317  15.650 -0.4865 -0.0528  0.3676
  179MPD1    C5 2728   4.264   1.250  15.585  0.6648 -0.6315  0.8296
  179MPD1     H 2729   4.011   1.456  15.387  1.7967  1.6006  0.6573
  179MPD1    H1 2730   4.166   1.330  15.758  0.2523 -1.4908  0.5148
  179MPD1    H2 2731   4.348   1.191  15.400 -0.9841  1.1045 -2.6486
  179MPD1    H3 2732   4.337   1.196  15.644  0.8930 -2.1404 -0.8363
  179MPD1     N 2733   3.959   1.436  15.653 -0.0349  0.0639  0.4961
  179MPD1    H5 2734   3.953   1.407  15.750 -1.9495  0.3630  0.4705
  179MPD1    N1 2735   4.192   1.326  15.237 -0.2864 -0.9849 -0.5694
  179MPD1    H6 2736   4.282   1.323  15.188 -1.4022 -0.1920 -2.6895
  179MPD1    H7 2737   4.148   1.408  15.197  1.3709  0.1078 -0.1480
  180MPD1     C 2738   3.628   3.536  15.436 -0.0396 -0.1719  0.4021
  180MPD1    C1 2739   3.718   3.511  15.336 -0.0324 -0.9525 -0.3024
  180MPD1    C2 2740   3.675   3.455  15.221 -0.3410  0.3461 -0.0394
  180MPD1    C3 2741   3.547   3.404  15.203 -0.1461  0.3674  0.2635
  180MPD1    C4 2742   3.451   3.423  15.301 -0.2100 -0.1521 -0.9456
  180MPD1    C5 2743   3.500   3.483  15.421 -0.3777  0.2314 -0.5630
  180MPD1     H 2744   3.745   3.440  15.139 -1.7262 -1.6896 -0.8355
  180MPD1    H1 2745   3.354   3.375  15.303  0.3022 -1.0792  2.1517
  180MPD1    H2 2746   3.662   3.585  15.527  1.9303 -0.2824 -0.2865
  180MPD1    H3 2747   3.433   3.491  15.506  1.4993 -1.0010  1.0364
  180MPD1     N 2748   3.515   3.339  15.082  0.9162  0.5796  0.3258
  180MPD1    H5 2749   3.598   3.328  15.024 -0.7583 -0.4866 -1.8538
  180MPD1    N1 2750   3.855   3.548  15.354  0.0863 -0.8521  0.5294
  180MPD1    H6 2751   3.930   3.489  15.318  0.1822  0.9650 -2.1928
  180MPD1    H7 2752   3.872   3.562  15.454  0.5749  2.1884  0.0171
  181MPD1     C 2753   0.549   4.290  10.229 -0.1962  0.0594 -0.1175
  181MPD1    C1 2754   0.574   4.374  10.122  0.6910 -0.1662 -0.5232
  181MPD1    C2 2755   0.640   4.498  10.144 -0.6271  0.2232 -0.1739
  181MPD1    C3 2756   0.699   4.522  10.264 -0.0525 -0.3239  0.1435
  181MPD1    C4 2757   0.689   4.430  10.366  0.1872 -0.2021 -0.0726
  181MPD1    C5 2758   0.601   4.322  10.351 -0.0602  0.0371 -0.0814
  181MPD1     H 2759   0.659   4.561  10.058 -0.7739 -0.7315 -0.9111
  181MPD1    H1 2760   0.752   4.425  10.454  0.7334 -0.4099 -0.4770
  181MPD1    H2 2761   0.477   4.211  10.216 -0.2719  0.0763  0.1960
  181MPD1    H3 2762   0.569   4.270  10.440  0.1445  0.7816  0.4280
  181MPD1     N 2763   0.787   4.630  10.272 -0.0368 -0.4335  0.1073
  181MPD1    H5 2764   0.844   4.628  10.356  1.3905  0.4869 -0.8410
  181MPD1    N1 2765   0.519   4.348   9.993  0.5907 -0.5769  0.5159
  181MPD1    H6 2766   0.579   4.395   9.926 -0.7264  2.6072  1.5740
  181MPD1    H7 2767   0.519   4.248   9.973 -1.4529 -0.1638 -1.5525
  182MPD1     C 2768   1.078   4.016   1.571 -0.3484  0.8252  0.0748
  182MPD1    C1 2769   0.968   4.093   1.599 -0.5896 -0.5179 -0.5569
  182MPD1    C2 2770   0.903   4.165   1.500 -0.1289  0.6883 -0.4929
  182MPD1    C3 2771   0.955   4.150   1.364 -0.2565  0.4322 -0.7500
  182MPD1    C4 2772   1.059   4.061   1.337 -0.0784 -0.2084 -0.0035
  182MPD1    C5 2773   1.112   3.993   1.444  0.8867  0.1097 -0.0168
  182MPD1     H 2774   0.825   4.236   1.525  1.4397  2.1374  0.3272
  182MPD1    H1 2775   1.101   4.038   1.240 -1.7148 -0.6065 -0.6121
  182MPD1    H2 2776   1.142   3.969   1.646 -1.1099  0.9885  0.8247
  182MPD1    H3 2777   1.195   3.927   1.420 -1.4575 -2.8116 -0.0132
  182MPD1     N 2778   0.907   4.226   1.253 -0.4968  0.5543  0.3058
  182MPD1    H5 2779   0.953   4.214   1.163 -0.6897 -0.2589  0.3238
  182MPD1    N1 2780   0.926   4.107   1.735 -0.5032  0.5289  0.3316
  182MPD1    H6 2781   0.931   4.017   1.783  1.3391  0.1722 -0.5238
  182MPD1    H7 2782   0.829   4.137   1.723 -1.2264 -1.1773  1.8413
  183MPD1     C 2783   2.132   1.310   9.640 -0.1095  0.6737 -0.6455
  183MPD1    C1 2784   2.061   1.257   9.539 -0.1343  0.3017 -0.6876
  183MPD1    C2 2785   2.066   1.126   9.521 -0.1604 -0.6624  0.3459
  183MPD1    C3 2786   2.153   1.043   9.591 -0.2075  0.9265 -0.5652
  183MPD1    C4 2787   2.232   1.095   9.691 -0.4509 -0.3016 -0.1192
  183MPD1    C5 2788   2.217   1.232   9.720  0.1721  0.0061  0.4316
  183MPD1     H 2789   2.009   1.088   9.437 -1.5228  1.0615  0.5062
  183MPD1    H1 2790   2.297   1.034   9.753 -0.4711  1.2806  1.4790
  183MPD1    H2 2791   2.114   1.412   9.673 -1.8569  0.5203 -1.1171
  183MPD1    H3 2792   2.274   1.265   9.806  0.4741  0.1769  0.1612
  183MPD1     N 2793   2.138   0.906   9.571 -0.3299 -0.1073  0.0349
  183MPD1    H5 2794   2.077   0.869   9.498 -1.7079  1.1222  0.5580
  183MPD1    N1 2795   1.977   1.339   9.463  0.0477 -0.1162 -0.3848
  183MPD1    H6 2796   2.004   1.437   9.466 -2.5005  0.5784  0.0645
  183MPD1    H7 2797   1.962   1.302   9.369 -0.0461 -1.4698  0.1639
  184MPD1     C 2798   0.722   2.250  10.574 -0.3875  0.0836 -0.3483
  184MPD1    C1 2799   0.838   2.228  10.519 -0.2216 -0.9397 -0.2834
  184MPD1    C2 2800   0.864   2.287  10.397 -0.4357  0.2553 -0.3190
  184MPD1    C3 2801   0.765   2.337  10.319  0.1995  0.8443  0.1554
  184MPD1    C4 2802   0.644   2.353  10.379 -0.1265 -0.5650  0.3471
  184MPD1    C5 2803   0.621   2.309  10.507 -1.7297  0.1364  0.0825
  184MPD1     H 2804   0.963   2.276  10.355 -0.6212 -1.6623 -0.2116
  184MPD1    H1 2805   0.566   2.404  10.322  0.3378 -0.1474  0.0806
  184MPD1    H2 2806   0.707   2.223  10.678  0.7891  0.6408 -0.0320
  184MPD1    H3 2807   0.527   2.322  10.560 -2.3590 -1.3026 -0.6907
  184MPD1     N 2808   0.790   2.386  10.192 -0.1196  0.7438  0.1672
  184MPD1    H5 2809   0.707   2.435  10.159 -0.5499  1.2412  1.9814
  184MPD1    N1 2810   0.951   2.176  10.586 -0.3260 -0.2887  0.1206
  184MPD1    H6 2811   1.017   2.134  10.521  0.5312 -0.0579  0.8341
  184MPD1    H7 2812   0.920   2.108  10.656  0.1916  0.2117  0.8387
  185MPD1     C 2813   0.394   2.873   9.449  0.1111 -1.2361  0.3109
  185MPD1    C1 2814   0.381   2.768   9.537 -0.2055 -0.0265 -0.2920
  185MPD1    C2 2815   0.474   2.748   9.635 -0.3900 -0.0785  0.2914
  185MPD1    C3 2816   0.595   2.812   9.638  0.1434 -0.2172  0.3715
  185MPD1    C4 2817   0.617   2.914   9.543  0.1222 -0.7181 -0.2261
  185MPD1    C5 2818   0.517   2.935   9.453 -0.5914  0.0219 -0.5851
  185MPD1     H 2819   0.429   2.701   9.721  0.6418 -0.0919  0.8321
  185MPD1    H1 2820   0.713   2.965   9.543 -1.3589  2.0242  0.7390
  185MPD1    H2 2821   0.322   2.906   9.375 -0.5162 -0.1884  1.3955
  185MPD1    H3 2822   0.538   3.012   9.380  0.0012  0.7939  0.4031
  185MPD1     N 2823   0.700   2.774   9.724  0.9009 -0.2024 -0.4805
  185MPD1    H5 2824   0.788   2.824   9.719  0.6068  0.2896 -0.6706
  185MPD1    N1 2825   0.253   2.710   9.537 -0.1724  0.5720 -0.1306
  185MPD1    H6 2826   0.265   2.613   9.568  2.2636  0.4907 -1.3255
  185MPD1    H7 2827   0.212   2.705   9.444  2.2784  0.3197 -1.1871
  186MPD1     C 2828   3.656   1.975  15.684 -0.4559  0.5834 -0.1289
  186MPD1    C1 2829   3.790   1.946  15.698 -0.4417  0.2539 -0.0846
  186MPD1    C2 2830   3.868   2.013  15.792  0.4631  0.4317 -0.3821
  186MPD1    C3 2831   3.803   2.109  15.874 -0.4047  0.1373 -0.8492
  186MPD1    C4 2832   3.662   2.121  15.863  0.2764 -0.7527 -0.7713
  186MPD1    C5 2833   3.594   2.065  15.760 -0.0216 -0.1507  0.1731
  186MPD1     H 2834   3.973   1.990  15.807  0.0060 -1.0487  0.6421
  186MPD1    H1 2835   3.619   2.198  15.926  0.3862 -1.4213  0.1298
  186MPD1    H2 2836   3.594   1.927  15.609  1.4506 -0.7725 -0.8512
  186MPD1    H3 2837   3.490   2.092  15.742  0.1957 -1.6176 -3.2187
  186MPD1     N 2838   3.865   2.195  15.971 -0.0228  0.7635 -0.0353
  186MPD1    H5 2839   3.800   2.254  16.022 -1.2017  0.7351 -1.5175
  186MPD1    N1 2840   3.857   1.848  15.614  0.2492  0.5513 -0.2551
  186MPD1    H6 2841   3.794   1.785  15.565 -1.6203  1.1919  1.3689
  186MPD1    H7 2842   3.938   1.806  15.660  0.2629  1.3280  0.4272
  187MPD1     C 2843   3.050   3.363  17.459 -0.0706 -0.3222  0.6838
  187MPD1    C1 2844   3.146   3.423  17.540 -0.7556 -0.8992 -0.2955
  187MPD1    C2 2845   3.125   3.551  17.581 -0.0593  0.0940 -0.1421
  187MPD1    C3 2846   3.007   3.614  17.551  0.2280  0.1789  0.1752
  187MPD1    C4 2847   2.914   3.553  17.474 -0.0956 -0.4405 -0.0684
  187MPD1    C5 2848   2.938   3.426  17.430 -0.1062  0.1412  0.1450
  187MPD1     H 2849   3.194   3.597  17.651  0.4397 -0.8376 -0.0256
  187MPD1    H1 2850   2.821   3.602  17.452  0.6515 -1.4681 -5.4773
  187MPD1    H2 2851   3.067   3.258  17.435  1.5700 -0.4038  2.1759
  187MPD1    H3 2852   2.867   3.378  17.364  0.1233  1.3100 -0.9787
  187MPD1     N 2853   2.986   3.748  17.583  0.1254  0.1024  0.4785
  187MPD1    H5 2854   2.900   3.792  17.551  0.4094 -0.9138 -1.7302
  187MPD1    N1 2855   3.227   3.331  17.611  0.5390 -0.5281 -0.3895
  187MPD1    H6 2856   3.272   3.261  17.552 -1.7865 -1.7242 -0.7573
  187MPD1    H7 2857   3.304   3.380  17.656 -0.8085  1.1981  0.0504
  188MPD1     C 2858   3.643   3.871  10.567 -0.2507  0.1030 -0.4317
  188MPD1    C1 2859   3.700   3.745  10.602  0.1764  0.5021  0.5059
  188MPD1    C2 2860   3.652   3.634  10.536  0.4612 -0.2142  0.2345
  188MPD1    C3 2861   3.559   3.657  10.438 -0.6694  0.3586 -0.0661
  188MPD1    C4 2862   3.502   3.778  10.407  0.3496 -0.0942  0.2620
  188MPD1    C5 2863   3.547   3.887  10.475 -0.2618 -0.4779  0.7001
  188MPD1     H 2864   3.696   3.540  10.568  0.2157 -0.4748 -0.1874
  188MPD1    H1 2865   3.437   3.789  10.322  0.1907 -2.1507  0.1276
  188MPD1    H2 2866   3.661   3.965  10.617 -0.7036  0.0828 -0.2338
  188MPD1    H3 2867   3.503   3.984  10.454 -0.6210 -0.5829  0.9655
  188MPD1     N 2868   3.514   3.551  10.355  0.5263 -0.0909  0.0171
  188MPD1    H5 2869   3.424   3.561  10.310 -1.2188 -0.2846  3.5198
  188MPD1    N1 2870   3.763   3.738  10.725 -0.1100 -0.3118 -0.2992
  188MPD1    H6 2871   3.812   3.825  10.746  0.9298 -0.4948 -1.9517
  188MPD1    H7 2872   3.841   3.673  10.723 -0.8717 -1.1719 -2.5639
  189MPD1     C 2873   0.577   0.023   0.285  0.0106  0.0763  0.2208
  189MPD1    C1 2874   0.461   4.694   0.343  0.8987  0.1392 -0.0887
  189MPD1    C2 2875   0.347   0.053   0.347 -0.1446  0.2553  0.3354
  189MPD1    C3 2876   0.349   0.169   0.264  1.1728 -0.1883 -0.0818
  189MPD1    C4 2877   0.463   0.209   0.191  0.4459  0.7501  0.0217
  189MPD1    C5 2878   0.573   0.132   0.206 -0.4650  0.1724 -0.3847
  189MPD1     H 2879   0.259   0.033   0.408 -0.2857 -2.8573 -0.9055
  189MPD1    H1 2880   0.462   0.294   0.124  3.3643 -0.2217 -1.2280
  189MPD1    H2 2881   0.670   4.692   0.295  1.7103  3.2110  1.7463
  189MPD1    H3 2882   0.660   0.161   0.148 -0.2077 -0.5163 -0.3519
  189MPD1     N 2883   0.229   0.240   0.255 -0.7859  0.4174  0.3161
  189MPD1    H5 2884   0.146   0.185   0.273  0.3235 -1.1284  0.7117
  189MPD1    N1 2885   0.467   4.584   0.431  0.2750 -0.1720 -0.2257
  189MPD1    H6 2886   0.532   4.509   0.410 -0.0841 -0.3849 -0.5893
  189MPD1    H7 2887   0.376   4.540   0.445 -0.2923  1.2060  0.4488
  190MPD1     C 2888   3.349   3.107  15.456  0.1528 -0.4543 -0.2272
  190MPD1    C1 2889   3.449   3.087  15.366 -0.2725  0.5210 -0.6078
  190MPD1    C2 2890   3.574   3.129  15.409  0.0217  0.6814 -0.0642
  190MPD1    C3 2891   3.599   3.200  15.527  0.0147  0.0662 -0.3085
  190MPD1    C4 2892   3.498   3.220  15.614  0.0729  0.4109  0.5815
  190MPD1    C5 2893   3.374   3.171  15.577  0.4154  0.1548 -0.3345
  190MPD1     H 2894   3.654   3.116  15.337 -0.5887  4.2173 -1.3925
  190MPD1    H1 2895   3.507   3.258  15.715 -0.3454 -0.5849  0.9927
  190MPD1    H2 2896   3.247   3.079  15.437  0.4548 -0.6408 -1.5737
  190MPD1    H3 2897   3.286   3.194  15.635  0.6121  3.3770 -1.3513
  190MPD1     N 2898   3.727   3.246  15.550  0.1433 -0.2240  0.3550
  190MPD1    H5 2899   3.806   3.206  15.500 -0.9345  0.7911 -2.1867
  190MPD1    N1 2900   3.429   3.002  15.256 -0.0141  0.3616  0.7577
  190MPD1    H6 2901   3.497   3.024  15.184 -0.0596  0.4727  0.7498
  190MPD1    H7 2902   3.332   3.021  15.231  0.9935  2.6165 -1.4187
  191MPD1     C 2903   2.996   0.333  12.463 -0.0039  0.1399 -0.9439
  191MPD1    C1 2904   3.108   0.251  12.485 -0.1300  0.3455 -0.0777
  191MPD1    C2 2905   3.159   0.195  12.369 -0.7796 -0.0687 -0.2539
  191MPD1    C3 2906   3.120   0.241  12.241  0.4653  0.4384  0.1177
  191MPD1    C4 2907   3.020   0.337  12.231 -0.0035 -0.7730 -0.2512
  191MPD1    C5 2908   2.957   0.389  12.341 -0.5519 -0.5486  0.2762
  191MPD1     H 2909   3.244   0.128  12.377 -1.1219 -0.4867 -0.1063
  191MPD1    H1 2910   2.983   0.371  12.135 -2.3898 -2.7543 -0.0514
  191MPD1    H2 2911   2.942   0.366  12.551  0.1633 -1.4679 -0.2513
  191MPD1    H3 2912   2.886   0.470  12.334 -1.0763 -1.2243 -2.3273
  191MPD1     N 2913   3.165   0.171  12.130  0.4610 -0.6056  0.2713
  191MPD1    H5 2914   3.239   0.102  12.145 -0.2570 -1.5631 -0.5768
  191MPD1    N1 2915   3.142   0.206  12.615  0.2749  0.1187 -0.2093
  191MPD1    H6 2916   3.114   0.271  12.689  0.7627 -0.5265  0.5484
  191MPD1    H7 2917   3.241   0.183  12.618  0.2797  0.1422 -0.1824
  192MPD1     C 2918   2.895   0.349  11.167 -0.3899 -0.8191 -0.1237
  192MPD1    C1 2919   2.930   0.219  11.201  0.0611  0.1304  0.6586
  192MPD1    C2 2920   3.026   0.198  11.296  0.8556 -0.0833 -0.7785
  192MPD1    C3 2921   3.066   0.303  11.373  0.5911  0.1295  0.1212
  192MPD1    C4 2922   3.035   0.435  11.342  0.5423 -0.0700 -0.1126
  192MPD1    C5 2923   2.942   0.454  11.240  0.2665 -0.4189 -1.0239
  192MPD1     H 2924   3.061   0.096  11.308  2.2645  0.4752 -0.0986
  192MPD1    H1 2925   3.061   0.526  11.395  0.3746  0.2706 -0.6130
  192MPD1    H2 2926   2.827   0.371  11.086  0.4014  1.6378 -0.1356
  192MPD1    H3 2927   2.915   0.556  11.217 -0.9235 -0.3501  0.7386
  192MPD1     N 2928   3.142   0.282  11.490 -0.5199  0.1519 -0.1429
  192MPD1    H5 2929   3.177   0.360  11.545  1.4864 -0.6212 -0.3203
  192MPD1    N1 2930   2.897   0.111  11.116  0.0120  0.1792 -0.7695
  192MPD1    H6 2931   2.810   0.133  11.068 -0.7274  0.8778  0.8855
  192MPD1    H7 2932   2.884   0.031  11.177 -0.0975  2.1161  1.7630
  193MPD1     C 2933   3.027   0.052  17.038  0.3998  0.0384  0.2465
  193MPD1    C1 2934   2.957   0.146  17.106 -0.4374  0.0491  0.0164
  193MPD1    C2 2935   2.960   0.277  17.065  0.3001 -0.1705 -0.0154
  193MPD1    C3 2936   3.054   0.321  16.973  0.0720  0.2044  0.1720
  193MPD1    C4 2937   3.128   0.226  16.907 -0.7799  0.6930  0.2210
  193MPD1    C5 2938   3.107   0.091  16.933  0.3595 -0.1755  0.3037
  193MPD1     H 2939   2.902   0.349  17.122  1.6322  1.6093 -0.8911
  193MPD1    H1 2940   3.203   0.240  16.830  0.5014 -0.0795  1.3057
  193MPD1    H2 2941   3.030   4.669  17.058 -0.5617 -0.5106 -2.5556
  193MPD1    H3 2942   3.155   0.013  16.875 -0.4756 -0.2363 -0.3001
  193MPD1     N 2943   3.083   0.456  16.950  0.1100 -0.3509  1.1919
  193MPD1    H5 2944   3.164   0.475  16.893 -0.5852  1.5297  0.8285
  193MPD1    N1 2945   2.856   0.111  17.201 -0.5264  0.4530  0.1961
  193MPD1    H6 2946   2.875   0.031  17.260 -0.8171  1.3233  1.4846
  193MPD1    H7 2947   2.833   0.194  17.256  0.3123  0.3013  0.7731
  194MPD1     C 2948   0.030   2.362  15.543 -0.8959 -0.2649 -0.5900
  194MPD1    C1 2949   0.123   2.297  15.472 -0.3448 -0.1204  0.0344
  194MPD1    C2 2950   0.235   2.246  15.533  0.4817  0.3346  0.0862
  194MPD1    C3 2951   0.239   2.248  15.673  0.3933 -0.2226  0.2267
  194MPD1    C4 2952   0.143   2.321  15.744 -0.0118  0.5288  0.1131
  194MPD1    C5 2953   0.043   2.381  15.678 -0.4769  0.9599 -0.3956
  194MPD1     H 2954   0.314   2.198  15.477  0.4986  1.7147 -1.0785
  194MPD1    H1 2955   0.144   2.318  15.852 -0.2761 -1.3910  0.0630
  194MPD1    H2 2956   4.667   2.400  15.491 -0.3048  1.9719  0.0893
  194MPD1    H3 2957   4.691   2.422  15.744 -1.1512 -1.1361  0.1362
  194MPD1     N 2958   0.338   2.185  15.753 -0.6908 -0.0694 -0.4762
  194MPD1    H5 2959   0.337   2.208  15.852 -0.1112  0.0637 -0.4996
  194MPD1    N1 2960   0.110   2.301  15.328  0.3224  0.2914  0.1382
  194MPD1    H6 2961   0.135   2.214  15.283 -2.5716  0.3763 -1.7000
  194MPD1    H7 2962   0.014   2.322  15.299  0.9180  0.3298 -1.8276
  195MPD1     C 2963   2.903   4.426   0.620  0.1544 -0.4000 -0.2787
  195MPD1    C1 2964   3.006   4.372   0.544 -0.8739  1.0238 -0.5817
  195MPD1    C2 2965   2.985   4.255   0.482 -0.1013 -0.1459  0.3573
  195MPD1    C3 2966   2.861   4.192   0.490  0.3212  0.1840  0.0190
  195MPD1    C4 2967   2.759   4.244   0.568 -0.0282 -0.3068 -0.5400
  195MPD1    C5 2968   2.779   4.367   0.626 -0.4133  0.0581 -0.9991
  195MPD1     H 2969   3.076   4.211   0.445  0.3057 -0.4459  1.7124
  195MPD1    H1 2970   2.667   4.190   0.582  0.1333 -0.3588  0.3369
  195MPD1    H2 2971   2.911   4.519   0.675  0.0603 -0.6311  0.1264
  195MPD1    H3 2972   2.707   4.409   0.695 -0.7165  2.0153 -2.4887
  195MPD1     N 2973   2.831   4.062   0.439 -0.1415  0.5223  0.2091
  195MPD1    H5 2974   2.746   4.012   0.465  0.2502 -0.8875 -1.1769
  195MPD1    N1 2975   3.136   4.424   0.561 -0.0076 -0.0914 -0.1682
  195MPD1    H6 2976   3.193   4.404   0.480  1.3056 -1.5407  1.1188
  195MPD1    H7 2977   3.135   4.522   0.589 -0.9899 -0.3459  0.7248
  196MPD1     C 2978   2.062   3.267   0.465 -0.1851  0.4755  0.1426
  196MPD1    C1 2979   2.126   3.376   0.514  0.4874  0.9711  0.1129
  196MPD1    C2 2980   2.070   3.452   0.616  0.5438 -0.6669  0.4961
  196MPD1    C3 2981   1.932   3.425   0.653 -0.1846  0.3412  0.7094
  196MPD1    C4 2982   1.860   3.322   0.592 -0.3634 -0.3728  0.3239
  196MPD1    C5 2983   1.928   3.243   0.499 -0.2800 -0.5633 -0.1480
  196MPD1     H 2984   2.131   3.530   0.660 -1.2261  1.4060 -0.6844
  196MPD1    H1 2985   1.760   3.289   0.617 -0.7004 -1.9675 -3.0945
  196MPD1    H2 2986   2.107   3.199   0.394  0.1222  0.9261 -0.0903
  196MPD1    H3 2987   1.886   3.150   0.464 -1.6542  0.4481 -1.1903
  196MPD1     N 2988   1.862   3.490   0.759  0.0219 -0.5364  0.3530
  196MPD1    H5 2989   1.775   3.440   0.776  1.2291 -1.1631  4.5719
  196MPD1    N1 2990   2.267   3.388   0.495  0.0640 -0.6145  0.0662
  196MPD1    H6 2991   2.293   3.351   0.404 -2.0957  0.3324 -0.9168
  196MPD1    H7 2992   2.287   3.487   0.489 -2.7839 -0.0390  0.2612
  197MPD1     C 2993   1.539   0.845   0.126 -0.2944 -1.1120 -0.1301
  197MPD1    C1 2994   1.455   0.944   0.089  0.2202 -0.1729  0.1315
  197MPD1    C2 2995   1.490   1.018  17.672  0.0263  0.0963 -0.1445
  197MPD1    C3 2996   1.582   0.967  17.578 -0.3494 -0.4718 -0.6474
  197MPD1    C4 2997   1.653   0.857  17.612 -0.7057  0.7286 -0.7152
  197MPD1    C5 2998   1.637   0.795   0.039 -0.2265  0.3393 -0.2769
  197MPD1     H 2999   1.440   1.113  17.656 -1.1590 -0.3066  1.2910
  197MPD1    H1 3000   1.729   0.816  17.547 -0.0913  0.7201  0.0050
  197MPD1    H2 3001   1.517   0.796   0.220  0.4807  0.6339  0.9629
  197MPD1    H3 3002   1.703   0.715   0.072 -0.2029 -0.4074 -2.1501
  197MPD1     N 3003   1.622   1.036  17.458  0.8515  0.1279  0.0409
  197MPD1    H5 3004   1.679   0.978  17.398 -0.4455 -1.6956  0.6044
  197MPD1    N1 3005   1.354   0.987   0.173 -0.4067  0.7573  0.2288
  197MPD1    H6 3006   1.279   1.023   0.115 -0.9754 -1.4434 -0.3704
  197MPD1    H7 3007   1.316   0.915   0.234  1.2816 -1.7335 -1.6716
  198MPD1     C 3008   3.262   4.174  15.298  0.1188 -0.3737 -0.9386
  198MPD1    C1 3009   3.383   4.197  15.241 -0.2358 -0.2225 -0.4392
  198MPD1    C2 3010   3.467   4.293  15.296  0.1122  0.4604  0.2231
  198MPD1    C3 3011   3.429   4.363  15.402 -0.2185  0.1837 -1.0331
  198MPD1    C4 3012   3.307   4.356  15.459 -0.3084 -0.3674  0.0150
  198MPD1    C5 3013   3.223   4.257  15.407  0.1605  0.6319  0.4253
  198MPD1     H 3014   3.568   4.313  15.261  0.5792  0.4488  1.5575
  198MPD1    H1 3015   3.282   4.420  15.544  1.3684 -0.5406  0.6236
  198MPD1    H2 3016   3.199   4.093  15.265  1.7764 -1.5858 -1.1282
  198MPD1    H3 3017   3.125   4.240  15.451  0.1936  1.2309  0.7195
  198MPD1     N 3018   3.534   4.437  15.458 -0.1293  0.6035 -0.1882
  198MPD1    H5 3019   3.619   4.449  15.403 -0.0942  0.8180 -0.0897
  198MPD1    N1 3020   3.434   4.109  15.146  0.0974  0.2229 -0.1886
  198MPD1    H6 3021   3.492   4.155  15.076  3.4443 -4.5998 -0.5063
  198MPD1    H7 3022   3.356   4.064  15.098 -0.5452  0.1377  0.9260
  199MPD1     C 3023   1.910   0.847   9.876  0.0708 -0.1729  0.0658
  199MPD1    C1 3024   1.822   0.933   9.811 -0.2019 -0.4328 -0.5915
  199MPD1    C2 3025   1.682   0.919   9.822  0.3264  0.7261 -0.0110
  199MPD1    C3 3026   1.632   0.802   9.873  0.6185  0.1410  0.3488
  199MPD1    C4 3027   1.723   0.707   9.917  0.0372 -0.2417 -0.5225
  199MPD1    C5 3028   1.856   0.737   9.930 -0.2187  0.5169  0.2318
  199MPD1     H 3029   1.616   0.986   9.768 -1.6988 -1.1956  0.1016
  199MPD1    H1 3030   1.687   0.610   9.947 -0.0782  0.4862  1.6868
  199MPD1    H2 3031   2.016   0.868   9.878  0.1903 -0.8300  0.8475
  199MPD1    H3 3032   1.915   0.662   9.981  0.1768 -0.2127 -1.3229
  199MPD1     N 3033   1.494   0.767   9.876  0.1086  0.2331 -0.6707
  199MPD1    H5 3034   1.466   0.671   9.895  0.0169 -0.0520 -2.2632
  199MPD1    N1 3035   1.866   1.045   9.752 -0.6242 -0.0175 -0.5282
  199MPD1    H6 3036   1.804   1.084   9.680 -2.1396 -0.9695  0.2738
  199MPD1    H7 3037   1.955   1.035   9.703 -0.1835 -0.7750  0.4308
  200MPD1     C 3038   4.388   0.150  14.433 -0.5311  0.4801  0.3461
  200MPD1    C1 3039   4.507   0.184  14.490  0.8283 -0.0668  0.2127
  200MPD1    C2 3040   4.532   0.317  14.500 -0.0976 -0.2767 -0.7354
  200MPD1    C3 3041   4.460   0.415  14.431  0.5001 -0.3925 -0.1372
  200MPD1    C4 3042   4.341   0.375  14.375  0.1590 -0.3896 -0.0746
  200MPD1    C5 3043   4.306   0.239  14.373  0.7900  0.0549 -0.1062
  200MPD1     H 3044   4.617   0.349  14.559  0.3351 -2.3664 -0.2064
  200MPD1    H1 3045   4.265   0.440  14.334 -0.6755 -2.3147 -1.5772
  200MPD1    H2 3046   4.366   0.045  14.418  2.1842  0.3434 -2.7312
  200MPD1    H3 3047   4.220   0.200  14.321  1.6964  0.5943 -2.0010
  200MPD1     N 3048   4.505   0.551  14.438  0.3861  0.5648 -0.1219
  200MPD1    H5 3049   4.602   0.568  14.462  0.5447 -2.7342  1.6161
  200MPD1    N1 3050   4.580   0.092  14.570 -0.4834 -0.5186 -0.9160
  200MPD1    H6 3051   4.585   4.723  14.528 -1.1540 -0.7247 -0.5387
  200MPD1    H7 3052   4.677   0.119  14.583 -0.9888 -0.2267  2.1542
  201MPD1     C 3053   2.664   0.297  13.249  0.0850  0.2921  0.3446
  201MPD1    C1 3054   2.756   0.221  13.318 -0.4885 -0.1826 -0.4014
  201MPD1    C2 3055   2.752   0.085  13.306  0.2547 -0.1528 -0.4349
  201MPD1    C3 3056   2.686   0.020  13.207 -0.0574  0.2403 -0.3968
  201MPD1    C4 3057   2.602   0.097  13.129 -0.0321  0.2644 -0.1249
  201MPD1    C5 3058   2.588   0.231  13.156 -0.5632  0.0010  0.6015
  201MPD1     H 3059   2.818   0.027  13.369 -2.4170 -0.5187  2.0325
  201MPD1    H1 3060   2.552   0.057  13.042  0.6607  1.8481 -1.2667
  201MPD1    H2 3061   2.647   0.400  13.277 -2.1925  0.2829 -1.0191
  201MPD1    H3 3062   2.514   0.286  13.099 -0.2079  0.5752  0.6943
  201MPD1     N 3063   2.704   4.611  13.194  0.4180 -0.0596  0.0020
  201MPD1    H5 3064   2.761   4.562  13.262 -1.5906  0.0698  1.7642
  201MPD1    N1 3065   2.833   0.284  13.418 -0.1057 -0.3768 -0.2133
  201MPD1    H6 3066   2.913   0.232  13.452 -0.6502 -1.5726 -0.7593
  201MPD1    H7 3067   2.852   0.382  13.401  1.8728 -0.3212  2.2228
  202MPD1     C 3068   2.110   4.292   9.080 -0.0803 -0.4204  0.1303
  202MPD1    C1 3069   2.091   4.167   9.152  0.1217  0.0774 -0.0535
  202MPD1    C2 3070   2.176   4.149   9.258 -1.0085 -0.3306 -0.0679
  202MPD1    C3 3071   2.259   4.255   9.305  0.5806  0.3913  0.2480
  202MPD1    C4 3072   2.250   4.374   9.248  0.1095 -0.4018  0.2333
  202MPD1    C5 3073   2.181   4.393   9.135 -0.0469  0.0847  0.0390
  202MPD1     H 3074   2.196   4.049   9.292 -2.3352 -0.8563 -0.8200
  202MPD1    H1 3075   2.309   4.459   9.282 -0.5597  0.5354 -0.9566
  202MPD1    H2 3076   2.060   4.299   8.984 -0.9125  1.2473  0.6715
  202MPD1    H3 3077   2.194   4.485   9.079  0.9481 -0.8600 -1.3016
  202MPD1     N 3078   2.342   4.242   9.418  0.4563 -0.3126 -0.2381
  202MPD1    H5 3079   2.388   4.328   9.447 -2.0309  0.6929  0.7846
  202MPD1    N1 3080   2.040   4.048   9.095  0.2303 -0.0278 -0.3719
  202MPD1    H6 3081   2.013   3.982   9.168  0.0260  0.8953  0.3858
  202MPD1    H7 3082   1.950   4.066   9.050  0.4586  0.8138 -0.4941
  203MPD1     C 3083   0.490   0.011  12.141 -0.1197  0.0832 -0.3965
  203MPD1    C1 3084   0.549   4.714  12.271  0.3306  0.0631  0.5106
  203MPD1    C2 3085   0.672   4.644  12.278 -0.0014 -0.3184  0.3622
  203MPD1    C3 3086   0.723   4.586  12.169  0.4537 -0.3133  0.1759
  203MPD1    C4 3087   0.665   4.608  12.045 -0.1576 -0.4085  0.1276
  203MPD1    C5 3088   0.544   4.671  12.033  0.2345 -0.0210 -0.1619
  203MPD1     H 3089   0.724   4.634  12.373  3.1318  1.3445 -1.1747
  203MPD1    H1 3090   0.704   4.553  11.960 -0.7739  1.3935 -1.3061
  203MPD1    H2 3091   0.404   0.075  12.124  0.0500  0.5032  0.3485
  203MPD1    H3 3092   0.495   4.687  11.938  2.2447 -6.0736 -2.2292
  203MPD1     N 3093   0.831   4.493  12.186  0.0785 -0.0988 -0.0922
  203MPD1    H5 3094   0.849   4.475  12.284  1.6165 -0.9011 -0.5271
  203MPD1    N1 3095   0.505   0.062  12.381  0.4462 -0.3770 -0.3467
  203MPD1    H6 3096   0.404   0.069  12.386  0.4844  0.5690 -0.8977
  203MPD1    H7 3097   0.527   0.020  12.472 -0.1714 -0.7885 -0.3898
  204MPD1     C 3098   0.398   1.638  17.431  0.1655 -0.3171 -0.0529
  204MPD1    C1 3099   0.489   1.646  17.329 -0.3585 -0.0855 -0.1821
  204MPD1    C2 3100   0.533   1.530  17.260 -0.2647  0.3002 -0.7077
  204MPD1    C3 3101   0.459   1.412  17.283 -0.0751 -0.4749 -0.8333
  204MPD1    C4 3102   0.360   1.410  17.371  0.3630 -0.1230  0.0886
  204MPD1    C5 3103   0.328   1.517  17.452 -0.0846 -0.6116 -0.8171
  204MPD1     H 3104   0.618   1.536  17.194 -0.0804  1.1742 -0.3990
  204MPD1    H1 3105   0.306   1.322  17.401  1.1130 -1.2979 -2.0435
  204MPD1    H2 3106   0.384   1.725  17.494  1.6420 -0.6591  0.7405
  204MPD1    H3 3107   0.251   1.506  17.527  0.0635  1.2375 -0.3914
  204MPD1     N 3108   0.500   1.295  17.213  0.3821  0.0216  0.7755
  204MPD1    H5 3109   0.591   1.295  17.169 -0.8745  0.0838 -1.8589
  204MPD1    N1 3110   0.557   1.765  17.325  0.3192 -0.0804  0.6321
  204MPD1    H6 3111   0.499   1.849  17.333  1.0603  0.4971 -0.0082
  204MPD1    H7 3112   0.604   1.782  17.236 -1.0495 -0.6694 -0.1979
  205MPD1     C 3113   0.027   4.351  17.417  0.3769 -0.3666 -0.8461
  205MPD1    C1 3114   0.130   4.285  17.472  0.2303  0.7693 -0.5861
  205MPD1    C2 3115   0.259   4.332  17.437  0.4248 -0.4050  0.4244
  205MPD1    C3 3116   0.280   4.458  17.374 -0.2724  0.2081  0.2025
  205MPD1    C4 3117   0.168   4.530  17.352  0.0611 -0.2770 -0.6058
  205MPD1    C5 3118   0.047   4.474  17.356 -0.3119 -0.1756 -0.6372
  205MPD1     H 3119   0.339   4.264  17.464  1.3081  0.7842  0.8139
  205MPD1    H1 3120   0.173   4.631  17.314  0.5876  0.1785  0.6605
  205MPD1    H2 3121   4.656   4.299  17.411  1.4498 -2.6149  1.9532
  205MPD1    H3 3122   4.690   4.528  17.309  0.3808  1.2836 -0.1380
  205MPD1     N 3123   0.407   4.514  17.356  0.4210 -0.3347  0.0217
  205MPD1    H5 3124   0.411   4.610  17.324  1.4766 -0.5976 -0.6405
  205MPD1    N1 3125   0.122   4.147  17.503  0.1962  0.8345  0.3613
  205MPD1    H6 3126   0.206   4.120  17.553 -1.0007 -0.2254  1.8033
  205MPD1    H7 3127   0.038   4.105  17.543  1.5525 -1.7258  0.4590
  206MPD1     C 3128   1.049   2.648  16.607  0.2218  0.0786 -0.0575
  206MPD1    C1 3129   0.990   2.768  16.586 -0.8221  0.1605 -0.0639
  206MPD1    C2 3130   0.943   2.794  16.460 -0.3904 -0.1684 -0.1137
  206MPD1    C3 3131   0.950   2.701  16.353  0.3809 -0.0032  0.0396
  206MPD1    C4 3132   1.000   2.578  16.386 -0.4613 -0.3412  0.3005
  206MPD1    C5 3133   1.048   2.552  16.513 -0.3368 -0.3205 -0.0219
  206MPD1     H 3134   0.894   2.890  16.445 -1.9722 -1.1192 -1.0008
  206MPD1    H1 3135   0.990   2.506  16.306 -0.5399  0.8372 -0.7316
  206MPD1    H2 3136   1.093   2.626  16.704 -0.3717 -1.1006 -0.0461
  206MPD1    H3 3137   1.079   2.455  16.550 -0.5938  0.2518  1.7137
  206MPD1     N 3138   0.909   2.738  16.222 -0.3694  0.2203 -0.2368
  206MPD1    H5 3139   0.921   2.666  16.151  1.7004 -0.3704  0.7112
  206MPD1    N1 3140   0.974   2.869  16.679  0.3086  0.0117  0.0370
  206MPD1    H6 3141   1.057   2.889  16.735  0.9400  0.1200 -0.9491
  206MPD1    H7 3142   0.950   2.958  16.635 -1.4192  0.3061  1.5373
  207MPD1     C 3143   2.392   0.890  10.117  0.1755 -0.2048 -0.3195
  207MPD1    C1 3144   2.479   0.983  10.063 -0.5148  0.0138  0.5999
  207MPD1    C2 3145   2.608   0.964  10.078  0.6059  0.0169 -0.4235
  207MPD1    C3 3146   2.662   0.866  10.152 -0.3507 -1.0764 -0.0485
  207MPD1    C4 3147   2.571   0.780  10.215 -0.0268 -0.1967 -0.3391
  207MPD1    C5 3148   2.436   0.792  10.194 -0.5048 -0.3914 -0.1165
  207MPD1     H 3149   2.674   1.040  10.036  0.9150  0.0199  0.0731
  207MPD1    H1 3150   2.606   0.697  10.276  0.0254  0.7325  0.8865
  207MPD1    H2 3151   2.285   0.899  10.103 -0.0888 -2.9823  0.0050
  207MPD1    H3 3152   2.353   0.734  10.230 -1.0283  0.5023  0.1083
  207MPD1     N 3153   2.805   0.860  10.189  0.1143 -0.1772 -0.1541
  207MPD1    H5 3154   2.840   0.793  10.257 -1.4738 -1.1173 -0.2534
  207MPD1    N1 3155   2.427   1.072   9.959 -0.2506  0.0603  0.7952
  207MPD1    H6 3156   2.332   1.107   9.973 -1.2093 -2.6554  1.0216
  207MPD1    H7 3157   2.486   1.149   9.928 -1.8652  1.5645  1.4651
  208MPD1     C 3158   2.075   0.043   0.719  0.0606 -0.0970 -0.3121
  208MPD1    C1 3159   1.942   0.056   0.751  0.4048  0.4713  1.1332
  208MPD1    C2 3160   1.849   4.714   0.672 -0.0467 -0.3875 -0.2568
  208MPD1    C3 3161   1.889   4.649   0.559  0.6955  0.2384  0.7698
  208MPD1    C4 3162   2.018   4.653   0.514  0.1433  0.4064  0.3014
  208MPD1    C5 3163   2.113   4.697   0.606 -0.6401 -0.9597  0.4580
  208MPD1     H 3164   1.748   4.707   0.710 -0.2037  1.6856 -0.2848
  208MPD1    H1 3165   2.053   4.595   0.430 -0.6813  1.3468 -0.6883
  208MPD1    H2 3166   2.150   0.085   0.786 -2.7831  0.5254  2.4461
  208MPD1    H3 3167   2.220   4.684   0.594 -0.6056  0.4079 -0.7055
  208MPD1     N 3168   1.792   4.587   0.483  0.5452 -0.2255  0.0605
  208MPD1    H5 3169   1.694   4.596   0.508  0.4048 -0.1180 -0.5294
  208MPD1    N1 3170   1.903   0.127   0.862 -0.5459  0.0975  0.2555
  208MPD1    H6 3171   1.972   0.198   0.886  0.2976 -0.6747  0.1044
  208MPD1    H7 3172   1.814   0.175   0.853  1.7313  4.1966 -0.3613
  209MPD1     C 3173   3.898   4.329  11.143  0.4437  0.1390 -0.2354
  209MPD1    C1 3174   3.906   4.431  11.233  0.1031 -0.7256  0.0112
  209MPD1    C2 3175   3.864   4.560  11.204  0.0006  0.9036  0.0331
  209MPD1    C3 3176   3.799   4.577  11.084  0.2815  0.5383 -0.1174
  209MPD1    C4 3177   3.790   4.475  10.993 -0.0397  0.0188  0.4151
  209MPD1    C5 3178   3.840   4.349  11.021 -0.1215 -0.2017  0.0282
  209MPD1     H 3179   3.888   4.642  11.271  1.3690  0.0749  0.5600
  209MPD1    H1 3180   3.749   4.497  10.895 -0.0671  0.1124  0.4479
  209MPD1    H2 3181   3.938   4.235  11.179  3.5746  1.8180  0.6175
  209MPD1    H3 3182   3.833   4.276  10.940  0.5528 -0.9484  0.6446
  209MPD1     N 3183   3.739   4.704  11.067  0.3334 -0.2700 -0.1307
  209MPD1    H5 3184   3.764   0.040  11.145  2.0154 -1.5163  0.2897
  209MPD1    N1 3185   3.983   4.414  11.354 -0.2586 -0.1324 -0.5320
  209MPD1    H6 3186   3.967   4.327  11.403 -1.4076 -0.0686 -0.8028
  209MPD1    H7 3187   3.939   4.479  11.419 -1.0133 -0.7259 -0.4507
  210MPD1     C 3188   3.988   0.670  11.496 -0.2933 -1.1316  0.1704
  210MPD1    C1 3189   4.009   0.685  11.363 -0.7404 -0.2207  0.3183
  210MPD1    C2 3190   3.928   0.606  11.274  0.1518 -0.1175  0.6497
  210MPD1    C3 3191   3.826   0.521  11.321  0.1077  0.3711 -0.1605
  210MPD1    C4 3192   3.804   0.518  11.453  0.3085  0.1237  0.0029
  210MPD1    C5 3193   3.877   0.597  11.538 -0.5758  0.2681  0.3579
  210MPD1     H 3194   3.951   0.602  11.168 -0.8368  1.5351  0.3659
  210MPD1    H1 3195   3.736   0.447  11.498  0.2407 -0.2663 -0.7103
  210MPD1    H2 3196   4.044   0.730  11.567 -2.4387 -1.3708  2.0877
  210MPD1    H3 3197   3.863   0.584  11.645  0.2841 -0.1099  0.4204
  210MPD1     N 3198   3.739   0.441  11.237  0.0793 -0.3733 -0.5452
  210MPD1    H5 3199   3.683   0.370  11.283 -1.2805  2.4845  2.1525
  210MPD1    N1 3200   4.137   0.745  11.323 -1.2362 -0.3652  0.0831
  210MPD1    H6 3201   4.134   0.797  11.236  0.6735 -1.3844 -0.5948
  210MPD1    H7 3202   4.174   0.808  11.393 -1.6800 -2.0002  1.7953
  211MPD1     C 3203   1.292   4.363  16.621 -0.0762  0.3463  0.3031
  211MPD1    C1 3204   1.360   4.486  16.608  0.4571 -0.1896 -0.6212
  211MPD1    C2 3205   1.315   4.581  16.518  0.8290  0.3635 -0.4537
  211MPD1    C3 3206   1.216   4.550  16.421  0.6025 -0.1244 -0.1661
  211MPD1    C4 3207   1.153   4.429  16.439 -0.2541 -0.7598 -0.2732
  211MPD1    C5 3208   1.194   4.336  16.531  0.3763  0.3994 -0.2255
  211MPD1     H 3209   1.368   4.675  16.508  0.9958  0.2658 -0.4847
  211MPD1    H1 3210   1.074   4.402  16.370 -1.3119  2.2147 -0.2066
  211MPD1    H2 3211   1.326   4.284  16.687 -0.7277 -0.5830 -0.4668
  211MPD1    H3 3212   1.139   4.243  16.541 -1.7553  1.4987 -1.9348
  211MPD1     N 3213   1.173   4.651  16.334  0.6907  0.2190  0.1190
  211MPD1    H5 3214   1.220   0.016  16.349  0.4584  0.3343  0.1579
  211MPD1    N1 3215   1.453   4.525  16.711 -0.0341  0.1805  0.3112
  211MPD1    H6 3216   1.509   4.446  16.743  0.5095 -0.2009 -1.6342
  211MPD1    H7 3217   1.526   4.580  16.667  0.0206 -0.5518 -0.5081
  212MPD1     C 3218   0.537   2.668  16.384  0.1899  0.0132 -0.2966
  212MPD1    C1 3219   0.524   2.748  16.504  1.0226  0.6286 -0.5897
  212MPD1    C2 3220   0.400   2.765  16.565  0.2164  0.4715 -0.0994
  212MPD1    C3 3221   0.288   2.705  16.499  0.6435  0.5687 -0.5494
  212MPD1    C4 3222   0.303   2.650  16.374 -0.4666  0.0071 -0.7157
  212MPD1    C5 3223   0.427   2.626  16.316  0.6727  0.1995 -0.1361
  212MPD1     H 3224   0.392   2.836  16.646 -0.0115 -1.6208  1.6865
  212MPD1    H1 3225   0.218   2.616  16.316 -1.2520 -0.3359  0.6332
  212MPD1    H2 3226   0.631   2.659  16.331 -0.8271  0.4776 -2.1714
  212MPD1    H3 3227   0.430   2.571  16.222 -2.9358 -0.7368  0.3251
  212MPD1     N 3228   0.155   2.693  16.562 -0.3450 -0.2187 -0.2049
  212MPD1    H5 3229   0.090   2.626  16.521  2.8365 -3.0405 -0.6358
  212MPD1    N1 3230   0.642   2.797  16.567  0.1402  0.4676  0.2231
  212MPD1    H6 3231   0.719   2.808  16.501  0.0477  0.4181  0.1065
  212MPD1    H7 3232   0.632   2.881  16.623 -0.4208  0.5700 -0.0310
  213MPD1     C 3233   3.089   3.880  16.311 -0.0695  0.5898 -0.1615
  213MPD1    C1 3234   3.149   3.764  16.258  0.1690  0.5414 -0.8805
  213MPD1    C2 3235   3.109   3.724  16.133 -0.5920  0.2343  0.0721
  213MPD1    C3 3236   2.986   3.760  16.089  0.7778  0.3725  0.0729
  213MPD1    C4 3237   2.913   3.854  16.159 -0.4112  0.1847 -0.5655
  213MPD1    C5 3238   2.965   3.917  16.268  0.1954  0.0394 -0.8086
  213MPD1     H 3239   3.155   3.644  16.076  0.7866  0.7552  0.4628
  213MPD1    H1 3240   2.810   3.878  16.135  0.4104  1.4207 -2.8292
  213MPD1    H2 3241   3.127   3.911  16.407 -0.0014 -0.9141  0.3037
  213MPD1    H3 3242   2.905   3.991  16.318 -0.3824 -0.1316 -1.2544
  213MPD1     N 3243   2.938   3.702  15.969  0.3410  0.3009  0.1164
  213MPD1    H5 3244   2.982   3.613  15.945  1.2733  1.7351 -3.5025
  213MPD1    N1 3245   3.285   3.745  16.290 -0.3611 -0.4123  0.5743
  213MPD1    H6 3246   3.327   3.653  16.274  0.0216 -0.2415  0.6028
  213MPD1    H7 3247   3.296   3.776  16.386  1.5140  0.2543  0.1496
  214MPD1     C 3248   2.592   2.960  16.081  0.2620 -0.0983 -0.0241
  214MPD1    C1 3249   2.534   2.971  15.953 -0.1356 -0.4979  0.2836
  214MPD1    C2 3250   2.552   3.093  15.883 -0.4710 -0.0594  0.2312
  214MPD1    C3 3251   2.636   3.192  15.940 -0.0660  0.0436  0.1601
  214MPD1    C4 3252   2.700   3.166  16.058  1.0400  0.3548  0.1338
  214MPD1    C5 3253   2.677   3.053  16.125  0.0379  0.4943  0.4824
  214MPD1     H 3254   2.500   3.108  15.790  0.4934  0.6174 -0.1954
  214MPD1    H1 3255   2.778   3.227  16.101  1.2787  0.9286 -1.1065
  214MPD1    H2 3256   2.579   2.872  16.142  0.4322 -0.6992 -0.8570
  214MPD1    H3 3257   2.713   3.050  16.227  1.4501  1.0466  0.0017
  214MPD1     N 3258   2.681   3.305  15.870 -0.3500 -0.1053 -0.2394
  214MPD1    H5 3259   2.759   3.345  15.922 -1.3264  0.2682  0.9494
  214MPD1    N1 3260   2.435   2.876  15.916 -0.7378  0.2386  0.0019
  214MPD1    H6 3261   2.425   2.868  15.815  0.8453  2.7349 -0.3533
  214MPD1    H7 3262   2.464   2.785  15.953  0.9072  0.6949 -0.1637
  215MPD1     C 3263   3.468   4.127  10.850  0.1325  0.1554  0.1161
  215MPD1    C1 3264   3.466   4.259  10.829 -0.0586 -0.1898 -0.4359
  215MPD1    C2 3265   3.470   4.336  10.944 -0.5884  0.3476 -0.2788
  215MPD1    C3 3266   3.450   4.286  11.070 -0.5244 -0.2234 -0.6505
  215MPD1    C4 3267   3.430   4.155  11.089 -0.2046 -0.3061  0.3181
  215MPD1    C5 3268   3.446   4.075  10.983  0.3850  0.2235  0.1712
  215MPD1     H 3269   3.471   4.444  10.935 -0.4889  0.2651 -1.2310
  215MPD1    H1 3270   3.383   4.118  11.180 -1.9004  0.7674 -0.1009
  215MPD1    H2 3271   3.478   4.058  10.767 -0.3423 -1.2513  1.2295
  215MPD1    H3 3272   3.434   3.969  11.002 -0.2513  0.5267  1.4122
  215MPD1     N 3273   3.458   4.374  11.176  0.7470  0.1574  0.2191
  215MPD1    H5 3274   3.473   4.472  11.152 -2.2810  0.6044  0.1923
  215MPD1    N1 3275   3.479   4.314  10.698 -0.7775  0.7488  0.1519
  215MPD1    H6 3276   3.444   4.409  10.685 -1.7353  0.4250  0.3849
  215MPD1    H7 3277   3.460   4.248  10.624 -1.1221  0.2711  0.6706
  216MPD1     C 3278   0.324   2.376  16.597 -0.0055 -0.0023  0.1453
  216MPD1    C1 3279   0.228   2.315  16.668 -1.1902  0.1543  0.0962
  216MPD1    C2 3280   0.163   2.204  16.617 -0.2814  0.1125  0.0690
  216MPD1    C3 3281   0.187   2.154  16.490 -0.0296 -0.5998  0.0553
  216MPD1    C4 3282   0.283   2.226  16.417  0.0880  0.2558 -0.4943
  216MPD1    C5 3283   0.349   2.334  16.475  0.1847  0.2651  0.1072
  216MPD1     H 3284   0.072   2.164  16.659  0.8041 -3.1541 -0.6598
  216MPD1    H1 3285   0.318   2.199  16.318 -1.3796 -1.1742 -0.6332
  216MPD1    H2 3286   0.363   2.470  16.636  0.1051 -0.1701  0.4334
  216MPD1    H3 3287   0.421   2.390  16.416 -0.8134 -1.0402 -2.3686
  216MPD1     N 3288   0.131   2.029  16.449 -0.7303 -0.4999 -0.1713
  216MPD1    H5 3289   0.049   1.992  16.496 -0.5352 -1.3826 -0.5197
  216MPD1    N1 3290   0.186   2.382  16.788 -0.2055  0.2891 -0.0627
  216MPD1    H6 3291   0.128   2.330  16.854 -2.0747  1.1408 -1.0341
  216MPD1    H7 3292   0.251   2.445  16.834  0.4301 -0.5630  0.2187
  217MPD1     C 3293   1.370   0.209   9.082 -0.2864  0.3606  0.0164
  217MPD1    C1 3294   1.464   0.139   9.161  0.8432  0.6180  0.0210
  217MPD1    C2 3295   1.479   0.001   9.138  0.4019  0.7322  0.1669
  217MPD1    C3 3296   1.379   4.646   9.074 -0.6264 -0.8030  0.6945
  217MPD1    C4 3297   1.288   0.001   9.004  0.4767 -0.2425 -0.0026
  217MPD1    C5 3298   1.289   0.136   8.997 -0.3330 -0.4026  0.5383
  217MPD1     H 3299   1.569   4.679   9.178 -0.1717 -0.3541  0.1940
  217MPD1    H1 3300   1.207   4.674   8.951 -1.0402  2.1317  0.0352
  217MPD1    H2 3301   1.365   0.315   9.060 -1.5495 -0.1680 -2.2219
  217MPD1    H3 3302   1.221   0.185   8.928  1.7246  1.4103 -0.2135
  217MPD1     N 3303   1.379   4.508   9.064  0.8461  0.5925 -0.4341
  217MPD1    H5 3304   1.305   4.469   9.007 -1.6257  1.2056  2.3633
  217MPD1    N1 3305   1.569   0.205   9.228  0.4083 -0.1217 -0.0683
  217MPD1    H6 3306   1.544   0.294   9.270  1.6830 -0.3929  1.2835
  217MPD1    H7 3307   1.606   0.151   9.306  0.0903 -0.2357  0.0025
  218MPD1     C 3308   2.141   0.545  12.927  0.2075  0.2128 -0.1124
  218MPD1    C1 3309   2.128   0.478  12.806  0.4321  0.2875 -0.1064
  218MPD1    C2 3310   2.242   0.416  12.761  0.2878  0.4503 -0.5667
  218MPD1    C3 3311   2.360   0.417  12.834  0.3250  0.1968  0.5474
  218MPD1    C4 3312   2.372   0.483  12.954 -0.0483 -0.1105  0.7077
  218MPD1    C5 3313   2.254   0.536  13.005  0.0793 -0.0578 -0.4695
  218MPD1     H 3314   2.232   0.367  12.665 -0.9932  2.1079 -1.2711
  218MPD1    H1 3315   2.465   0.495  13.008  1.1274 -0.7018 -1.1968
  218MPD1    H2 3316   2.060   0.603  12.968  2.8943  3.5060  0.4938
  218MPD1    H3 3317   2.256   0.584  13.102 -0.4001 -1.4901  0.2450
  218MPD1     N 3318   2.471   0.344  12.787  0.2956  0.0420  0.8096
  218MPD1    H5 3319   2.440   0.278  12.716  2.5270  1.2000 -1.2296
  218MPD1    N1 3320   2.018   0.500  12.722 -0.1716  0.4899 -0.0428
  218MPD1    H6 3321   2.009   0.420  12.659  0.8356  0.9241 -0.7400
  218MPD1    H7 3322   1.933   0.510  12.778 -0.1928  0.7382 -0.1203
  219MPD1     C 3323   2.825   4.626  11.948  0.6583 -0.2520  0.5084
  219MPD1    C1 3324   2.714   4.691  11.997  0.2332 -0.1990 -0.3556
  219MPD1    C2 3325   2.716   0.015  12.128  0.2000 -0.4556 -0.5108
  219MPD1    C3 3326   2.823   4.718  12.217  0.5152 -0.0271 -0.0798
  219MPD1    C4 3327   2.929   4.641  12.167 -0.1610 -0.3256 -0.1394
  219MPD1    C5 3328   2.929   4.597  12.035  0.6003  0.1204 -0.0179
  219MPD1     H 3329   2.630   0.074  12.158  0.5417  0.2322 -0.8933
  219MPD1    H1 3330   3.008   4.604  12.231  0.6336  0.2985 -0.7684
  219MPD1    H2 3331   2.847   4.604  11.844 -0.3823  0.0924  0.2118
  219MPD1    H3 3332   3.008   4.531  12.000 -0.5324 -0.6923 -1.0455
  219MPD1     N 3333   2.823   0.039  12.347 -0.1482  0.4883 -0.3248
  219MPD1    H5 3334   2.901   0.006  12.403 -1.4334 -0.4773  0.8930
  219MPD1    N1 3335   2.609   0.003  11.915  0.3782  0.0433  0.3575
  219MPD1    H6 3336   2.519   0.005  11.963  0.6174  1.9725  0.7181
  219MPD1    H7 3337   2.604   4.679  11.826 -3.7845  1.5590 -0.1887
  220MPD1     C 3338   3.096   1.202  10.354 -0.0246  0.5731 -0.1150
  220MPD1    C1 3339   3.202   1.141  10.408  0.4826 -0.1234 -0.1304
  220MPD1    C2 3340   3.179   1.038  10.501  1.2328 -0.3215 -0.2565
  220MPD1    C3 3341   3.055   0.978  10.515 -0.0249  0.3801  0.2644
  220MPD1    C4 3342   2.953   1.041  10.454  0.4584 -0.5741  0.2763
  220MPD1    C5 3343   2.972   1.154  10.383 -0.3072  0.1243  0.5917
  220MPD1     H 3344   3.262   1.004  10.562  0.0785 -0.4704  1.2323
  220MPD1    H1 3345   2.849   1.010  10.463  0.8375 -2.3848 -1.6434
  220MPD1    H2 3346   3.106   1.288  10.288  0.7866  1.1749  0.8014
  220MPD1    H3 3347   2.884   1.208  10.350  0.7419  1.3090 -0.3038
  220MPD1     N 3348   3.053   0.850  10.579  0.3054  0.6141  0.1575
  220MPD1    H5 3349   3.122   0.824  10.649  2.9190 -0.2372 -2.7651
  220MPD1    N1 3350   3.328   1.195  10.396  0.7240  0.5984 -0.4179
  220MPD1    H6 3351   3.347   1.246  10.309  1.5090 -0.8831 -1.1115
  220MPD1    H7 3352   3.398   1.123  10.414  1.0764  0.8551 -0.7546
  221MPD1     C 3353   1.334   3.490  17.291 -0.4018 -0.7358 -0.1400
  221MPD1    C1 3354   1.294   3.392  17.200 -1.0108 -0.0098  0.4363
  221MPD1    C2 3355   1.347   3.397  17.068 -0.3661  0.3077  0.0558
  221MPD1    C3 3356   1.415   3.508  17.027 -0.3106  0.2441  0.2635
  221MPD1    C4 3357   1.447   3.611  17.115  0.1537  0.5874 -0.1068
  221MPD1    C5 3358   1.403   3.598  17.249  0.1387 -0.1819  0.3330
  221MPD1     H 3359   1.315   3.319  17.000 -1.1857 -0.6697  1.5630
  221MPD1    H1 3360   1.512   3.692  17.084 -0.0325  1.3196  1.4106
  221MPD1    H2 3361   1.297   3.483  17.393 -0.8643  0.9609 -0.1892
  221MPD1    H3 3362   1.441   3.674  17.316 -0.6493 -0.5040  1.1466
  221MPD1     N 3363   1.465   3.530  16.894  0.1140  0.2644 -0.3033
  221MPD1    H5 3364   1.506   3.615  16.857 -0.7927  1.1065  0.6359
  221MPD1    N1 3365   1.245   3.268  17.252 -0.3425 -0.2769  0.0061
  221MPD1    H6 3366   1.184   3.226  17.183 -0.4080 -0.8571  0.4154
  221MPD1    H7 3367   1.188   3.281  17.335  1.1810 -0.3364  1.0682
  222MPD1     C 3368   0.429   2.531  16.964  0.5004 -0.1219  0.4490
  222MPD1    C1 3369   0.354   2.457  17.053 -0.5960 -0.1209  0.3456
  222MPD1    C2 3370   0.276   2.521  17.149  0.4107 -0.3268 -0.5694
  222MPD1    C3 3371   0.275   2.662  17.149  0.6743  0.5563  0.9116
  222MPD1    C4 3372   0.354   2.731  17.058  0.2939 -0.2875 -0.3930
  222MPD1    C5 3373   0.418   2.663  16.963 -1.0094  0.7429 -0.1447
  222MPD1     H 3374   0.223   2.460  17.221 -1.0723 -1.5470 -2.6826
  222MPD1    H1 3375   0.365   2.839  17.062  0.0408 -0.2091 -1.9151
  222MPD1    H2 3376   0.487   2.481  16.887 -0.4440 -0.6441  0.0724
  222MPD1    H3 3377   0.485   2.709  16.892  1.3808 -0.5618  1.2455
  222MPD1     N 3378   0.215   2.738  17.250  0.3105 -0.0767  0.3966
  222MPD1    H5 3379   0.226   2.838  17.238 -0.4379 -0.1637 -1.0389
  222MPD1    N1 3380   0.378   2.322  17.062  0.2852  0.3340  0.4351
  222MPD1    H6 3381   0.427   2.277  16.984  0.7197  0.6748  0.5159
  222MPD1    H7 3382   0.285   2.283  17.079 -0.8755  2.3947 -1.2039
  223MPD1     C 3383   4.553   2.766   0.547 -0.3545  0.2469 -0.0346
  223MPD1    C1 3384   4.664   2.844   0.521  0.2403 -0.3207 -0.4865
  223MPD1    C2 3385   4.708   2.863   0.386 -1.0343  0.0198  0.4298
  223MPD1    C3 3386   4.631   2.816   0.288  0.7525  0.2340  0.0192
  223MPD1    C4 3387   4.520   2.739   0.317  0.2278  0.4761 -0.1470
  223MPD1    C5 3388   4.482   2.715   0.444  0.5683  0.4009  0.1217
  223MPD1     H 3389   0.065   2.929   0.358  0.7598 -2.1914  0.4228
  223MPD1    H1 3390   4.455   2.697   0.240 -1.4495  1.3019  0.8244
  223MPD1    H2 3391   4.522   2.748   0.650 -0.1592  2.2492  0.3787
  223MPD1    H3 3392   4.399   2.650   0.472 -0.7107  1.2948 -1.5798
  223MPD1     N 3393   4.661   2.856   0.152  0.8396 -0.7586  0.0224
  223MPD1    H5 3394   0.016   2.918   0.133  0.2530 -0.4901 -1.4980
  223MPD1    N1 3395   0.017   2.884   0.631 -0.0015  0.4655 -0.6248
  223MPD1    H6 3396   4.688   2.890   0.718  0.3186  1.5376 -0.4937
  223MPD1    H7 3397   0.072   2.968   0.613  2.6605 -0.7497  1.8805
  224MPD1     C 3398   2.001   0.527   9.228  0.1633 -0.6889 -0.2958
  224MPD1    C1 3399   2.113   0.461   9.282 -1.0517 -0.0746 -0.1324
  224MPD1    C2 3400   2.095   0.345   9.353  1.0242  0.4332  0.4264
  224MPD1    C3 3401   1.969   0.300   9.382  0.4244  0.4393 -0.8092
  224MPD1    C4 3402   1.860   0.375   9.349  0.3964  0.0463 -0.2670
  224MPD1    C5 3403   1.879   0.486   9.274 -0.4803 -0.3905 -0.1243
  224MPD1     H 3404   2.180   0.282   9.378 -0.6566 -1.9365  0.1769
  224MPD1    H1 3405   1.757   0.351   9.374  0.6671  0.4683  1.2709
  224MPD1    H2 3406   2.019   0.599   9.149  0.4290 -0.0632  0.3354
  224MPD1    H3 3407   1.799   0.543   9.229 -1.0945 -1.0302  0.1544
  224MPD1     N 3408   1.944   0.183   9.463  0.1963 -0.0555  0.3341
  224MPD1    H5 3409   1.849   0.153   9.484  0.1579  0.1984  0.5247
  224MPD1    N1 3410   2.242   0.491   9.232 -0.1767 -0.4095 -0.0158
  224MPD1    H6 3411   2.252   0.592   9.238 -1.3623 -0.1362 -2.5448
  224MPD1    H7 3412   2.317   0.455   9.290  1.6471  1.2051 -1.3583
  225MPD1     C 3413   2.833   0.659  12.571 -0.4729  0.1940 -0.0603
  225MPD1    C1 3414   2.855   0.752  12.475  0.3991 -0.2917 -0.1000
  225MPD1    C2 3415   2.751   0.796  12.407  0.1078 -0.0349  0.2915
  225MPD1    C3 3416   2.636   0.712  12.388  0.9845 -0.1376  0.1532
  225MPD1    C4 3417   2.629   0.593  12.462 -0.7591 -0.8602  0.4825
  225MPD1    C5 3418   2.724   0.579  12.562  0.1481  0.2455 -0.3295
  225MPD1     H 3419   2.765   0.874  12.333  1.9034  0.2951  0.9697
  225MPD1    H1 3420   2.545   0.524  12.456  0.6865 -2.5181 -0.5052
  225MPD1    H2 3421   2.903   0.657  12.653 -0.2673 -0.8310 -0.2727
  225MPD1    H3 3422   2.720   0.499  12.635  1.2111  0.5976  0.1239
  225MPD1     N 3423   2.525   0.729  12.300  0.3075 -0.0513  0.6253
  225MPD1    H5 3424   2.460   0.651  12.299  1.7816 -1.2761  0.6387
  225MPD1    N1 3425   2.965   0.837  12.478  0.1711 -0.1529 -0.4623
  225MPD1    H6 3426   3.041   0.774  12.504  1.0157  1.4211  0.8253
  225MPD1    H7 3427   2.979   0.882  12.388 -0.8148 -1.9249 -1.5200
  226MPD1     C 3428   0.334   0.251   9.499 -0.6823 -0.4434  0.2352
  226MPD1    C1 3429   0.405   0.373   9.473 -0.1320 -0.4873  0.4062
  226MPD1    C2 3430   0.542   0.360   9.436 -0.3495 -0.0668  0.3583
  226MPD1    C3 3431   0.604   0.237   9.437  0.7648  0.1920  0.1892
  226MPD1    C4 3432   0.530   0.124   9.480 -0.1505  0.4386 -0.2809
  226MPD1    C5 3433   0.397   0.130   9.505  0.1057 -0.0480 -0.3798
  226MPD1     H 3434   0.604   0.441   9.400 -0.4960  0.0353  0.3354
  226MPD1    H1 3435   0.583   0.030   9.475  0.6138  0.6386  3.9695
  226MPD1    H2 3436   0.227   0.253   9.512 -0.9121 -2.1500 -1.5012
  226MPD1    H3 3437   0.343   0.043   9.540  0.3493 -1.0555 -2.5162
  226MPD1     N 3438   0.741   0.240   9.404 -0.1306 -0.3228  0.1682
  226MPD1    H5 3439   0.773   0.329   9.366  1.9262 -1.4205 -0.7419
  226MPD1    N1 3440   0.328   0.493   9.460 -0.2668 -0.5488 -0.0588
  226MPD1    H6 3441   0.383   0.577   9.478 -0.1938  0.0048 -2.8225
  226MPD1    H7 3442   0.245   0.503   9.518 -0.6249 -1.0834 -0.4796
  227MPD1     C 3443   1.313   4.136   9.428  0.4899  0.0027  0.9532
  227MPD1    C1 3444   1.208   4.167   9.348 -0.1335  0.4930 -0.4324
  227MPD1    C2 3445   1.170   4.298   9.338  0.2295 -0.3032  0.2774
  227MPD1    C3 3446   1.242   4.402   9.404 -0.5626 -0.3279  0.1556
  227MPD1    C4 3447   1.341   4.364   9.499 -0.0044 -0.4072 -0.4369
  227MPD1    C5 3448   1.372   4.228   9.507  0.6568  0.0735 -0.1695
  227MPD1     H 3449   1.089   4.319   9.270  1.6572  0.1939 -1.2673
  227MPD1    H1 3450   1.410   4.430   9.548  0.4596 -0.2843 -1.2562
  227MPD1    H2 3451   1.353   4.037   9.442  2.4078  0.7733  0.9128
  227MPD1    H3 3452   1.458   4.203   9.568  0.5161  0.7559  0.3020
  227MPD1     N 3453   1.194   4.531   9.388  1.1873 -0.2348  0.3015
  227MPD1    H5 3454   1.116   4.551   9.326 -1.9906 -1.9179  3.7367
  227MPD1    N1 3455   1.147   4.070   9.272 -0.3264  0.6032  0.8360
  227MPD1    H6 3456   1.149   4.086   9.172  3.9884  1.0538  0.9570
  227MPD1    H7 3457   1.172   3.973   9.289  1.4800  0.8414 -0.5296
  228MPD1     C 3458   4.374   3.793  13.542  0.0651  0.6842 -1.1746
  228MPD1    C1 3459   4.263   3.875  13.573  0.7504 -0.1257 -0.6102
  228MPD1    C2 3460   4.131   3.824  13.546  0.4700  0.1914  0.8453
  228MPD1    C3 3461   4.119   3.701  13.486  0.1221  0.3830  0.0728
  228MPD1    C4 3462   4.233   3.625  13.465 -0.2697 -0.5098  0.4169
  228MPD1    C5 3463   4.357   3.669  13.490 -1.0088 -0.0064 -0.8235
  228MPD1     H 3464   4.043   3.881  13.571  1.0006  1.7177 -0.7929
  228MPD1    H1 3465   4.236   3.518  13.444 -0.7112 -0.4777  0.1849
  228MPD1    H2 3466   4.473   3.819  13.575 -1.6089  3.8458  1.3083
  228MPD1    H3 3467   4.444   3.608  13.472 -1.0189 -0.5630  1.0140
  228MPD1     N 3468   3.990   3.660  13.447 -0.4125 -0.6935  0.1889
  228MPD1    H5 3469   3.914   3.726  13.458  1.2023  1.2315 -0.2055
  228MPD1    N1 3470   4.283   3.988  13.654 -0.5859 -0.0458  0.0109
  228MPD1    H6 3471   4.362   4.048  13.634 -0.8989  0.4584  0.2883
  228MPD1    H7 3472   4.201   4.042  13.680 -0.6362 -0.2499  0.2714
  229MPD1     C 3473   3.927   2.235  14.655 -1.1121 -0.0492 -0.3626
  229MPD1    C1 3474   3.832   2.206  14.744 -0.1440 -0.5262 -0.0632
  229MPD1    C2 3475   3.806   2.072  14.782 -0.3236 -0.3636 -0.5880
  229MPD1    C3 3476   3.874   1.962  14.727 -0.0309 -0.5095  0.2257
  229MPD1    C4 3477   3.972   2.000  14.636  0.1964 -0.5388  1.5844
  229MPD1    C5 3478   4.005   2.133  14.608  0.0556 -0.1880  0.5251
  229MPD1     H 3479   3.718   2.053  14.842 -0.0192 -1.0260 -0.3465
  229MPD1    H1 3480   4.034   1.924  14.590  0.6146  1.3290 -0.9437
  229MPD1    H2 3481   3.946   2.336  14.620  1.8890 -0.3902  0.2376
  229MPD1    H3 3482   4.090   2.158  14.545 -0.8829  1.0419 -0.2362
  229MPD1     N 3483   3.860   1.828  14.756  1.1591  0.2358  0.2959
  229MPD1    H5 3484   3.919   1.764  14.704  1.1099  0.4947 -0.0832
  229MPD1    N1 3485   3.733   2.304  14.772 -0.5854 -0.7499  0.5529
  229MPD1    H6 3486   3.767   2.400  14.773 -0.9893 -0.5810 -1.4981
  229MPD1    H7 3487   3.686   2.291  14.861 -1.7298  3.6735  0.5678
  230MPD1     C 3488   3.727   1.008  15.466 -0.7028 -0.4154 -0.2693
  230MPD1    C1 3489   3.716   0.953  15.342  0.3098  0.3349 -0.0164
  230MPD1    C2 3490   3.739   1.032  15.230  0.4475 -0.0718 -0.9226
  230MPD1    C3 3491   3.778   1.168  15.239 -0.4314 -0.5665  0.2415
  230MPD1    C4 3492   3.804   1.213  15.360 -0.4628  0.7321 -0.9975
  230MPD1    C5 3493   3.778   1.137  15.473  0.0548 -0.9241  0.1723
  230MPD1     H 3494   3.734   0.983  15.133  0.1074 -0.7045 -0.5850
  230MPD1    H1 3495   3.839   1.313  15.383 -1.5871  0.9314 -0.1454
  230MPD1    H2 3496   3.696   0.953  15.554 -3.7289  1.9143  0.1438
  230MPD1    H3 3497   3.783   1.183  15.571 -0.6987  0.4510 -0.4407
  230MPD1     N 3498   3.781   1.254  15.125  0.6302  0.4654 -0.5829
  230MPD1    H5 3499   3.792   1.207  15.036 -0.6110  1.6390 -1.3658
  230MPD1    N1 3500   3.648   0.830  15.327 -0.7216 -0.2683 -0.8299
  230MPD1    H6 3501   3.654   0.764  15.404 -2.5876  2.1531  1.3869
  230MPD1    H7 3502   3.676   0.771  15.249  0.0801  1.0929 -1.5604
  231MPD1     C 3503   2.306   3.677  15.548  0.4433  0.0525  0.0417
  231MPD1    C1 3504   2.235   3.678  15.422 -0.5345  0.2025 -0.2720
  231MPD1    C2 3505   2.279   3.773  15.329  0.5411 -0.1743 -0.2985
  231MPD1    C3 3506   2.373   3.873  15.361  0.3797  0.1926  0.6133
  231MPD1    C4 3507   2.426   3.868  15.488 -0.1986  0.5293 -0.2480
  231MPD1    C5 3508   2.392   3.772  15.582 -0.0084  0.2215  0.3187
  231MPD1     H 3509   2.242   3.773  15.227  0.1429 -0.7861 -0.1538
  231MPD1    H1 3510   2.509   3.935  15.506 -1.4057  1.2478  2.5938
  231MPD1    H2 3511   2.281   3.604  15.624  0.3763  0.8765  0.8114
  231MPD1    H3 3512   2.432   3.761  15.682  0.6926  3.2375  0.3617
  231MPD1     N 3513   2.418   3.965  15.266 -0.7614 -0.3844 -0.8127
  231MPD1    H5 3514   2.366   3.971  15.179 -0.9876 -2.4783 -0.8327
  231MPD1    N1 3515   2.167   3.561  15.379  0.0902  0.2099 -0.2243
  231MPD1    H6 3516   2.116   3.523  15.459 -1.0265  2.4056  0.1057
  231MPD1    H7 3517   2.098   3.580  15.307  0.6019 -0.3958 -0.8816
  232MPD1     C 3518   4.440   1.409  17.605  0.2466 -0.5209 -0.5012
  232MPD1    C1 3519   4.402   1.522  17.674 -0.7060  0.2986  0.1136
  232MPD1    C2 3520   4.265   1.554  17.664 -1.3921 -0.8007  0.3378
  232MPD1    C3 3521   4.177   1.467  17.607  0.7663 -0.6707 -0.7920
  232MPD1    C4 3522   4.220   1.354  17.548  0.2705 -0.3646 -0.6746
  232MPD1    C5 3523   4.351   1.324  17.552 -0.4413 -0.2596 -0.6697
  232MPD1     H 3524   4.230   1.648   0.009 -1.1698 -1.4890  2.0354
  232MPD1    H1 3525   4.150   1.287  17.498 -1.9557 -0.4483  2.5500
  232MPD1    H2 3526   4.547   1.390  17.595  0.5262  1.5474 -1.2692
  232MPD1    H3 3527   4.383   1.226  17.519  0.6412  0.0905 -0.6643
  232MPD1     N 3528   4.042   1.499  17.608 -0.0306  0.4259 -0.4868
  232MPD1    H5 3529   4.024   1.573  17.676 -2.1855 -0.4831 -0.0657
  232MPD1    N1 3530   4.498   1.614   0.027  0.0781 -0.0053 -0.3351
  232MPD1    H6 3531   4.586   1.574   0.059  0.7397  1.6719 -0.0541
  232MPD1    H7 3532   4.453   1.663   0.104  0.0305  0.9232 -0.9572
  233MPD1     C 3533   4.124   0.803   1.124  0.5383 -0.6653 -0.0043
  233MPD1    C1 3534   4.234   0.822   1.042  0.0702 -0.3949 -0.2800
  233MPD1    C2 3535   4.317   0.725   1.016  0.4456 -0.2535 -0.0277
  233MPD1    C3 3536   4.291   0.601   1.067 -0.6033 -0.2410  0.7888
  233MPD1    C4 3537   4.182   0.580   1.142  1.0165  0.2793  0.7575
  233MPD1    C5 3538   4.100   0.684   1.182  0.2696 -0.0924 -0.1601
  233MPD1     H 3539   4.402   0.738   0.951 -0.2562  1.1968 -0.6456
  233MPD1    H1 3540   4.165   0.478   1.173 -1.9484 -0.6633 -4.0093
  233MPD1    H2 3541   4.060   0.887   1.149 -0.7916 -1.7016  0.0913
  233MPD1    H3 3542   4.012   0.654   1.238  1.1432 -0.0783  1.2094
  233MPD1     N 3543   4.365   0.485   1.029 -0.2784 -0.0901  0.2220
  233MPD1    H5 3544   4.337   0.399   1.074 -1.9405  1.0244  1.3063
  233MPD1    N1 3545   4.256   0.954   0.997  0.3383  0.6270  0.6654
  233MPD1    H6 3546   4.349   0.993   0.996 -0.2392  1.9625  0.1403
  233MPD1    H7 3547   4.186   1.022   1.028 -0.5386 -0.0196  0.1178
  234MPD1     C 3548   2.263   2.840   9.354  0.9166 -0.0828  0.1003
  234MPD1    C1 3549   2.246   2.934   9.250 -0.4720 -0.9239 -0.1796
  234MPD1    C2 3550   2.224   3.069   9.280  0.0516  0.0317  0.4639
  234MPD1    C3 3551   2.199   3.120   9.404  0.2589  0.1009 -0.2880
  234MPD1    C4 3552   2.200   3.023   9.503  0.3844  0.1357 -0.3438
  234MPD1    C5 3553   2.238   2.890   9.479 -0.5373 -0.5593  0.2402
  234MPD1     H 3554   2.244   3.135   9.197 -0.8600 -1.1510 -0.6948
  234MPD1    H1 3555   2.185   3.050   9.607 -0.5918  0.6667 -0.6236
  234MPD1    H2 3556   2.284   2.734   9.347 -0.8044 -0.4660  0.8928
  234MPD1    H3 3557   2.247   2.815   9.556 -0.4757  0.1334  0.9168
  234MPD1     N 3558   2.174   3.253   9.410 -0.4937 -0.2171  0.1226
  234MPD1    H5 3559   2.174   3.309   9.325 -1.5346 -4.3338 -2.5722
  234MPD1    N1 3560   2.291   2.897   9.120  0.4125 -0.9574 -0.1005
  234MPD1    H6 3561   2.239   2.939   9.044  0.1660 -1.0480  0.0188
  234MPD1    H7 3562   2.289   2.797   9.098  1.2513 -0.9977  0.0158
  235MPD1     C 3563   3.189   1.352  10.956  0.2505 -0.2860 -0.8088
  235MPD1    C1 3564   3.152   1.305  10.829  0.8663  0.1680 -0.0735
  235MPD1    C2 3565   3.229   1.336  10.717 -0.9682  0.3430  0.6009
  235MPD1    C3 3566   3.331   1.425  10.725 -0.3746 -0.2028  0.6048
  235MPD1    C4 3567   3.345   1.487  10.847 -0.5936 -0.0484  0.2872
  235MPD1    C5 3568   3.279   1.451  10.957  0.0260  0.1046 -0.5534
  235MPD1     H 3569   3.215   1.287  10.621  1.3169 -1.9702  1.4426
  235MPD1    H1 3570   3.410   1.573  10.856 -0.4849  0.0424 -1.2462
  235MPD1    H2 3571   3.139   1.312  11.044  0.8096 -1.2067 -0.9132
  235MPD1    H3 3572   3.313   1.490  11.052  2.2845 -0.0175 -1.2930
  235MPD1     N 3573   3.414   1.456  10.612 -0.3749 -0.3669  0.8331
  235MPD1    H5 3574   3.385   1.411  10.526  0.5836  0.8791 -0.1412
  235MPD1    N1 3575   3.073   1.191  10.818  0.3287 -0.3761 -0.0235
  235MPD1    H6 3576   3.001   1.186  10.890  0.6039 -3.9257 -0.0340
  235MPD1    H7 3577   3.030   1.198  10.726 -0.8813  0.6061  0.6130
  236MPD1     C 3578   3.145   2.504   9.914  0.7026  0.3397 -0.0579
  236MPD1    C1 3579   3.006   2.485   9.919  0.0318  0.6983  0.6552
  236MPD1    C2 3580   2.953   2.389   9.997 -0.4463  0.6796 -0.6304
  236MPD1    C3 3581   3.035   2.299  10.061  0.4828  0.3620  0.2661
  236MPD1    C4 3582   3.166   2.321  10.062  0.5823  0.2203 -0.2581
  236MPD1    C5 3583   3.227   2.420   9.984  0.6304 -0.0886 -0.4448
  236MPD1     H 3584   2.845   2.384  10.005 -0.3250  0.2863  0.7249
  236MPD1    H1 3585   3.238   2.265  10.121 -0.9694  0.1472  1.5551
  236MPD1    H2 3586   3.178   2.594   9.861 -0.0566  0.5653 -0.1400
  236MPD1    H3 3587   3.335   2.428   9.974  0.5529  2.3155  0.4866
  236MPD1     N 3588   2.972   2.197  10.143  0.3281 -0.2458 -0.5265
  236MPD1    H5 3589   3.027   2.144  10.209 -0.9758 -1.5398 -0.4602
  236MPD1    N1 3590   2.917   2.573   9.859  0.1297 -0.0264 -0.0253
  236MPD1    H6 3591   2.830   2.535   9.822 -0.7881  1.3054  0.7522
  236MPD1    H7 3592   2.947   2.630   9.780  0.5875 -0.7086 -0.3388
  237MPD1     C 3593   0.794   0.873  15.037  0.4664 -0.0259  0.2927
  237MPD1    C1 3594   0.868   0.986  14.985  0.8567  0.4676  0.2744
  237MPD1    C2 3595   1.007   0.984  14.990  0.3547  0.8732 -0.1618
  237MPD1    C3 3596   1.069   0.861  15.008 -0.4959 -0.0831  0.1530
  237MPD1    C4 3597   0.998   0.748  15.046 -0.6110 -0.2978  0.9018
  237MPD1    C5 3598   0.862   0.762  15.073  0.2591  0.2267  0.4332
  237MPD1     H 3599   1.057   1.080  14.990  0.5572  0.7848  3.0754
  237MPD1    H1 3600   1.039   0.648  15.044  1.3124  0.5146 -0.1857
  237MPD1    H2 3601   0.686   0.868  15.042  0.3608  1.0148 -0.8069
  237MPD1    H3 3602   0.803   0.678  15.110 -0.4582  0.5460  0.0134
  237MPD1     N 3603   1.203   0.831  14.977 -0.0583 -0.0702  0.3245
  237MPD1    H5 3604   1.235   0.739  15.005  1.0408  0.4543  0.8053
  237MPD1    N1 3605   0.799   1.108  14.970 -0.5070 -0.1167 -0.3329
  237MPD1    H6 3606   0.852   1.176  14.916 -1.1471  0.4219 -0.2858
  237MPD1    H7 3607   0.706   1.097  14.930 -0.3110 -3.2746  0.0855
  238MPD1     C 3608   3.715   4.207  15.821 -0.0186  0.1064  0.5231
  238MPD1    C1 3609   3.790   4.120  15.744  0.0644 -0.9927 -0.4884
  238MPD1    C2 3610   3.726   4.055  15.639  0.3764 -0.1732 -0.5151
  238MPD1    C3 3611   3.595   4.088  15.609  0.1501 -0.3099  0.6747
  238MPD1    C4 3612   3.529   4.177  15.686  0.0546 -0.3281  0.2137
  238MPD1    C5 3613   3.585   4.235  15.793  0.2207 -0.3131  0.2542
  238MPD1     H 3614   3.791   3.979  15.599  2.2885  0.7253  0.8631
  238MPD1    H1 3615   3.428   4.212  15.666  0.0542  0.4242  1.5026
  238MPD1    H2 3616   3.761   4.257  15.906 -0.2152  1.6719 -0.3128
  238MPD1    H3 3617   3.533   4.315  15.845  0.0182  1.2200 -2.2762
  238MPD1     N 3618   3.529   4.022  15.502  0.1670 -0.0541  0.4447
  238MPD1    H5 3619   3.432   4.046  15.485  0.5010  0.6714 -0.4516
  238MPD1    N1 3620   3.922   4.084  15.782 -0.2608  0.1096  0.2780
  238MPD1    H6 3621   3.992   4.158  15.787  1.1499 -1.3789  2.9259
  238MPD1    H7 3622   3.961   4.016  15.717  2.4125  0.5381  1.4154
  239MPD1     C 3623   4.124   3.941  14.965  0.6746  0.2852  0.2131
  239MPD1    C1 3624   4.120   4.058  15.035  0.6046 -0.0672  0.3491
  239MPD1    C2 3625   4.115   4.179  14.965  0.6912  0.2902 -0.0775
  239MPD1    C3 3626   4.115   4.178  14.827  0.5098  0.4452 -0.0601
  239MPD1    C4 3627   4.131   4.064  14.755  0.6791  0.1591  0.4270
  239MPD1    C5 3628   4.131   3.944  14.827 -0.0242  0.0014  0.1521
  239MPD1     H 3629   4.093   4.269  15.021 -1.3418  0.0672 -0.4951
  239MPD1    H1 3630   4.122   4.070  14.647  2.0880 -0.4571  0.2726
  239MPD1    H2 3631   4.116   3.843  15.011 -4.0551  0.2043 -0.8459
  239MPD1    H3 3632   4.136   3.852  14.771  0.9813  0.9267 -1.3027
  239MPD1     N 3633   4.079   4.283  14.744  0.3660 -0.2974 -0.0974
  239MPD1    H5 3634   4.076   4.263  14.645 -1.8007 -1.1907  0.1399
  239MPD1    N1 3635   4.123   4.053  15.173  0.0383  0.1081  0.0416
  239MPD1    H6 3636   4.113   3.959  15.210 -1.5850  0.2209 -0.1230
  239MPD1    H7 3637   4.045   4.104  15.214  0.0698 -0.6032  0.9722
  240MPD1     C 3638   3.134   0.135  14.175  0.4028 -0.3103  0.1469
  240MPD1    C1 3639   3.218   0.029  14.148 -0.4454  0.6981  0.0460
  240MPD1    C2 3640   3.197   4.630  14.199 -0.0208 -0.0506 -0.4930
  240MPD1    C3 3641   3.094   4.612  14.292 -0.0164  0.2355  0.1707
  240MPD1    C4 3642   3.001   4.711  14.316  0.3400 -0.3957  0.2053
  240MPD1    C5 3643   3.022   0.109  14.252 -0.0585 -0.2716 -0.2337
  240MPD1     H 3644   3.273   4.553  14.193 -0.8939 -1.0831  1.9286
  240MPD1    H1 3645   2.923   4.696  14.390 -0.7761 -2.0727 -1.3008
  240MPD1    H2 3646   3.164   0.235  14.146 -0.8215 -0.7462 -2.5911
  240MPD1    H3 3647   2.969   0.199  14.282 -1.2893 -0.0849 -2.9418
  240MPD1     N 3648   3.096   4.487  14.364 -0.5383 -0.2518 -0.4407
  240MPD1    H5 3649   3.144   4.405  14.330 -1.2982 -0.4091 -1.1218
  240MPD1    N1 3650   3.330   0.049  14.070 -0.0584  0.0404 -0.1339
  240MPD1    H6 3651   3.365   4.684  14.033  0.3125 -0.0138  0.3525
  240MPD1    H7 3652   3.312   0.122  14.001 -0.0736 -1.1909 -1.4467
  241MPD1     C 3653   3.756   4.297  14.965 -0.7956 -0.3539  0.0249
  241MPD1    C1 3654   3.707   4.174  14.935  0.3756  0.0297 -0.1552
  241MPD1    C2 3655   3.591   4.162  14.864  0.4297 -0.4648 -0.2399
  241MPD1    C3 3656   3.529   4.282  14.823 -0.4922 -0.2404  0.3529
  241MPD1    C4 3657   3.590   4.402  14.836  0.1571 -0.1426 -0.1146
  241MPD1    C5 3658   3.697   4.409  14.916 -0.7233  0.3460 -0.1401
  241MPD1     H 3659   3.540   4.067  14.867 -0.5804  0.0475 -1.3655
  241MPD1    H1 3660   3.550   4.490  14.787  0.8420  1.4214  2.1131
  241MPD1    H2 3661   3.846   4.302  15.026 -1.3265 -3.9984  1.1443
  241MPD1    H3 3662   3.749   4.502  14.937 -1.2798  0.7141 -0.4077
  241MPD1     N 3663   3.400   4.283  14.757 -0.0403 -0.0403  0.0025
  241MPD1    H5 3664   3.364   4.369  14.718 -2.7453 -0.4270  1.6276
  241MPD1    N1 3665   3.756   4.058  15.002 -0.3994 -0.1842  0.5738
  241MPD1    H6 3666   3.740   3.971  14.950  1.4081 -0.4972  0.5365
  241MPD1    H7 3667   3.858   4.062  15.009 -0.5627  1.6646  1.7174
  242MPD1     C 3668   3.955   3.027  16.031 -0.1763  0.0947 -0.3711
  242MPD1    C1 3669   3.936   2.901  16.094 -0.3906  1.1717  0.7143
  242MPD1    C2 3670   3.929   2.795  16.003 -0.5978  0.3884 -0.1549
  242MPD1    C3 3671   3.947   2.808  15.864  0.0755 -0.7064  0.0473
  242MPD1    C4 3672   3.959   2.938  15.812 -0.0323  0.3441 -0.5135
  242MPD1    C5 3673   3.970   3.046  15.900 -0.4175 -0.9207  0.3488
  242MPD1     H 3674   3.913   2.691  16.030  1.6598  0.0822 -0.0319
  242MPD1    H1 3675   3.958   2.953  15.704 -0.2264 -1.4127 -0.7521
  242MPD1    H2 3676   3.946   3.118  16.088 -2.8912  0.0367 -0.7163
  242MPD1    H3 3677   3.994   3.147  15.867  0.5688 -1.2129  0.1651
  242MPD1     N 3678   3.953   2.708  15.768  0.2355 -0.1560  0.2564
  242MPD1    H5 3679   3.965   2.733  15.671  0.3748  0.0380  0.3226
  242MPD1    N1 3680   3.894   2.898  16.221 -0.2224 -0.3826 -0.2067
  242MPD1    H6 3681   3.931   2.962  16.290  0.2679  0.1498 -0.9772
  242MPD1    H7 3682   3.885   2.807  16.267  0.3899 -0.1464  0.3619
  243MPD1     C 3683   0.960   1.900  16.855  0.2023 -0.2561 -0.2931
  243MPD1    C1 3684   0.876   1.942  16.750  0.5574  0.1681 -0.0622
  243MPD1    C2 3685   0.788   1.849  16.694 -0.1927 -0.3037  0.1552
  243MPD1    C3 3686   0.782   1.722  16.751 -0.4017  0.4951  0.0597
  243MPD1    C4 3687   0.861   1.679  16.854 -0.2182  0.1280  0.3714
  243MPD1    C5 3688   0.949   1.772  16.899  0.1831 -0.3725 -0.4735
  243MPD1     H 3689   0.724   1.877  16.612  0.1164  0.3135  0.1283
  243MPD1    H1 3690   0.886   1.578  16.883 -0.5672 -0.0743 -0.0421
  243MPD1    H2 3691   1.032   1.965  16.903 -2.2730  1.8449  0.6105
  243MPD1    H3 3692   1.017   1.745  16.980  0.1944 -0.3118 -0.4630
  243MPD1     N 3693   0.697   1.631  16.687  0.5754 -1.0747 -0.2910
  243MPD1    H5 3694   0.645   1.676  16.612 -0.3750 -0.9324  0.4508
  243MPD1    N1 3695   0.896   2.058  16.683 -0.5798  0.3936 -0.1628
  243MPD1    H6 3696   0.810   2.092  16.639  0.0713  0.5181 -1.3267
  243MPD1    H7 3697   0.931   2.131  16.744 -1.0401  1.5254 -1.2467
  244MPD1     C 3698   0.008   1.000  16.969  0.4041 -0.3367 -0.2490
  244MPD1    C1 3699   0.123   1.036  17.028 -0.9086  0.8861  0.0143
  244MPD1    C2 3700   0.221   1.083  16.944 -0.0807 -0.0251  0.5483
  244MPD1    C3 3701   0.202   1.115  16.810 -0.0176  0.5690  0.1493
  244MPD1    C4 3702   0.076   1.086  16.753 -0.4585 -0.1084  0.6712
  244MPD1    C5 3703   4.704   1.036  16.838 -0.4984 -0.6889  0.6135
  244MPD1     H 3704   0.316   1.111  16.987  0.7978  0.0791 -1.4729
  244MPD1    H1 3705   0.051   1.110  16.650  2.1299 -1.2299 -0.2126
  244MPD1    H2 3706   4.650   0.954  17.024  0.3710  0.8698  0.7120
  244MPD1    H3 3707   4.604   1.013  16.802  0.5333 -0.9781 -2.0695
  244MPD1     N 3708   0.315   1.165  16.740  0.2278 -0.1460 -0.0340
  244MPD1    H5 3709   0.404   1.170  16.788  0.1421  0.3447  0.0791
  244MPD1    N1 3710   0.151   1.007  17.161 -0.1856  0.2610 -0.3639
  244MPD1    H6 3711   0.235   1.052  17.199 -1.0693  0.1837  1.7099
  244MPD1    H7 3712   0.077   1.035  17.225 -1.1530 -0.7631 -1.0432
  245MPD1     C 3713   2.345   1.416  13.025 -0.3462 -0.0925  0.6987
  245MPD1    C1 3714   2.239   1.506  13.045 -0.4251 -0.7036  0.0424
  245MPD1    C2 3715   2.274   1.630  13.099  0.6156  0.1395 -0.7160
  245MPD1    C3 3716   2.398   1.652  13.160 -0.3850 -0.0079 -0.0100
  245MPD1    C4 3717   2.495   1.552  13.148 -0.9063  0.1266  0.2636
  245MPD1    C5 3718   2.469   1.437  13.078  0.1749 -0.4280 -0.0881
  245MPD1     H 3719   2.194   1.703  13.104 -1.0745 -1.8634  1.3202
  245MPD1    H1 3720   2.596   1.561  13.186 -0.6340 -0.1358 -0.4041
  245MPD1    H2 3721   2.331   1.321  12.974  1.1563  0.6622 -1.0791
  245MPD1    H3 3722   2.544   1.360  13.064  1.6499  0.7583  1.3963
  245MPD1     N 3723   2.419   1.768  13.236  0.2460  0.0596 -0.1670
  245MPD1    H5 3724   2.340   1.832  13.233  0.1570 -0.1617 -2.3640
  245MPD1    N1 3725   2.114   1.487  12.986 -0.3210  0.1923  0.6715
  245MPD1    H6 3726   2.087   1.389  12.985  0.0642  0.0974 -0.8351
  245MPD1    H7 3727   2.041   1.542  13.029 -0.6627 -0.6332  1.1448
  246MPD1     C 3728   2.977   1.566   9.718 -0.2374  0.4196 -0.5583
  246MPD1    C1 3729   3.031   1.579   9.591 -0.3959 -0.2793 -0.3085
  246MPD1    C2 3730   2.978   1.674   9.505 -0.0600  1.1862  0.1831
  246MPD1    C3 3731   2.873   1.751   9.541  0.1472 -0.8497  0.9352
  246MPD1    C4 3732   2.812   1.728   9.666  0.0031 -0.4239  0.1374
  246MPD1    C5 3733   2.869   1.637   9.753 -0.3998 -0.5222  0.6680
  246MPD1     H 3734   3.022   1.687   9.407  0.7606 -1.6830  0.1681
  246MPD1    H1 3735   2.734   1.795   9.702 -0.4596 -0.9999  0.2140
  246MPD1    H2 3736   3.029   1.507   9.792 -1.9265 -0.3271  0.0147
  246MPD1    H3 3737   2.835   1.643   9.855  0.6149 -1.0495  1.0426
  246MPD1     N 3738   2.837   1.858   9.458  0.3997 -0.6489 -0.2202
  246MPD1    H5 3739   2.889   1.867   9.371 -0.2285  0.7411 -0.4372
  246MPD1    N1 3740   3.118   1.471   9.554 -0.5370 -0.7193 -0.0378
  246MPD1    H6 3741   3.185   1.486   9.479 -0.3976  0.8480  0.4020
  246MPD1    H7 3742   3.164   1.430   9.635  2.1524  0.6196 -0.8693
  247MPD1     C 3743   1.572   1.230  15.986 -0.0299  0.1469  0.3609
  247MPD1    C1 3744   1.571   1.238  15.852  0.4317 -0.3545  0.3361
  247MPD1    C2 3745   1.641   1.149  15.774 -0.3585  0.1849  0.3148
  247MPD1    C3 3746   1.753   1.078  15.825  0.5963 -0.2850  0.6580
  247MPD1    C4 3747   1.766   1.090  15.963 -0.3633 -0.3552  0.4753
  247MPD1    C5 3748   1.677   1.157  16.040 -0.0400 -0.4324  0.4990
  247MPD1     H 3749   1.623   1.156  15.668  1.3308 -0.1865 -0.0000
  247MPD1    H1 3750   1.846   1.040  16.017  0.2902 -0.9434 -1.0516
  247MPD1    H2 3751   1.512   1.283  16.058 -3.0946 -0.6745 -1.6098
  247MPD1    H3 3752   1.685   1.158  16.148  0.8530 -1.2878  0.4536
  247MPD1     N 3753   1.845   1.011  15.746 -0.5005  0.0161 -0.1973
  247MPD1    H5 3754   1.923   0.967  15.794 -1.0679 -0.5389  0.2187
  247MPD1    N1 3755   1.465   1.310  15.787  0.3902 -0.0755  0.0007
  247MPD1    H6 3756   1.479   1.344  15.692 -0.2453  1.0636  0.3171
  247MPD1    H7 3757   1.432   1.383  15.849  0.1867 -0.4152  0.2934
  248MPD1     C 3758   2.371   0.927   0.515  0.2334 -0.1715 -0.4325
  248MPD1    C1 3759   2.265   0.921   0.426  0.3418 -0.5007  0.1586
  248MPD1    C2 3760   2.144   0.945   0.478 -0.1888  0.4205  0.4603
  248MPD1    C3 3761   2.126   0.975   0.611  0.1309 -0.0247  0.3310
  248MPD1    C4 3762   2.234   0.973   0.696  0.1925  0.5609  0.2700
  248MPD1    C5 3763   2.354   0.959   0.646 -0.1114  0.0956 -0.3321
  248MPD1     H 3764   2.057   0.938   0.414  0.1788  0.2878 -0.0208
  248MPD1    H1 3765   2.214   0.995   0.800 -2.2058  0.4674 -0.1904
  248MPD1    H2 3766   2.476   0.911   0.494  0.3444  1.6994 -1.2803
  248MPD1    H3 3767   2.437   0.966   0.715 -0.6180 -3.3383  0.5938
  248MPD1     N 3768   2.002   0.998   0.676  0.3487  0.3937 -0.4802
  248MPD1    H5 3769   2.003   1.012   0.776 -1.5840  0.4893 -0.4771
  248MPD1    N1 3770   2.278   0.881   0.294  0.4932 -0.7770 -0.6464
  248MPD1    H6 3771   2.193   0.890   0.238 -2.9402 -0.8694  4.5464
  248MPD1    H7 3772   2.355   0.926   0.244  0.3569 -0.5336 -0.6377
  249MPD1     C 3773   3.902   0.229  10.754 -0.0154 -0.3416 -0.2640
  249MPD1    C1 3774   3.838   0.341  10.706 -0.1014  0.3738  0.5998
  249MPD1    C2 3775   3.739   0.316  10.608  0.6820 -0.3284 -0.2822
  249MPD1    C3 3776   3.696   0.190  10.570 -0.3790 -0.0411 -0.1690
  249MPD1    C4 3777   3.759   0.084  10.626 -0.2521  0.6637  0.9331
  249MPD1    C5 3778   3.870   0.103  10.712 -0.4100 -0.9861  0.3805
  249MPD1     H 3779   3.691   0.400  10.560 -0.4354  0.1533  1.6937
  249MPD1    H1 3780   3.749   4.707  10.588 -0.4863  0.9446  0.2490
  249MPD1    H2 3781   3.987   0.230  10.821 -0.9602  0.0037  0.9245
  249MPD1    H3 3782   3.941   0.024  10.733 -1.3653 -1.7425  0.7930
  249MPD1     N 3783   3.598   0.188  10.467  0.5301  0.3619 -0.4013
  249MPD1    H5 3784   3.557   0.278  10.444 -0.3830 -0.4198 -1.8455
  249MPD1    N1 3785   3.870   0.477  10.733  0.0570 -0.2054 -0.1703
  249MPD1    H6 3786   3.787   0.535  10.745  0.1744 -0.3231  1.2413
  249MPD1    H7 3787   3.932   0.486  10.813 -0.8160  0.5067  0.4306
  250MPD2     C 3788   0.521   0.241  13.173  0.7838  0.0872  0.1748
  250MPD2    C1 3789   0.439   0.336  13.115 -0.3187 -0.9171  0.2536
  250MPD2    C2 3790   0.312   0.311  13.073  0.1410 -0.0947 -0.0567
  250MPD2    C3 3791   0.262   0.180  13.092 -0.3161 -0.2155 -0.0213
  250MPD2    C4 3792   0.341   0.088  13.158  0.2752 -0.3159  0.0535
  250MPD2    C5 3793   0.469   0.120  13.198  0.4721 -0.0657 -0.1316
  250MPD2     H 3794   0.247   0.387  13.033 -0.9709 -0.6539  0.6963
  250MPD2    H1 3795   0.317   4.706  13.167 -0.1485 -0.2459 -0.2658
  250MPD2    H2 3796   0.626   0.261  13.192  0.6950 -0.8660  1.6943
  250MPD2    H3 3797   0.522   0.040  13.248 -0.9617 -1.0164 -0.1343
  250MPD2     N 3798   0.148   0.128  13.034 -0.3587  0.2748  0.5218
  250MPD2    H5 3799   0.118   0.033  13.055  3.5011 -1.0900 -0.2914
  250MPD2    N1 3800   0.493   0.462  13.088 -0.5742 -0.3818  0.1079
  250MPD2    H7 3801   0.590   0.489  13.104 -0.1609 -2.4920  1.1788
  251TMC3    C1 3802   0.518   0.680  13.007 -0.6644  0.0703 -1.0467
  251TMC3    C2 3803   0.470   0.808  12.987 -0.0121  0.3787 -0.1335
  251TMC3    C3 3804   0.556   0.908  12.954 -1.3182  0.2173  0.0291
  251TMC3    C4 3805   0.652   0.657  12.978  0.2959  0.2326 -0.0944
  251TMC3    C5 3806   0.733   0.758  12.943 -0.2492  0.6575  0.0041
  251TMC3    C6 3807   0.688   0.892  12.934  0.0172  0.2280  0.1535
  251TMC3     C 3808   0.425   0.576  13.036 -0.2877  0.0835  0.2145
  251TMC3     O 3809   0.309   0.611  13.032  0.1460  0.1960 -0.4875
  251TMC3     H 3810   0.364   0.832  12.987 -0.2542 -0.6456 -3.3283
  251TMC3    H1 3811   0.697   0.558  12.973 -1.0212 -0.3409 -0.6277
  251TMC3    H2 3812   0.758   0.974  12.922  0.5441 -0.1353  0.7407
  251TMC3    C7 3813   0.859   0.723  12.862 -0.0498  0.4633 -0.4922
  251TMC3    C8 3814   0.502   1.043  12.975 -0.5193  0.0869  0.0499
  251TMC3    O1 3815   0.877   0.603  12.870  0.0808  0.3662 -0.0370
  251TMC3    O2 3816   0.394   1.049  13.039  0.2881 -0.0174 -0.0631
  252TMC3    C1 3817   0.185   1.481   9.868  0.2005  0.1143  0.2883
  252TMC3    C2 3818   0.284   1.575   9.892 -0.0228  0.6536  0.6060
  252TMC3    C3 3819   0.392   1.528   9.953  0.1758 -0.0625 -0.1010
  252TMC3    C4 3820   0.191   1.348   9.910  0.0319 -0.1768 -0.9634
  252TMC3    C5 3821   0.304   1.313   9.974  0.3920 -0.0207 -0.4152
  252TMC3    C6 3822   0.406   1.397   9.998 -0.5320 -0.8436 -0.0617
  252TMC3     C 3823   0.050   1.528   9.828  0.9372 -0.2735  0.1541
  252TMC3     O 3824   4.687   1.444   9.833  0.3469 -0.3355  0.1382
  252TMC3     H 3825   0.283   1.675   9.850  1.3788  0.7737  0.8815
  252TMC3    H1 3826   0.111   1.281   9.881  1.4376 -1.3597 -2.0974
  252TMC3    H2 3827   0.491   1.358  10.052  0.6666 -0.7722 -1.8784
  252TMC3    C7 3828   0.322   1.173  10.002 -0.1322 -0.5825 -0.0722
  252TMC3    C8 3829   0.514   1.589   9.897  0.5785 -0.2840 -0.4523
  252TMC3    O1 3830   0.218   1.123  10.049  0.0268  0.2395 -0.1093
  252TMC3    O2 3831   0.498   1.612   9.777  0.8129 -0.4042  0.5411
  253MPD2     C 3832   1.995   0.696  15.128 -0.4795 -0.1216 -0.5489
  253MPD2    C1 3833   1.905   0.688  15.223  0.2656  0.1611 -0.0794
  253MPD2    C2 3834   1.913   0.586  15.314  0.1274  0.1490  0.8753
  253MPD2    C3 3835   2.016   0.489  15.321 -0.4064  0.2043 -0.1695
  253MPD2    C4 3836   2.110   0.494  15.217 -0.1093  0.0451  0.3483
  253MPD2    C5 3837   2.089   0.595  15.123  0.1253  0.1503 -0.0521
  253MPD2     H 3838   1.845   0.576  15.398  0.9464  0.8763  1.6229
  253MPD2    H1 3839   2.196   0.428  15.207  0.0312  0.5193 -1.5846
  253MPD2    H2 3840   1.987   0.760  15.040  1.5618 -0.1056 -0.7094
  253MPD2    H3 3841   2.165   0.601  15.046 -0.7518 -2.5941 -1.1496
  253MPD2     N 3842   2.033   0.389  15.421 -0.4444 -0.7840  0.6217
  253MPD2    H5 3843   2.117   0.333  15.420 -0.2069 -0.4158 -2.1795
  253MPD2    N1 3844   1.789   0.770  15.232  0.1544  0.8421 -0.0342
  253MPD2    H7 3845   1.722   0.742  15.303  0.9622  0.3004  0.5217
  254TMC3    C1 3846   1.959   0.226  15.561 -0.1184 -0.2411 -0.0779
  254TMC3    C2 3847   1.853   0.142  15.570  0.5697  0.1422  0.6552
  254TMC3    C3 3848   1.815   0.090  15.695  0.0246 -1.0819 -0.2936
  254TMC3    C4 3849   2.040   0.238  15.675 -0.4001 -0.2511 -0.3924
  254TMC3    C5 3850   2.006   0.173  15.797 -0.4220 -0.2554  0.2228
  254TMC3    C6 3851   1.906   0.078  15.795  0.1544  0.6462 -0.5581
  254TMC3     C 3852   1.930   0.343  15.494 -0.0885  0.3504  0.7524
  254TMC3     O 3853   1.811   0.370  15.484 -0.3131 -0.5265  0.2777
  254TMC3     H 3854   1.784   0.142  15.486  1.5650  3.0360 -0.1584
  254TMC3    H1 3855   2.116   0.314  15.669 -0.1578 -0.4672 -0.0867
  254TMC3    H2 3856   1.874   0.046  15.894  2.8033 -0.1874  0.0350
  254TMC3    C7 3857   2.036   0.239  15.924  0.2885  0.0726 -0.7658
  254TMC3    C8 3858   1.690   0.142  15.756 -0.6632 -0.0943  0.2863
  254TMC3    O1 3859   1.983   0.188  16.024  1.0069 -0.3661 -0.1207
  254TMC3    O2 3860   1.671   0.093  15.865 -0.5051 -0.1624  0.0427
  255MPD2     C 3861   4.461   3.023  10.217 -0.2283  0.2958  0.1089
  255MPD2    C1 3862   4.591   3.053  10.189 -0.4478 -0.0450  0.6026
  255MPD2    C2 3863   4.686   2.960  10.204 -0.0295  0.4977  1.2815
  255MPD2    C3 3864   4.658   2.828  10.232  0.2581  0.3128  0.0969
  255MPD2    C4 3865   4.522   2.795  10.260  0.1111  0.3617  0.2497
  255MPD2    C5 3866   4.429   2.894  10.253 -0.9092  0.4030  0.5892
  255MPD2     H 3867   0.066   2.989  10.191  0.0672  1.1677  3.4678
  255MPD2    H1 3868   4.501   2.692  10.283 -3.9984  0.6695 -2.0897
  255MPD2    H2 3869   4.383   3.095  10.195  1.0816  1.2825 -1.2854
  255MPD2    H3 3870   4.327   2.867  10.276 -1.4326  0.9289 -1.1334
  255MPD2     N 3871   0.028   2.725  10.241  0.3704 -0.6406  0.0365
  255MPD2    H5 3872   4.718   2.646  10.294  0.4438  0.0353  1.0944
  255MPD2    N1 3873   4.617   3.172  10.127  0.3587  0.2343  0.4033
  255MPD2    H7 3874   4.535   3.219  10.088  1.1754 -0.0701 -1.6610
  256TMC3    C1 3875   0.032   3.290   9.973  0.0390  0.4416 -0.0707
  256TMC3    C2 3876   0.149   3.269   9.898 -0.4369 -0.1199 -0.3019
  256TMC3    C3 3877   0.142   3.285   9.765  0.3632  0.4568  0.1391
  256TMC3    C4 3878   4.634   3.311   9.900  0.5205 -0.6661 -0.1849
  256TMC3    C5 3879   4.645   3.325   9.763  0.6661 -0.2668 -0.6376
  256TMC3    C6 3880   0.035   3.317   9.690  0.4470 -0.1491 -0.2941
  256TMC3     C 3881   0.018   3.215  10.097  0.4018 -0.5104  0.1214
  256TMC3     O 3882   0.123   3.205  10.164  0.1305  0.0792  0.2808
  256TMC3     H 3883   0.243   3.254   9.950 -0.9926  0.5904  0.9090
  256TMC3    H1 3884   4.541   3.329   9.952  0.5004  0.3192 -0.5495
  256TMC3    H2 3885   0.036   3.330   9.583  0.1299 -0.1627 -0.3007
  256TMC3    C7 3886   4.525   3.357   9.688 -0.8159 -0.1306  0.4279
  256TMC3    C8 3887   0.264   3.271   9.693 -0.0717  0.1228 -0.0121
  256TMC3    O1 3888   4.417   3.321   9.735  0.0978 -0.4434 -0.3870
  256TMC3    O2 3889   0.348   3.194   9.739  0.2510  0.4723 -0.5751
  257MPD2     C 3890   4.032   0.750  13.126 -0.2120 -0.1442  0.7441
  257MPD2    C1 3891   3.985   0.654  13.046 -0.2352 -0.5278  0.7556
  257MPD2    C2 3892   3.971   0.526  13.091 -0.1338 -0.1606 -0.2790
  257MPD2    C3 3893   3.995   0.496  13.227 -0.2568  0.4593  0.1917
  257MPD2    C4 3894   4.023   0.597  13.312 -0.4532  0.2656 -0.6833
  257MPD2    C5 3895   4.045   0.720  13.262  0.5646  0.0732 -0.5632
  257MPD2     H 3896   3.959   0.450  13.014  0.6098 -0.9308  0.3555
  257MPD2    H1 3897   4.050   0.588  13.416 -0.2063  0.3810 -0.7342
  257MPD2    H2 3898   4.050   0.851  13.094 -2.5750  0.0595  0.0050
  257MPD2    H3 3899   4.084   0.797  13.327  1.4397  0.1264 -1.1583
  257MPD2     N 3900   3.959   0.369  13.272  0.8142 -0.2750  0.0234
  257MPD2    H5 3901   3.936   0.310  13.193  0.4672 -0.0155 -0.0670
  257MPD2    N1 3902   3.957   0.700  12.914 -0.8259 -0.6295  0.5692
  257MPD2    H7 3903   3.977   0.796  12.891  2.6727 -1.2364  1.1448
  258TMC3    C1 3904   3.940   0.180  13.404  0.0008  0.1014  0.7159
  258TMC3    C2 3905   3.949   0.103  13.288  0.3410 -0.3186 -0.3418
  258TMC3    C3 3906   3.965   4.688  13.301  0.0622 -0.5310 -0.2895
  258TMC3    C4 3907   3.958   0.123  13.521  0.3078 -0.1076 -0.2131
  258TMC3    C5 3908   3.967   4.711  13.531 -0.4031  0.1393 -0.4070
  258TMC3    C6 3909   3.986   4.630  13.420  0.7074 -0.0448 -0.5980
  258TMC3     C 3910   3.954   0.326  13.399  1.0712 -0.3593  0.7781
  258TMC3     O 3911   3.969   0.393  13.498 -0.4490  0.0571 -0.1271
  258TMC3     H 3912   3.941   0.147  13.189  1.3189 -2.3419 -1.3150
  258TMC3    H1 3913   3.937   0.181  13.610 -0.1452  1.6222 -1.4553
  258TMC3    H2 3914   3.985   4.522  13.431 -0.9014  0.0253  0.0361
  258TMC3    C7 3915   3.951   4.650  13.664  0.5798 -0.2627 -0.0522
  258TMC3    C8 3916   3.936   4.618  13.180 -0.4258  0.1674  0.2401
  258TMC3    O1 3917   3.851   4.677  13.730 -0.4384  0.3425 -0.0028
  258TMC3    O2 3918   3.862   4.670  13.102  0.3313  0.2183 -0.0724
  259MPD2     C 3919   2.578   2.462   0.738  0.0119 -0.7845  0.2096
  259MPD2    C1 3920   2.679   2.398   0.812  0.2271  0.1614 -0.2215
  259MPD2    C2 3921   2.781   2.338   0.743  0.1652  0.0862 -0.1750
  259MPD2    C3 3922   2.795   2.361   0.610  0.4891 -0.1060 -0.2866
  259MPD2    C4 3923   2.708   2.435   0.537  0.0019  0.1670 -0.2954
  259MPD2    C5 3924   2.600   2.487   0.602  0.3122 -0.5928 -0.2547
  259MPD2     H 3925   2.859   2.286   0.797 -1.6151 -1.1674  1.1650
  259MPD2    H1 3926   2.725   2.472   0.436  1.2467 -0.2893 -0.2619
  259MPD2    H2 3927   2.485   2.498   0.781 -0.3709 -0.4324 -0.9088
  259MPD2    H3 3928   2.529   2.550   0.550 -0.7937 -0.0022  1.9720
  259MPD2     N 3929   2.913   2.309   0.547  0.2972  0.0882 -0.0718
  259MPD2    H5 3930   2.963   2.243   0.606 -0.4415 -1.1159 -0.8076
  259MPD2    N1 3931   2.669   2.400   0.953 -0.3602  0.0516 -1.0738
  259MPD2    H7 3932   2.576   2.434   0.974  0.1084 -0.6602  2.0459
  260TMC3    C1 3933   3.088   2.291   0.384  0.0432 -0.4898 -0.3491
  260TMC3    C2 3934   3.160   2.348   0.282  0.1105  0.8607 -0.6183
  260TMC3    C3 3935   3.282   2.300   0.259 -0.1115 -0.1866 -0.0413
  260TMC3    C4 3936   3.133   2.183   0.450 -0.1186 -0.4926 -0.5931
  260TMC3    C5 3937   3.263   2.142   0.438 -0.0694  0.3082  0.2121
  260TMC3    C6 3938   3.337   2.208   0.344 -0.3573 -0.1376  0.0797
  260TMC3     C 3939   2.963   2.351   0.422  1.1007 -0.0500 -0.3494
  260TMC3     O 3940   2.923   2.435   0.339 -0.8266  0.0498  0.0491
  260TMC3     H 3941   3.122   2.434   0.227 -3.0967 -0.3910 -0.3770
  260TMC3    H1 3942   3.061   2.127   0.508  1.0870 -0.4083  0.9902
  260TMC3    H2 3943   3.441   2.181   0.334 -0.5182 -0.5295 -0.4883
  260TMC3    C7 3944   3.294   2.007   0.449  0.2055  0.3063 -0.5148
  260TMC3    C8 3945   3.303   2.284   0.118  0.9871 -0.1756 -0.1377
  260TMC3    O1 3946   3.366   1.953   0.371 -0.0842  0.4434  0.5100
  260TMC3    O2 3947   3.222   2.334   0.044 -0.0566 -0.0482  0.8011
  261MPD2     C 3948   4.289   0.223  12.441 -0.5955  0.5142  0.3428
  261MPD2    C1 3949   4.382   0.288  12.513  0.2909 -0.1372  0.6164
  261MPD2    C2 3950   4.451   0.394  12.462  0.1729  0.1680  1.0846
  261MPD2    C3 3951   4.416   0.439  12.337  0.3711  0.3870  0.3723
  261MPD2    C4 3952   4.314   0.372  12.260 -0.3420  0.0988  0.1356
  261MPD2    C5 3953   4.259   0.260  12.312 -0.0755  0.3493  0.3368
  261MPD2     H 3954   4.526   0.440  12.525  0.5195 -0.0688  0.8434
  261MPD2    H1 3955   4.275   0.410  12.166 -0.2931 -0.3222 -0.0577
  261MPD2    H2 3956   4.237   0.134  12.476  1.6081 -0.2003  1.8001
  261MPD2    H3 3957   4.177   0.209  12.264  2.8885 -1.3446 -2.8756
  261MPD2     N 3958   4.489   0.544  12.283 -0.4681 -0.0962 -0.1479
  261MPD2    H5 3959   4.578   0.565  12.326 -1.8441  1.9432  1.7824
  261MPD2    N1 3960   4.430   0.235  12.636 -0.4396  0.0918  0.2251
  261MPD2    H7 3961   4.511   0.280  12.678  0.9772 -1.3475 -0.9235
  262TMC3    C1 3962   4.574   0.690  12.115  0.0047  0.2079 -0.5681
  262TMC3    C2 3963   4.535   0.789  12.033 -0.0821 -1.0399  0.5387
  262TMC3    C3 3964   4.622   0.822  11.937 -0.2181  0.4209 -0.7745
  262TMC3    C4 3965   4.690   0.612  12.094 -0.1945  0.1957 -0.2248
  262TMC3    C5 3966   0.041   0.646  11.984  0.0620  0.1137 -0.7850
  262TMC3    C6 3967   0.020   0.763  11.921  0.2810 -0.1293 -0.0336
  262TMC3     C 3968   4.460   0.609  12.166 -0.5389 -0.5432  0.0085
  262TMC3     O 3969   4.358   0.601  12.097 -0.7022  0.4506  0.7493
  262TMC3     H 3970   4.437   0.830  12.055 -0.9906 -1.3841 -2.9097
  262TMC3    H1 3971   4.705   0.521  12.151  1.4710 -0.5676 -1.8499
  262TMC3    H2 3972   0.090   0.799  11.847  0.0286  2.2057  0.8579
  262TMC3    C7 3973   0.051   0.551  11.873  0.6070  0.6522 -0.2620
  262TMC3    C8 3974   4.576   0.929  11.847  0.1726 -0.2270  0.7424
  262TMC3    O1 3975   0.134   0.581  11.787 -0.6805  0.3295 -0.7652
  262TMC3    O2 3976   4.667   0.989  11.796  0.2310  0.1175  0.1887
  263MPD2     C 3977   1.366   3.967  10.715  0.3524 -0.0661 -0.3106
  263MPD2    C1 3978   1.432   4.061  10.790 -0.0457 -0.8063  0.0981
  263MPD2    C2 3979   1.450   4.188  10.737 -0.8501 -0.1505  0.0474
  263MPD2    C3 3980   1.409   4.213  10.609  0.2728 -0.1799  0.1148
  263MPD2    C4 3981   1.334   4.116  10.537  0.3449  0.1378  1.0778
  263MPD2    C5 3982   1.320   3.992  10.587  0.0023 -0.4339 -0.3851
  263MPD2     H 3983   1.498   4.260  10.803 -2.3559  0.2164  0.7340
  263MPD2    H1 3984   1.295   4.123  10.436  0.5966 -1.4510  0.8635
  263MPD2    H2 3985   1.345   3.874  10.768  0.7761 -0.4930 -0.8891
  263MPD2    H3 3986   1.268   3.919  10.526  0.9939  0.3117 -2.1118
  263MPD2     N 3987   1.448   4.335  10.551  0.5730 -0.0634 -0.2732
  263MPD2    H5 3988   1.492   4.401  10.615  0.2715  1.3449 -1.5066
  263MPD2    N1 3989   1.465   4.029  10.922  0.2252  0.2737 -0.6034
  263MPD2    H7 3990   1.462   3.934  10.958 -1.5051 -0.4196 -2.5318
  264TMC3    C1 3991   1.463   4.511  10.391 -0.2649 -0.4081 -0.1672
  264TMC3    C2 3992   1.449   4.602  10.489  1.1455  0.8314 -0.5895
  264TMC3    C3 3993   1.517   0.001  10.481 -0.6417 -0.0143  0.0451
  264TMC3    C4 3994   1.543   4.537  10.281  0.3129  0.3119  0.2665
  264TMC3    C5 3995   1.601   4.663  10.277  0.7082  0.5600 -0.0514
  264TMC3    C6 3996   1.594   0.031  10.377 -0.4949 -0.2189 -0.4771
  264TMC3     C 3997   1.436   4.367  10.417 -0.4785 -0.7259  0.3715
  264TMC3     O 3998   1.413   4.287  10.327  0.0654 -0.2705  0.0817
  264TMC3     H 3999   1.383   4.587  10.574  0.8641  1.0025 -0.7771
  264TMC3    H1 4000   1.546   4.469  10.196  1.6543 -1.9952  2.1611
  264TMC3    H2 4001   1.636   0.130  10.371 -0.0652 -0.4022 -0.5291
  264TMC3    C7 4002   1.716   4.677  10.196  0.4150  0.3903  0.1097
  264TMC3    C8 4003   1.507   0.091  10.600 -0.1694  0.2903  0.3060
  264TMC3    O1 4004   1.774   4.572  10.168 -0.4082 -0.1726 -0.8104
  264TMC3    O2 4005   1.605   0.170  10.616 -0.0961  0.2309  0.0517
  265MPD2     C 4006   3.018   4.602  15.870  0.5923  0.5677  0.1485
  265MPD2    C1 4007   2.982   4.716  15.787  0.1789 -0.4092  0.4669
  265MPD2    C2 4008   3.005   4.698  15.648  0.3296 -0.5978 -0.1305
  265MPD2    C3 4009   3.026   4.571  15.589  0.1725  0.3171 -0.0595
  265MPD2    C4 4010   3.031   4.462  15.670 -0.3598  0.3770  0.4450
  265MPD2    C5 4011   3.027   4.478  15.808  0.0962  0.1188  0.6655
  265MPD2     H 4012   2.973   0.058  15.586 -0.0050 -0.2620  0.4930
  265MPD2    H1 4013   3.042   4.364  15.626  0.1952  0.4015  0.5376
  265MPD2    H2 4014   3.046   4.608  15.974  1.3632 -2.4907  0.1130
  265MPD2    H3 4015   3.060   4.390  15.861  1.3504 -0.3690 -0.9283
  265MPD2     N 4016   3.028   4.542  15.455 -0.0679 -0.1089  0.1348
  265MPD2    H5 4017   3.045   4.445  15.430 -0.6130 -0.7430  2.2419
  265MPD2    N1 4018   2.934   0.116  15.840 -0.2558 -0.3606 -0.1337
  265MPD2    H7 4019   2.915   0.195  15.779  1.6671  0.1557 -0.0643
  266TMC3    C1 4020   2.866   0.260  16.015 -0.0258  0.2173 -0.8925
  266TMC3    C2 4021   2.890   0.284  16.147 -0.1505 -0.2253 -0.3555
  266TMC3    C3 4022   2.876   0.410  16.192 -0.1563 -1.2599  0.2235
  266TMC3    C4 4023   2.834   0.363  15.929 -0.6625  0.6495  0.4266
  266TMC3    C5 4024   2.827   0.491  15.981  0.1280  0.3671 -0.5239
  266TMC3    C6 4025   2.853   0.519  16.114 -0.4660  0.9395 -0.5399
  266TMC3     C 4026   2.892   0.125  15.972  0.1509  0.1027 -0.0964
  266TMC3     O 4027   2.910   0.046  16.063  0.4680  0.4273 -0.2632
  266TMC3     H 4028   2.892   0.203  16.220  0.9713 -1.4355 -1.7364
  266TMC3    H1 4029   2.817   0.352  15.823 -0.4788 -0.8412  0.5537
  266TMC3    H2 4030   2.846   0.619  16.154  2.9004  1.9485 -2.4260
  266TMC3    C7 4031   2.787   0.594  15.895  0.1824  0.5092  0.1379
  266TMC3    C8 4032   2.892   0.434  16.337  0.7037  0.5933  0.5912
  266TMC3    O1 4033   2.811   0.586  15.779 -0.1999 -0.2096  0.3920
  266TMC3    O2 4034   2.929   0.339  16.404  0.3117  0.3650  0.2373
  267MPD2     C 4035   4.521   1.692  16.918 -0.0513 -0.3493  0.4514
  267MPD2    C1 4036   4.608   1.744  16.829  0.3264 -0.0781 -0.3018
  267MPD2    C2 4037   4.565   1.757  16.699  0.2002 -0.5443 -0.7492
  267MPD2    C3 4038   4.467   1.684  16.652  0.3010  0.9662  0.5039
  267MPD2    C4 4039   4.390   1.621  16.743 -0.7518 -0.0863  1.3417
  267MPD2    C5 4040   4.414   1.620  16.876 -0.3298 -0.6963 -0.4991
  267MPD2     H 4041   4.613   1.830  16.636 -0.8193  2.4117  1.8819
  267MPD2    H1 4042   4.298   1.573  16.709  0.1865 -0.1884 -1.0828
  267MPD2    H2 4043   4.545   1.683  17.024 -1.6120 -0.5991  0.7825
  267MPD2    H3 4044   4.352   1.569  16.949 -1.0709  0.8016 -0.0716
  267MPD2     N 4045   4.418   1.691  16.524 -0.1711 -0.1278 -0.2859
  267MPD2    H5 4046   4.319   1.668  16.516 -0.3140  0.2607  0.3480
  267MPD2    N1 4047   0.000   1.800  16.871 -0.3309  0.2447  0.5684
  267MPD2    H7 4048   0.021   1.799  16.971  0.2401 -1.1956  0.4404
  268TMC3    C1 4049   0.208   1.916  16.873  0.1123 -0.6677 -0.4056
  268TMC3    C2 4050   0.323   1.945  16.806 -0.4256  0.3126 -0.0772
  268TMC3    C3 4051   0.422   1.997  16.878  0.2566  0.1466 -0.1803
  268TMC3    C4 4052   0.205   1.907  17.014  0.1750 -0.4956  0.0689
  268TMC3    C5 4053   0.312   1.952  17.085 -0.0538 -0.4354 -0.4991
  268TMC3    C6 4054   0.413   2.009  17.019 -0.2863 -0.1921  0.4402
  268TMC3     C 4055   0.098   1.862  16.797 -0.7087 -0.0578 -0.3428
  268TMC3     O 4056   0.113   1.873  16.675 -0.0604  0.0662  0.0750
  268TMC3     H 4057   0.332   1.932  16.699  2.6658  1.3856  0.0443
  268TMC3    H1 4058   0.112   1.870  17.057  0.4218  0.7869  1.6808
  268TMC3    H2 4059   0.487   2.070  17.068  0.2913 -1.4814  1.1682
  268TMC3    C7 4060   0.298   1.976  17.222  0.1167 -0.0839  0.1223
  268TMC3    C8 4061   0.508   2.092  16.809  0.2235 -0.0991 -0.1045
  268TMC3    O1 4062   0.400   2.003  17.277  0.1228  0.4427 -0.3224
  268TMC3    O2 4063   0.542   2.194  16.870  0.0162 -0.3580 -0.4298
  269MPD2     C 4064   0.916   0.986  15.735 -0.1160  0.4011  0.2932
  269MPD2    C1 4065   0.781   0.990  15.722  0.2082 -0.5744 -0.5118
  269MPD2    C2 4066   0.735   1.113  15.682 -0.4592  0.3661 -0.0447
  269MPD2    C3 4067   0.817   1.231  15.676  0.5238 -0.1794 -0.6906
  269MPD2    C4 4068   0.949   1.213  15.704 -0.3479  0.8719  0.4394
  269MPD2    C5 4069   0.999   1.093  15.728 -0.0945  0.3667 -0.4982
  269MPD2     H 4070   0.630   1.129  15.666  0.2585  1.2907 -3.8399
  269MPD2    H1 4071   1.017   1.297  15.703 -1.5124  1.7815 -2.2507
  269MPD2    H2 4072   0.966   0.893  15.756 -2.3446 -0.3504  2.3309
  269MPD2    H3 4073   1.106   1.084  15.744 -0.1872 -0.1743 -0.2012
  269MPD2     N 4074   0.753   1.348  15.639 -0.2132  0.3880 -0.1383
  269MPD2    H5 4075   0.659   1.340  15.601  0.4432  0.0380 -1.6755
  269MPD2    N1 4076   0.701   0.874  15.752  0.0138 -0.6933  0.1127
  269MPD2    H7 4077   0.748   0.800  15.804  0.2979  0.0631  0.9280
  270TMC3    C1 4078   0.533   0.702  15.739 -0.9762 -0.0798 -0.0796
  270TMC3    C2 4079   0.424   0.660  15.668  0.6587 -0.2241  0.2124
  270TMC3    C3 4080   0.385   0.530  15.698  0.0610 -0.0635 -0.5278
  270TMC3    C4 4081   0.594   0.626  15.835  0.2531 -0.2545 -0.1734
  270TMC3    C5 4082   0.559   0.496  15.849  0.2770 -0.2982  0.1614
  270TMC3    C6 4083   0.457   0.451  15.782  0.4617 -0.3415  0.0115
  270TMC3     C 4084   0.569   0.847  15.708 -0.2795  0.2388  0.6655
  270TMC3     O 4085   0.481   0.917  15.654 -0.6332 -0.0188  0.0929
  270TMC3     H 4086   0.387   0.717  15.584 -2.3163 -1.7547  0.4889
  270TMC3    H1 4087   0.676   0.665  15.895  2.2342 -0.0134 -3.0516
  270TMC3    H2 4088   0.434   0.345  15.786 -2.4299  0.3241  0.5634
  270TMC3    C7 4089   0.665   0.396  15.842  0.2364  0.6196  0.5098
  270TMC3    C8 4090   0.326   0.443  15.598 -0.2950 -0.0302 -0.2467
  270TMC3    O1 4091   0.657   0.303  15.759  0.3522  0.5197 -0.1527
  270TMC3    O2 4092   0.253   0.355  15.636  0.2293  0.4600 -0.1591
  271MPD2     C 4093   0.261   0.561  13.930  0.8774  0.2316  0.0684
  271MPD2    C1 4094   0.193   0.504  14.033  0.4568  0.1414  0.0307
  271MPD2    C2 4095   0.057   0.519  14.050  0.4598  0.5347 -0.2788
  271MPD2    C3 4096   4.705   0.596  13.960 -0.5217 -0.2086 -0.1998
  271MPD2    C4 4097   0.058   0.663  13.864  0.4615  0.1016  0.6824
  271MPD2    C5 4098   0.195   0.647  13.847  0.4757 -0.5665  0.8962
  271MPD2     H 4099   0.006   0.479  14.138 -0.0211 -0.3747 -0.9682
  271MPD2    H1 4100   0.020   0.736  13.794 -1.5235 -0.5674  1.0684
  271MPD2    H2 4101   0.364   0.538  13.905  1.0896 -0.1663  1.3118
  271MPD2    H3 4102   0.241   0.696  13.762 -1.4439 -0.3583 -0.0085
  271MPD2     N 4103   4.569   0.626  13.976 -0.3390 -0.9928 -0.0855
  271MPD2    H5 4104   4.531   0.704  13.922  1.6507  0.8184  1.1536
  271MPD2    N1 4105   0.254   0.409  14.122 -0.4629 -0.6404  0.2139
  271MPD2    H7 4106   0.183   0.361  14.175 -2.2803  0.4355 -1.2348
  272TMC3    C1 4107   0.404   0.297  14.267  0.4398 -1.3468 -0.0415
  272TMC3    C2 4108   0.526   0.236  14.278  0.2015  0.1068 -0.7310
  272TMC3    C3 4109   0.553   0.164  14.395  0.4417  0.2843  0.9535
  272TMC3    C4 4110   0.301   0.287  14.357 -0.9040  0.2247  0.0101
  272TMC3    C5 4111   0.328   0.206  14.455 -0.6995 -0.2279 -0.0435
  272TMC3    C6 4112   0.451   0.154  14.488 -0.1981 -0.2799  0.1079
  272TMC3     C 4113   0.387   0.380  14.148 -0.1716  0.0780 -0.4245
  272TMC3     O 4114   0.487   0.419  14.085  0.0862 -0.5631  0.0193
  272TMC3     H 4115   0.593   0.237  14.192 -0.5284 -1.1211 -1.3152
  272TMC3    H1 4116   0.210   0.346  14.358 -2.7638 -2.6431 -0.6608
  272TMC3    H2 4117   0.458   0.098  14.580  2.1110  0.1827  0.2140
  272TMC3    C7 4118   0.239   0.218  14.570  0.4789  0.3722  0.2074
  272TMC3    C8 4119   0.687   0.167  14.441  1.0922 -0.3330  0.1821
  272TMC3    O1 4120   0.140   0.150  14.575 -0.0826 -0.0382  0.1478
  272TMC3    O2 4121   0.762   0.243  14.378  0.5929  1.0286  0.3994
  273MPD2     C 4122   2.126   2.775  11.588  0.1784  0.1885  0.2950
  273MPD2    C1 4123   2.202   2.889  11.588  0.1283  0.1263 -0.3224
  273MPD2    C2 4124   2.213   2.960  11.470  0.1448 -0.1030  0.1567
  273MPD2    C3 4125   2.161   2.908  11.348  0.1538 -0.1371 -0.1345
  273MPD2    C4 4126   2.084   2.793  11.362  0.5427 -0.5036  0.2928
  273MPD2    C5 4127   2.077   2.728  11.475  0.3661 -0.1477 -0.1430
  273MPD2     H 4128   2.274   3.050  11.468 -2.1828  1.4170 -1.8925
  273MPD2    H1 4129   2.044   2.741  11.276 -1.2650  1.1442  0.1499
  273MPD2    H2 4130   2.114   2.722  11.682 -1.3202 -0.9416 -0.5372
  273MPD2    H3 4131   2.033   2.630  11.483 -0.5360  0.3188  0.5622
  273MPD2     N 4132   2.169   2.967  11.219  0.4653 -0.3303  0.6473
  273MPD2    H5 4133   2.127   2.928  11.136  0.1261 -0.4393  0.8688
  273MPD2    N1 4134   2.262   2.925  11.711  0.0328 -0.4380 -0.6874
  273MPD2    H7 4135   2.230   2.871  11.791 -0.2797 -0.3871 -0.7800
  274TMC3    C1 4136   2.255   3.134  11.061 -0.1840  0.5811 -0.3293
  274TMC3    C2 4137   2.160   3.088  10.973  0.0238 -0.0538  0.8712
  274TMC3    C3 4138   2.107   3.179  10.894  0.3934  0.6730  0.4362
  274TMC3    C4 4139   2.298   3.265  11.060  0.2636  0.3832 -0.0614
  274TMC3    C5 4140   2.239   3.356  10.981  0.4354 -0.1178  0.2262
  274TMC3    C6 4141   2.145   3.313  10.891  0.4255 -0.1657 -0.3652
  274TMC3     C 4142   2.248   3.075  11.196 -0.4655 -0.1183 -0.3002
  274TMC3     O 4143   2.325   3.135  11.271  0.1297  0.0639 -0.0538
  274TMC3     H 4144   2.122   2.986  10.975 -0.5706  0.1525  0.0454
  274TMC3    H1 4145   2.376   3.297  11.128 -1.9700  1.6685  1.9267
  274TMC3    H2 4146   2.069   3.378  10.849 -1.1305 -0.6176  1.7670
  274TMC3    C7 4147   2.185   3.466  11.049 -0.7676 -0.4208  0.3571
  274TMC3    C8 4148   1.997   3.143  10.803  0.5715 -0.5269  0.0598
  274TMC3    O1 4149   2.118   3.538  10.979 -0.2995  0.3399  0.9195
  274TMC3    O2 4150   1.906   3.078  10.858  0.4074 -0.0759 -0.5723
  275MPD2     C 4151   1.193   1.814  14.079 -0.3679 -0.1145 -0.4938
  275MPD2    C1 4152   1.164   1.776  14.208  0.0615 -0.2581 -0.0397
  275MPD2    C2 4153   1.075   1.673  14.224  0.9629 -0.2541  0.3745
  275MPD2    C3 4154   1.001   1.626  14.126 -0.2865 -0.0422  0.5888
  275MPD2    C4 4155   1.016   1.664  13.999  0.3720  0.0305  0.2793
  275MPD2    C5 4156   1.109   1.763  13.982  0.1257  0.0584 -0.1562
  275MPD2     H 4157   1.057   1.648  14.328  2.3793  0.5550  0.8053
  275MPD2    H1 4158   0.951   1.634  13.918 -0.0498  0.0225  0.6203
  275MPD2    H2 4159   1.267   1.886  14.046 -0.2810  0.0007 -0.0488
  275MPD2    H3 4160   1.127   1.792  13.879  0.8381 -1.9135 -0.5888
  275MPD2     N 4161   0.893   1.541  14.153  0.1894  0.2145 -0.0666
  275MPD2    H5 4162   0.841   1.494  14.080 -1.8789  2.6252 -0.1179
  275MPD2    N1 4163   1.237   1.821  14.319  0.6627 -0.1202  0.4579
  275MPD2    H7 4164   1.228   1.762  14.401 -1.3676 -0.7419 -0.1965
  276TMC3    C1 4165   1.366   1.943  14.451  0.6575 -0.3698  0.2931
  276TMC3    C2 4166   1.285   1.890  14.549 -0.3193  0.3272 -0.4214
  276TMC3    C3 4167   1.347   1.844  14.664  0.1494 -0.7839  0.8376
  276TMC3    C4 4168   1.501   1.957  14.460  0.2949  0.1566 -0.1661
  276TMC3    C5 4169   1.555   1.899  14.572 -0.5119 -0.2571 -0.1190
  276TMC3    C6 4170   1.483   1.853  14.678  0.9771  0.2392 -0.0857
  276TMC3     C 4171   1.320   1.927  14.316 -0.2131  0.1361 -0.6038
  276TMC3     O 4172   1.338   2.020  14.237 -0.6043  0.7680 -0.2773
  276TMC3     H 4173   1.176   1.885  14.548 -0.3421  0.6092  0.5189
  276TMC3    H1 4174   1.560   1.981  14.373 -0.2088  0.2364 -0.4888
  276TMC3    H2 4175   1.532   1.803  14.761 -0.1946  1.4845  1.3296
  276TMC3    C7 4176   1.697   1.869  14.578  0.0675 -0.5813  0.3566
  276TMC3    C8 4177   1.257   1.764  14.747  0.1635 -0.3037  0.4755
  276TMC3    O1 4178   1.753   1.850  14.685 -0.0191  0.1624  0.0898
  276TMC3    O2 4179   1.136   1.775  14.730 -0.4371 -0.2926 -0.6955
  277MPD2     C 4180   3.293   0.197  13.517 -0.7817 -0.7524  0.2702
  277MPD2    C1 4181   3.189   0.282  13.523 -0.1960 -0.7456 -0.7040
  277MPD2    C2 4182   3.087   0.261  13.610  0.1256  0.1256  0.3732
  277MPD2    C3 4183   3.082   0.147  13.687 -0.3766 -0.7521 -0.0433
  277MPD2    C4 4184   3.188   0.056  13.685 -0.0717 -0.0574 -0.3408
  277MPD2    C5 4185   3.297   0.087  13.603  0.4538  0.4289  0.2603
  277MPD2     H 4186   3.018   0.340  13.637 -0.4024  0.0538 -0.7425
  277MPD2    H1 4187   3.206   4.709  13.765 -0.7899  0.1563  0.0150
  277MPD2    H2 4188   3.372   0.206  13.444 -0.2513 -2.4943  0.6325
  277MPD2    H3 4189   3.392   0.037  13.614  0.6919  0.7583 -0.3016
  277MPD2     N 4190   2.978   0.132  13.778  0.1117  0.5968 -0.1249
  277MPD2    H5 4191   2.902   0.200  13.775 -1.0143 -0.5374  2.4736
  277MPD2    N1 4192   3.179   0.373  13.408  0.2555  0.0689  0.0706
  277MPD2    H7 4193   3.244   0.358  13.331  0.4985 -1.3393  0.5381
  278TMC3    C1 4194   2.853   0.062  13.960 -0.4429  0.6548 -0.6752
  278TMC3    C2 4195   2.783   4.679  13.996  0.1848 -0.0401 -0.2578
  278TMC3    C3 4196   2.647   4.688  14.027 -0.4836  0.1223  0.3797
  278TMC3    C4 4197   2.793   0.180  13.966  0.4975 -1.0629 -0.4548
  278TMC3    C5 4198   2.657   0.198  13.981 -0.0232 -0.0882  0.0330
  278TMC3    C6 4199   2.576   0.084  14.015  0.0539  0.2200  0.8806
  278TMC3     C 4200   2.961   0.033  13.871  0.7976 -0.1241  0.2126
  278TMC3     O 4201   3.004   4.642  13.869  0.2116  0.0485 -0.0959
  278TMC3     H 4202   2.826   4.580  14.002  1.0860  0.2845 -1.5228
  278TMC3    H1 4203   2.849   0.270  13.942  2.3382 -2.2571 -0.6351
  278TMC3    H2 4204   2.469   0.079  14.036  0.1902 -1.1342  1.2352
  278TMC3    C7 4205   2.597   0.327  13.950 -0.2657 -0.0943 -0.0985
  278TMC3    C8 4206   2.568   4.570  14.004  0.7366 -0.2935  0.1451
  278TMC3    O1 4207   2.674   0.421  13.975 -0.3353 -0.6560 -0.1162
  278TMC3    O2 4208   2.457   4.556  14.047 -0.0567  0.1044 -0.3484
  279MPD2     C 4209   2.463   1.425   0.298 -1.0791  0.2327 -0.4949
  279MPD2    C1 4210   2.383   1.313   0.291  0.1658  0.3236  0.0122
  279MPD2    C2 4211   2.415   1.213   0.203 -0.1516 -0.7618  0.4244
  279MPD2    C3 4212   2.531   1.221   0.120  1.3688 -0.0222  0.0090
  279MPD2    C4 4213   2.615   1.326   0.135 -0.2936  0.8033 -0.6200
  279MPD2    C5 4214   2.574   1.425   0.218  0.4184 -0.0135  0.5818
  279MPD2     H 4215   2.348   1.128   0.192 -0.2761 -0.6786  0.5329
  279MPD2    H1 4216   2.714   1.336   0.091  0.5303  1.6422  1.4405
  279MPD2    H2 4217   2.446   1.517   0.353  1.5189  1.1795 -1.2376
  279MPD2    H3 4218   2.626   1.521   0.222 -0.5172  0.4861  0.7833
  279MPD2     N 4219   2.569   1.120   0.024  0.6661  0.3341 -0.4123
  279MPD2    H5 4220   2.642   1.141  17.653  2.0753 -0.1359  0.9604
  279MPD2    N1 4221   2.261   1.319   0.356 -0.1143 -0.9314  0.3279
  279MPD2    H7 4222   2.254   1.399   0.419  2.1466  0.7194 -1.5281
  280TMC3    C1 4223   2.044   1.295   0.410 -0.5527 -0.4025 -0.7287
  280TMC3    C2 4224   2.073   1.320   0.542  0.2470 -0.1972  0.1889
  280TMC3    C3 4225   1.988   1.400   0.615  0.4134 -0.0652  0.7971
  280TMC3    C4 4226   1.934   1.355   0.353  0.4185 -0.7173 -0.1425
  280TMC3    C5 4227   1.842   1.426   0.430 -0.3597 -0.1906  0.6454
  280TMC3    C6 4228   1.870   1.459   0.564 -0.1271  0.6343 -0.2396
  280TMC3     C 4229   2.148   1.252   0.319 -0.5728  0.4020 -0.1210
  280TMC3     O 4230   2.115   1.204   0.209 -0.6190  0.2182 -0.5206
  280TMC3     H 4231   2.165   1.281   0.584  0.0314  0.2863  1.1072
  280TMC3    H1 4232   1.919   1.344   0.246  1.6155  1.9563 -0.5833
  280TMC3    H2 4233   1.800   1.518   0.623  1.6504 -0.1336  2.6434
  280TMC3    C7 4234   1.746   1.506   0.362 -0.1676  0.5921 -0.1610
  280TMC3    C8 4235   2.030   1.426   0.751 -0.0649 -0.1111  0.1445
  280TMC3    O1 4236   1.689   1.596   0.426 -0.0132 -0.3166 -0.2594
  280TMC3    O2 4237   2.105   1.346   0.800 -0.2663 -0.1873  0.5618
  281TMC3    C1 4238   1.151   0.465  13.028 -0.4977  0.3222  0.0952
  281TMC3    C2 4239   1.224   0.510  12.924 -0.2525  0.5206  0.8379
  281TMC3    C3 4240   1.216   0.441  12.807 -0.6288 -0.3049  0.1091
  281TMC3    C4 4241   1.101   0.340  13.031  0.3171 -0.2704  0.3443
  281TMC3    C5 4242   1.110   0.265  12.922 -0.1260 -0.0518 -0.2190
  281TMC3    C6 4243   1.160   0.314  12.800  0.2624 -0.6688  0.1781
  281TMC3     C 4244   1.097   0.556  13.127 -0.3972  0.7548 -0.8190
  281TMC3     O 4245   1.050   0.505  13.227  0.2728 -0.6481 -0.6952
  281TMC3     H 4246   1.283   0.601  12.924 -1.6855  1.4455 -0.9380
  281TMC3    H1 4247   1.069   0.306  13.129  1.5538 -1.0723  0.4729
  281TMC3    H2 4248   1.152   0.254  12.710 -0.7374 -0.7848  0.3485
  281TMC3    C7 4249   1.001   0.166  12.917  0.1215  0.1882  0.3982
  281TMC3    C8 4250   1.302   0.461  12.694 -0.3140 -0.6251 -0.8518
  281TMC3    O1 4251   0.933   0.158  12.815  0.8294  0.9805 -0.0895
  281TMC3    O2 4252   1.356   0.362  12.653 -0.0876  0.0031  0.2754
  282MPD2     C 4253   2.899   1.828  14.917 -0.5597 -0.3053  0.0771
  282MPD2    C1 4254   2.763   1.857  14.930  0.0716  0.3162 -0.5550
  282MPD2    C2 4255   2.711   1.927  14.819 -0.9624 -0.4322  0.0121
  282MPD2    C3 4256   2.784   1.964  14.702  0.0295  0.4563  0.2350
  282MPD2    C4 4257   2.920   1.929  14.696  0.0291  0.9343 -0.2335
  282MPD2    C5 4258   2.975   1.875  14.810 -0.4817  0.0421 -0.1043
  282MPD2     H 4259   2.610   1.966  14.828 -0.5660 -0.0527  2.6359
  282MPD2    H1 4260   2.975   1.954  14.606  0.1598 -0.3036 -0.4969
  282MPD2    H2 4261   2.956   1.780  14.996 -0.5651 -0.9301 -0.2976
  282MPD2    H3 4262   3.082   1.861  14.813 -0.5566 -0.1519  2.0538
  282MPD2     N 4263   2.718   2.033  14.598 -0.8673  0.1553 -0.4817
  282MPD2    H5 4264   2.626   2.071  14.618  0.2693  2.1687  0.9743
  282MPD2    N1 4265   2.700   1.841  15.052 -0.3684  0.2165  0.3570
  282MPD2    H7 4266   2.743   1.780  15.120  0.1068 -0.0606 -0.1914
  283TMC3    C1 4267   2.553   1.912  15.220  0.2782 -0.1260  0.5489
  283TMC3    C2 4268   2.504   2.025  15.278  0.2323 -0.7294 -0.1966
  283TMC3    C3 4269   2.425   2.005  15.388 -0.5630 -0.8696  0.6464
  283TMC3    C4 4270   2.528   1.786  15.266 -0.5272  0.4706 -0.0642
  283TMC3    C5 4271   2.441   1.779  15.369  0.2657  0.2365  0.1275
  283TMC3    C6 4272   2.391   1.880  15.437  0.1990  0.2083  0.0032
  283TMC3     C 4273   2.603   1.932  15.084 -0.2897  0.2625  0.0935
  283TMC3     O 4274   2.570   2.037  15.037 -0.1452  0.4095 -0.0158
  283TMC3     H 4275   2.535   2.123  15.243 -0.0790 -0.3555  0.5717
  283TMC3    H1 4276   2.564   1.700  15.211 -2.7423 -0.2646 -0.3500
  283TMC3    H2 4277   2.343   1.880  15.534  1.0894 -0.2219  0.4494
  283TMC3    C7 4278   2.374   1.649  15.382 -0.2015  0.4540  0.9580
  283TMC3    C8 4279   2.365   2.116  15.463  0.1889 -0.1739 -0.0086
  283TMC3    O1 4280   2.412   1.561  15.306 -0.1297 -1.0634  0.6553
  283TMC3    O2 4281   2.289   2.086  15.557 -0.8406  0.2653 -0.3894
  284MPD2     C 4282   0.950   0.729  12.293  0.5104  0.5704 -0.5525
  284MPD2    C1 4283   1.031   0.706  12.179  0.1972 -0.5987  0.5044
  284MPD2    C2 4284   1.109   0.593  12.195 -0.1258  0.1876 -0.4242
  284MPD2    C3 4285   1.108   0.506  12.295 -0.0258 -0.5209  0.2393
  284MPD2    C4 4286   1.029   0.533  12.404 -0.4504 -0.0447 -0.1899
  284MPD2    C5 4287   0.954   0.649  12.399  0.2363  0.0198  0.0176
  284MPD2     H 4288   1.191   0.570  12.128  0.0320 -1.6550  0.3992
  284MPD2    H1 4289   1.027   0.483  12.500 -0.4341  1.6718  0.7058
  284MPD2    H2 4290   0.879   0.811  12.293  0.9509  0.9536 -1.1152
  284MPD2    H3 4291   0.887   0.678  12.479  1.0344 -0.4657  0.8460
  284MPD2     N 4292   1.196   0.402  12.299 -1.0961  0.1703 -0.1283
  284MPD2    H5 4293   1.263   0.397  12.222  0.8757 -1.8163  1.7202
  284MPD2    N1 4294   1.053   0.797  12.071 -0.2535 -0.9334  0.5772
  284MPD2    H7 4295   1.131   0.782  12.008 -0.7854  1.0050 -0.5419
  285TMC3    C1 4296   1.058   0.992  11.948 -0.3105  0.4044 -0.1513
  285TMC3    C2 4297   1.175   0.943  11.896  0.0613 -0.0719  0.2179
  285TMC3    C3 4298   1.271   1.033  11.857  0.2501  0.7899  0.1591
  285TMC3    C4 4299   1.035   1.128  11.963 -0.2127  0.4135  0.0763
  285TMC3    C5 4300   1.135   1.216  11.924 -0.1231 -0.5531  0.8223
  285TMC3    C6 4301   1.250   1.171  11.874 -0.1181 -0.4524  0.2029
  285TMC3     C 4302   0.990   0.919  12.048 -0.3686 -0.2125 -0.5878
  285TMC3     O 4303   0.897   0.960  12.112  0.4721 -0.8263  0.4194
  285TMC3     H 4304   1.193   0.837  11.881  1.8959  0.4318 -1.1748
  285TMC3    H1 4305   0.944   1.164  12.009 -0.0355 -0.6280  1.2479
  285TMC3    H2 4306   1.326   1.246  11.853 -0.4828 -0.7785 -2.2383
  285TMC3    C7 4307   1.124   1.363  11.919 -0.0663  0.1854  0.5436
  285TMC3    C8 4308   1.371   0.980  11.774 -0.4382  0.0071 -0.1532
  285TMC3    O1 4309   1.225   1.424  11.937 -0.2843  0.0817  0.1240
  285TMC3    O2 4310   1.353   0.873  11.718 -0.2448  0.5397 -0.2998
  286MPD2     C 4311   0.716   0.052   1.686  0.4750 -0.8197  0.2927
  286MPD2    C1 4312   0.753   0.074   1.553  0.0316  0.3160  0.2692
  286MPD2    C2 4313   0.853   4.724   1.510 -0.5287 -0.0135  0.1291
  286MPD2    C3 4314   0.932   4.640   1.585 -0.0442  0.2676  0.7631
  286MPD2    C4 4315   0.894   4.618   1.717 -0.0714 -0.4220  0.4088
  286MPD2    C5 4316   0.782   4.681   1.766  0.3678  0.1215 -0.8306
  286MPD2     H 4317   0.875   0.024   1.406  0.1949 -0.6353  0.1400
  286MPD2    H1 4318   0.949   4.551   1.781  0.1801 -0.5109  0.0986
  286MPD2    H2 4319   0.628   0.101   1.727  0.3115 -0.1601 -0.8663
  286MPD2    H3 4320   0.763   4.671   1.872 -0.9172  1.8073 -0.9064
  286MPD2     N 4321   1.051   4.574   1.543 -0.2545 -0.4525 -0.0195
  286MPD2    H5 4322   1.105   4.525   1.613 -0.8995  0.1349  0.8896
  286MPD2    N1 4323   0.688   0.162   1.464 -0.6513  0.4888 -0.4513
  286MPD2    H7 4324   0.721   0.179   1.370  2.5729 -1.2083  0.3762
  287TMC3    C1 4325   1.214   4.490   1.412 -0.1202  0.6681  0.3097
  287TMC3    C2 4326   1.235   4.425   1.301 -0.3409 -0.0469 -0.6912
  287TMC3    C3 4327   1.334   4.334   1.287 -0.4292 -0.5164  0.1557
  287TMC3    C4 4328   1.303   4.480   1.518 -0.2156 -0.4505 -0.0034
  287TMC3    C5 4329   1.402   4.386   1.508 -0.2094 -0.3028  0.0376
  287TMC3    C6 4330   1.414   4.305   1.395 -0.0656 -0.2661  0.5721
  287TMC3     C 4331   1.097   4.574   1.415 -0.0957  0.0904  0.2343
  287TMC3     O 4332   1.041   4.602   1.309  0.5631 -0.3549  0.0030
  287TMC3     H 4333   1.168   4.446   1.219  0.5508  1.1090 -1.1110
  287TMC3    H1 4334   1.283   4.539   1.607 -0.6145  1.5570 -1.4244
  287TMC3    H2 4335   1.492   4.230   1.385 -0.2765 -0.4774  0.5157
  287TMC3    C7 4336   1.511   4.401   1.593  0.6080 -0.3696  0.8716
  287TMC3    C8 4337   1.338   4.253   1.168  0.6706  0.2220  0.2317
  287TMC3    O1 4338   1.521   4.519   1.633 -0.2452 -0.3473  0.4425
  287TMC3    O2 4339   1.241   4.266   1.094  0.1724 -0.5230  0.1677
  288TMC3    C1 4340   3.357   0.015  14.497 -0.4972  0.3691  0.1579
  288TMC3    C2 4341   3.247   0.017  14.574  0.6121  0.4081  0.0800
  288TMC3    C3 4342   3.191   0.140  14.593  0.1545 -0.2058  0.4021
  288TMC3    C4 4343   3.416   0.121  14.444  0.0301 -0.0600 -0.0913
  288TMC3    C5 4344   3.360   0.242  14.467 -0.4856  0.2226 -0.3618
  288TMC3    C6 4345   3.240   0.251  14.535  0.2942 -0.6947 -0.1278
  288TMC3     C 4346   3.432   4.618  14.487 -0.1558 -0.5404 -0.3211
  288TMC3     O 4347   3.399   4.536  14.566 -0.0138 -0.5326  0.1443
  288TMC3     H 4348   3.210   4.655  14.629  0.0295  0.3965 -0.3370
  288TMC3    H1 4349   3.503   0.118  14.378  0.2860  1.5861  0.1763
  288TMC3    H2 4350   3.194   0.346  14.559  3.1445  0.1979  1.7342
  288TMC3    C7 4351   3.418   0.358  14.422  0.5967  0.0612 -0.5812
  288TMC3    C8 4352   3.105   0.171  14.700 -0.2299  0.5481 -0.2807
  288TMC3    O1 4353   3.353   0.462  14.433 -0.4492  0.2740  0.5054
  288TMC3    O2 4354   3.113   0.282  14.748  0.0088  0.6947  0.5000
  289MPD2     C 4355   2.938   3.665  14.599 -0.7097  0.1459  0.5456
  289MPD2    C1 4356   2.908   3.777  14.519  0.1595 -0.1532 -0.0736
  289MPD2    C2 4357   2.823   3.756  14.409  0.0664 -0.4390  0.1945
  289MPD2    C3 4358   2.777   3.633  14.377  0.5038  0.4560 -0.2765
  289MPD2    C4 4359   2.805   3.526  14.467 -0.4563  0.2357  0.4237
  289MPD2    C5 4360   2.893   3.542  14.566  0.3181 -0.0033 -0.0963
  289MPD2     H 4361   2.797   3.838  14.344  1.0462 -0.4013 -0.1596
  289MPD2    H1 4362   2.755   3.430  14.458 -0.5294  0.1772  1.4031
  289MPD2    H2 4363   3.006   3.675  14.682 -0.0452  0.4239 -0.0313
  289MPD2    H3 4364   2.912   3.465  14.640 -3.4585  0.6863  1.6142
  289MPD2     N 4365   2.691   3.608  14.264  0.6097  0.1051 -0.9876
  289MPD2    H5 4366   2.669   3.513  14.236 -0.2081 -0.8834  3.0714
  289MPD2    N1 4367   2.946   3.908  14.559  0.0284 -0.2133  0.1135
  289MPD2    H7 4368   2.989   3.912  14.651 -1.7417 -1.1368  0.9892
  290TMC3    C1 4369   2.550   3.645  14.088  0.0255  1.2896  0.0113
  290TMC3    C2 4370   2.476   3.742  14.022  0.1168  0.0251  0.0559
  290TMC3    C3 4371   2.341   3.733  14.005 -0.1442 -0.1893 -0.2584
  290TMC3    C4 4372   2.486   3.528  14.114 -0.9277 -0.7178  0.4519
  290TMC3    C5 4373   2.360   3.508  14.059 -0.1576 -0.5385 -0.7442
  290TMC3    C6 4374   2.281   3.609  14.010 -0.9996  0.5496  0.4087
  290TMC3     C 4375   2.647   3.702  14.178 -0.7852  0.4187  0.3899
  290TMC3     O 4376   2.658   3.824  14.171  0.2284  0.0502  0.6199
  290TMC3     H 4377   2.525   3.834  13.990  1.3435 -1.0645 -1.2279
  290TMC3    H1 4378   2.536   3.446  14.165 -1.2721 -0.4148  1.2713
  290TMC3    H2 4379   2.177   3.593  13.984 -0.6632 -0.0506 -0.5661
  290TMC3    C7 4380   2.287   3.390  14.092  0.0927  0.4289 -1.2699
  290TMC3    C8 4381   2.247   3.839  14.048  0.0738 -0.3043 -0.0079
  290TMC3    O1 4382   2.164   3.390  14.091  0.4403 -0.1557  0.5505
  290TMC3    O2 4383   2.135   3.808  14.085  0.1885  0.3093  0.5357
  291MPD2     C 4384   2.095   3.772   0.512 -0.6368 -0.3323 -0.4304
  291MPD2    C1 4385   2.139   3.712   0.400 -0.7287  0.2842 -0.3322
  291MPD2    C2 4386   2.272   3.693   0.372 -0.2115 -0.0340  0.0709
  291MPD2    C3 4387   2.361   3.746   0.460  0.8797 -0.6226  0.4204
  291MPD2    C4 4388   2.320   3.811   0.573 -0.2839 -0.7896 -0.1472
  291MPD2    C5 4389   2.190   3.829   0.594  0.4739  0.1833  0.0405
  291MPD2     H 4390   2.311   3.648   0.281 -2.7628 -0.3323 -0.8724
  291MPD2    H1 4391   2.391   3.846   0.647  0.3744 -0.5975 -0.8682
  291MPD2    H2 4392   1.993   3.756   0.545 -0.3801  1.3828  1.2176
  291MPD2    H3 4393   2.157   3.866   0.690  0.1748  0.8093 -0.3083
  291MPD2     N 4394   2.499   3.739   0.438  0.5342  0.0306 -0.4203
  291MPD2    H5 4395   2.555   3.806   0.490  1.9949  0.5181 -2.6454
  291MPD2    N1 4396   2.048   3.648   0.307 -0.0655 -0.0348 -0.5848
  291MPD2    H7 4397   2.092   3.588   0.238  2.8550  1.0833  0.3375
  292TMC3    C1 4398   1.831   3.572   0.239 -0.1116 -0.1303 -0.3593
  292TMC3    C2 4399   1.693   3.592   0.246 -0.2504 -0.1687 -0.0517
  292TMC3    C3 4400   1.605   3.490   0.215  0.4247  0.2974 -0.2271
  292TMC3    C4 4401   1.882   3.451   0.206  0.4058  0.1446 -0.5216
  292TMC3    C5 4402   1.788   3.360   0.171  0.6259 -0.2409  0.3483
  292TMC3    C6 4403   1.649   3.374   0.168 -0.0971  0.1251  0.5864
  292TMC3     C 4404   1.913   3.669   0.307  0.3869  0.5322 -0.6978
  292TMC3     O 4405   1.854   3.769   0.352  0.2480 -0.0211 -0.1109
  292TMC3     H 4406   1.658   3.693   0.264 -0.1882 -0.1462 -0.0557
  292TMC3    H1 4407   1.985   3.419   0.218  0.0066 -1.4070 -1.2494
  292TMC3    H2 4408   1.582   3.293   0.143  0.8613 -0.4111 -0.2010
  292TMC3    C7 4409   1.836   3.237   0.119 -0.5242  0.0754  0.2582
  292TMC3    C8 4410   1.464   3.510   0.203 -0.2100 -0.2223 -0.0026
  292TMC3    O1 4411   1.953   3.203   0.139  0.2236  1.1476 -0.6369
  292TMC3    O2 4412   1.415   3.616   0.170 -0.1362 -0.4161 -0.1260
  293MPD2     C 4413   4.242   0.511  12.789 -0.6918 -0.3756  0.2036
  293MPD2    C1 4414   4.178   0.401  12.846  0.0478  0.3824  0.9333
  293MPD2    C2 4415   4.203   0.366  12.979  0.1495  0.2857 -0.3035
  293MPD2    C3 4416   4.311   0.425  13.046  0.4279 -0.6132  0.2530
  293MPD2    C4 4417   4.384   0.525  12.979  0.0246  0.3585 -0.2710
  293MPD2    C5 4418   4.346   0.569  12.858 -0.5716  0.1267  0.2524
  293MPD2     H 4419   4.147   0.287  13.029  1.6768  1.1572  2.7858
  293MPD2    H1 4420   4.471   0.576  13.019  0.3885 -0.7344  0.3128
  293MPD2    H2 4421   4.218   0.558  12.694  2.6054 -0.1904 -0.5564
  293MPD2    H3 4422   4.400   0.650  12.810 -0.2445 -1.6021 -2.2974
  293MPD2     N 4423   4.343   0.389  13.182  0.5680 -0.2982 -0.0110
  293MPD2    H5 4424   4.412   0.442  13.235 -1.2024 -0.6492  2.6311
  293MPD2    N1 4425   4.084   0.341  12.767 -0.3641 -1.0578  0.2123
  293MPD2    H7 4426   4.067   0.372  12.672  0.1995 -2.5642 -0.3673
  294TMC3    C1 4427   3.901   0.195  12.718 -0.1487 -0.2853 -0.0339
  294TMC3    C2 4428   3.819   0.094  12.750 -0.3070  0.1490  0.0200
  294TMC3    C3 4429   3.755   0.018  12.657 -0.2547  0.0825  0.0521
  294TMC3    C4 4430   3.903   0.234  12.587  0.1610  0.8351 -0.1218
  294TMC3    C5 4431   3.850   0.151  12.492  0.3428  0.4212  0.4512
  294TMC3    C6 4432   3.773   0.048  12.523  0.6999  0.2066  0.5052
  294TMC3     C 4433   3.995   0.246  12.815 -0.3863 -0.1887 -0.6695
  294TMC3     O 4434   3.972   0.206  12.932 -0.2567  0.5702 -0.1554
  294TMC3     H 4435   3.803   0.062  12.853  3.5663 -1.3336  0.1795
  294TMC3    H1 4436   3.934   0.331  12.548  0.2616  0.4930 -0.8765
  294TMC3    H2 4437   3.711   4.721  12.450  1.4171 -1.1076  0.8192
  294TMC3    C7 4438   3.909   0.162  12.359 -0.6303  0.8744 -0.1525
  294TMC3    C8 4439   3.669   4.634  12.703  0.6501 -0.2731 -0.3718
  294TMC3    O1 4440   3.965   0.266  12.326  0.1283 -0.8969  0.2260
  294TMC3    O2 4441   3.610   4.640  12.810  0.1204 -0.3430 -0.4721
  295MPD2     C 4442   1.038   3.633   0.424  0.1610  0.4878 -0.4185
  295MPD2    C1 4443   0.901   3.618   0.433 -0.0934  0.1912 -0.5660
  295MPD2    C2 4444   0.847   3.551   0.541 -0.0607 -0.1142 -0.0104
  295MPD2    C3 4445   0.923   3.514   0.648 -0.3469  0.4143  0.2684
  295MPD2    C4 4446   1.062   3.531   0.638 -0.2761 -0.0328  0.0928
  295MPD2    C5 4447   1.114   3.581   0.524  0.0960 -1.4421 -0.0225
  295MPD2     H 4448   0.740   3.535   0.548 -0.0102  0.8922  3.1087
  295MPD2    H1 4449   1.131   3.495   0.713  1.5694  1.5863 -0.8367
  295MPD2    H2 4450   1.083   3.680   0.337 -1.0144 -0.6748 -1.6543
  295MPD2    H3 4451   1.222   3.586   0.518 -0.0648  0.6457 -1.1653
  295MPD2     N 4452   0.890   3.428   0.754  0.0963 -0.0841 -0.0387
  295MPD2    H5 4453   0.952   3.414   0.834 -0.1532 -0.2500  0.1240
  295MPD2    N1 4454   0.807   3.663   0.339  0.3045 -0.4508 -0.3276
  295MPD2    H7 4455   0.707   3.651   0.352  0.1199  1.5434 -0.0190
  296TMC3    C1 4456   0.756   3.277   0.867 -0.1675  0.3022 -0.3928
  296TMC3    C2 4457   0.800   3.338   0.981 -0.1522  0.4770  0.1175
  296TMC3    C3 4458   0.717   3.324   1.086  0.5444  0.6298 -0.7246
  296TMC3    C4 4459   0.646   3.195   0.854  0.1883 -0.3435 -0.4799
  296TMC3    C5 4460   0.569   3.186   0.972  0.1284 -0.7144 -0.1895
  296TMC3    C6 4461   0.607   3.243   1.087  0.5242  0.5414 -0.0463
  296TMC3     C 4462   0.770   3.358   0.753 -0.4944 -0.4553  0.0741
  296TMC3     O 4463   0.682   3.349   0.666  0.7957 -0.5021  0.9354
  296TMC3     H 4464   0.881   3.410   0.988 -2.4870  3.2114 -1.1774
  296TMC3    H1 4465   0.613   3.155   0.759  1.6039 -0.0558 -1.1015
  296TMC3    H2 4466   0.549   3.224   1.177  3.3659  1.1881  1.9188
  296TMC3    C7 4467   0.460   3.087   0.976 -0.4518 -0.2998 -0.2440
  296TMC3    C8 4468   0.767   3.368   1.216  0.0423  0.1510  0.0114
  296TMC3    O1 4469   0.469   2.994   0.896  0.6135 -0.7695  0.0114
  296TMC3    O2 4470   0.882   3.338   1.252  0.1658  0.0343  0.6885
  297MPD2     C 4471   2.274   0.910  16.724 -0.3567  0.6447 -0.9724
  297MPD2    C1 4472   2.269   0.980  16.603  0.6543  0.5039  0.1114
  297MPD2    C2 4473   2.344   1.097  16.596 -0.3377 -0.4805  0.2447
  297MPD2    C3 4474   2.422   1.146  16.698  0.1617  0.1467 -0.8061
  297MPD2    C4 4475   2.439   1.069  16.810 -0.2836 -0.0421 -0.4752
  297MPD2    C5 4476   2.365   0.953  16.820 -0.0329 -0.1510 -0.0372
  297MPD2     H 4477   2.348   1.160  16.507  0.0351 -1.0813 -0.1665
  297MPD2    H1 4478   2.520   1.090  16.879  1.4522 -2.3862 -1.8176
  297MPD2    H2 4479   2.227   0.813  16.736  1.6042  0.0719  1.8147
  297MPD2    H3 4480   2.359   0.893  16.910  1.1605 -4.0669 -2.5272
  297MPD2     N 4481   2.496   1.258  16.667 -0.2468  0.2269 -0.1205
  297MPD2    H5 4482   2.494   1.282  16.569  1.0296  0.7468 -0.0277
  297MPD2    N1 4483   2.203   0.938  16.488 -0.8434 -0.2223 -0.3953
  297MPD2    H7 4484   2.208   1.004  16.411  1.0999 -0.3781 -0.4113
  298TMC3    C1 4485   2.079   0.816  16.333  0.0182  0.1699 -1.1341
  298TMC3    C2 4486   2.141   0.879  16.229  0.0347 -0.3112 -0.0029
  298TMC3    C3 4487   2.083   0.879  16.103 -0.2102  0.5485  0.0202
  298TMC3    C4 4488   1.955   0.752  16.309  0.1681 -0.6237  0.0804
  298TMC3    C5 4489   1.895   0.764  16.188 -0.1938 -0.3484  0.2599
  298TMC3    C6 4490   1.953   0.827  16.079 -0.2506 -0.0328  0.2698
  298TMC3     C 4491   2.134   0.817  16.470 -0.0943  0.2221  0.4268
  298TMC3     O 4492   2.104   0.726  16.550 -0.0023 -0.1787 -0.8102
  298TMC3     H 4493   2.241   0.912  16.255  0.5370 -1.4699 -0.5119
  298TMC3    H1 4494   1.909   0.705  16.395  0.1918 -0.2421  0.3003
  298TMC3    H2 4495   1.910   0.856  15.984  1.3043 -0.1666 -0.4869
  298TMC3    C7 4496   1.754   0.781  16.185 -0.0647 -0.2043 -0.4131
  298TMC3    C8 4497   2.132   0.970  16.000 -0.6896 -0.0750  0.1297
  298TMC3    O1 4498   1.704   0.843  16.279 -0.2708  0.0536 -0.0926
  298TMC3    O2 4499   2.090   0.968  15.888 -0.5167 -0.3101  0.2699
  299MPD2     C 4500   2.341   1.413  10.102  0.3490 -0.3942 -0.2915
  299MPD2    C1 4501   2.320   1.316  10.200  0.4771  0.3735 -0.1445
  299MPD2    C2 4502   2.190   1.278  10.210  0.0912 -0.6101 -0.3842
  299MPD2    C3 4503   2.091   1.318  10.116  0.6401 -0.3662 -0.7348
  299MPD2    C4 4504   2.118   1.407  10.021  0.2810  0.0478  0.4349
  299MPD2    C5 4505   2.242   1.457  10.018 -0.5597 -0.4305  0.5883
  299MPD2     H 4506   2.166   1.211  10.291  0.7625  1.5389  1.6129
  299MPD2    H1 4507   2.052   1.442   9.943 -1.1750  0.9989  2.0674
  299MPD2    H2 4508   2.441   1.453  10.114  0.0500  0.4767 -0.7090
  299MPD2    H3 4509   2.262   1.532   9.942  1.2672 -0.2588  1.2447
  299MPD2     N 4510   1.960   1.258  10.124  0.6634 -0.3822 -0.1033
  299MPD2    H5 4511   1.899   1.283  10.047 -1.0891  0.7751  1.6822
  299MPD2    N1 4512   2.423   1.278  10.287 -0.0621  0.5706 -0.4198
  299MPD2    H7 4513   2.516   1.319  10.281  0.2307 -0.3090 -1.8603
  300TMC3    C1 4514   1.798   1.107  10.160 -0.5251  0.0996  0.0243
  300TMC3    C2 4515   1.698   1.203  10.130  0.0757 -0.2010  0.3244
  300TMC3    C3 4516   1.569   1.156  10.145 -0.3607  0.1935 -0.0768
  300TMC3    C4 4517   1.768   0.978  10.193  0.1216  0.4962 -0.2510
  300TMC3    C5 4518   1.637   0.940  10.197  0.4818  0.6327  0.4863
  300TMC3    C6 4519   1.536   1.023  10.171  0.7113  0.1547 -0.5467
  300TMC3     C 4520   1.925   1.156  10.207  0.7875  0.1665 -0.0208
  300TMC3     O 4521   1.977   1.103  10.304  0.7655 -0.0659  0.4233
  300TMC3     H 4522   1.712   1.309  10.114 -2.7478  0.1188 -0.1920
  300TMC3    H1 4523   1.842   0.907  10.226 -2.7980 -0.9508  3.0775
  300TMC3    H2 4524   1.437   0.987  10.195  0.3228  2.0474  0.6396
  300TMC3    C7 4525   1.605   0.826  10.278 -0.0585 -0.5238  0.1093
  300TMC3    C8 4526   1.477   1.237  10.230 -0.3586  0.0280 -0.1696
  300TMC3    O1 4527   1.502   0.766  10.251  0.2710 -0.2713 -1.1593
  300TMC3    O2 4528   1.363   1.197  10.244 -0.1027  0.1327 -0.1175
  301MPD2     C 4529   0.170   2.131   1.511  0.1198  0.6071  0.4174
  301MPD2    C1 4530   0.082   2.125   1.405  0.4862 -0.7185  0.4494
  301MPD2    C2 4531   0.113   2.047   1.301 -0.7237  0.4302  0.1126
  301MPD2    C3 4532   0.222   1.971   1.303 -0.0884  0.5241  0.2217
  301MPD2    C4 4533   0.314   1.983   1.408  0.1124  0.0631 -0.2620
  301MPD2    C5 4534   0.298   2.070   1.508 -0.5534  0.1996  0.1053
  301MPD2     H 4535   0.034   2.049   1.226  0.3522 -0.7790 -1.0434
  301MPD2    H1 4536   0.405   1.924   1.410 -0.6332 -1.0196  1.7686
  301MPD2    H2 4537   0.155   2.196   1.597  0.9205  0.0604  0.9675
  301MPD2    H3 4538   0.359   2.072   1.598 -0.3724  0.5926 -0.0240
  301MPD2     N 4539   0.237   1.863   1.215 -0.2538  0.5624 -0.7640
  301MPD2    H5 4540   0.322   1.809   1.206  1.6788  3.6652 -0.9139
  301MPD2    N1 4541   4.682   2.196   1.403  0.2521 -0.5551  0.3613
  301MPD2    H7 4542   4.624   2.187   1.320 -2.4848  1.2739  2.0863
  302TMC3    C1 4543   0.191   1.745   1.014  0.2625  0.0450 -0.0318
  302TMC3    C2 4544   0.304   1.668   1.022 -0.0417 -0.1330  0.4706
  302TMC3    C3 4545   0.342   1.609   0.905 -0.1532  0.8024  0.1016
  302TMC3    C4 4546   0.105   1.745   0.911  0.9902  0.7077  0.5239
  302TMC3    C5 4547   0.150   1.679   0.795 -0.1704  0.2866  0.0649
  302TMC3    C6 4548   0.269   1.610   0.791 -0.6132 -0.0062  0.1259
  302TMC3     C 4549   0.137   1.824   1.126 -0.7644  0.0549 -0.3448
  302TMC3     O 4550   0.016   1.841   1.138 -0.6350 -0.1442  0.4282
  302TMC3     H 4551   0.358   1.660   1.116  1.7097  0.7835 -0.4576
  302TMC3    H1 4552   0.011   1.798   0.904  0.6561  0.2573  1.6057
  302TMC3    H2 4553   0.302   1.546   0.710 -1.3708  0.8183 -0.8401
  302TMC3    C7 4554   0.076   1.681   0.669 -0.6927  0.1713 -0.0994
  302TMC3    C8 4555   0.451   1.515   0.901  0.3221  0.2330  1.0010
  302TMC3    O1 4556   0.149   1.667   0.578  0.6117  0.0436  0.0096
  302TMC3    O2 4557   0.497   1.481   0.793  0.4446  0.0776 -0.0126
  303MPD2     C 4558   0.419   4.661  10.661 -0.0212  0.2728 -1.2632
  303MPD2    C1 4559   0.320   4.581  10.603 -0.2920 -0.3965  0.2908
  303MPD2    C2 4560   0.302   4.586  10.473 -0.5969 -0.4634  0.2076
  303MPD2    C3 4561   0.388   4.659  10.395 -0.3185 -0.3592  0.1835
  303MPD2    C4 4562   0.493   4.722  10.451  0.5056 -0.0952 -0.2317
  303MPD2    C5 4563   0.508   4.721  10.583  0.0305 -0.7564 -0.4199
  303MPD2     H 4564   0.222   4.538  10.418 -1.8426  1.2636  0.5102
  303MPD2    H1 4565   0.569   0.049  10.392  0.1964 -0.2154 -0.7305
  303MPD2    H2 4566   0.442   4.654  10.767 -0.4195  1.8310 -1.0696
  303MPD2    H3 4567   0.585   0.056  10.633 -1.1780  1.9724 -1.7587
  303MPD2     N 4568   0.378   4.678  10.256  0.2568 -0.3022 -0.2544
  303MPD2    H5 4569   0.455   0.009  10.217  0.0538 -0.9534 -1.5727
  303MPD2    N1 4570   0.235   4.502  10.685  0.2957 -0.1474 -0.2066
  303MPD2    H7 4571   0.242   4.505  10.787 -1.4111  0.1890 -0.0899
  304TMC3    C1 4572   0.054   4.367  10.760 -0.2260  0.5917 -0.3906
  304TMC3    C2 4573   4.659   4.330  10.715  0.1625 -0.3966  0.3763
  304TMC3    C3 4574   4.604   4.220  10.771  0.2617  0.0719  0.0929
  304TMC3    C4 4575   0.137   4.291  10.840 -0.3005 -0.4838  0.9514
  304TMC3    C5 4576   0.084   4.175  10.894  0.1379 -0.6717 -0.1063
  304TMC3    C6 4577   4.677   4.142  10.864 -0.2081 -0.1490 -1.1556
  304TMC3     C 4578   0.120   4.438  10.650  0.0694 -1.0003 -0.3158
  304TMC3     O 4579   0.076   4.426  10.536  0.5403 -0.5971  0.2318
  304TMC3     H 4580   4.600   4.394  10.650  2.4714 -1.6398 -2.9066
  304TMC3    H1 4581   0.243   4.313  10.835 -0.1861 -0.8207  1.9272
  304TMC3    H2 4582   4.625   4.059  10.911  0.4305 -0.1738 -0.4873
  304TMC3    C7 4583   0.184   4.070  10.877 -0.6887 -0.1485  0.3841
  304TMC3    C8 4584   4.534   4.133  10.680 -0.6338 -0.8329 -0.6885
  304TMC3    O1 4585   0.305   4.080  10.890  0.0591 -0.1196  0.4870
  304TMC3    O2 4586   4.572   4.019  10.699 -0.6167 -0.0424  0.2156
  305MPD2     C 4587   3.552   2.139  14.146  0.5505 -0.1449 -0.0317
  305MPD2    C1 4588   3.502   2.259  14.159  0.0750 -0.4389  0.0379
  305MPD2    C2 4589   3.474   2.339  14.052  1.0726  0.3748  0.0514
  305MPD2    C3 4590   3.497   2.293  13.924  0.5768 -0.2840 -0.3152
  305MPD2    C4 4591   3.556   2.164  13.905  0.6740  0.0438  0.6637
  305MPD2    C5 4592   3.580   2.091  14.018  0.1371  0.1193  0.1099
  305MPD2     H 4593   3.436   2.439  14.070 -3.6136 -1.7006  1.7822
  305MPD2    H1 4594   3.583   2.113  13.813 -1.4923  0.9060 -0.4492
  305MPD2    H2 4595   3.583   2.082  14.232  0.1869 -1.0957 -0.5345
  305MPD2    H3 4596   3.626   1.993  14.013 -0.1249 -0.1167  2.2791
  305MPD2     N 4597   3.462   2.358  13.807  0.3188  0.8422 -0.3780
  305MPD2    H5 4598   3.473   2.315  13.716 -1.1233 -1.0160  0.3228
  305MPD2    N1 4599   3.493   2.310  14.292  0.4304  0.0847  0.0267
  305MPD2    H7 4600   3.509   2.245  14.369  1.6406  0.8438  0.4176
  306TMC3    C1 4601   3.431   2.440  14.474  0.0130  0.4432  0.2045
  306TMC3    C2 4602   3.359   2.338  14.531 -0.0926 -0.1708  0.4236
  306TMC3    C3 4603   3.343   2.337  14.664  0.9142 -0.3618 -0.0479
  306TMC3    C4 4604   3.487   2.542  14.541  0.2778 -0.3014 -0.3364
  306TMC3    C5 4605   3.463   2.541  14.674 -1.2354 -0.9579  0.0011
  306TMC3    C6 4606   3.391   2.444  14.739  0.1662  0.3518  0.1729
  306TMC3     C 4607   3.449   2.434  14.334 -0.4642  0.1299 -0.3423
  306TMC3     O 4608   3.435   2.536  14.271 -0.1678 -0.6208  0.5292
  306TMC3     H 4609   3.299   2.271  14.471  0.2935  0.4722 -0.6775
  306TMC3    H1 4610   3.539   2.619  14.486 -1.2972 -0.5103 -2.1242
  306TMC3    H2 4611   3.369   2.446  14.845  1.5252 -1.5386  0.4927
  306TMC3    C7 4612   3.519   2.647  14.756  0.1378  0.0170 -0.3098
  306TMC3    C8 4613   3.329   2.205  14.723  0.1563 -0.1290 -0.1392
  306TMC3    O1 4614   3.526   2.752  14.697  0.3536  0.1630 -0.1273
  306TMC3    O2 4615   3.348   2.110  14.650  0.3853  0.6039 -0.1309
  307MPD2     C 4616   1.094   0.082   0.073 -0.0635  0.5776  0.3550
  307MPD2    C1 4617   1.033   0.202   0.061 -0.2889  0.1767 -0.2633
  307MPD2    C2 4618   0.951   0.248   0.168  0.5829  0.2645 -0.2988
  307MPD2    C3 4619   0.950   0.183   0.284 -0.2129 -0.1588 -0.4418
  307MPD2    C4 4620   1.017   0.061   0.297  0.0592 -0.1163 -0.0126
  307MPD2    C5 4621   1.080   0.013   0.187 -0.2564 -0.7255  0.6663
  307MPD2     H 4622   0.905   0.346   0.163 -0.0978 -0.0248  0.3343
  307MPD2    H1 4623   1.002   0.008   0.391  0.2953  1.5245  0.9670
  307MPD2    H2 4624   1.152   0.035  17.692 -1.6187 -0.7402 -0.0193
  307MPD2    H3 4625   1.151   4.656   0.200  0.2356 -0.6500 -1.5501
  307MPD2     N 4626   0.856   0.223   0.396 -0.7205  0.6646  0.1033
  307MPD2    H5 4627   0.800   0.304   0.370  0.0637  0.9315 -0.7733
  307MPD2    N1 4628   1.032   0.285  17.649  0.2255  0.3119 -0.0288
  307MPD2    H7 4629   0.953   0.349  17.650 -0.2268 -0.2890  2.4761
  308TMC3    C1 4630   0.487   0.218   0.633  0.0680 -0.3256  0.5605
  308TMC3    C2 4631   0.468   0.346   0.595  0.3087 -0.8346 -0.4978
  308TMC3    C3 4632   0.577   0.408   0.552 -0.4903 -0.8403  0.0351
  308TMC3    C4 4633   0.608   0.151   0.625  0.1025 -0.4968 -0.6559
  308TMC3    C5 4634   0.712   0.224   0.566 -0.5112  0.1452 -0.2780
  308TMC3    C6 4635   0.703   0.358   0.542 -0.1364 -0.7581 -0.3906
  308TMC3     C 4636   0.369   0.139   0.683 -0.2488  0.3048  0.0848
  308TMC3     O 4637   0.398   0.025   0.715  0.2193 -0.1626 -0.5497
  308TMC3     H 4638   0.368   0.383   0.580  0.6590 -0.3674 -1.6810
  308TMC3    H1 4639   0.614   0.044   0.642 -0.4746 -0.6572 -1.4565
  308TMC3    H2 4640   0.779   0.420   0.496  0.3269 -0.5991  0.5884
  308TMC3    C7 4641   0.824   0.160   0.513 -0.1417  0.3006 -0.2695
  308TMC3    C8 4642   0.550   0.543   0.515 -0.3872 -0.1227 -0.4672
  308TMC3    O1 4643   0.868   0.061   0.571  0.6345  0.3378  0.4448
  308TMC3    O2 4644   0.617   0.603   0.429  0.4907 -0.1852  0.1352
  309MPD2     C 4645   0.012   0.542  17.181  0.3252  0.3888  0.4970
  309MPD2    C1 4646   4.670   0.610  17.083  0.2768 -0.4004  0.2593
  309MPD2    C2 4647   4.562   0.696  17.113 -0.9496  1.0241 -0.2749
  309MPD2    C3 4648   4.505   0.695  17.240  0.0051  0.1963  0.0757
  309MPD2    C4 4649   4.574   0.623  17.337  0.6045 -0.6491 -0.7664
  309MPD2    C5 4650   4.688   0.552  17.312  0.3110  0.4414  0.3614
  309MPD2     H 4651   4.510   0.755  17.039 -1.7557 -0.7498 -1.1100
  309MPD2    H1 4652   4.536   0.635  17.438 -1.6514 -2.3282 -1.4247
  309MPD2    H2 4653   0.106   0.495  17.157 -0.6851 -0.6881 -1.3846
  309MPD2    H3 4654   0.017   0.509  17.396  1.5297  3.4659  1.1446
  309MPD2     N 4655   4.397   0.769  17.282  0.2764 -0.7131 -0.4199
  309MPD2    H5 4656   4.350   0.744  17.369  1.5842  0.4735  0.6377
  309MPD2    N1 4657   0.010   0.612  16.957 -0.2408 -1.2534  0.5149
  309MPD2    H7 4658   0.096   0.560  16.943  1.2289  1.2141  0.2267
  310TMC3    C1 4659   0.039   0.688  16.735 -0.4193 -0.2294 -0.3487
  310TMC3    C2 4660   4.701   0.752  16.632 -0.0295  0.4870  0.2010
  310TMC3    C3 4661   0.052   0.832  16.547 -0.3440  0.5066  0.1578
  310TMC3    C4 4662   0.177   0.702  16.760  0.4879  0.5328  0.3988
  310TMC3    C5 4663   0.246   0.780  16.668  0.2806 -0.1126  0.6387
  310TMC3    C6 4664   0.186   0.848  16.564  0.2223  0.2296  0.0464
  310TMC3     C 4665   4.674   0.660  16.843  0.8219  0.2656  0.1507
  310TMC3     O 4666   4.561   0.696  16.831  0.1952  0.4741 -0.0323
  310TMC3     H 4667   4.602   0.722  16.600 -0.0969 -0.0111  0.8990
  310TMC3    H1 4668   0.227   0.653  16.843  1.7043 -2.0396 -1.8582
  310TMC3    H2 4669   0.251   0.867  16.480  1.4304  0.2710  0.9900
  310TMC3    C7 4670   0.376   0.717  16.633  0.3013 -0.1512  0.1049
  310TMC3    C8 4671   4.708   0.891  16.438 -0.1470  0.1438 -0.2050
  310TMC3    O1 4672   0.404   0.727  16.513 -0.1646  0.6729 -0.2826
  310TMC3    O2 4673   4.614   0.821  16.391  0.4904  0.0960  0.0072
  311MPD2     C 4674   2.155   1.881  12.778  0.0879  0.3459  0.2470
  311MPD2    C1 4675   2.135   2.009  12.723  1.0466 -0.3933 -0.1749
  311MPD2    C2 4676   2.005   2.056  12.692 -0.3203  1.0492  0.0615
  311MPD2    C3 4677   1.898   1.991  12.738  1.0133  0.3613  1.0268
  311MPD2    C4 4678   1.917   1.861  12.785 -0.3321  0.5279  0.0670
  311MPD2    C5 4679   2.044   1.812  12.811 -0.6273 -0.2710  0.4465
  311MPD2     H 4680   2.009   2.158  12.654 -0.8446  0.8484 -0.5231
  311MPD2    H1 4681   1.835   1.801  12.824  1.6478 -2.4019 -0.2062
  311MPD2    H2 4682   2.254   1.848  12.807  0.3669  1.1891  0.2732
  311MPD2    H3 4683   2.052   1.709  12.842  0.3578 -0.1534  0.5829
  311MPD2     N 4684   1.771   2.048  12.724 -0.5111  0.2030  0.1037
  311MPD2    H5 4685   1.761   2.148  12.709 -2.1058 -0.0960 -0.7784
  311MPD2    N1 4686   2.241   2.093  12.682 -0.1659  0.2916  0.0421
  311MPD2    H7 4687   2.205   2.184  12.655 -3.0784 -0.4657  1.4038
  312TMC3    C1 4688   1.539   2.058  12.719 -0.4349  0.2482  0.6569
  312TMC3    C2 4689   1.424   2.007  12.663  0.6947  0.8683 -0.2187
  312TMC3    C3 4690   1.316   2.090  12.644 -0.2119  0.3146 -0.2073
  312TMC3    C4 4691   1.536   2.176  12.785  0.7452 -0.0664 -0.2346
  312TMC3    C5 4692   1.427   2.262  12.759  0.7211 -0.1545 -0.2686
  312TMC3    C6 4693   1.319   2.226  12.684  0.4041  0.6763  0.0285
  312TMC3     C 4694   1.654   1.979  12.713  0.3622 -0.4722 -0.0165
  312TMC3     O 4695   1.641   1.861  12.683 -0.2214 -0.3435  0.0236
  312TMC3     H 4696   1.419   1.913  12.610 -2.1909  0.0213  1.5209
  312TMC3    H1 4697   1.626   2.215  12.831 -0.7981  1.2761  1.6755
  312TMC3    H2 4698   1.230   2.287  12.676 -0.3603 -0.0398  3.1621
  312TMC3    C7 4699   1.420   2.385  12.830  0.7842  0.8485 -0.5546
  312TMC3    C8 4700   1.195   2.026  12.585 -0.0590  0.8808  0.9081
  312TMC3    O1 4701   1.344   2.461  12.777 -0.5068  0.9771 -0.0693
  312TMC3    O2 4702   1.189   1.901  12.584 -0.1478 -0.0063 -0.3532
  313MPD2     C 4703   1.367   1.195  11.429  0.3279  0.3167 -1.0218
  313MPD2    C1 4704   1.434   1.264  11.333 -0.0905  0.0806  0.0431
  313MPD2    C2 4705   1.462   1.207  11.206 -1.2884 -0.1543 -0.7937
  313MPD2    C3 4706   1.402   1.082  11.181 -0.4035  0.4227 -0.0454
  313MPD2    C4 4707   1.326   1.019  11.277 -0.1009  0.7427  0.3775
  313MPD2    C5 4708   1.309   1.074  11.404  0.1976 -0.2459  0.0311
  313MPD2     H 4709   1.511   1.269  11.132 -3.6803  1.0811 -1.3410
  313MPD2    H1 4710   1.288   0.918  11.267 -0.3246  0.9264 -0.6657
  313MPD2    H2 4711   1.366   1.238  11.528  3.2850  0.2013 -0.9359
  313MPD2    H3 4712   1.249   1.028  11.482  1.7350 -2.7819 -0.2856
  313MPD2     N 4713   1.406   1.026  11.052  0.5780 -0.5738 -0.1682
  313MPD2    H5 4714   1.356   0.938  11.055 -2.7038  1.2149 -2.3967
  313MPD2    N1 4715   1.486   1.395  11.358 -0.2150  0.0639 -0.2577
  313MPD2    H7 4716   1.534   1.436  11.279  0.2958 -0.3246 -0.1503
  314TMC3    C1 4717   1.506   1.617  11.443 -0.4032 -0.2261  0.5283
  314TMC3    C2 4718   1.633   1.632  11.389 -1.2845 -0.3828  0.4934
  314TMC3    C3 4719   1.653   1.734  11.306 -0.5642 -0.1156 -0.6484
  314TMC3    C4 4720   1.399   1.704  11.416 -0.5471 -0.4605 -0.1627
  314TMC3    C5 4721   1.432   1.799  11.325  0.2708  0.1637 -0.5175
  314TMC3    C6 4722   1.551   1.813  11.267 -0.6047 -0.2267 -0.3795
  314TMC3     C 4723   1.454   1.483  11.466  0.3857 -0.5333 -0.0660
  314TMC3     O 4724   1.366   1.469  11.552  0.1049  0.1063 -0.0879
  314TMC3     H 4725   1.709   1.560  11.417 -1.7399 -0.7321  0.8321
  314TMC3    H1 4726   1.297   1.678  11.440 -0.2259 -0.3147  1.3386
  314TMC3    H2 4727   1.583   1.910  11.231 -0.0543 -1.2844 -2.6916
  314TMC3    C7 4728   1.320   1.847  11.248  0.1003 -0.2793 -0.5330
  314TMC3    C8 4729   1.785   1.776  11.260  0.6372  0.2462 -0.5609
  314TMC3    O1 4730   1.204   1.836  11.288 -0.1727  0.7597  0.1945
  314TMC3    O2 4731   1.784   1.830  11.151  0.0423 -0.3093  0.0970
  315MPD2     C 4732   1.289   0.633  17.353 -0.3783 -0.4162 -0.2142
  315MPD2    C1 4733   1.276   0.706  17.465  0.0230 -0.4470 -0.4452
  315MPD2    C2 4734   1.266   0.846  17.460  0.8291  0.6495 -0.5443
  315MPD2    C3 4735   1.274   0.907  17.332 -0.2149  0.1132 -0.5376
  315MPD2    C4 4736   1.290   0.829  17.214 -0.4232 -0.2246 -0.2665
  315MPD2    C5 4737   1.305   0.694  17.233 -0.2372  0.7922 -0.1225
  315MPD2     H 4738   1.244   0.907  17.547  2.9748 -2.0509  1.8797
  315MPD2    H1 4739   1.288   0.868  17.113 -2.5075 -0.1950 -0.2134
  315MPD2    H2 4740   1.305   0.526  17.345 -1.6652 -0.6078 -0.0949
  315MPD2    H3 4741   1.308   0.628  17.146  0.8173 -1.4584  1.6344
  315MPD2     N 4742   1.253   1.050  17.328 -0.2480  0.3778 -0.0633
  315MPD2    H5 4743   1.229   1.093  17.417 -2.3066  0.0802 -0.4794
  315MPD2    N1 4744   1.262   0.653  17.596 -0.6053 -0.2471 -0.9788
  315MPD2    H7 4745   1.234   0.720  17.667  0.2030 -2.2299  1.1914
  316TMC3    C1 4746   1.237   1.258  17.235 -0.4522 -0.0481  0.2295
  316TMC3    C2 4747   1.292   1.317  17.347  0.4980 -0.5475 -0.0018
  316TMC3    C3 4748   1.293   1.456  17.345 -0.3570 -0.8463  0.4296
  316TMC3    C4 4749   1.219   1.324  17.115  0.1428  0.2308  0.5924
  316TMC3    C5 4750   1.228   1.461  17.120  0.4089 -0.2131  0.2371
  316TMC3    C6 4751   1.265   1.529  17.233 -0.2370  0.1486 -0.0763
  316TMC3     C 4752   1.238   1.114  17.212  0.4548  0.7417  0.0931
  316TMC3     O 4753   1.225   1.082  17.097 -0.3481 -0.4451 -0.6253
  316TMC3     H 4754   1.300   1.269  17.444 -0.7712  2.3650  1.5762
  316TMC3    H1 4755   1.163   1.281  17.033 -2.0126  0.8245  1.7446
  316TMC3    H2 4756   1.282   1.636  17.226  0.2869  0.0616 -0.1466
  316TMC3    C7 4757   1.219   1.532  16.995 -0.4245 -0.6392  1.0091
  316TMC3    C8 4758   1.320   1.545  17.453  1.3916  0.2284 -0.8254
  316TMC3    O1 4759   1.223   1.656  16.998  0.4491 -0.3611 -0.2826
  316TMC3    O2 4760   1.271   1.660  17.449 -0.2583  0.1172 -0.0536
  317MPD2     C 4761   2.889   4.020  12.924  0.1539  0.4565 -0.1853
  317MPD2    C1 4762   2.928   3.891  12.922 -0.7242 -0.3467  0.6610
  317MPD2    C2 4763   2.969   3.834  13.037  0.7024  0.2830  0.6534
  317MPD2    C3 4764   2.989   3.901  13.156  0.2189  0.6562  0.2909
  317MPD2    C4 4765   2.965   4.037  13.157 -0.3134 -0.0502  0.3545
  317MPD2    C5 4766   2.921   4.091  13.042  0.0098 -0.2630  0.0449
  317MPD2     H 4767   2.986   3.727  13.034 -0.8288  0.0698 -0.4474
  317MPD2    H1 4768   2.988   4.103  13.239  0.2692 -1.3234  1.2223
  317MPD2    H2 4769   2.872   4.064  12.827  0.1805  0.4392 -0.1980
  317MPD2    H3 4770   2.887   4.194  13.046 -1.5275 -0.9104  4.2631
  317MPD2     N 4771   3.029   3.828  13.269 -0.0839 -0.0030 -0.4642
  317MPD2    H5 4772   3.058   3.733  13.248  0.8300  0.1206  0.2411
  317MPD2    N1 4773   2.934   3.814  12.802 -0.0452  0.2901 -0.2028
  317MPD2    H7 4774   2.957   3.715  12.808  2.0264  0.7542 -0.5049
  318TMC3    C1 4775   3.068   3.778  13.498 -0.9400  0.6567 -0.4172
  318TMC3    C2 4776   3.041   3.643  13.476 -0.1687  0.0981 -0.4508
  318TMC3    C3 4777   3.080   3.547  13.563  1.1411 -0.5365 -0.1986
  318TMC3    C4 4778   3.118   3.810  13.619  0.5289  0.2451  0.4034
  318TMC3    C5 4779   3.171   3.708  13.699 -0.0881  0.0485  0.5652
  318TMC3    C6 4780   3.147   3.578  13.681  0.0968  0.1163  0.5331
  318TMC3     C 4781   3.041   3.874  13.395  0.1670 -0.6488  0.0650
  318TMC3     O 4782   3.040   3.989  13.436  0.0118  0.2867 -1.0165
  318TMC3     H 4783   2.992   3.618  13.383  0.6900  1.1429 -1.1802
  318TMC3    H1 4784   3.137   3.915  13.635  2.6031 -0.0760 -0.0265
  318TMC3    H2 4785   3.175   3.509  13.760 -0.5205 -1.8959 -1.0192
  318TMC3    C7 4786   3.256   3.748  13.808 -0.9096  0.1752 -0.0109
  318TMC3    C8 4787   3.055   3.410  13.537 -0.0969  0.3229  0.5040
  318TMC3    O1 4788   3.237   3.861  13.852  0.0262  0.1468 -0.1964
  318TMC3    O2 4789   3.105   3.321  13.606  0.4217  0.3557 -0.2848
  319MPD2     C 4790   3.653   4.400  17.276 -0.0498 -0.3342 -0.4744
  319MPD2    C1 4791   3.644   4.533  17.246 -0.5206 -0.0545 -0.1573
  319MPD2    C2 4792   3.587   4.573  17.128 -0.1949 -0.1266  0.0874
  319MPD2    C3 4793   3.528   4.481  17.042  0.2670 -0.3796 -0.1857
  319MPD2    C4 4794   3.518   4.354  17.082  0.5266 -0.4854 -0.1617
  319MPD2    C5 4795   3.582   4.314  17.197  0.2728 -0.2053  0.1066
  319MPD2     H 4796   3.600   4.676  17.096  2.2060 -1.4493 -3.1617
  319MPD2    H1 4797   3.466   4.281  17.022  0.0195 -1.2358  1.1762
  319MPD2    H2 4798   3.722   4.357  17.347  0.7465 -0.7120 -1.4680
  319MPD2    H3 4799   3.582   4.209  17.225  1.5726  0.3992  2.3592
  319MPD2     N 4800   3.487   4.521  16.912 -0.1231 -0.1582 -0.3528
  319MPD2    H5 4801   3.449   4.444  16.859 -2.1311  2.1505 -2.2331
  319MPD2    N1 4802   3.699   4.631  17.332 -0.0067  0.1744 -0.3720
  319MPD2    H7 4803   3.682   0.003  17.302  0.1013  0.7704  1.4856
  320TMC3    C1 4804   3.474   4.626  16.704  0.1308 -0.0407  0.8002
  320TMC3    C2 4805   3.438   0.021  16.648 -1.2314  0.6906 -0.0517
  320TMC3    C3 4806   3.430   0.027  16.509  0.5297  0.0519  0.1963
  320TMC3    C4 4807   3.494   4.515  16.624 -0.0312  0.9866  0.1742
  320TMC3    C5 4808   3.489   4.527  16.490  0.0592 -0.0981  0.3007
  320TMC3    C6 4809   3.464   4.647  16.427 -0.8296  0.0467  0.1218
  320TMC3     C 4810   3.506   4.638  16.844 -0.0053 -0.0096 -0.1169
  320TMC3     O 4811   3.525   0.028  16.885  0.6223 -0.1452 -0.3346
  320TMC3     H 4812   3.415   0.105  16.713 -3.5823 -0.6567  0.8757
  320TMC3    H1 4813   3.525   4.421  16.668 -0.6605 -0.4132 -2.4126
  320TMC3    H2 4814   3.469   4.646  16.318 -1.8256  3.7323  0.0456
  320TMC3    C7 4815   3.537   4.418  16.415  0.2058 -0.2658 -0.5720
  320TMC3    C8 4816   3.432   0.167  16.453  0.0072  0.3072  0.4965
  320TMC3    O1 4817   3.479   4.396  16.305 -0.2958  0.4387 -0.3065
  320TMC3    O2 4818   3.451   0.264  16.529 -0.1471 -0.3364  0.1714
  321TMC3    C1 4819   3.790   4.723  17.530  0.2308 -0.0688  1.2933
  321TMC3    C2 4820   3.832   4.694  17.657 -0.1516 -0.0145 -0.5435
  321TMC3    C3 4821   3.917   0.063   0.015  0.7127  0.0392  0.3746
  321TMC3    C4 4822   3.815   0.117  17.461  0.3362  1.1526 -0.2323
  321TMC3    C5 4823   3.886   0.212  17.535  0.0721 -0.5410  0.0460
  321TMC3    C6 4824   3.942   0.186  17.655 -0.1788 -0.3325 -0.0724
  321TMC3     C 4825   3.774   4.604  17.445  0.1532  0.6369  0.2389
  321TMC3     O 4826   3.812   4.494  17.485  0.1003  0.3791  0.3130
  321TMC3     H 4827   3.831   4.592  17.694  1.7119 -0.1239 -0.8268
  321TMC3    H1 4828   3.793   0.137  17.357  1.2297  0.7582 -0.4991
  321TMC3    H2 4829   4.001   0.260   0.010  1.4042 -1.3319 -0.4525
  321TMC3    C7 4830   3.991   0.264  17.443 -1.0955 -0.0516 -0.0448
  321TMC3    C8 4831   4.037   0.010   0.067  0.5207 -0.5021  1.0305
  321TMC3    O1 4832   3.961   0.308  17.332  0.4629 -0.0392  0.8134
  321TMC3    O2 4833   4.125   0.087   0.025  0.4096 -0.3971 -0.0142
  322MPD2     C 4834   2.794   1.145  13.784  0.2093 -0.8229  0.2577
  322MPD2    C1 4835   2.869   1.146  13.900 -0.4302  0.2525  0.4235
  322MPD2    C2 4836   2.906   1.025  13.958 -0.0566 -0.4051 -0.1316
  322MPD2    C3 4837   2.866   0.904  13.897 -0.6378  0.4755 -0.7038
  322MPD2    C4 4838   2.795   0.903  13.775  0.5731  0.0716  0.0702
  322MPD2    C5 4839   2.753   1.026  13.727  0.9611  0.0543 -0.1312
  322MPD2     H 4840   2.969   1.024  14.047 -1.9408  1.3814  1.2347
  322MPD2    H1 4841   2.774   0.818  13.710 -0.2034  1.9298 -2.0837
  322MPD2    H2 4842   2.753   1.234  13.737  0.4234 -0.1997  1.2551
  322MPD2    H3 4843   2.699   1.024  13.633  0.4590  3.2069  0.1000
  322MPD2     N 4844   2.920   0.792  13.957  0.3573 -0.0702 -0.2851
  322MPD2    H5 4845   2.979   0.807  14.038 -2.1124 -1.1153  1.6846
  322MPD2    N1 4846   2.896   1.270  13.964  0.1121 -0.8704  0.5880
  322MPD2    H7 4847   2.937   1.265  14.057 -1.0866  1.4120  1.2263
  323TMC3    C1 4848   2.918   1.497  14.006  0.6599  0.0211 -0.4510
  323TMC3    C2 4849   3.005   1.594  13.958 -0.0381  0.0802 -0.4676
  323TMC3    C3 4850   3.083   1.662  14.045 -0.0676  0.5124  0.1302
  323TMC3    C4 4851   2.907   1.480  14.139  0.1026  0.4158 -0.6669
  323TMC3    C5 4852   2.994   1.540  14.223  0.0537 -0.6582 -0.2994
  323TMC3    C6 4853   3.086   1.630  14.177 -0.5150  0.2872  0.2433
  323TMC3     C 4854   2.876   1.396  13.913  0.4575  0.5425  0.6993
  323TMC3     O 4855   2.840   1.429  13.799 -0.3642 -0.1023  0.1083
  323TMC3     H 4856   3.015   1.602  13.850 -0.2074  0.7904 -0.4288
  323TMC3    H1 4857   2.837   1.405  14.175  1.2017 -0.9853 -1.4818
  323TMC3    H2 4858   3.155   1.678  14.245 -1.2806  1.2741  0.3131
  323TMC3    C7 4859   3.021   1.451  14.338  0.4039 -0.4814  0.3483
  323TMC3    C8 4860   3.200   1.723  13.995  0.2655  0.3120  0.7113
  323TMC3    O1 4861   2.974   1.339  14.331  0.3251  0.1917  0.0680
  323TMC3    O2 4862   3.293   1.722  14.073 -0.0981 -0.3312 -0.0790
  324MPD2     C 4863   4.397   2.484  14.770  0.1069 -0.6430 -0.0196
  324MPD2    C1 4864   4.421   2.409  14.653  0.6992  0.2800  0.0653
  324MPD2    C2 4865   4.329   2.392  14.559 -0.5339  0.3156 -0.1541
  324MPD2    C3 4866   4.214   2.467  14.563  0.6292  0.0611 -0.0827
  324MPD2    C4 4867   4.185   2.548  14.670 -0.4550 -0.6034  0.0306
  324MPD2    C5 4868   4.282   2.564  14.769 -0.0497 -0.3777  0.0176
  324MPD2     H 4869   4.344   2.324  14.475 -0.8545  1.1751 -0.9105
  324MPD2    H1 4870   4.098   2.612  14.671  0.9066  1.2701 -0.7197
  324MPD2    H2 4871   4.467   2.485  14.852 -0.6972 -0.8695  0.6695
  324MPD2    H3 4872   4.253   2.622  14.856 -0.7777 -0.1868 -0.3478
  324MPD2     N 4873   4.122   2.473  14.451 -0.4706  0.5945 -0.2302
  324MPD2    H5 4874   4.046   2.538  14.468 -1.4886 -0.6386 -0.0093
  324MPD2    N1 4875   4.547   2.342  14.635 -0.0613  0.1244  0.0187
  324MPD2    H7 4876   4.549   2.271  14.562 -0.7436 -0.1111  0.2263
  325TMC3    C1 4877   4.023   2.444  14.239  0.2236 -0.4237  0.1315
  325TMC3    C2 4878   3.972   2.341  14.160 -0.6748  0.7828 -0.5644
  325TMC3    C3 4879   3.877   2.381  14.074  0.7280 -0.2640  0.6097
  325TMC3    C4 4880   3.967   2.570  14.253 -0.6454  0.2624  0.1063
  325TMC3    C5 4881   3.858   2.587  14.180  0.0494  0.0739 -0.4969
  325TMC3    C6 4882   3.813   2.496  14.091  0.1207 -0.2697  1.2783
  325TMC3     C 4883   4.125   2.402  14.334  0.2716  0.3133 -0.1544
  325TMC3     O 4884   4.200   2.313  14.298 -0.4105  0.0556  0.3574
  325TMC3     H 4885   4.039   2.259  14.136  0.1029  1.0991  0.5127
  325TMC3    H1 4886   4.018   2.655  14.297 -0.1943 -0.2648  0.5945
  325TMC3    H2 4887   3.725   2.503  14.028  0.4115  1.9573  1.0982
  325TMC3    C7 4888   3.789   2.712  14.172  0.0481  0.0410 -0.4245
  325TMC3    C8 4889   3.888   2.335  13.937 -0.7358  0.1528  0.0469
  325TMC3    O1 4890   3.729   2.723  14.066 -0.8211 -0.0589 -0.1374
  325TMC3    O2 4891   3.900   2.212  13.916 -0.2902  0.1606  0.4100
  326MPD2     C 4892   1.425   3.395  11.063  0.8047  0.0898  0.6451
  326MPD2    C1 4893   1.468   3.371  10.939  0.0445 -0.0703 -0.0219
  326MPD2    C2 4894   1.596   3.418  10.906 -0.3145 -0.0577 -0.3042
  326MPD2    C3 4895   1.665   3.510  10.985  0.2205 -0.1065  0.3003
  326MPD2    C4 4896   1.630   3.521  11.117  0.7897  0.5818  0.4502
  326MPD2    C5 4897   1.509   3.459  11.150  0.1009 -0.3289  0.4598
  326MPD2     H 4898   1.614   3.397  10.801 -0.9636 -2.5291  0.0775
  326MPD2    H1 4899   1.694   3.573  11.187  2.3848 -2.1122  0.9899
  326MPD2    H2 4900   1.330   3.366  11.107  0.7085  0.3536  0.6077
  326MPD2    H3 4901   1.479   3.473  11.253  1.0681 -0.1387  0.7199
  326MPD2     N 4902   1.775   3.583  10.927  0.4761  0.0655 -0.1911
  326MPD2    H5 4903   1.806   3.668  10.973 -2.4229  1.2917 -0.4969
  326MPD2    N1 4904   1.390   3.303  10.848 -0.2114 -0.1665 -0.1869
  326MPD2    H7 4905   1.430   3.291  10.755 -2.3591  1.3094 -1.3133
  327TMC3    C1 4906   1.209   3.198  10.734 -0.6676 -0.1236  0.3653
  327TMC3    C2 4907   1.114   3.259  10.662  0.5951  0.8581 -0.2336
  327TMC3    C3 4908   1.111   3.250  10.525 -0.4620  0.2548 -0.1498
  327TMC3    C4 4909   1.305   3.126  10.673  0.3942  0.2179  0.1051
  327TMC3    C5 4910   1.309   3.112  10.539 -0.0094  0.2213  0.7136
  327TMC3    C6 4911   1.213   3.177  10.465 -0.0847  0.2662  0.1512
  327TMC3     C 4912   1.254   3.277  10.853 -0.9045  1.0201 -0.3003
  327TMC3     O 4913   1.167   3.328  10.923 -0.1496 -0.5328  0.1784
  327TMC3     H 4914   1.055   3.334  10.713  0.5720  0.8863 -0.3011
  327TMC3    H1 4915   1.368   3.066  10.738  0.5847 -1.6958 -1.8430
  327TMC3    H2 4916   1.213   3.196  10.358 -0.1723 -0.6061 -0.0085
  327TMC3    C7 4917   1.433   3.143  10.473  0.7135 -0.2104  0.7543
  327TMC3    C8 4918   1.082   3.384  10.470 -0.6038 -0.9765  0.3729
  327TMC3    O1 4919   1.417   3.226  10.387 -0.4927 -0.6234 -0.3979
  327TMC3    O2 4920   0.993   3.451  10.519 -0.2483 -0.2221 -0.4435
  328MPD2     C 4921   3.820   4.161   0.328  0.8192 -0.0916 -0.2581
  328MPD2    C1 4922   3.811   4.130   0.197 -0.0017  0.8316  0.0980
  328MPD2    C2 4923   3.754   4.220   0.109 -0.2498  0.3047 -0.0870
  328MPD2    C3 4924   3.695   4.342   0.160 -0.4041  1.0253 -0.0095
  328MPD2    C4 4925   3.715   4.376   0.292 -0.2005  0.1490 -1.1027
  328MPD2    C5 4926   3.780   4.286   0.370 -0.1951  0.7261 -0.5816
  328MPD2     H 4927   3.739   4.204   0.003 -0.8476 -3.4416  0.5775
  328MPD2    H1 4928   3.677   4.460   0.349 -2.9720 -1.1888 -0.9702
  328MPD2    H2 4929   3.853   4.097   0.409  0.0829 -0.8107 -0.5307
  328MPD2    H3 4930   3.796   4.313   0.474  1.5191 -0.9162 -0.4240
  328MPD2     N 4931   3.610   4.424   0.080 -0.2295 -0.3069 -0.3953
  328MPD2    H5 4932   3.583   4.513   0.121  0.3169 -1.1787  1.8606
  328MPD2    N1 4933   3.847   4.011   0.137  0.5455 -0.4104 -0.4310
  328MPD2    H7 4934   3.837   4.017   0.036 -0.4712 -0.4281 -0.3306
  329TMC3    C1 4935   3.909   3.783   0.110  0.3476 -0.2158 -0.7602
  329TMC3    C2 4936   3.849   3.674   0.157 -0.9149 -0.2529 -0.3359
  329TMC3    C3 4937   3.840   3.561   0.076  0.3476 -0.3745 -0.3296
  329TMC3    C4 4938   3.959   3.791  17.682 -0.0184 -0.0966 -0.0699
  329TMC3    C5 4939   3.944   3.675  17.605  0.2612  0.7231 -0.9133
  329TMC3    C6 4940   3.888   3.559  17.647 -0.4331 -0.4156  0.3083
  329TMC3     C 4941   3.892   3.901   0.201  0.0725  0.7533 -0.7150
  329TMC3     O 4942   3.912   3.884   0.320 -0.3699  0.0740 -0.2023
  329TMC3     H 4943   3.812   3.675   0.259  0.1891  1.6245  0.0480
  329TMC3    H1 4944   4.015   3.876  17.643  0.5818 -0.4992 -0.0808
  329TMC3    H2 4945   3.881   3.467  17.589  1.3848 -1.2130  1.3412
  329TMC3    C7 4946   3.965   3.691  17.462 -0.5173  0.6211 -0.1758
  329TMC3    C8 4947   3.733   3.471   0.110  0.1382 -0.2580  0.2568
  329TMC3    O1 4948   4.058   3.765  17.423  0.3798 -0.0595 -0.0156
  329TMC3    O2 4949   3.753   3.351   0.093  0.4845 -0.4891 -0.2656
  330TMC3    C1 4950   1.733   2.592   9.609 -0.5020  0.0362 -1.4098
  330TMC3    C2 4951   1.598   2.601   9.566  0.6527 -0.2124  0.4112
  330TMC3    C3 4952   1.517   2.492   9.593 -0.0257  0.3881 -0.1053
  330TMC3    C4 4953   1.796   2.477   9.644 -0.0562 -0.1779  0.8667
  330TMC3    C5 4954   1.708   2.364   9.649  0.8224 -0.2582 -0.3127
  330TMC3    C6 4955   1.571   2.372   9.633 -0.6139 -0.2277  0.2469
  330TMC3     C 4956   1.819   2.705   9.586  0.9860 -0.1740  0.0244
  330TMC3     O 4957   1.937   2.697   9.623  0.1810  0.5805  0.0562
  330TMC3     H 4958   1.553   2.699   9.554  4.7833  1.7689  0.9271
  330TMC3    H1 4959   1.904   2.471   9.649 -0.0568 -0.2322  0.8071
  330TMC3    H2 4960   1.508   2.284   9.648  0.9398 -1.3022  0.4492
  330TMC3    C7 4961   1.758   2.232   9.681 -0.0892  0.3170  0.7944
  330TMC3    C8 4962   1.369   2.509   9.578  0.1755 -0.8399  0.0699
  330TMC3    O1 4963   1.671   2.146   9.701 -0.3089  0.4669 -0.7826
  330TMC3    O2 4964   1.338   2.616   9.525 -0.2045 -0.1413  0.6268
  331MPD2     C 4965   3.775   1.827  12.850 -0.4503 -0.0107 -0.2043
  331MPD2    C1 4966   3.884   1.874  12.787  0.4043 -0.1320 -0.2404
  331MPD2    C2 4967   3.950   1.778  12.710  0.2604  0.0440  0.0050
  331MPD2    C3 4968   3.916   1.647  12.714 -0.1414  0.4301 -0.0712
  331MPD2    C4 4969   3.815   1.599  12.802 -0.3890 -0.6047  0.1123
  331MPD2    C5 4970   3.744   1.698  12.869 -0.7334 -0.3681 -0.0979
  331MPD2     H 4971   4.035   1.806  12.649  0.0589  2.3016  0.7716
  331MPD2    H1 4972   3.802   1.497  12.835 -1.7589 -0.7853 -0.9827
  331MPD2    H2 4973   3.709   1.897  12.899 -3.1702 -1.9307 -1.1369
  331MPD2    H3 4974   3.667   1.668  12.939 -2.0078 -1.3962 -1.9671
  331MPD2     N 4975   3.985   1.557  12.633  0.0366  0.8048  0.6980
  331MPD2    H5 4976   4.053   1.599  12.571 -2.5722  1.9095 -1.4138
  331MPD2    N1 4977   3.924   2.009  12.805  0.0399  0.1645  0.1624
  331MPD2    H7 4978   3.868   2.062  12.871 -1.4161 -1.5890  0.3412
  332TMC3    C1 4979   4.076   1.357  12.564 -0.5131  0.8852 -0.3247
  332TMC3    C2 4980   4.104   1.410  12.440 -0.0759 -0.5049  0.1465
  332TMC3    C3 4981   4.230   1.409  12.383 -0.3184 -0.1643 -0.4828
  332TMC3    C4 4982   4.181   1.293  12.626  0.6778  0.1796 -0.6277
  332TMC3    C5 4983   4.304   1.283  12.566 -0.3816  0.4690  0.4212
  332TMC3    C6 4984   4.329   1.341  12.445 -0.1845  0.3596 -0.4727
  332TMC3     C 4985   3.978   1.415  12.646  0.2060  0.2915 -0.5888
  332TMC3     O 4986   3.923   1.340  12.723 -0.2187 -0.0463  0.4221
  332TMC3     H 4987   4.040   1.490  12.408  1.2872 -0.2238 -1.9062
  332TMC3    H1 4988   4.172   1.269  12.732 -0.0695  1.2829 -0.4389
  332TMC3    H2 4989   4.421   1.320  12.393 -0.5342 -2.2201 -0.0585
  332TMC3    C7 4990   4.418   1.244  12.654 -0.2581 -0.8509  0.3026
  332TMC3    C8 4991   4.269   1.480  12.255 -0.1372 -0.7950 -0.4533
  332TMC3    O1 4992   4.400   1.168  12.750  0.0160  0.6847 -0.2659
  332TMC3    O2 4993   4.386   1.521  12.253 -0.3336 -0.0731 -0.4444
  333MPD2     C 4994   4.457   2.331  11.127  0.3752 -0.0448  0.4996
  333MPD2    C1 4995   4.559   2.235  11.157 -0.4237 -0.1113  0.2102
  333MPD2    C2 4996   4.528   2.125  11.233 -1.1152 -0.0130 -0.1485
  333MPD2    C3 4997   4.396   2.110  11.277  0.3870  0.5228 -0.2895
  333MPD2    C4 4998   4.303   2.214  11.264  0.1075 -0.4134  0.4062
  333MPD2    C5 4999   4.343   2.328  11.191 -0.5155 -0.2398  0.5848
  333MPD2     H 5000   4.608   2.054  11.249 -0.4354  1.2816  2.1078
  333MPD2    H1 5001   4.199   2.214  11.295 -0.4423  1.1232 -1.4051
  333MPD2    H2 5002   4.474   2.415  11.061  0.8131 -0.3063  0.2779
  333MPD2    H3 5003   4.262   2.400  11.179  0.2390  0.2021 -1.7915
  333MPD2     N 5004   4.356   1.977  11.312  0.0320 -0.1163  0.3057
  333MPD2    H5 5005   4.426   1.904  11.312  2.2326  2.0083  0.9572
  333MPD2    N1 5006   4.690   2.257  11.103 -0.1493  0.9722 -0.2584
  333MPD2    H7 5007   4.701   2.334  11.038  0.6642  0.6975 -0.4433
  334TMC3    C1 5008   0.198   2.234  11.053  0.0269 -0.6209 -0.2817
  334TMC3    C2 5009   0.319   2.214  11.116 -0.2997 -0.6150  0.4725
  334TMC3    C3 5010   0.436   2.249  11.043 -0.1251 -0.0755 -0.4148
  334TMC3    C4 5011   0.188   2.299  10.931  0.2020  0.1866  0.3060
  334TMC3    C5 5012   0.303   2.345  10.870 -0.1839  0.3757 -0.7364
  334TMC3    C6 5013   0.427   2.305  10.918 -0.2282  0.1202  0.4454
  334TMC3     C 5014   0.077   2.186  11.126  0.0539  0.1078 -0.2310
  334TMC3     O 5015   0.100   2.124  11.230 -0.5199  1.0000  0.5639
  334TMC3     H 5016   0.330   2.163  11.211  2.4247 -0.2656  0.3657
  334TMC3    H1 5017   0.089   2.315  10.891  0.3572  0.1096 -0.1058
  334TMC3    H2 5018   0.506   2.319  10.845 -0.7802  0.1090 -0.1543
  334TMC3    C7 5019   0.295   2.446  10.766 -0.6778 -0.6155 -0.0137
  334TMC3    C8 5020   0.563   2.251  11.113  0.0894  0.0907  0.0969
  334TMC3    O1 5021   0.390   2.446  10.692  0.2425 -0.0863  0.0090
  334TMC3    O2 5022   0.563   2.243  11.231 -0.1934  0.0061 -0.5987
  335TMC3    C1 5023   4.551   4.208  17.051 -0.5522 -1.1667  0.2445
  335TMC3    C2 5024   4.496   4.119  16.966 -0.0150 -0.5670 -0.1035
  335TMC3    C3 5025   4.567   4.091  16.857 -0.1550  0.1340  0.3638
  335TMC3    C4 5026   4.679   4.263  17.043  0.4770  0.0896  0.2849
  335TMC3    C5 5027   0.018   4.236  16.924 -0.1299  0.0162 -0.6954
  335TMC3    C6 5028   4.688   4.146  16.834  0.0588  0.3573 -0.0808
  335TMC3     C 5029   4.472   4.233  17.173 -0.1837 -0.2314 -0.3404
  335TMC3     O 5030   4.445   4.136  17.241 -0.4434 -0.0207  0.2781
  335TMC3     H 5031   4.397   4.077  16.982 -0.4191  0.4725  0.1655
  335TMC3    H1 5032   4.709   4.347  17.105  0.0577  0.5376 -0.1244
  335TMC3    H2 5033   0.010   4.147  16.736  0.9643 -2.1028  0.3105
  335TMC3    C7 5034   0.158   4.258  16.904  0.2968 -1.0103 -0.2282
  335TMC3    C8 5035   4.536   3.976  16.768 -0.8510 -0.6536  0.2812
  335TMC3    O1 5036   0.221   4.186  16.824 -0.2859  0.4126 -0.3111
  335TMC3    O2 5037   4.614   3.964  16.676 -0.3920 -0.0079  0.1706
  336MPD2     C 5038   3.781   1.510  16.339 -0.5525  0.3450 -0.0949
  336MPD2    C1 5039   3.810   1.432  16.237  0.5091  0.0522 -0.0948
  336MPD2    C2 5040   3.876   1.315  16.260 -0.2109 -0.9408  0.3597
  336MPD2    C3 5041   3.897   1.269  16.391  0.0514 -0.2406 -0.2764
  336MPD2    C4 5042   3.869   1.351  16.496 -0.5049 -0.8996 -0.7696
  336MPD2    C5 5043   3.809   1.472  16.464 -0.3850 -0.5644  0.1174
  336MPD2     H 5044   3.899   1.252  16.175  0.9020  1.3309 -1.0458
  336MPD2    H1 5045   3.877   1.328  16.601  3.2653 -0.0099 -0.8610
  336MPD2    H2 5046   3.734   1.607  16.333 -0.8698  0.2725  1.1684
  336MPD2    H3 5047   3.760   1.526  16.544 -0.2923  1.2223 -1.0250
  336MPD2     N 5048   3.957   1.146  16.418  0.4376  0.2869  0.3351
  336MPD2    H5 5049   3.983   1.135  16.516 -0.9498 -1.0145  0.5580
  336MPD2    N1 5050   3.786   1.469  16.102  0.2907 -1.2550  0.0531
  336MPD2    H7 5051   3.827   1.405  16.036  2.3934 -1.5132  1.5948
  337TMC3    C1 5052   3.703   1.598  15.918 -0.1364 -0.5141  0.6022
  337TMC3    C2 5053   3.581   1.641  15.867 -0.1050 -0.0776 -0.6947
  337TMC3    C3 5054   3.545   1.623  15.739 -0.8109  0.4769  0.1371
  337TMC3    C4 5055   3.791   1.543  15.833  0.8430 -0.2711 -0.2752
  337TMC3    C5 5056   3.758   1.547  15.698 -0.7770 -0.1388 -0.1808
  337TMC3    C6 5057   3.638   1.583  15.647  0.8101 -0.1675  0.2171
  337TMC3     C 5058   3.710   1.581  16.060  0.4299 -0.0369  0.1151
  337TMC3     O 5059   3.651   1.669  16.123 -0.0918  0.2132 -0.7376
  337TMC3     H 5060   3.507   1.680  15.936 -0.6157 -1.2530 -0.5760
  337TMC3    H1 5061   3.883   1.498  15.865  0.1655 -1.2674  0.2693
  337TMC3    H2 5062   3.624   1.569  15.541 -2.9089  0.6347  0.5773
  337TMC3    C7 5063   3.859   1.520  15.604  0.4969 -0.5630  0.4899
  337TMC3    C8 5064   3.422   1.683  15.690  0.1675 -0.3469 -0.1254
  337TMC3    O1 5065   3.837   1.567  15.492  0.5275  0.3239  0.0212
  337TMC3    O2 5066   3.388   1.789  15.741 -0.0126 -0.1635 -0.5170
  338MPD2     C 5067   3.798   0.597   1.015  0.0435 -0.4275  0.3462
  338MPD2    C1 5068   3.854   0.682   0.918 -1.1342 -0.2695 -0.1132
  338MPD2    C2 5069   3.831   0.817   0.927  0.1905  0.0864 -0.1647
  338MPD2    C3 5070   3.750   0.871   1.028 -1.0652  0.0605 -0.0830
  338MPD2    C4 5071   3.697   0.784   1.127  0.2217 -0.3259  0.7496
  338MPD2    C5 5072   3.722   0.650   1.118 -0.3773 -0.4331 -0.4854
  338MPD2     H 5073   3.886   0.876   0.855 -1.1537  0.3914 -0.9232
  338MPD2    H1 5074   3.648   0.832   1.211 -0.4747  0.4699 -0.1121
  338MPD2    H2 5075   3.827   0.493   1.024  1.0390 -0.1327  0.5594
  338MPD2    H3 5076   3.692   0.583   1.197  2.0040 -0.6566  0.2101
  338MPD2     N 5077   3.735   1.013   1.021 -0.8244 -0.4958 -0.5631
  338MPD2    H5 5078   3.775   1.050   0.936  0.9994 -0.9333  0.1135
  338MPD2    N1 5079   3.942   0.636   0.817 -0.0193 -0.9368 -0.4562
  338MPD2    H7 5080   4.003   0.709   0.781 -1.4772  0.9368  0.8024
  339TMC3    C1 5081   3.685   1.229   1.093 -0.0034 -0.1338  0.0353
  339TMC3    C2 5082   3.586   1.302   1.153  0.1392 -0.7869 -0.8761
  339TMC3    C3 5083   3.546   1.420   1.104 -0.2778 -0.0732  0.4579
  339TMC3    C4 5084   3.729   1.273   0.967 -0.3927  0.1626 -0.3170
  339TMC3    C5 5085   3.683   1.392   0.922 -0.9315 -0.2099  0.1981
  339TMC3    C6 5086   3.583   1.467   0.980 -0.7326  0.0855  1.0855
  339TMC3     C 5087   3.676   1.088   1.121 -0.6981 -0.3119 -0.7328
  339TMC3     O 5088   3.634   1.043   1.230 -0.1859  0.0460  1.4004
  339TMC3     H 5089   3.557   1.270   1.253 -0.9995  1.2104 -0.5756
  339TMC3    H1 5090   3.814   1.217   0.930 -0.0924  0.0914  0.4906
  339TMC3    H2 5091   3.529   1.548   0.931  0.5336 -1.5297 -2.9564
  339TMC3    C7 5092   3.726   1.434   0.792 -0.5133  0.4186  0.0674
  339TMC3    C8 5093   3.403   1.456   1.138 -0.2046 -0.3194  0.1211
  339TMC3    O1 5094   3.768   1.342   0.727 -0.2304  0.1600  0.3642
  339TMC3    O2 5095   3.362   1.570   1.108  0.4094  0.0291  0.1131
  340MPD2     C 5096   4.280   3.654   9.351  0.6169  0.7432  0.4393
  340MPD2    C1 5097   4.245   3.532   9.407 -0.2786  0.3639 -0.4406
  340MPD2    C2 5098   4.334   3.466   9.488  0.6151  0.5663 -0.6846
  340MPD2    C3 5099   4.458   3.519   9.513  0.0486 -0.6029  0.0925
  340MPD2    C4 5100   4.505   3.633   9.451  0.2877  0.3822 -0.2152
  340MPD2    C5 5101   4.408   3.699   9.374  0.2551  0.3525 -0.1270
  340MPD2     H 5102   4.311   3.367   9.525  2.1374  0.5030  0.1131
  340MPD2    H1 5103   4.605   3.671   9.467  1.2350 -1.1930 -2.3706
  340MPD2    H2 5104   4.209   3.714   9.294 -1.5958 -1.1828  1.1587
  340MPD2    H3 5105   4.442   3.791   9.327  0.8068  0.0490 -0.3226
  340MPD2     N 5106   4.548   3.457   9.602 -0.3235  0.7143  0.2819
  340MPD2    H5 5107   4.640   3.499   9.599 -0.1590  0.2715 -0.7281
  340MPD2    N1 5108   4.121   3.488   9.361  0.2905  0.2912 -0.1680
  340MPD2    H7 5109   4.067   3.541   9.293  1.7899  0.9449 -0.8415
  341TMC3    C1 5110   3.968   3.330   9.282 -0.1877  0.3172  0.3810
  341TMC3    C2 5111   3.898   3.208   9.297  0.0417 -0.1426  0.0200
  341TMC3    C3 5112   3.865   3.127   9.188 -0.2601  0.0695 -0.5400
  341TMC3    C4 5113   4.001   3.366   9.151 -0.7081 -1.0602  0.7865
  341TMC3    C5 5114   3.983   3.278   9.045  0.9295 -0.8239 -0.0957
  341TMC3    C6 5115   3.910   3.158   9.059 -0.2499 -0.7380 -0.6366
  341TMC3     C 5116   4.058   3.371   9.387  0.2791  0.1522 -0.1278
  341TMC3     O 5117   4.096   3.280   9.464  0.4695  0.2075 -0.0900
  341TMC3     H 5118   3.876   3.183   9.401 -0.4112  0.9175  0.1804
  341TMC3    H1 5119   4.050   3.462   9.135 -0.0758 -1.2293  1.6805
  341TMC3    H2 5120   3.914   3.079   8.985 -0.1329 -0.6140 -0.7661
  341TMC3    C7 5121   4.118   3.267   8.981  0.5118 -0.0628 -0.6889
  341TMC3    C8 5122   3.847   2.986   9.224 -0.1804  0.0725  0.2694
  341TMC3    O1 5123   4.197   3.357   9.012  0.6318  0.2087  0.4057
  341TMC3    O2 5124   3.889   2.939   9.325 -0.5331  0.1727 -0.1776
  342MPD2     C 5125   1.989   1.786   0.086  0.4095 -0.9097  0.9094
  342MPD2    C1 5126   2.101   1.791   0.001 -0.2973  0.3429 -0.6494
  342MPD2    C2 5127   2.144   1.921  17.657  0.5203 -0.1715 -0.4022
  342MPD2    C3 5128   2.072   2.033  17.693  0.3273 -0.0246  0.2757
  342MPD2    C4 5129   1.957   2.020   0.069 -0.4967 -0.2536  0.4526
  342MPD2    C5 5130   1.911   1.900   0.107 -0.0147  0.5190 -0.2650
  342MPD2     H 5131   2.229   1.940  17.592  0.7149  1.7044  0.4010
  342MPD2    H1 5132   1.895   2.101   0.108 -1.1665 -0.3481 -0.4040
  342MPD2    H2 5133   1.959   1.694   0.134 -0.5783 -0.5345  1.0032
  342MPD2    H3 5134   1.824   1.888   0.170  0.6722 -0.3467  0.5096
  342MPD2     N 5135   2.101   2.166  17.653 -0.0783 -0.6604 -0.0923
  342MPD2    H5 5136   2.028   2.232  17.678 -0.2565 -0.7320 -0.4281
  342MPD2    N1 5137   2.179   1.679  17.665  0.3880 -0.2472 -0.1382
  342MPD2    H7 5138   2.251   1.699  17.596 -1.7706 -0.3882 -2.4323
  343TMC3    C1 5139   2.238   1.442  17.647  0.2293  0.5989  0.3876
  343TMC3    C2 5140   2.366   1.472  17.602  0.2017 -0.3656  0.4825
  343TMC3    C3 5141   2.429   1.373  17.532  0.0730 -0.1654 -0.1091
  343TMC3    C4 5142   2.167   1.323  17.626 -0.2049 -0.3664  0.4859
  343TMC3    C5 5143   2.236   1.233  17.553 -0.0054 -0.0592  0.0688
  343TMC3    C6 5144   2.366   1.255  17.505  0.0150  0.4647  0.5008
  343TMC3     C 5145   2.157   1.553   0.010 -0.1881  0.2402 -0.0907
  343TMC3     O 5146   2.066   1.503   0.070  0.1519  0.1493 -0.0461
  343TMC3     H 5147   2.413   1.569  17.609 -2.0791  0.9219 -2.1273
  343TMC3    H1 5148   2.070   1.306  17.673 -1.4841 -0.6203 -2.2237
  343TMC3    H2 5149   2.413   1.170  17.458 -2.0887 -0.1128 -0.5400
  343TMC3    C7 5150   2.183   1.099  17.541 -0.2467  0.1109  0.5540
  343TMC3    C8 5151   2.567   1.394  17.490 -0.4628  0.2162 -0.4236
  343TMC3    O1 5152   2.234   1.023  17.461  0.2590  0.6541 -0.4722
  343TMC3    O2 5153   2.623   1.491  17.534  0.0202  0.3778  0.3270
  344MPD2     C 5154   3.014   1.552  10.575  0.7572  0.0494 -0.5154
  344MPD2    C1 5155   2.932   1.513  10.475  0.2066  0.0672 -0.4792
  344MPD2    C2 5156   2.945   1.581  10.348 -0.2894 -0.1984  0.2731
  344MPD2    C3 5157   3.059   1.666  10.331 -0.0095  0.0542  0.8269
  344MPD2    C4 5158   3.151   1.680  10.432 -0.5772  0.8480 -0.4472
  344MPD2    C5 5159   3.126   1.620  10.548  0.3472 -0.6930 -0.0254
  344MPD2     H 5160   2.868   1.573  10.273 -0.4682 -0.0689  0.4443
  344MPD2    H1 5161   3.236   1.748  10.431  0.0168  0.1026 -0.9896
  344MPD2    H2 5162   3.004   1.522  10.679  0.6842  1.0025 -0.2498
  344MPD2    H3 5163   3.195   1.647  10.627  0.3878  1.6282 -0.8301
  344MPD2     N 5164   3.088   1.730  10.208  0.2034  0.6303 -0.0653
  344MPD2    H5 5165   3.176   1.780  10.214  2.0503 -2.7210  0.4063
  344MPD2    N1 5166   2.829   1.420  10.494 -0.3914 -0.6195  0.1928
  344MPD2    H7 5167   2.773   1.401  10.412  1.3008 -2.2185 -0.5836
  345TMC3    C1 5168   3.097   1.800   9.994  0.6236  0.2192  0.5027
  345TMC3    C2 5169   3.228   1.813  10.032  0.9776 -0.5592 -0.3756
  345TMC3    C3 5170   3.297   1.927   9.991 -0.4186  0.2782 -0.1502
  345TMC3    C4 5171   3.033   1.894   9.912 -1.2745  0.4842  0.1003
  345TMC3    C5 5172   3.110   2.003   9.866  1.1229  0.3233 -0.6044
  345TMC3    C6 5173   3.241   2.024   9.906  0.4550 -0.1361  0.2102
  345TMC3     C 5174   3.011   1.739  10.091 -0.1851 -0.5542  0.2145
  345TMC3     O 5175   2.890   1.720  10.079 -0.3146 -0.1379 -0.4594
  345TMC3     H 5176   3.289   1.741  10.084  2.5044  1.0080 -0.0057
  345TMC3    H1 5177   2.927   1.898   9.895 -1.2335  1.4422  0.0969
  345TMC3    H2 5178   3.294   2.117   9.887  0.7526 -0.7882 -2.1305
  345TMC3    C7 5179   3.072   2.083   9.751  0.5813 -0.5823 -0.2345
  345TMC3    C8 5180   3.378   1.963  10.106  0.2808 -0.0375 -0.3077
  345TMC3    O1 5181   3.163   2.112   9.673 -0.1410  0.2325 -0.0350
  345TMC3    O2 5182   3.356   1.898  10.205 -0.0348 -0.2754  0.1030
  346MPD2     C 5183   2.744   3.017  14.345  0.4148  0.6062 -0.6239
  346MPD2    C1 5184   2.869   3.003  14.289  0.2215 -1.0231 -0.1632
  346MPD2    C2 5185   2.987   3.026  14.367  0.3620 -0.1709  0.0985
  346MPD2    C3 5186   2.968   3.074  14.499  0.4723 -0.1090 -0.0824
  346MPD2    C4 5187   2.839   3.096  14.551 -0.1736  0.1765  0.0342
  346MPD2    C5 5188   2.728   3.075  14.468  0.2589 -0.2734 -0.4434
  346MPD2     H 5189   3.083   2.999  14.325  0.3224 -1.0110  0.5401
  346MPD2    H1 5190   2.835   3.128  14.654 -0.5652 -1.3794  0.5060
  346MPD2    H2 5191   2.655   3.004  14.284  0.1788 -0.2983 -0.0805
  346MPD2    H3 5192   2.629   3.101  14.505  1.0768  0.0416  1.4746
  346MPD2     N 5193   3.086   3.105  14.576 -0.2482  0.5998  0.0443
  346MPD2    H5 5194   3.174   3.085  14.529 -0.0238  2.1641 -0.1938
  346MPD2    N1 5195   2.886   2.966  14.154 -0.0435  0.2172 -0.4716
  346MPD2    H7 5196   2.979   2.978  14.115 -0.4977  0.6094 -1.4136
  347TMC3    C1 5197   3.229   3.139  14.753 -0.1013  0.2065 -0.6068
  347TMC3    C2 5198   3.337   3.096  14.683 -0.3005  0.2714  0.0226
  347TMC3    C3 5199   3.456   3.121  14.737  0.1087 -0.0424 -0.4986
  347TMC3    C4 5200   3.244   3.200  14.874  0.5005 -0.3049  0.6414
  347TMC3    C5 5201   3.371   3.222  14.925  0.6804  0.2914 -0.3643
  347TMC3    C6 5202   3.479   3.171  14.859  0.5022  0.3785  0.1949
  347TMC3     C 5203   3.088   3.143  14.706  0.3102 -0.5833 -1.0664
  347TMC3     O 5204   2.999   3.171  14.784 -0.8552 -0.1677  0.3857
  347TMC3     H 5205   3.332   3.043  14.588 -3.3638  1.1911 -0.3410
  347TMC3    H1 5206   3.159   3.231  14.933  1.2190 -0.4868  1.7852
  347TMC3    H2 5207   3.583   3.168  14.891 -0.7144  1.0326  4.2208
  347TMC3    C7 5208   3.391   3.291  15.050  0.4091  0.3163  0.1796
  347TMC3    C8 5209   3.572   3.099  14.654  0.4357 -0.1682 -0.1532
  347TMC3    O1 5210   3.293   3.287  15.124  0.1005 -0.0444 -0.5501
  347TMC3    O2 5211   3.682   3.070  14.705 -0.5308 -0.1127 -0.4126
  348MPD2     C 5212   2.632   2.601  11.926  0.2088  0.5843  0.0778
  348MPD2    C1 5213   2.572   2.519  11.836 -0.4069 -0.7912  0.5163
  348MPD2    C2 5214   2.545   2.573  11.714  0.5849  0.8864  0.3944
  348MPD2    C3 5215   2.591   2.703  11.680 -0.1288  0.2602 -0.3140
  348MPD2    C4 5216   2.666   2.775  11.771 -0.6031 -0.1427 -0.2317
  348MPD2    C5 5217   2.675   2.725  11.893  0.4068 -0.7614 -0.0815
  348MPD2     H 5218   2.480   2.519  11.645  0.6151 -0.4051  1.3693
  348MPD2    H1 5219   2.709   2.874  11.758  0.6653 -0.8129 -1.2033
  348MPD2    H2 5220   2.662   2.557  12.020  1.7176  1.7330  0.1256
  348MPD2    H3 5221   2.715   2.783  11.975 -0.3890  0.1524 -0.3452
  348MPD2     N 5222   2.555   2.751  11.552  0.5940  0.0101  0.4074
  348MPD2    H5 5223   2.483   2.696  11.507  1.4613 -1.0653  0.3324
  348MPD2    N1 5224   2.527   2.388  11.870 -0.7570 -0.0259 -0.0821
  348MPD2    H7 5225   2.472   2.334  11.804 -0.2869 -0.3017 -0.2477
  349TMC3    C1 5226   2.480   2.195  12.008 -0.4492 -0.3349  0.4365
  349TMC3    C2 5227   2.514   2.124  12.119 -0.2415  0.5201  0.2018
  349TMC3    C3 5228   2.433   2.024  12.156 -0.0067  0.1678 -0.1960
  349TMC3    C4 5229   2.374   2.164  11.931 -0.0297 -0.4413  0.2832
  349TMC3    C5 5230   2.290   2.068  11.974  0.5183 -0.2796 -0.1691
  349TMC3    C6 5231   2.313   1.995  12.088 -0.4863 -0.3011  0.9305
  349TMC3     C 5232   2.549   2.319  11.987 -0.5748 -0.0037 -0.0464
  349TMC3     O 5233   2.628   2.344  12.075  0.0545 -0.3701 -0.2348
  349TMC3     H 5234   2.593   2.156  12.186  0.1399  1.1554 -0.5535
  349TMC3    H1 5235   2.333   2.231  11.856  2.0937  0.2066 -0.3096
  349TMC3    H2 5236   2.245   1.919  12.127 -1.3076  0.8146  1.6879
  349TMC3    C7 5237   2.169   2.039  11.899 -0.0537  0.6765 -0.2468
  349TMC3    C8 5238   2.460   1.952  12.279 -0.4034  0.4328  0.2541
  349TMC3    O1 5239   2.067   2.001  11.954 -0.6209 -0.0540  0.8616
  349TMC3    O2 5240   2.506   2.017  12.367 -0.0579 -0.0675  0.1145
  350MPD2     C 5241   0.932   0.739  10.272  0.5875  0.2201  0.8677
  350MPD2    C1 5242   1.049   0.668  10.273 -0.3538 -0.4723  0.2144
  350MPD2    C2 5243   1.169   0.736  10.300  0.1698 -0.3345 -0.0271
  350MPD2    C3 5244   1.161   0.863  10.356 -0.3835  0.1459  0.3056
  350MPD2    C4 5245   1.044   0.928  10.352 -0.5203  0.6612  0.5136
  350MPD2    C5 5246   0.926   0.866  10.318  0.3963 -0.0380 -0.0068
  350MPD2     H 5247   1.265   0.686  10.303 -0.4912 -1.6242 -0.4286
  350MPD2    H1 5248   1.039   1.030  10.388  0.2257  0.5695  0.8769
  350MPD2    H2 5249   0.838   0.694  10.244  0.2571  0.5793  1.4159
  350MPD2    H3 5250   0.836   0.928  10.314  0.6629  0.5017  2.8011
  350MPD2     N 5251   1.274   0.909  10.425 -0.0903  0.6657  0.3873
  350MPD2    H5 5252   1.351   0.845  10.407  0.1828  0.9210  0.6523
  350MPD2    N1 5253   1.067   0.531  10.228  0.0669  0.3651 -0.3319
  350MPD2    H7 5254   1.160   0.490  10.236  0.0238  0.0988 -1.2085
  351TMC3    C1 5255   0.981   0.305  10.181  0.0693  0.4652  0.2845
  351TMC3    C2 5256   1.105   0.255  10.164  0.7255 -0.0603  0.3189
  351TMC3    C3 5257   1.123   0.119  10.163 -0.2032  0.0662 -0.4645
  351TMC3    C4 5258   0.870   0.234  10.200  0.1555 -0.4942  0.1244
  351TMC3    C5 5259   0.891   0.099  10.204 -0.6236 -0.4353  0.5049
  351TMC3    C6 5260   1.011   0.041  10.179 -0.4857  0.3296 -0.2236
  351TMC3     C 5261   0.959   0.448  10.199 -0.5281  0.5173  0.2445
  351TMC3     O 5262   0.849   0.486  10.160 -0.1191  0.2651 -0.3060
  351TMC3     H 5263   1.188   0.323  10.153 -0.9285  1.7232 -1.1218
  351TMC3    H1 5264   0.777   0.274  10.238  0.2138 -1.8254  1.6718
  351TMC3    H2 5265   1.025   4.657  10.173 -0.7869  0.1983  1.3649
  351TMC3    C7 5266   0.777   0.020  10.191  0.1752  0.6357  0.4459
  351TMC3    C8 5267   1.244   0.061  10.100 -0.2886  0.1883  0.3745
  351TMC3    O1 5268   0.681   0.070  10.133 -0.0076 -0.1921 -0.0356
  351TMC3    O2 5269   1.346   0.127  10.098 -0.1355 -0.2707 -0.1861
  352MPD2     C 5270   3.897   2.935   1.498  0.2420 -0.3286  0.5235
  352MPD2    C1 5271   4.019   2.929   1.435 -0.7045 -0.1400  0.2229
  352MPD2    C2 5272   4.100   2.816   1.446 -0.0576 -0.8906  0.0347
  352MPD2    C3 5273   4.055   2.705   1.517 -0.1055  0.4853 -0.1166
  352MPD2    C4 5274   3.936   2.703   1.572 -0.4027 -0.3217 -0.5480
  352MPD2    C5 5275   3.854   2.816   1.563  0.0417 -0.3347 -0.3772
  352MPD2     H 5276   4.204   2.807   1.416  0.2943  2.1250  0.3541
  352MPD2    H1 5277   3.893   2.613   1.615  0.0841 -0.1424  0.3221
  352MPD2    H2 5278   3.840   3.027   1.490 -1.2859 -1.2424  1.0277
  352MPD2    H3 5279   3.754   2.814   1.604  0.3176 -0.4675  0.2935
  352MPD2     N 5280   4.129   2.586   1.543  0.2177  0.8424 -0.7302
  352MPD2    H5 5281   4.071   2.505   1.562  0.1750  0.8479 -0.8354
  352MPD2    N1 5282   4.064   3.052   1.384  0.0382 -0.2961  0.1155
  352MPD2    H7 5283   4.013   3.133   1.419 -0.2234 -1.1411  1.7267
  353TMC3    C1 5284   4.298   2.433   1.520  0.1752  0.2548 -0.6381
  353TMC3    C2 5285   4.426   2.398   1.549 -0.7065  0.4386  0.1937
  353TMC3    C3 5286   4.483   2.291   1.482  0.1625  0.8589  0.0947
  353TMC3    C4 5287   4.219   2.357   1.441  0.5823 -0.4944  0.5911
  353TMC3    C5 5288   4.276   2.246   1.389  0.3733 -0.5150 -0.1861
  353TMC3    C6 5289   4.412   2.213   1.397 -0.0384  0.3459 -0.2024
  353TMC3     C 5290   4.265   2.574   1.530  0.5065 -0.2377 -0.0643
  353TMC3     O 5291   4.357   2.659   1.523  0.1092 -0.2576  0.4877
  353TMC3     H 5292   4.483   2.463   1.615 -1.6207  0.2836  1.1253
  353TMC3    H1 5293   4.122   2.391   1.407 -0.5301 -2.7130  1.5366
  353TMC3    H2 5294   4.445   2.127   1.339  0.1638 -0.1705  0.6771
  353TMC3    C7 5295   4.204   2.179   1.286  0.3069 -0.8182 -0.6477
  353TMC3    C8 5296   4.622   2.258   1.511  0.8045  0.5988 -0.5202
  353TMC3    O1 5297   4.265   2.119   1.198 -0.2909 -0.0709 -0.3774
  353TMC3    O2 5298   4.667   2.289   1.619 -0.6617 -0.0645 -0.0429
  354TMC3    C1 5299   1.285   3.979  13.294  0.2151  0.2337  0.3204
  354TMC3    C2 5300   1.253   4.098  13.250 -0.5661  1.0779 -0.0021
  354TMC3    C3 5301   1.320   4.149  13.148 -0.3138  0.2286 -0.5400
  354TMC3    C4 5302   1.388   3.907  13.248 -0.4476  0.5196  0.1526
  354TMC3    C5 5303   1.458   3.963  13.146 -0.6633  0.4024 -0.6317
  354TMC3    C6 5304   1.418   4.078  13.088 -0.0968  0.0055  0.7836
  354TMC3     C 5305   1.185   3.904  13.365 -0.4483 -0.4011  0.1092
  354TMC3     O 5306   1.215   3.815  13.442 -0.0761  0.2259 -0.1668
  354TMC3     H 5307   1.183   4.168  13.295 -2.0182  1.3066 -2.5991
  354TMC3    H1 5308   1.390   3.800  13.263  0.2888  0.0111 -3.4685
  354TMC3    H2 5309   1.476   4.135  13.016 -1.9704  0.4454 -0.3816
  354TMC3    C7 5310   1.567   3.885  13.086 -0.7811 -0.2297 -0.3084
  354TMC3    C8 5311   1.276   4.274  13.086  1.2271  0.4931  0.2309
  354TMC3    O1 5312   1.542   3.769  13.070 -0.0034 -0.4343 -0.3427
  354TMC3    O2 5313   1.204   4.351  13.151  0.2351 -0.7551 -0.2608
  355MPD2     C 5314   1.118   4.380  11.503 -0.1182  0.6958 -0.0695
  355MPD2    C1 5315   1.207   4.394  11.399  0.0059 -0.5234 -0.5972
  355MPD2    C2 5316   1.340   4.428  11.430 -0.6478  0.1790 -0.1156
  355MPD2    C3 5317   1.379   4.472  11.556 -0.4280  0.6290 -0.1345
  355MPD2    C4 5318   1.278   4.482  11.660 -0.3767  0.4800  0.1686
  355MPD2    C5 5319   1.152   4.431  11.626 -0.0357 -0.3151 -0.5114
  355MPD2     H 5320   1.406   4.427  11.344  0.1047 -3.0937  0.5335
  355MPD2    H1 5321   1.296   4.507  11.764  2.0500  0.9113 -0.3535
  355MPD2    H2 5322   1.020   4.340  11.482  0.3850 -1.4734  1.6967
  355MPD2    H3 5323   1.077   4.427  11.704  1.5981  0.0045  1.0962
  355MPD2     N 5324   1.500   4.554  11.572 -0.6457 -0.4460  0.5964
  355MPD2    H5 5325   1.503   4.618  11.651  0.1476  0.3849 -0.1002
  355MPD2    N1 5326   1.158   4.377  11.266 -0.0388 -0.2308 -0.2386
  355MPD2    H7 5327   1.065   4.337  11.265 -0.7908  1.5041  0.9721
  356TMC3    C1 5328   1.700   4.660  11.503 -0.2359 -0.5284  0.7575
  356TMC3    C2 5329   1.754   4.717  11.391  0.0452 -0.6036 -0.3046
  356TMC3    C3 5330   1.839   0.098  11.405 -0.3200  0.5870 -0.9941
  356TMC3    C4 5331   1.716   4.721  11.624 -0.2543 -0.6932 -1.2142
  356TMC3    C5 5332   1.786   0.115  11.632 -0.0436 -0.2569  0.0757
  356TMC3    C6 5333   1.859   0.159  11.524 -0.3407  0.5715  0.9102
  356TMC3     C 5334   1.606   4.556  11.481 -0.1600  0.1055 -0.0290
  356TMC3     O 5335   1.620   4.494  11.374  0.3773  0.4102 -0.3166
  356TMC3     H 5336   1.731   4.684  11.290  0.1662  0.3115 -0.6261
  356TMC3    H1 5337   1.670   4.674  11.710  0.3104 -0.1309 -0.6025
  356TMC3    H2 5338   1.905   0.257  11.527  0.6677  0.0883  1.1267
  356TMC3    C7 5339   1.807   0.172  11.765 -0.4362  0.1317 -0.7597
  356TMC3    C8 5340   1.893   0.157  11.285  0.1792 -0.0830  0.6657
  356TMC3    O1 5341   1.742   0.123  11.859 -0.0119  0.0822 -0.8793
  356TMC3    O2 5342   1.840   0.113  11.188  0.0491 -0.2078 -0.3025
  357MPD2     C 5343   0.646   0.327   0.934  0.1623 -0.2684  0.2253
  357MPD2    C1 5344   0.587   0.220   0.994 -0.2064  0.2221 -0.6207
  357MPD2    C2 5345   0.455   0.223   1.041  0.1227  0.1294  0.9436
  357MPD2    C3 5346   0.382   0.337   1.009  0.1541  0.2217 -0.2479
  357MPD2    C4 5347   0.441   0.442   0.950 -0.2856  1.1050  0.3199
  357MPD2    C5 5348   0.573   0.434   0.913 -0.0645  0.4483  0.4848
  357MPD2     H 5349   0.418   0.146   1.107 -2.2030 -0.2897 -0.8579
  357MPD2    H1 5350   0.378   0.528   0.929  1.1712  2.2868  0.7590
  357MPD2    H2 5351   0.749   0.323   0.901 -0.5629  1.1979 -2.2126
  357MPD2    H3 5352   0.617   0.517   0.859  0.6392 -1.1114 -1.3627
  357MPD2     N 5353   0.242   0.337   1.022 -0.5524 -0.9001 -0.3044
  357MPD2    H5 5354   0.189   0.420   0.998  2.5004  1.3273  0.6877
  357MPD2    N1 5355   0.667   0.105   1.003 -0.1317 -0.4587 -0.0778
  357MPD2    H7 5356   0.760   0.111   0.963  1.0003 -2.0818  2.3326
  358TMC3    C1 5357   0.728   4.614   1.048  0.5860 -0.0302 -0.1452
  358TMC3    C2 5358   0.813   4.601   0.941 -0.3355 -0.2426  0.8078
  358TMC3    C3 5359   0.889   4.485   0.937  0.6048 -0.1102  0.5136
  358TMC3    C4 5360   0.733   4.519   1.150 -0.7915 -0.1198 -0.5004
  358TMC3    C5 5361   0.813   4.410   1.141 -0.2286  0.3616  0.1888
  358TMC3    C6 5362   0.904   4.397   1.041 -0.3029  0.1497 -0.0275
  358TMC3     C 5363   0.628   4.707   1.056  0.8569  0.0086  0.2932
  358TMC3     O 5364   0.528   4.685   1.117 -0.1092 -0.5530 -0.0752
  358TMC3     H 5365   0.814   4.669   0.856  0.9434 -0.9676  0.2372
  358TMC3    H1 5366   0.664   4.535   1.232 -1.5270 -0.0106 -1.1360
  358TMC3    H2 5367   0.973   4.314   1.041 -3.3572 -2.3687 -0.6636
  358TMC3    C7 5368   0.814   4.328   1.268 -0.1187 -0.5720 -0.0277
  358TMC3    C8 5369   0.953   4.452   0.811 -0.6200 -0.4386  0.4483
  358TMC3    O1 5370   0.757   4.368   1.369 -0.3443 -0.0208  0.1625
  358TMC3    O2 5371   1.061   4.394   0.829  0.1818 -0.2724 -0.3127
  359MPD2     C 5372   2.234   3.134  12.542 -0.1268  0.1634 -0.5754
  359MPD2    C1 5373   2.168   3.099  12.431 -0.3442 -0.3272  0.6779
  359MPD2    C2 5374   2.034   3.102  12.436  0.2579  0.2258 -0.0982
  359MPD2    C3 5375   1.971   3.122  12.557 -0.1928  0.1544  0.5157
  359MPD2    C4 5376   2.039   3.163  12.662 -0.2309  0.1243 -0.2111
  359MPD2    C5 5377   2.174   3.177  12.657 -0.3835 -0.1820  0.7743
  359MPD2     H 5378   1.983   3.067  12.348  2.1763 -1.8767 -0.3783
  359MPD2    H1 5379   1.985   3.181  12.754  0.4281 -0.8051  0.3537
  359MPD2    H2 5380   2.343   3.130  12.541 -0.1137  0.0706  0.5239
  359MPD2    H3 5381   2.244   3.221  12.727  1.1549 -0.7064 -0.4446
  359MPD2     N 5382   1.827   3.110  12.569 -0.2388 -0.0096 -0.3455
  359MPD2    H5 5383   1.789   3.137  12.659 -0.4041  2.6233 -1.1996
  359MPD2    N1 5384   2.251   3.079  12.317 -0.0338 -0.4208  0.5999
  359MPD2    H7 5385   2.352   3.084  12.320 -0.1326  0.3784  2.9409
  360TMC3    C1 5386   2.314   3.073  12.096  0.1802 -0.2759 -0.8312
  360TMC3    C2 5387   2.441   3.110  12.138  1.0854 -0.9473  0.2815
  360TMC3    C3 5388   2.533   3.122  12.034  0.0691  0.3179  0.2544
  360TMC3    C4 5389   2.294   3.027  11.968 -0.6879 -0.4538 -0.3797
  360TMC3    C5 5390   2.388   3.044  11.875  0.6167  0.3210 -0.2756
  360TMC3    C6 5391   2.503   3.106  11.907  0.5867  0.0391 -0.3608
  360TMC3     C 5392   2.205   3.057  12.193  0.2439 -0.4678 -0.0358
  360TMC3     O 5393   2.096   3.031  12.149  0.0348 -0.0575 -0.5031
  360TMC3     H 5394   2.461   3.158  12.233  4.3419  0.3012 -1.0502
  360TMC3    H1 5395   2.196   2.988  11.942 -1.4126  0.6215  0.7472
  360TMC3    H2 5396   2.577   3.118  11.828 -1.0460  2.1462 -1.5805
  360TMC3    C7 5397   2.350   3.030  11.733 -1.1737 -0.2866  0.4171
  360TMC3    C8 5398   2.663   3.169  12.078  0.4170  0.0752  0.1436
  360TMC3    O1 5399   2.393   3.112  11.655  0.5057 -0.0668 -0.4797
  360TMC3    O2 5400   2.682   3.169  12.201  0.6528 -0.2878 -0.4849
  361MPD2     C 5401   3.165   2.373  16.879 -0.7010  0.5857  0.1235
  361MPD2    C1 5402   3.197   2.392  17.013 -0.0820 -0.1406  0.4215
  361MPD2    C2 5403   3.326   2.368  17.056  0.0799  0.0419 -0.2806
  361MPD2    C3 5404   3.414   2.305  16.977  0.3664 -0.2141  0.1242
  361MPD2    C4 5405   3.371   2.269  16.849  0.0842  0.0181  0.4542
  361MPD2    C5 5406   3.253   2.309  16.797 -0.3182 -0.6440 -0.3779
  361MPD2     H 5407   3.351   2.387  17.159  2.1024 -1.2982 -0.5434
  361MPD2    H1 5408   3.433   2.201  16.791  2.0196  0.2501  2.2383
  361MPD2    H2 5409   3.064   2.391  16.844 -0.3829  1.5266 -0.2951
  361MPD2    H3 5410   3.212   2.281  16.701  0.8529 -0.5740 -0.9030
  361MPD2     N 5411   3.543   2.245  17.015  0.8573  0.6067 -0.7935
  361MPD2    H5 5412   3.586   2.186  16.945 -1.0297 -0.7374 -0.8406
  361MPD2    N1 5413   3.113   2.455  17.107  0.8258 -0.5051  0.2352
  361MPD2    H7 5414   3.158   2.495  17.189 -0.2554  1.6187 -0.2159
  362TMC3    C1 5415   2.938   2.583  17.184 -0.1607  0.3167  0.1895
  362TMC3    C2 5416   2.816   2.548  17.235 -0.2203 -0.0458 -0.5160
  362TMC3    C3 5417   2.723   2.650  17.258  0.4632 -0.2662  0.1071
  362TMC3    C4 5418   2.977   2.710  17.154  0.9202 -0.4101 -0.1658
  362TMC3    C5 5419   2.886   2.810  17.181 -0.3448 -0.1834 -0.5958
  362TMC3    C6 5420   2.757   2.782  17.232  0.7125 -0.8682  0.4833
  362TMC3     C 5421   2.984   2.481  17.095  0.1387  0.6879  0.5188
  362TMC3     O 5422   2.909   2.452  17.001 -0.1860 -0.2888  0.5352
  362TMC3     H 5423   2.795   2.444  17.255  2.2449 -0.6932 -1.2740
  362TMC3    H1 5424   3.078   2.727  17.116  1.0939 -3.2010 -0.9384
  362TMC3    H2 5425   2.688   2.863  17.255 -0.9408 -1.8077 -1.2022
  362TMC3    C7 5426   2.908   2.941  17.147  0.3961  0.4617  0.3069
  362TMC3    C8 5427   2.591   2.603  17.232 -0.4184 -0.7775  1.0057
  362TMC3    O1 5428   2.810   3.004  17.138 -0.0641  0.5622 -0.5944
  362TMC3    O2 5429   2.589   2.493  17.171 -0.0875  1.0158  0.1274
  363TMC3    C1 5430   2.156   0.666   9.601 -0.1918  0.7045  0.0542
  363TMC3    C2 5431   2.246   0.563   9.620 -0.3659  1.2842 -0.7993
  363TMC3    C3 5432   2.200   0.445   9.667  0.3919 -0.3640  0.7502
  363TMC3    C4 5433   2.023   0.656   9.618  1.3019 -0.5151  0.7757
  363TMC3    C5 5434   1.977   0.528   9.649  0.0031 -0.2011  0.2048
  363TMC3    C6 5435   2.063   0.423   9.678 -0.3449  0.1583 -0.4922
  363TMC3     C 5436   2.217   0.800   9.613 -0.1935  0.0587 -0.1476
  363TMC3     O 5437   2.329   0.803   9.670 -0.0339  0.2965  0.2344
  363TMC3     H 5438   2.353   0.577   9.617 -0.0131 -1.1409 -0.1539
  363TMC3    H1 5439   1.960   0.745   9.623 -0.4956 -1.7846  0.6581
  363TMC3    H2 5440   2.023   0.324   9.697 -0.8915  0.2625 -1.1196
  363TMC3    C7 5441   1.834   0.504   9.652 -0.1670 -0.5650  0.1793
  363TMC3    C8 5442   2.291   0.378   9.759 -0.0477  0.5693 -0.2263
  363TMC3    O1 5443   1.787   0.401   9.695 -0.1801 -0.0638 -0.0772
  363TMC3    O2 5444   2.356   0.458   9.830 -0.0773 -0.1837  0.5141
  364MPD2     C 5445   1.210   3.781  10.170  0.1071  0.5249  0.4401
  364MPD2    C1 5446   1.123   3.777  10.275  0.1264  0.1435 -0.5119
  364MPD2    C2 5447   1.104   3.659  10.341 -0.2563  0.2306  0.2742
  364MPD2    C3 5448   1.179   3.543  10.305  0.1071  0.7717  0.0442
  364MPD2    C4 5449   1.276   3.559  10.210  0.4634 -0.2289 -0.0464
  364MPD2    C5 5450   1.294   3.671  10.146  0.2014  0.3538  0.3673
  364MPD2     H 5451   1.022   3.654  10.412 -0.2522 -2.4591  0.0827
  364MPD2    H1 5452   1.325   3.465  10.187 -0.4187 -0.2591 -1.7975
  364MPD2    H2 5453   1.218   3.868  10.106  0.8553 -0.8525 -1.3673
  364MPD2    H3 5454   1.360   3.678  10.060  1.5732  0.7516  1.4501
  364MPD2     N 5455   1.165   3.419  10.370 -0.4613  0.1447  0.1740
  364MPD2    H5 5456   1.241   3.358  10.342 -0.3353  0.8687 -1.0709
  364MPD2    N1 5457   1.047   3.898  10.298  0.0707 -0.2295 -0.1817
  364MPD2    H7 5458   1.054   3.968  10.224 -1.5052  0.7269  0.5737
  365TMC3    C1 5459   0.940   4.061  10.409 -0.6258  0.3447  0.0600
  365TMC3    C2 5460   0.920   4.108  10.285  0.3887  0.9710 -0.1084
  365TMC3    C3 5461   0.943   4.238  10.250 -0.2799  0.1798  0.4168
  365TMC3    C4 5462   0.990   4.147  10.508  0.1401  0.3000 -0.4703
  365TMC3    C5 5463   1.018   4.277  10.471 -0.3267 -1.2203 -0.0047
  365TMC3    C6 5464   0.996   4.325  10.340  0.0968  0.1924 -0.1914
  365TMC3     C 5465   0.991   3.933  10.416 -0.0426 -0.5657  0.4305
  365TMC3     O 5466   0.994   3.871  10.523 -0.4074 -0.1051 -0.3975
  365TMC3     H 5467   0.868   4.048  10.211  0.7177  0.2070  0.2756
  365TMC3    H1 5468   1.025   4.111  10.604  2.5563 -0.5252 -1.6459
  365TMC3    H2 5469   0.999   4.433  10.333 -0.4382  0.0984 -1.7356
  365TMC3    C7 5470   1.045   4.372  10.580  0.1033  0.1320 -0.4652
  365TMC3    C8 5471   0.931   4.284  10.114 -0.4497  0.1756 -1.0640
  365TMC3    O1 5472   1.119   4.467  10.556 -0.5278  0.5800 -0.3327
  365TMC3    O2 5473   0.976   4.394  10.094  0.2102 -0.5903 -0.0990
  366MPD2     C 5474   3.346   0.129  15.528 -0.1865  0.3071 -0.5338
  366MPD2    C1 5475   3.405   0.225  15.602  0.3931  0.6563  0.4185
  366MPD2    C2 5476   3.546   0.236  15.601  0.3843 -0.3453  0.0237
  366MPD2    C3 5477   3.628   0.173  15.510 -0.0679 -1.5396  0.0768
  366MPD2    C4 5478   3.568   0.076  15.435 -0.5235 -0.0721 -0.2563
  366MPD2    C5 5479   3.434   0.057  15.448  0.3079 -0.4533 -0.0550
  366MPD2     H 5480   3.581   0.309  15.673 -0.1106 -0.3046  0.2265
  366MPD2    H1 5481   3.620   4.721  15.382  0.6822  1.2683 -1.0500
  366MPD2    H2 5482   3.240   0.113  15.514 -0.9402  3.9767  0.9289
  366MPD2    H3 5483   3.400   4.696  15.389 -1.0002  0.1244 -0.1286
  366MPD2     N 5484   3.765   0.201  15.509  0.3933  0.7360  0.8198
  366MPD2    H5 5485   3.794   0.270  15.577  1.1433  1.6271 -0.4115
  366MPD2    N1 5486   3.340   0.322  15.669  0.3435  0.0826  0.1165
  366MPD2    H7 5487   3.403   0.384  15.720  1.3383 -1.4774  0.8045
  367TMC3    C1 5488   3.170   0.478  15.711 -0.0260  0.1756 -0.1434
  367TMC3    C2 5489   3.273   0.555  15.769  0.2671 -0.0459 -0.2521
  367TMC3    C3 5490   3.265   0.692  15.760 -0.0383  0.3960  0.6105
  367TMC3    C4 5491   3.076   0.531  15.622 -0.0422 -0.0728 -0.5413
  367TMC3    C5 5492   3.087   0.668  15.595  0.1746 -0.0467  0.3653
  367TMC3    C6 5493   3.180   0.749  15.663  0.6749  0.2135 -0.5434
  367TMC3     C 5494   3.199   0.339  15.675 -0.1702  0.8048 -0.0120
  367TMC3     O 5495   3.111   0.274  15.628 -0.4436  0.0569  0.2229
  367TMC3     H 5496   3.351   0.519  15.835  0.7521  2.1476  0.3789
  367TMC3    H1 5497   3.004   0.461  15.582 -0.9970  0.5526  0.0766
  367TMC3    H2 5498   3.180   0.858  15.654 -0.8065  0.1606 -1.1502
  367TMC3    C7 5499   3.026   0.733  15.478 -0.0120 -0.6978 -0.0177
  367TMC3    C8 5500   3.386   0.776  15.792 -0.9339  0.4864  0.1391
  367TMC3    O1 5501   3.013   0.854  15.490 -0.3964  0.0258  0.4350
  367TMC3    O2 5502   3.488   0.712  15.802 -0.1268  0.7529 -0.4092
  368MPD2     C 5503   4.652   2.906  13.034  0.2314 -0.7955 -0.3540
  368MPD2    C1 5504   4.679   2.942  12.901 -0.3823 -0.2187  0.2243
  368MPD2    C2 5505   0.073   2.913  12.835  1.5080 -0.3299  0.2306
  368MPD2    C3 5506   0.173   2.844  12.903 -0.1553 -0.0358  0.4413
  368MPD2    C4 5507   0.137   2.807  13.035 -0.1724  0.0759  1.0552
  368MPD2    C5 5508   0.018   2.834  13.097  0.4977 -0.3225 -0.9133
  368MPD2     H 5509   0.102   2.943  12.735  0.5602  0.0242  0.0639
  368MPD2    H1 5510   0.206   2.757  13.102  2.1838  1.1915 -0.5460
  368MPD2    H2 5511   4.561   2.940  13.083  0.0121 -0.1788 -1.1849
  368MPD2    H3 5512   4.723   2.809  13.201  0.0141  0.4844 -0.8036
  368MPD2     N 5513   0.307   2.818  12.859  0.1354  0.0168  0.2457
  368MPD2    H5 5514   0.370   2.770  12.923  0.2711 -0.0918  0.0292
  368MPD2    N1 5515   4.586   3.027  12.844  0.0405 -0.0613  0.0393
  368MPD2    H7 5516   4.519   3.078  12.901  0.0443 -0.5302  0.4590
  369TMC3    C1 5517   4.486   3.168  12.678 -0.3023  0.7893 -0.8225
  369TMC3    C2 5518   4.504   3.218  12.554  0.2975 -0.0080 -0.6340
  369TMC3    C3 5519   4.398   3.283  12.497 -0.2637  0.9384 -0.1336
  369TMC3    C4 5520   4.379   3.199  12.764 -0.0332  0.2476  0.5846
  369TMC3    C5 5521   4.277   3.266  12.699 -0.0972 -0.3250  0.2046
  369TMC3    C6 5522   4.286   3.313  12.567 -0.2294 -0.5764 -0.1179
  369TMC3     C 5523   4.574   3.059  12.706  0.0469  0.0253  0.1852
  369TMC3     O 5524   4.636   3.011  12.610 -0.0096  0.5635 -0.0526
  369TMC3     H 5525   4.605   3.217  12.515  0.4523  1.5325 -0.2544
  369TMC3    H1 5526   4.367   3.140  12.854  3.4266 -0.0684  0.8151
  369TMC3    H2 5527   4.205   3.362  12.514  0.8424 -1.5125 -2.6124
  369TMC3    C7 5528   4.137   3.223  12.741 -0.4751  0.9240  0.1018
  369TMC3    C8 5529   4.407   3.322  12.361 -0.4402 -0.7998 -0.3497
  369TMC3    O1 5530   4.127   3.177  12.852 -0.4318 -0.2401  0.3129
  369TMC3    O2 5531   4.299   3.358  12.316 -0.0834 -0.2325 -0.1205
  370TMC3    C1 5532   4.350   3.258  16.232 -0.0635  0.3543 -0.5377
  370TMC3    C2 5533   4.287   3.186  16.329 -0.0800 -0.1469 -0.6488
  370TMC3    C3 5534   4.236   3.063  16.303  0.2560 -0.3431 -0.0565
  370TMC3    C4 5535   4.358   3.214  16.105  0.2103 -0.2838  0.5948
  370TMC3    C5 5536   4.294   3.088  16.078  0.3370  0.6330  0.5900
  370TMC3    C6 5537   4.239   3.012  16.179 -0.0431  0.6381 -0.8916
  370TMC3     C 5538   4.440   3.360  16.276  0.3160 -0.7418  0.0029
  370TMC3     O 5539   4.477   3.341  16.390 -0.4969 -0.5925  0.2340
  370TMC3     H 5540   4.274   3.219  16.432  2.1008  0.7301 -0.6473
  370TMC3    H1 5541   4.398   3.268  16.021 -0.8002  0.0783  0.3514
  370TMC3    H2 5542   4.206   2.910  16.161  0.2422  0.1602  1.2842
  370TMC3    C7 5543   4.319   3.027  15.945 -0.7039 -0.2919  0.5719
  370TMC3    C8 5544   4.219   2.965  16.409 -0.1324 -0.4846  0.0355
  370TMC3    O1 5545   4.356   3.104  15.860 -0.6376  0.0942  0.0494
  370TMC3    O2 5546   4.146   2.871  16.381  0.0531  0.1386 -0.8896
  371TMC3    C1 5547   0.753   1.589  15.609  0.0238 -0.2213 -0.6068
  371TMC3    C2 5548   0.626   1.589  15.548 -0.1328  0.1245  0.6798
  371TMC3    C3 5549   0.580   1.706  15.505 -0.5379  0.5374  0.8822
  371TMC3    C4 5550   0.827   1.703  15.622 -0.8809  0.7283 -0.1051
  371TMC3    C5 5551   0.778   1.821  15.565 -0.1646 -0.3401 -0.1189
  371TMC3    C6 5552   0.654   1.824  15.510  0.2101  0.3503  0.2819
  371TMC3     C 5553   0.818   1.469  15.660  0.6102 -0.5877 -0.3355
  371TMC3     O 5554   0.923   1.491  15.717  0.2652  0.0287  0.2280
  371TMC3     H 5555   0.566   1.500  15.557  1.2753 -1.1470 -2.6109
  371TMC3    H1 5556   0.925   1.717  15.666 -2.8439  2.5050  3.6574
  371TMC3    H2 5557   0.618   1.916  15.466  0.1120 -0.0263 -0.4169
  371TMC3    C7 5558   0.862   1.922  15.514 -0.9937 -0.4570 -0.3288
  371TMC3    C8 5559   0.466   1.708  15.410 -0.2347 -0.3544  0.3181
  371TMC3    O1 5560   0.818   2.001  15.438  0.8629  0.1475 -0.2670
  371TMC3    O2 5561   0.449   1.603  15.351 -0.3166 -0.0220  0.3984
  372MPD2     C 5562   0.927   2.983  13.389  0.7019 -0.5373 -0.0954
  372MPD2    C1 5563   0.972   2.929  13.509 -0.8663  0.4844 -0.0162
  372MPD2    C2 5564   0.930   2.804  13.544  0.6731  0.0021 -0.5005
  372MPD2    C3 5565   0.824   2.741  13.481  0.1725 -0.2680  0.1762
  372MPD2    C4 5566   0.759   2.808  13.379 -0.5115  0.7337  0.8340
  372MPD2    C5 5567   0.824   2.922  13.334  0.0842 -0.3271  0.3892
  372MPD2     H 5568   0.970   2.756  13.633  0.0105  0.8516  0.2550
  372MPD2    H1 5569   0.665   2.774  13.338  0.2958  1.7501 -1.8382
  372MPD2    H2 5570   0.963   3.076  13.345 -1.1437 -0.1439 -0.7870
  372MPD2    H3 5571   0.777   2.980  13.255 -0.9049 -1.3778  0.2083
  372MPD2     N 5572   0.773   2.625  13.546 -0.2403 -0.1007 -0.0826
  372MPD2    H5 5573   0.824   2.591  13.627  0.7276  0.1373 -0.5815
  372MPD2    N1 5574   1.073   2.984  13.593 -0.2353  0.1209  0.1747
  372MPD2    H7 5575   1.095   2.922  13.670  0.8442  1.1793  0.7078
  373TMC3    C1 5576   0.658   2.423  13.569  0.0662 -0.1916 -1.1355
  373TMC3    C2 5577   0.668   2.419  13.701  0.5627  0.2500 -0.0661
  373TMC3    C3 5578   0.655   2.302  13.758 -0.5721  0.0585 -0.0237
  373TMC3    C4 5579   0.631   2.313  13.488  0.3928  0.2451  0.5463
  373TMC3    C5 5580   0.617   2.191  13.557  0.5605  0.3446 -0.0653
  373TMC3    C6 5581   0.630   2.183  13.699 -0.7781 -0.2382  0.0225
  373TMC3     C 5582   0.664   2.549  13.502 -0.0379 -0.4729  0.4171
  373TMC3     O 5583   0.600   2.556  13.398 -0.1793  0.3268  0.3625
  373TMC3     H 5584   0.681   2.508  13.762  0.5481  1.0583 -1.2482
  373TMC3    H1 5585   0.636   2.315  13.380 -0.1335 -1.1557  0.4898
  373TMC3    H2 5586   0.636   2.096  13.763 -1.8130  1.1680  2.0530
  373TMC3    C7 5587   0.615   2.063  13.480  0.6645  0.5327  0.2035
  373TMC3    C8 5588   0.692   2.298  13.897 -0.1240 -0.2077 -0.0405
  373TMC3    O1 5589   0.624   2.069  13.360 -0.0017  0.6375  0.0069
  373TMC3    O2 5590   0.787   2.369  13.931 -0.0968  0.4348  0.4511
  374TMC3    C1 5591   0.922   2.476  10.025  0.5034  0.0555 -0.1646
  374TMC3    C2 5592   1.037   2.536   9.998 -0.4330  0.1547 -0.1123
  374TMC3    C3 5593   1.050   2.649   9.917  0.6879  0.4919  0.8268
  374TMC3    C4 5594   0.809   2.526   9.961  0.6197 -0.4187 -0.1613
  374TMC3    C5 5595   0.813   2.634   9.884 -0.6606  0.7038  0.2159
  374TMC3    C6 5596   0.936   2.697   9.857  0.5407 -0.9445 -0.3869
  374TMC3     C 5597   0.911   2.380  10.125  0.0490  0.2038 -0.3475
  374TMC3     O 5598   1.014   2.319  10.151 -0.2597  0.6820 -0.4811
  374TMC3     H 5599   1.121   2.486  10.046 -2.5948 -2.0759  1.3065
  374TMC3    H1 5600   0.718   2.469   9.974  0.5211 -0.2696 -0.1881
  374TMC3    H2 5601   0.937   2.793   9.806 -2.0960 -1.6558 -1.7637
  374TMC3    C7 5602   0.695   2.658   9.803 -0.2841 -0.0748  0.6593
  374TMC3    C8 5603   1.173   2.712   9.881  0.2081 -0.1404  0.7245
  374TMC3    O1 5604   0.598   2.588   9.820 -0.0695  0.0603 -1.2206
  374TMC3    O2 5605   1.176   2.798   9.792 -0.5127  0.1361 -0.0885
  375MPD2     C 5606   1.045   3.649  16.840 -0.2975 -0.4935  0.6185
  375MPD2    C1 5607   1.013   3.683  16.709 -0.0231  0.7289 -0.2579
  375MPD2    C2 5608   0.997   3.585  16.616 -0.1894 -0.5307 -0.0429
  375MPD2    C3 5609   1.007   3.452  16.651  0.1001 -0.4872  0.1204
  375MPD2    C4 5610   1.025   3.424  16.788  0.4413 -0.2512 -0.6765
  375MPD2    C5 5611   1.038   3.523  16.878  0.1680 -0.3366  0.3797
  375MPD2     H 5612   0.974   3.607  16.513 -0.6111 -1.3903 -0.1304
  375MPD2    H1 5613   1.020   3.320  16.817  0.3792 -0.7195 -2.3801
  375MPD2    H2 5614   1.036   3.720  16.922 -0.8850 -2.2689  2.1057
  375MPD2    H3 5615   1.035   3.489  16.981 -1.9490  1.6062  0.9647
  375MPD2     N 5616   1.000   3.341  16.559 -0.1038  0.5806 -0.2127
  375MPD2    H5 5617   0.992   3.247  16.596  2.6183  1.1788  1.9715
  375MPD2    N1 5618   1.000   3.816  16.661 -0.4808 -0.3228 -0.1993
  375MPD2    H7 5619   0.971   3.829  16.565 -0.4915  0.2601 -0.1188
  376TMC3    C1 5620   1.046   3.220  16.369  0.0580  0.5814 -0.5874
  376TMC3    C2 5621   1.096   3.118  16.451 -0.3126  0.6948 -0.2267
  376TMC3    C3 5622   1.186   3.030  16.401 -0.0755 -0.3924  0.0709
  376TMC3    C4 5623   1.074   3.220  16.231 -0.3280 -0.0476 -0.3889
  376TMC3    C5 5624   1.153   3.119  16.183  0.3301 -0.1053 -0.0941
  376TMC3    C6 5625   1.212   3.028  16.261 -0.1566  0.4807  1.2994
  376TMC3     C 5626   1.029   3.353  16.423  0.1284 -1.0936  0.0330
  376TMC3     O 5627   1.066   3.449  16.360  0.0447  0.0914  0.0441
  376TMC3     H 5628   1.091   3.115  16.560  1.2947  1.3441 -0.1481
  376TMC3    H1 5629   1.039   3.302  16.168 -2.4270 -2.5461 -2.4387
  376TMC3    H2 5630   1.268   2.951  16.210  0.3729  0.8317  1.3489
  376TMC3    C7 5631   1.155   3.100  16.036 -0.1581 -0.5856 -1.3282
  376TMC3    C8 5632   1.304   2.995  16.493  0.2792 -0.5375  0.7735
  376TMC3    O1 5633   1.255   3.051  15.982 -0.3416 -0.4202  0.0368
  376TMC3    O2 5634   1.275   2.980  16.611  0.2348  0.4915  0.3790
  377MPD2     C 5635   3.649   3.275  12.055 -0.4580 -0.5521  0.3695
  377MPD2    C1 5636   3.649   3.165  12.128 -0.3469  0.8061 -0.0960
  377MPD2    C2 5637   3.531   3.130  12.203 -0.2718 -0.2286 -0.1457
  377MPD2    C3 5638   3.444   3.233  12.233 -0.9329  0.5289  0.0389
  377MPD2    C4 5639   3.455   3.353  12.164 -0.2362 -0.2253 -0.2071
  377MPD2    C5 5640   3.554   3.371  12.073  0.6350  0.2765 -0.3321
  377MPD2     H 5641   3.531   3.042  12.266  0.1796  0.1464  0.3861
  377MPD2    H1 5642   3.381   3.428  12.192 -1.7617 -1.1219 -1.8531
  377MPD2    H2 5643   3.724   3.300  11.981 -1.4050 -0.9247 -0.7132
  377MPD2    H3 5644   3.558   3.470  12.028  1.2341 -0.1422 -1.1886
  377MPD2     N 5645   3.355   3.225  12.343  0.1484 -0.3954 -0.0447
  377MPD2    H5 5646   3.310   3.315  12.354  2.5793  0.5950  1.6454
  377MPD2    N1 5647   3.778   3.093  12.137 -0.4691 -0.6274  0.2255
  377MPD2    H7 5648   3.857   3.128  12.083 -0.5403  0.6418  0.9468
  378TMC3    C1 5649   4.148   3.005  12.204  0.1268  0.4513  0.4191
  378TMC3    C2 5650   4.020   3.011  12.153  0.1182 -0.1233 -0.1032
  378TMC3    C3 5651   3.929   2.947  12.225 -0.0487 -0.7924 -0.1863
  378TMC3    C4 5652   4.185   2.940  12.321  0.1400  0.4515  0.1800
  378TMC3    C5 5653   4.084   2.878  12.390 -0.4080 -0.5406 -0.1858
  378TMC3    C6 5654   3.958   2.882  12.343 -0.5363  0.1153  0.3976
  378TMC3     C 5655   4.257   3.046  12.115 -0.4192 -0.7198 -0.3544
  378TMC3     O 5656   4.228   3.120  12.018  0.3922 -0.0860 -0.1419
  378TMC3     H 5657   4.014   3.069  12.062  2.6989  1.6539  0.8470
  378TMC3    H1 5658   4.287   2.930  12.357  0.1325 -1.2082 -0.2425
  378TMC3    H2 5659   3.878   2.856  12.411 -0.0684 -2.4820 -0.0560
  378TMC3    C7 5660   4.113   2.837  12.522  0.5256 -0.3170 -0.3374
  378TMC3    C8 5661   3.788   2.984  12.214  1.0419  0.4495  0.4862
  378TMC3    O1 5662   4.021   2.820  12.598 -0.8793  0.1929  0.1020
  378TMC3    O2 5663   3.713   2.939  12.298 -0.4711 -0.5761 -0.0506
  379MPD2     C 5664   0.017   1.146  15.997 -0.0929 -0.2608 -0.1742
  379MPD2    C1 5665   4.634   1.080  16.055  0.2511 -0.2452  0.3761
  379MPD2    C2 5666   4.646   1.029  16.183 -0.5171 -0.6876 -0.5879
  379MPD2    C3 5667   0.043   1.045  16.251  0.7233  0.0290 -0.0847
  379MPD2    C4 5668   0.145   1.108  16.194 -0.0318 -0.1490  0.3444
  379MPD2    C5 5669   0.137   1.164  16.068  0.0638 -0.1518 -0.4567
  379MPD2     H 5670   4.560   0.981  16.226 -1.6501 -1.1556 -3.3530
  379MPD2    H1 5671   0.228   1.147  16.251  0.2751  0.0328 -0.2189
  379MPD2    H2 5672   0.014   1.192  15.899 -0.5803 -0.2386 -0.1450
  379MPD2    H3 5673   0.214   1.229  16.028  0.5222 -0.0722  0.5507
  379MPD2     N 5674   0.055   0.998  16.382 -0.4348  0.4265  0.6371
  379MPD2    H5 5675   0.133   1.039  16.432 -0.4494 -0.1300  1.1122
  379MPD2    N1 5676   4.521   1.081  15.973  0.4080 -0.0344 -0.3078
  379MPD2    H7 5677   4.536   1.090  15.873 -1.5048  1.8629 -0.4280
  380TMC3    C1 5678   4.291   1.051  15.919 -0.7446  0.5395  0.6545
  380TMC3    C2 5679   4.314   0.968  15.812  0.4546  0.5535 -0.1587
  380TMC3    C3 5680   4.206   0.941  15.735 -0.1400 -0.7831 -0.4760
  380TMC3    C4 5681   4.165   1.090  15.959 -0.4717  0.4962 -0.1427
  380TMC3    C5 5682   4.060   1.059  15.883 -0.2020 -0.2791  0.2060
  380TMC3    C6 5683   4.080   0.988  15.766  0.2353 -0.0902  0.4152
  380TMC3     C 5684   4.389   1.053  16.021  0.2217  0.2304 -0.2455
  380TMC3     O 5685   4.352   1.041  16.140 -0.9110  0.5650  0.3232
  380TMC3     H 5686   4.414   0.943  15.778  1.2853  1.6996  1.3872
  380TMC3    H1 5687   4.162   1.167  16.035 -4.2679  0.9675 -0.8196
  380TMC3    H2 5688   4.000   0.977  15.693 -0.9183  1.9868  1.3701
  380TMC3    C7 5689   3.934   1.133  15.887 -0.4329  0.6059  0.6152
  380TMC3    C8 5690   4.220   0.860  15.620 -0.6346  0.0730  0.1298
  380TMC3    O1 5691   3.935   1.251  15.914  0.1983  0.0070  0.0606
  380TMC3    O2 5692   4.132   0.869  15.536  0.7793  0.0661  0.3211
  381TMC3    C1 5693   4.013   2.303  16.105 -0.4921 -0.6257 -0.4466
  381TMC3    C2 5694   4.142   2.338  16.136  0.3459 -0.0074  0.0533
  381TMC3    C3 5695   4.181   2.435  16.226 -0.3622 -0.3683  0.3909
  381TMC3    C4 5696   3.913   2.371  16.168  0.6544  0.5040 -0.4008
  381TMC3    C5 5697   3.951   2.477  16.254  0.3647 -0.9743  0.0563
  381TMC3    C6 5698   4.083   2.519  16.282 -0.5509  0.3344 -0.3267
  381TMC3     C 5699   3.999   2.218  15.989  0.4142 -0.4495  0.0916
  381TMC3     O 5700   4.094   2.169  15.931  0.5238 -0.2709  0.2757
  381TMC3     H 5701   4.222   2.296  16.076  0.2927 -0.9284  0.6451
  381TMC3    H1 5702   3.809   2.338  16.167  0.1537  2.1150 -0.4355
  381TMC3    H2 5703   4.108   2.614  16.327  3.5682 -2.0356  2.3795
  381TMC3    C7 5704   3.846   2.553  16.319 -0.2790  0.2843 -0.0124
  381TMC3    C8 5705   4.317   2.489  16.205 -0.4314 -0.4646  0.2761
  381TMC3    O1 5706   3.738   2.558  16.261 -0.6652  0.0792 -0.1705
  381TMC3    O2 5707   4.365   2.469  16.096 -0.3130  0.7895  0.1022
  382MPD2     C 5708   3.444   4.457   0.455  0.0613  0.5646 -1.0652
  382MPD2    C1 5709   3.382   4.527   0.352  0.4802  0.3983 -0.8635
  382MPD2    C2 5710   3.311   4.451   0.259 -0.7607 -0.0420  0.6262
  382MPD2    C3 5711   3.302   4.314   0.268 -0.6282  0.5760  0.6781
  382MPD2    C4 5712   3.361   4.251   0.372 -0.2149 -0.9048 -0.8475
  382MPD2    C5 5713   3.438   4.317   0.461 -0.4256  0.1552 -0.1574
  382MPD2     H 5714   3.270   4.507   0.176 -3.0945 -1.4629  0.8091
  382MPD2    H1 5715   3.339   4.148   0.399 -2.9666  0.1066  0.7866
  382MPD2    H2 5716   3.488   4.506   0.541 -2.0165  0.2011  0.2147
  382MPD2    H3 5717   3.484   4.267   0.547  1.3701  0.5463 -0.8837
  382MPD2     N 5718   3.222   4.237   0.182  0.2150  0.2476 -0.2394
  382MPD2    H5 5719   3.214   4.138   0.204 -1.9126  0.6705  0.9008
  382MPD2    N1 5720   3.362   4.667   0.359 -0.5925 -0.8209 -0.6484
  382MPD2    H7 5721   3.289   4.713   0.306 -2.9868 -1.8306  1.7784
  383TMC3    C1 5722   3.059   4.176   0.028  0.3434  0.1342 -0.3818
  383TMC3    C2 5723   2.966   4.230  17.636  0.5658  0.0349 -0.3147
  383TMC3    C3 5724   2.901   4.132  17.568  0.6308 -0.3324 -0.5104
  383TMC3    C4 5725   3.090   4.045   0.044  0.6328  0.0137 -0.3771
  383TMC3    C5 5726   3.019   3.956  17.665  0.0222 -0.0237 -0.1603
  383TMC3    C6 5727   2.927   4.001  17.578  0.6457 -0.3152  0.6910
  383TMC3     C 5728   3.144   4.280   0.085  0.6182 -0.3901  0.4226
  383TMC3     O 5729   3.121   4.397   0.057 -0.2848  0.3291 -0.7410
  383TMC3     H 5730   2.920   4.325  17.658  1.0526  0.7556 -2.3971
  383TMC3    H1 5731   3.165   4.016   0.116  0.4958 -0.4791 -0.4368
  383TMC3    H2 5732   2.876   3.947  17.499  1.5920 -0.5457  0.2382
  383TMC3    C7 5733   3.060   3.819  17.671  0.5678 -0.2682  0.4970
  383TMC3    C8 5734   2.799   4.173  17.481  0.0555  0.2740  0.5668
  383TMC3    O1 5735   3.166   3.796   0.031 -0.3578 -0.5389 -0.0725
  383TMC3    O2 5736   2.710   4.093  17.455  0.4119  0.9921  0.0700
  384MPD2     C 5737   0.247   1.019  11.793 -1.1341 -0.2719 -0.1876
  384MPD2    C1 5738   0.310   0.978  11.915 -0.9789  0.9648  0.1389
  384MPD2    C2 5739   0.405   0.880  11.906 -0.1449 -0.2360 -0.2540
  384MPD2    C3 5740   0.442   0.822  11.789 -0.0420  0.7210  0.1582
  384MPD2    C4 5741   0.371   0.851  11.673  0.4093 -0.2773  0.3866
  384MPD2    C5 5742   0.272   0.948  11.680 -0.2562 -0.7759  0.8178
  384MPD2     H 5743   0.432   0.824  11.995 -0.8711 -0.7481 -0.3518
  384MPD2    H1 5744   0.390   0.798  11.580 -1.5656 -0.0035 -0.1605
  384MPD2    H2 5745   0.169   1.092  11.803 -1.0359 -0.4711  2.0286
  384MPD2    H3 5746   0.219   0.979  11.591  2.9287 -2.7875 -1.7964
  384MPD2     N 5747   0.530   0.710  11.789 -0.0768 -0.2192  0.1665
  384MPD2    H5 5748   0.509   0.643  11.716  1.1001 -0.0741 -0.2921
  384MPD2    N1 5749   0.268   1.043  12.032  0.0245 -0.6140  0.5054
  384MPD2    H7 5750   0.191   1.109  12.027  0.1192 -0.6497 -1.5100
  385TMC3    C1 5751   0.666   0.561  11.919 -0.3538 -0.2247  0.0276
  385TMC3    C2 5752   0.561   0.478  11.897  0.0383 -0.1916 -0.5197
  385TMC3    C3 5753   0.502   0.403  11.995  0.2880 -0.4973 -0.3366
  385TMC3    C4 5754   0.711   0.572  12.048 -0.0324  0.4897  0.2150
  385TMC3    C5 5755   0.647   0.501  12.152 -0.4062 -0.4552 -0.9518
  385TMC3    C6 5756   0.545   0.419  12.128  0.5465  0.5502 -0.2286
  385TMC3     C 5757   0.632   0.701  11.881 -0.1712 -0.4109  0.4890
  385TMC3     O 5758   0.674   0.780  11.963  0.5055  0.0345  0.0081
  385TMC3     H 5759   0.534   0.455  11.795 -0.5032  0.9794 -0.6410
  385TMC3    H1 5760   0.797   0.629  12.081  0.8679 -1.1446  0.7073
  385TMC3    H2 5761   0.495   0.366  12.208  0.0607  1.1571 -0.1353
  385TMC3    C7 5762   0.636   0.585  12.272  0.3186 -0.7914  0.5758
  385TMC3    C8 5763   0.382   0.326  11.957  0.0503 -0.1107 -0.2364
  385TMC3    O1 5764   0.623   0.701  12.252  0.1692  0.1604 -0.1580
  385TMC3    O2 5765   0.309   0.312  12.057 -0.6125 -0.6692 -0.0636
  386TMC3    C1 5766   0.312   2.752  11.490  0.4426 -0.1902  0.0811
  386TMC3    C2 5767   0.414   2.807  11.415  0.3504 -1.1622 -0.6722
  386TMC3    C3 5768   0.378   2.893  11.314 -0.3809  0.3816 -0.5144
  386TMC3    C4 5769   0.178   2.771  11.452 -0.4822  0.3271  0.5355
  386TMC3    C5 5770   0.155   2.858  11.355  0.0305 -0.7084 -0.6995
  386TMC3    C6 5771   0.247   2.928  11.286 -0.7071 -0.0300  0.4673
  386TMC3     C 5772   0.324   2.737  11.639  0.2434  0.0119  0.0408
  386TMC3     O 5773   0.223   2.742  11.708 -0.0179  0.2985 -0.0393
  386TMC3     H 5774   0.520   2.802  11.441 -0.2301  1.0245  2.1683
  386TMC3    H1 5775   0.090   2.739  11.507 -0.2487 -0.5725  0.3755
  386TMC3    H2 5776   0.225   3.007  11.214  0.3493  1.4584  1.7880
  386TMC3    C7 5777   0.031   2.926  11.366 -0.0046  0.3949 -0.1829
  386TMC3    C8 5778   0.477   2.953  11.233  0.0234  0.3915 -0.2234
  386TMC3    O1 5779   4.698   2.950  11.468  0.0053  0.3623  0.3735
  386TMC3    O2 5780   0.432   3.021  11.144 -0.1082  0.2701 -0.0970
  387MPD2     C 5781   3.134   3.400   9.693 -0.3974 -0.5524  0.5653
  387MPD2    C1 5782   3.218   3.297   9.721 -0.4795 -0.0972 -0.0383
  387MPD2    C2 5783   3.243   3.192   9.629 -0.8273  0.6130  0.2849
  387MPD2    C3 5784   3.167   3.181   9.511  0.6271 -0.5961  1.1945
  387MPD2    C4 5785   3.079   3.279   9.488  0.1836 -0.1235  0.1690
  387MPD2    C5 5786   3.067   3.395   9.571  0.1489 -0.1890 -0.7384
  387MPD2     H 5787   3.318   3.119   9.655  2.3618  3.5771 -0.5801
  387MPD2    H1 5788   3.026   3.281   9.393 -1.5034  0.4381  1.1111
  387MPD2    H2 5789   3.116   3.488   9.754  0.0345  0.8155 -1.2546
  387MPD2    H3 5790   2.999   3.472   9.537  1.8514  0.9482 -1.5676
  387MPD2     N 5791   3.183   3.062   9.435  0.4657 -0.3199 -0.0613
  387MPD2    H5 5792   3.252   3.001   9.477 -1.0527 -1.0483  1.3882
  387MPD2    N1 5793   3.295   3.295   9.837 -0.6103 -0.1933 -0.0929
  387MPD2    H7 5794   3.366   3.224   9.847 -0.9713 -0.5170  0.1857
  388TMC3    C1 5795   3.357   3.309  10.059 -0.4058 -0.0236 -0.4328
  388TMC3    C2 5796   3.417   3.397  10.147  0.6628 -0.8531 -0.4760
  388TMC3    C3 5797   3.510   3.346  10.240  0.0708  0.0680  0.1518
  388TMC3    C4 5798   3.388   3.176  10.056 -0.2050 -0.3026  1.3895
  388TMC3    C5 5799   3.484   3.129  10.151  0.2992 -0.1594  0.9113
  388TMC3    C6 5800   3.544   3.214  10.239 -0.5902  0.5422 -0.5247
  388TMC3     C 5801   3.278   3.366   9.954 -0.1747  0.2357 -0.0919
  388TMC3     O 5802   3.203   3.459   9.980 -0.0288  0.3926  0.0757
  388TMC3     H 5803   3.392   3.503  10.143 -1.3123 -1.2038  1.8942
  388TMC3    H1 5804   3.325   3.107  10.002  1.7305 -2.5298  1.9840
  388TMC3    H2 5805   3.640   3.186  10.280 -1.8623 -0.2240  1.8975
  388TMC3    C7 5806   3.542   2.991  10.138  0.8801 -0.1428 -0.8236
  388TMC3    C8 5807   3.571   3.425  10.341  0.9016  0.3649  0.2085
  388TMC3    O1 5808   3.586   2.923  10.230 -0.3847 -0.1928 -0.5997
  388TMC3    O2 5809   3.654   3.365  10.410 -0.0453  0.5309 -0.2345
  389MPD2     C 5810   2.301   1.381  11.299  0.2178 -0.0369  0.1977
  389MPD2    C1 5811   2.173   1.343  11.270  0.1373 -0.0449  0.4930
  389MPD2    C2 5812   2.107   1.235  11.327  0.1612 -0.5383  0.1374
  389MPD2    C3 5813   2.181   1.164  11.421 -0.2714  0.3380 -0.1063
  389MPD2    C4 5814   2.293   1.219  11.464 -0.0474 -0.5238  0.1273
  389MPD2    C5 5815   2.358   1.327  11.410 -0.3690 -0.3904  0.4458
  389MPD2     H 5816   2.004   1.211  11.305  0.2791 -2.4619  1.6809
  389MPD2    H1 5817   2.344   1.172  11.548  1.3216 -1.2948 -1.1238
  389MPD2    H2 5818   2.345   1.470  11.256 -1.4280  1.2272  1.1289
  389MPD2    H3 5819   2.459   1.340  11.446 -0.8960 -0.0346  1.8076
  389MPD2     N 5820   2.125   1.061  11.497 -0.7081  0.0341  0.1081
  389MPD2    H5 5821   2.170   1.042  11.586 -1.5597 -0.0578  0.5228
  389MPD2    N1 5822   2.108   1.432  11.176 -0.1363  0.3937  0.0594
  389MPD2    H7 5823   2.173   1.495  11.129 -0.0823 -0.8823 -1.5701
  390TMC3    C1 5824   1.997   0.863  11.534  0.9662  0.2780 -0.2083
  390TMC3    C2 5825   1.949   0.750  11.473  0.2101 -0.0663  0.3876
  390TMC3    C3 5826   1.890   0.660  11.557  0.3237  0.4115 -0.2471
  390TMC3    C4 5827   1.993   0.891  11.671 -0.3486 -0.2928  0.1159
  390TMC3    C5 5828   1.938   0.788  11.744  0.1164  0.9050  0.4302
  390TMC3    C6 5829   1.889   0.670  11.692  0.4513 -0.5523 -0.3513
  390TMC3     C 5830   2.042   0.971  11.439 -0.1730 -0.1537 -0.0207
  390TMC3     O 5831   2.005   0.959  11.321  0.2542 -0.1333  0.7333
  390TMC3     H 5832   1.961   0.731  11.367 -1.7752  2.4515 -0.2799
  390TMC3    H1 5833   2.036   0.976  11.722  1.5491 -0.8180 -0.6083
  390TMC3    H2 5834   1.873   0.583  11.755  1.8854 -1.5839 -1.4300
  390TMC3    C7 5835   1.949   0.804  11.885 -0.3392 -0.5366  1.3110
  390TMC3    C8 5836   1.814   0.550  11.501  0.2881  0.0817 -0.8478
  390TMC3    O1 5837   2.032   0.879  11.932 -0.1055  0.5884 -0.0699
  390TMC3    O2 5838   1.861   0.488  11.406 -0.5227 -0.3650 -0.5385
  391MPD2     C 5839   2.147   2.515  11.145  0.4435  0.0956  0.3904
  391MPD2    C1 5840   2.215   2.602  11.070  0.3237 -0.0882 -0.0689
  391MPD2    C2 5841   2.179   2.617  10.940  0.8511  0.0264  0.8339
  391MPD2    C3 5842   2.064   2.570  10.892  0.0489 -0.3360  0.9829
  391MPD2    C4 5843   1.984   2.490  10.975 -0.0303  0.5484  0.0737
  391MPD2    C5 5844   2.026   2.464  11.100 -0.4039  0.5749 -0.2875
  391MPD2     H 5845   2.247   2.665  10.871 -1.4102  0.9344 -0.7626
  391MPD2    H1 5846   1.902   2.432  10.934  0.2884  1.1399 -1.4132
  391MPD2    H2 5847   2.181   2.491  11.245  1.3714  0.9458  0.2776
  391MPD2    H3 5848   1.972   2.393  11.161  2.3183 -1.0926  0.1695
  391MPD2     N 5849   2.026   2.612  10.767  0.2316  1.0275  0.3425
  391MPD2    H5 5850   2.093   2.665  10.713  0.1211  1.0939  0.2693
  391MPD2    N1 5851   2.329   2.673  11.125 -0.1040  0.4331 -0.4023
  391MPD2    H7 5852   2.355   2.642  11.218  2.4315 -1.6673 -1.8129
  392TMC3    C1 5853   1.873   2.692  10.610  0.2483  0.0085 -0.0148
  392TMC3    C2 5854   1.781   2.657  10.521 -0.0628  0.1037 -0.6805
  392TMC3    C3 5855   1.785   2.723  10.397 -0.2961 -0.6281  0.6666
  392TMC3    C4 5856   1.968   2.793  10.587  0.4175  0.0903 -0.0625
  392TMC3    C5 5857   1.961   2.867  10.474 -0.5416 -0.1331 -0.6524
  392TMC3    C6 5858   1.872   2.831  10.374 -0.1330 -0.3627 -0.5606
  392TMC3     C 5859   1.900   2.593  10.712  0.0834  0.5554  0.1995
  392TMC3     O 5860   1.815   2.521  10.755  0.0179  0.8978  0.1801
  392TMC3     H 5861   1.726   2.565  10.535  0.9529 -0.2948  0.7204
  392TMC3    H1 5862   2.051   2.821  10.651  0.1507  0.0094  0.3195
  392TMC3    H2 5863   1.857   2.894  10.287  0.3919  0.9601  0.3132
  392TMC3    C7 5864   2.082   2.951  10.438  1.4500  0.2724 -0.0425
  392TMC3    C8 5865   1.698   2.670  10.294 -0.1043  0.0314  0.6671
  392TMC3    O1 5866   2.160   2.973  10.529  0.7574  0.0260 -0.0174
  392TMC3    O2 5867   1.611   2.593  10.332  0.3444  0.2898 -0.3493
  393TMC3    C1 5868   0.555   0.541  10.748 -0.1042 -0.1879  0.8492
  393TMC3    C2 5869   0.456   0.484  10.680 -0.3337  0.1067 -0.3533
  393TMC3    C3 5870   0.485   0.377  10.605 -0.6160  0.4469 -0.3295
  393TMC3    C4 5871   0.685   0.508  10.725  0.0447  0.6025  0.2115
  393TMC3    C5 5872   0.715   0.412  10.625 -0.8177  0.4495  0.0911
  393TMC3    C6 5873   0.609   0.332  10.573  0.0161  0.2536  0.1304
  393TMC3     C 5874   0.537   0.674  10.807 -0.4520 -0.2709  0.1973
  393TMC3     O 5875   0.616   0.712  10.897  0.2559  0.0686 -0.7110
  393TMC3     H 5876   0.351   0.508  10.694  0.1457  1.5576  0.7069
  393TMC3    H1 5877   0.761   0.559  10.783 -1.3308  3.7220 -0.7026
  393TMC3    H2 5878   0.626   0.267  10.488  0.1266 -1.1442  1.2229
  393TMC3    C7 5879   0.851   0.385  10.563 -0.5421  0.2885  0.4709
  393TMC3    C8 5880   0.377   0.348  10.516 -0.0799  0.2534 -0.1573
  393TMC3    O1 5881   0.857   0.270  10.525 -0.0273 -0.8344  0.0886
  393TMC3    O2 5882   0.260   0.348  10.556 -0.2583  0.4422 -0.2965
  394TMC3    C1 5883   1.937   1.535  11.044  0.0483 -0.1840 -0.4291
  394TMC3    C2 5884   1.804   1.542  11.011  0.2644  0.1625 -0.4534
  394TMC3    C3 5885   1.776   1.614  10.899  0.5939 -0.5170 -0.2044
  394TMC3    C4 5886   2.037   1.593  10.963 -0.4232 -0.6722  1.0105
  394TMC3    C5 5887   2.001   1.658  10.853  0.1932  0.3178  0.1252
  394TMC3    C6 5888   1.869   1.669  10.815  0.9755 -0.7568 -0.9283
  394TMC3     C 5889   1.971   1.442  11.151 -0.6856 -0.0359  0.0197
  394TMC3     O 5890   1.877   1.384  11.197 -0.2371 -1.0892 -0.4686
  394TMC3     H 5891   1.732   1.500  11.080  1.4819 -0.8478  0.2107
  394TMC3    H1 5892   2.140   1.602  10.996 -0.9166 -1.3266  2.6979
  394TMC3    H2 5893   1.834   1.740  10.742 -2.4707 -1.3358  0.1952
  394TMC3    C7 5894   2.105   1.697  10.762  0.1063  0.2935  0.3859
  394TMC3    C8 5895   1.648   1.592  10.842 -0.1214 -0.5460 -0.5205
  394TMC3    O1 5896   2.222   1.687  10.801 -0.4601 -0.0583  0.5609
  394TMC3    O2 5897   1.549   1.594  10.920  0.1474 -0.3943 -0.1880
  395TMC3    C1 5898   1.937   3.383  14.531 -0.1882 -0.7089  0.1647
  395TMC3    C2 5899   1.808   3.415  14.552  0.1896 -0.4018 -0.2376
  395TMC3    C3 5900   1.777   3.531  14.621  0.1405 -0.4257  0.3823
  395TMC3    C4 5901   2.039   3.468  14.570 -0.6764  0.1311 -0.0789
  395TMC3    C5 5902   1.999   3.584  14.633 -0.8416  0.0327  0.4386
  395TMC3    C6 5903   1.872   3.608  14.669 -0.3711 -0.2751  0.4975
  395TMC3     C 5904   1.963   3.247  14.572 -0.3278 -0.9207 -0.1208
  395TMC3     O 5905   2.049   3.240  14.658  0.1250  0.4415 -0.1795
  395TMC3     H 5906   1.722   3.362  14.513 -0.3898  0.2985  0.0917
  395TMC3    H1 5907   2.143   3.440  14.574 -0.6682 -0.1144 -2.0846
  395TMC3    H2 5908   1.855   3.706  14.714 -1.8312  1.3559 -3.6299
  395TMC3    C7 5909   2.099   3.676  14.680  0.6474  0.0775  0.5643
  395TMC3    C8 5910   1.682   3.511  14.724  0.3823 -0.1893  0.3608
  395TMC3    O1 5911   2.074   3.748  14.778 -0.0989 -0.4090  0.1485
  395TMC3    O2 5912   1.668   3.595  14.814 -0.4308 -0.2862 -0.2773
  396MPD2     C 5913   1.784   4.492  17.201  0.2222 -0.6874 -0.5120
  396MPD2    C1 5914   1.894   4.549  17.243 -0.0685 -0.7850 -0.5058
  396MPD2    C2 5915   1.955   4.643  17.165  0.0340 -0.2231 -0.4355
  396MPD2    C3 5916   1.916   4.673  17.038  0.4599 -0.3148 -0.0844
  396MPD2    C4 5917   1.800   4.616  16.994 -0.0704 -0.0678  0.0191
  396MPD2    C5 5918   1.732   4.528  17.078  0.2135  0.5735 -0.0495
  396MPD2     H 5919   2.042   4.689  17.211  1.0316 -1.3468 -1.2006
  396MPD2    H1 5920   1.754   4.634  16.897  0.5758 -0.5730 -0.3837
  396MPD2    H2 5921   1.727   4.428  17.268  1.3690 -1.5233 -0.3371
  396MPD2    H3 5922   1.638   4.485  17.045 -0.1062  1.6466 -0.5116
  396MPD2     N 5923   1.979   0.047  16.965 -0.1140 -0.2342 -0.2150
  396MPD2    H5 5924   2.059   0.086  17.013 -0.5701  1.3643 -0.7494
  396MPD2    N1 5925   1.933   4.502  17.374 -0.4672 -0.3760 -0.5169
  396MPD2    H7 5926   1.880   4.429  17.421 -0.8907  0.1773 -0.1347
  397TMC3    C1 5927   2.051   4.461  17.558 -0.4629  0.2937  0.0627
  397TMC3    C2 5928   2.172   4.404  17.530 -0.0838  0.0172  0.3847
  397TMC3    C3 5929   2.182   4.280  17.482  0.0228 -0.2799  0.5787
  397TMC3    C4 5930   1.940   4.375  17.581 -0.1261  0.1278 -0.3076
  397TMC3    C5 5931   1.956   4.238  17.549 -0.0495  0.0700  0.0843
  397TMC3    C6 5932   2.074   4.198  17.486  0.3197  0.4789 -0.0412
  397TMC3     C 5933   2.031   4.555  17.448  0.2457  0.1643 -0.1137
  397TMC3     O 5934   2.111   4.640  17.419  0.0235 -0.1105  0.2103
  397TMC3     H 5935   2.253   4.476  17.520  1.0178 -1.0813  1.3674
  397TMC3    H1 5936   1.841   4.417  17.597 -0.3566 -0.1486 -1.0221
  397TMC3    H2 5937   2.085   4.093  17.466  0.5476  0.5954 -0.5156
  397TMC3    C7 5938   1.833   4.158  17.534 -0.5423 -0.4405  0.6248
  397TMC3    C8 5939   2.252   4.266  17.354 -0.5082  0.1726 -0.4304
  397TMC3    O1 5940   1.818   4.074  17.445 -0.2062 -0.0776 -0.1213
  397TMC3    O2 5941   2.206   4.178  17.280 -0.2673  0.1502  1.1330
  398MPD2     C 5942   4.575   1.000   0.155 -0.0535  0.3505 -0.2653
  398MPD2    C1 5943   4.685   0.935   0.198 -0.4178  0.2309  0.3124
  398MPD2    C2 5944   0.087   0.999   0.211 -0.4531 -0.4661  0.4150
  398MPD2    C3 5945   0.097   1.132   0.179  1.0986 -0.2621 -0.5536
  398MPD2    C4 5946   4.709   1.196   0.124  0.2213 -0.0429 -0.1367
  398MPD2    C5 5947   4.587   1.131   0.124 -0.2164  0.6066  0.1462
  398MPD2     H 5948   0.174   0.948   0.250 -1.6392 -2.2576  0.7352
  398MPD2    H1 5949   4.714   1.302   0.101  1.8477 -0.1039 -0.0848
  398MPD2    H2 5950   4.477   0.955   0.152  0.2231 -0.2648  0.0637
  398MPD2    H3 5951   4.501   1.190   0.095 -0.1031 -0.6247 -2.6045
  398MPD2     N 5952   0.222   1.195   0.192  0.1263  0.2844  0.6474
  398MPD2    H5 5953   0.283   1.140   0.252 -0.0815  0.1300  0.7206
  398MPD2    N1 5954   4.683   0.803   0.230 -0.2662  0.1255  0.1871
  398MPD2    H7 5955   0.032   0.770   0.294 -1.4307  1.4335  2.1911
  399TMC3    C1 5956   4.638   0.579   0.197 -0.1887 -0.4537 -0.7045
  399TMC3    C2 5957   0.041   0.547   0.217 -0.5627  0.0697  0.0901
  399TMC3    C3 5958   0.068   0.415   0.202  0.3106  0.0108  0.9717
  399TMC3    C4 5959   4.542   0.486   0.166  0.3346  0.6687 -0.3689
  399TMC3    C5 5960   4.573   0.354   0.160 -0.0416 -0.0013  0.4034
  399TMC3    C6 5961   4.703   0.313   0.167  0.5290 -0.3262 -0.2949
  399TMC3     C 5962   4.600   0.714   0.171  0.3893 -0.2696 -0.5413
  399TMC3     O 5963   4.514   0.736   0.086  0.1575 -0.1885 -0.3403
  399TMC3     H 5964   0.119   0.619   0.240  3.5455 -3.0402 -4.0080
  399TMC3    H1 5965   4.442   0.526   0.150 -0.4955 -1.9019 -1.5262
  399TMC3    H2 5966   0.008   0.214   0.135  0.6920 -0.1918 -0.5651
  399TMC3    C7 5967   4.475   0.255   0.198  0.6498 -0.2750  0.6589
  399TMC3    C8 5968   0.211   0.374   0.221  0.1065 -0.0331 -0.6342
  399TMC3    O1 5969   4.509   0.140   0.206 -0.4533 -0.1029 -0.5552
  399TMC3    O2 5970   0.300   0.459   0.218  0.0185  0.3326 -0.2081
  400TMC3    C1 5971   3.464   4.486  17.598 -0.6921  0.6867  0.7915
  400TMC3    C2 5972   3.397   4.453  17.482  0.4691 -0.0006  0.3602
  400TMC3    C3 5973   3.338   4.551  17.413 -0.0456 -0.6137 -0.4809
  400TMC3    C4 5974   3.461   4.611  17.653  0.0694 -0.1466  0.1128
  400TMC3    C5 5975   3.392   4.706  17.585 -0.4775 -0.6847 -0.0161
  400TMC3    C6 5976   3.323   4.678  17.466  0.2435 -0.1213  0.0511
  400TMC3     C 5977   3.551   4.383  17.657  0.0987 -0.0771 -0.1769
  400TMC3     O 5978   3.564   4.282  17.590  0.6527  0.8018 -0.6864
  400TMC3     H 5979   3.428   4.366  17.425  1.1039 -0.2907  1.1552
  400TMC3    H1 5980   3.491   4.637   0.057  0.0588  1.4494 -0.2981
  400TMC3    H2 5981   3.260   0.024  17.412 -0.3078 -0.7211 -0.0857
  400TMC3    C7 5982   3.330   0.085  17.673  0.0451  0.8551  0.7451
  400TMC3    C8 5983   3.269   4.524  17.284 -0.4164 -0.2971 -0.6250
  400TMC3    O1 5984   3.367   0.091   0.094  0.4499 -0.5238 -0.0457
  400TMC3    O2 5985   3.228   4.620  17.217  0.5565  0.0141  0.1035
  401MPD2     C 5986   0.593   2.543   0.360  0.1662 -0.0548  0.8122
  401MPD2    C1 5987   0.688   2.554   0.454 -0.2150  0.0093 -0.1961
  401MPD2    C2 5988   0.750   2.438   0.495 -0.6033  0.0868  0.3852
  401MPD2    C3 5989   0.714   2.318   0.449 -0.3380  0.0812  0.2380
  401MPD2    C4 5990   0.605   2.304   0.367  0.3187  0.0411  0.1667
  401MPD2    C5 5991   0.546   2.421   0.329 -0.0089 -0.1689  0.2478
  401MPD2     H 5992   0.838   2.439   0.559  0.3342  0.9371 -0.8945
  401MPD2    H1 5993   0.558   2.208   0.352  1.2409 -0.7074  2.1875
  401MPD2    H2 5994   0.533   2.627   0.327 -2.4111 -2.4346 -0.5823
  401MPD2    H3 5995   0.457   2.414   0.267  0.9354 -2.8375 -0.8128
  401MPD2     N 5996   0.798   2.211   0.476  0.0122 -0.5846  0.6527
  401MPD2    H5 5997   0.881   2.234   0.530  0.0080 -1.5060  1.0510
  401MPD2    N1 5998   0.721   2.671   0.522 -0.1360  0.2604  0.0059
  401MPD2    H7 5999   0.789   2.658   0.596 -0.1193 -0.9659 -0.2189
  402TMC3    C1 6000   0.870   1.987   0.502  0.1323 -0.7740  0.0665
  402TMC3    C2 6001   0.888   2.003   0.635 -0.6350 -0.4431 -0.9242
  402TMC3    C3 6002   0.937   1.896   0.703 -0.2006  0.2788  0.7845
  402TMC3    C4 6003   0.901   1.880   0.432  0.4917  0.5118  0.1651
  402TMC3    C5 6004   0.955   1.774   0.501  0.5179 -0.6213 -0.1729
  402TMC3    C6 6005   0.980   1.783   0.635 -0.0922 -0.8150 -0.6309
  402TMC3     C 6006   0.776   2.079   0.443 -0.3141  0.0314 -0.6093
  402TMC3     O 6007   0.695   2.030   0.366  0.1274  0.3935 -1.1095
  402TMC3     H 6008   0.848   2.087   0.690  1.8018  0.7182 -0.9386
  402TMC3    H1 6009   0.863   1.868   0.331  1.4151  1.9817 -0.3689
  402TMC3    H2 6010   1.033   1.706   0.688 -1.2921 -0.8887  0.4721
  402TMC3    C7 6011   1.048   1.693   0.429 -0.0582 -0.6890 -0.9685
  402TMC3    C8 6012   0.986   1.918   0.838 -0.2283  0.3130  0.0268
  402TMC3    O1 6013   1.066   1.733   0.316  0.1533 -0.1858 -0.1688
  402TMC3    O2 6014   1.082   1.849   0.870 -0.4013 -0.2743  0.1373
  403MPD2     C 6015   4.141   0.890  13.686 -0.0634 -0.6886  0.0044
  403MPD2    C1 6016   4.252   0.809  13.661  0.0190 -0.4081 -0.1847
  403MPD2    C2 6017   4.365   0.867  13.611 -0.3553 -0.2008 -0.0553
  403MPD2    C3 6018   4.384   0.995  13.608  0.4803 -0.2425 -0.2066
  403MPD2    C4 6019   4.283   1.075  13.641 -0.0123 -0.3898  0.4479
  403MPD2    C5 6020   4.158   1.029  13.678 -0.4330 -0.7440 -0.0836
  403MPD2     H 6021   4.451   0.809  13.580  0.2421  1.2387 -1.0805
  403MPD2    H1 6022   4.299   1.182  13.635  1.2638 -0.6427 -0.8961
  403MPD2    H2 6023   4.046   0.851  13.721 -0.4616 -0.0044 -0.3012
  403MPD2    H3 6024   4.074   1.097  13.687 -0.4844 -0.9434  0.9456
  403MPD2     N 6025   4.512   1.039  13.579  0.4772  0.2350 -0.3563
  403MPD2    H5 6026   4.574   0.963  13.552 -0.9280 -0.0507 -2.6874
  403MPD2    N1 6027   4.222   0.672  13.660 -0.3040 -0.2417 -0.7469
  403MPD2    H7 6028   4.125   0.645  13.676 -0.6098  2.9839  3.0108
  404TMC3    C1 6029   4.287   0.458  13.579  0.2578 -0.5427  0.0162
  404TMC3    C2 6030   4.273   0.357  13.666  0.3747 -0.3888 -0.7710
  404TMC3    C3 6031   4.281   0.234  13.619  0.2575 -0.6299  1.1361
  404TMC3    C4 6032   4.309   0.446  13.448 -0.2192 -0.2636 -0.0026
  404TMC3    C5 6033   4.308   0.321  13.397 -0.0965 -0.2732 -0.5805
  404TMC3    C6 6034   4.287   0.213  13.484  0.2989  0.6057 -0.2655
  404TMC3     C 6035   4.322   0.578  13.638  0.2788  0.3400  0.0903
  404TMC3     O 6036   4.446   0.591  13.635  0.0759  0.4242  0.0114
  404TMC3     H 6037   4.273   0.384  13.771 -0.0179 -0.7670 -0.6775
  404TMC3    H1 6038   4.326   0.535  13.389 -3.1287  1.0532  1.1659
  404TMC3    H2 6039   4.274   0.113  13.443 -0.8374  1.4356 -1.9616
  404TMC3    C7 6040   4.279   0.296  13.256 -0.0106  0.3204  0.8304
  404TMC3    C8 6041   4.298   0.118  13.710  0.3865  0.0983 -0.3125
  404TMC3    O1 6042   4.217   0.193  13.224  0.3036 -0.0655 -0.4148
  404TMC3    O2 6043   4.335   0.017  13.652  0.3549 -0.2006 -0.5021
  405MPD2     C 6044   4.281   1.195  14.819  0.3792  0.4306  0.3416
  405MPD2    C1 6045   4.365   1.204  14.709  0.9697 -0.5656 -0.0440
  405MPD2    C2 6046   4.379   1.331  14.646 -0.1988  0.0052  0.2789
  405MPD2    C3 6047   4.309   1.433  14.693  0.3599 -0.0295 -0.0023
  405MPD2    C4 6048   4.233   1.425  14.809  0.5318  0.0529 -0.7866
  405MPD2    C5 6049   4.221   1.307  14.872  0.2151  0.1407  0.1220
  405MPD2     H 6050   4.431   1.340  14.551  0.9447  2.0773  1.0949
  405MPD2    H1 6051   4.189   1.510  14.860  3.1368  3.0509 -3.5391
  405MPD2    H2 6052   4.276   1.105  14.878 -0.9040 -1.3780 -2.5313
  405MPD2    H3 6053   4.161   1.294  14.961 -0.9254  4.1141 -0.0971
  405MPD2     N 6054   4.308   1.548  14.613 -0.5404  0.1037 -0.5276
  405MPD2    H5 6055   4.374   1.549  14.537 -0.6191  0.4749 -0.5875
  405MPD2    N1 6056   4.435   1.088  14.662 -0.4336  0.3337  0.3038
  405MPD2    H7 6057   4.399   0.999  14.695 -0.9450  0.9687  1.4538
  406TMC3    C1 6058   4.109   1.643  14.279  0.1643 -0.1209 -0.7268
  406TMC3    C2 6059   4.229   1.643  14.211 -0.3239  0.2788  0.1020
  406TMC3    C3 6060   4.342   1.675  14.283 -0.2785 -0.2123  0.0313
  406TMC3    C4 6061   4.105   1.671  14.417  0.4961  0.3172  0.1195
  406TMC3    C5 6062   4.219   1.699  14.482  1.1100 -0.5435 -0.4927
  406TMC3    C6 6063   4.338   1.705  14.419 -0.6608 -0.0345 -0.6377
  406TMC3     C 6064   3.994   1.612  14.211  0.2050 -0.1783  0.3371
  406TMC3     O 6065   3.974   1.652  14.093  0.7879  0.2337  0.1705
  406TMC3     H 6066   4.223   1.625  14.105 -4.2377  0.8006  0.2356
  406TMC3    H1 6067   4.019   1.673  14.482  0.8588  3.0953  0.5199
  406TMC3    H2 6068   4.428   1.729  14.476 -1.5614  2.0802 -0.1248
  406TMC3    C7 6069   4.214   1.647  14.612  0.2117 -0.2650 -0.2455
  406TMC3    C8 6070   4.441   1.571  14.274 -0.7918  0.3923  0.2488
  406TMC3    O1 6071   4.121   1.664  14.689  0.0162 -0.2846 -0.3405
  406TMC3    O2 6072   4.462   1.510  14.380  0.0981 -0.0821  0.3294
  407MPD2     C 6073   2.591   3.224   9.185  0.1499  0.0430  0.1530
  407MPD2    C1 6074   2.710   3.176   9.222  0.0706  0.3370 -0.3014
  407MPD2    C2 6075   2.737   3.148   9.350 -1.0588 -0.7913 -0.6430
  407MPD2    C3 6076   2.645   3.194   9.444  0.5831 -0.3419  0.2976
  407MPD2    C4 6077   2.527   3.259   9.409  0.0994 -0.5395 -0.0456
  407MPD2    C5 6078   2.505   3.277   9.275  0.5827  0.3356 -0.4567
  407MPD2     H 6079   2.832   3.105   9.379  0.6576  3.1880 -0.3184
  407MPD2    H1 6080   2.453   3.301   9.476  1.1386  0.0627  0.7426
  407MPD2    H2 6081   2.570   3.237   9.080 -1.1012 -0.7695  0.2987
  407MPD2    H3 6082   2.412   3.320   9.241  0.3885 -0.7886 -1.3359
  407MPD2     N 6083   2.664   3.172   9.578  0.3833 -0.0180 -0.0884
  407MPD2    H5 6084   2.594   3.212   9.640  0.6889 -1.1824  1.0169
  407MPD2    N1 6085   2.809   3.154   9.126  0.3168  0.0060 -0.0125
  407MPD2    H7 6086   2.900   3.132   9.165  0.3525  2.0781  1.0704
  408TMC3    C1 6087   2.926   3.097   8.934 -0.2216  0.0640 -0.4675
  408TMC3    C2 6088   3.040   3.156   8.976  0.7121  0.1808 -0.4213
  408TMC3    C3 6089   3.156   3.101   8.936 -0.0473  0.1983  0.0479
  408TMC3    C4 6090   2.923   2.983   8.856 -0.2425 -0.2792  0.4261
  408TMC3    C5 6091   3.046   2.923   8.832  0.0814  0.5810  0.2618
  408TMC3    C6 6092   3.160   2.978   8.868  0.2443  0.1454  0.1197
  408TMC3     C 6093   2.801   3.148   8.987 -0.3784 -0.3614  0.8692
  408TMC3     O 6094   2.697   3.153   8.921  0.0891  0.2050 -0.5004
  408TMC3     H 6095   3.039   3.246   9.038  5.1055 -2.1443  3.0395
  408TMC3    H1 6096   2.822   2.950   8.835 -1.1088  1.5111  1.8274
  408TMC3    H2 6097   3.253   2.930   8.840  0.6002  0.8972  0.0129
  408TMC3    C7 6098   3.022   2.791   8.877 -0.0396  0.4062 -0.1810
  408TMC3    C8 6099   3.280   3.143   9.002 -0.0642  0.3560 -0.0822
  408TMC3    O1 6100   2.907   2.765   8.911 -0.0707 -0.1673 -0.1953
  408TMC3    O2 6101   3.376   3.082   8.961 -0.1380 -0.3722  0.3430
  409MPD2     C 6102   1.814   3.405  16.821 -0.0407 -0.3014  0.2809
  409MPD2    C1 6103   1.879   3.438  16.932  0.5274  1.1792 -0.1887
  409MPD2    C2 6104   1.961   3.546  16.933 -0.6522  0.3650  0.2505
  409MPD2    C3 6105   1.973   3.630  16.823  0.2318  0.2112  0.3883
  409MPD2    C4 6106   1.918   3.585  16.703 -0.4243  0.9678 -0.0153
  409MPD2    C5 6107   1.842   3.468  16.704 -0.8365  0.2181 -0.5732
  409MPD2     H 6108   2.004   3.582  17.026 -0.2285  1.3314 -0.3164
  409MPD2    H1 6109   1.923   3.639  16.609 -0.7068  1.2817  0.1477
  409MPD2    H2 6110   1.744   3.322  16.823  1.1643 -1.3278  0.0069
  409MPD2    H3 6111   1.796   3.429  16.614 -1.7811 -0.5289  0.2373
  409MPD2     N 6112   2.043   3.752  16.825 -0.1210 -0.0885  0.2208
  409MPD2    H5 6113   2.036   3.797  16.734  1.9872  0.0731  0.1281
  409MPD2    N1 6114   1.872   3.380  17.057 -0.3568 -0.2192  0.4623
  409MPD2    H7 6115   1.943   3.412  17.121  0.5038 -0.7694 -0.2112
  410TMC3    C1 6116   2.188   3.931  16.887  0.4112 -0.3599 -0.4909
  410TMC3    C2 6117   2.280   3.981  16.974  0.0720  0.0358  0.5820
  410TMC3    C3 6118   2.337   4.103  16.953 -0.3717  0.2052 -0.3179
  410TMC3    C4 6119   2.160   3.993  16.773 -0.1304  0.0112  0.0290
  410TMC3    C5 6120   2.228   4.107  16.747  0.0064  0.5375 -0.1109
  410TMC3    C6 6121   2.324   4.166  16.835  0.1783 -0.0220 -0.4445
  410TMC3     C 6122   2.108   3.810  16.931 -0.5747  0.8795  0.2538
  410TMC3     O 6123   2.114   3.776  17.048 -0.1163 -0.5274 -0.3273
  410TMC3     H 6124   2.312   3.922  17.058 -2.1486 -1.6444  0.2479
  410TMC3    H1 6125   2.075   3.962  16.712 -0.3331  3.2904 -1.3621
  410TMC3    H2 6126   2.356   4.268  16.819  1.5462 -0.5172 -0.8512
  410TMC3    C7 6127   2.217   4.150  16.611 -0.1966 -0.0302  0.7022
  410TMC3    C8 6128   2.452   4.127  17.044 -1.5138  0.1362  0.3330
  410TMC3    O1 6129   2.137   4.088  16.540 -0.1301 -0.1230 -0.2075
  410TMC3    O2 6130   2.452   4.065  17.147  0.0461 -0.1442  0.2326
  411MPD2     C 6131   1.989   4.085  14.642 -0.5626  0.3326 -0.1906
  411MPD2    C1 6132   1.859   4.045  14.644 -0.0151 -0.7905  0.1345
  411MPD2    C2 6133   1.819   3.951  14.554  0.5615  0.7062 -0.5829
  411MPD2    C3 6134   1.907   3.903  14.458 -0.4822  0.4306 -0.3696
  411MPD2    C4 6135   2.039   3.950  14.457  0.0071 -0.1662  0.3377
  411MPD2    C5 6136   2.073   4.044  14.548  0.3243 -0.1229 -0.4975
  411MPD2     H 6137   1.719   3.912  14.563  1.0054  0.3876  2.9635
  411MPD2    H1 6138   2.118   3.906  14.398  0.6428 -0.0338  1.0856
  411MPD2    H2 6139   2.026   4.165  14.704 -1.3234 -0.1696  0.9240
  411MPD2    H3 6140   2.177   4.074  14.552  0.6737 -0.9866 -3.1293
  411MPD2     N 6141   1.866   3.806  14.365 -0.2646  0.3412  0.3348
  411MPD2    H5 6142   1.939   3.777  14.301 -0.1762  1.7417 -0.1991
  411MPD2    N1 6143   1.767   4.094  14.744 -0.0187 -0.4152 -0.0679
  411MPD2    H7 6144   1.667   4.099  14.726  0.3639 -0.3890 -2.1858
  412TMC3    C1 6145   1.722   3.668  14.230  0.3995 -0.4898  0.4424
  412TMC3    C2 6146   1.610   3.585  14.217  0.1023  0.3959  0.4726
  412TMC3    C3 6147   1.558   3.553  14.096 -1.3329 -0.7024 -0.8713
  412TMC3    C4 6148   1.792   3.711  14.119  0.1915 -0.5852  0.3237
  412TMC3    C5 6149   1.739   3.684  13.997 -0.4453  0.0473  0.2774
  412TMC3    C6 6150   1.630   3.603  13.986 -0.7306  0.0582 -0.3215
  412TMC3     C 6151   1.745   3.740  14.356  0.6771 -0.0311 -0.4646
  412TMC3     O 6152   1.648   3.751  14.429  0.2118  0.2581  0.1840
  412TMC3     H 6153   1.550   3.565  14.305 -0.6617  2.9939  0.5461
  412TMC3    H1 6154   1.867   3.787  14.133  0.4346 -0.5798 -0.9991
  412TMC3    H2 6155   1.580   3.599  13.890 -1.6752 -2.3055  0.2812
  412TMC3    C7 6156   1.736   3.795  13.904 -0.2307 -0.0373  0.3094
  412TMC3    C8 6157   1.419   3.596  14.098 -0.1428 -0.0123 -0.0796
  412TMC3    O1 6158   1.625   3.842  13.891  0.1709  0.0134  0.5030
  412TMC3    O2 6159   1.326   3.528  14.139  0.2592 -0.1608  0.1059
  413MPD2     C 6160   4.256   1.932  15.756 -0.1392  0.0778  0.4633
  413MPD2    C1 6161   4.209   1.990  15.639 -0.3116 -0.7060 -0.7830
  413MPD2    C2 6162   4.251   1.932  15.516 -0.0204  0.2015 -0.0367
  413MPD2    C3 6163   4.333   1.816  15.529  0.9582 -0.6262 -0.1440
  413MPD2    C4 6164   4.391   1.775  15.645  0.2449  0.4158  0.1188
  413MPD2    C5 6165   4.350   1.834  15.759 -0.0627 -0.3351  0.2616
  413MPD2     H 6166   4.217   1.961  15.417  0.1507 -0.6142 -0.3309
  413MPD2    H1 6167   4.459   1.692  15.659 -1.2365 -0.9228 -0.4925
  413MPD2    H2 6168   4.240   1.974  15.855 -0.5901 -1.3506  0.9835
  413MPD2    H3 6169   4.391   1.794  15.851 -2.4208 -0.5555  1.2175
  413MPD2     N 6170   4.361   1.752  15.406  0.7144 -0.1236  0.4011
  413MPD2    H5 6171   4.318   1.796  15.325  0.9167 -1.9888 -0.7185
  413MPD2    N1 6172   4.133   2.113  15.653 -0.6306 -0.0021 -0.8367
  413MPD2    H7 6173   4.118   2.128  15.752  1.7357 -0.8690 -0.3403
  414TMC3    C1 6174   4.445   1.588  15.252 -0.6104  0.1296 -0.0997
  414TMC3    C2 6175   4.477   1.459  15.226  0.1448  0.9127 -0.1673
  414TMC3    C3 6176   4.506   1.412  15.106  0.4635  0.2840  0.2631
  414TMC3    C4 6177   4.438   1.685  15.154  0.5511 -0.1187 -0.2904
  414TMC3    C5 6178   4.484   1.636  15.032 -1.0795 -0.5255 -0.2752
  414TMC3    C6 6179   4.515   1.503  14.999  0.1368 -0.5790 -0.2841
  414TMC3     C 6180   4.432   1.631  15.389 -0.1500  1.6252 -0.2481
  414TMC3     O 6181   4.485   1.562  15.471  0.3181 -0.3929  0.0183
  414TMC3     H 6182   4.484   1.390  15.309  2.2045  1.5410  0.1845
  414TMC3    H1 6183   4.404   1.786  15.172 -0.8947 -0.8169  0.8065
  414TMC3    H2 6184   4.557   1.478  14.902  0.2256  0.2252 -0.4508
  414TMC3    C7 6185   4.556   1.735  14.955  0.2293  0.1731 -0.4489
  414TMC3    C8 6186   4.535   1.270  15.089  0.3082  0.2560 -0.0041
  414TMC3    O1 6187   4.651   1.695  14.889  0.5604 -0.3702  0.2555
  414TMC3    O2 6188   4.460   1.195  15.153  0.3879 -0.1688  0.6295
  415TMC3    C1 6189   0.291   4.646  10.030 -0.2639  0.0929 -0.4706
  415TMC3    C2 6190   0.410   4.703   9.982 -0.0618 -0.3025  0.4846
  415TMC3    C3 6191   0.451   4.669   9.855  0.4273  0.1686  0.4558
  415TMC3    C4 6192   0.216   4.559   9.949  0.2209 -0.3677 -0.4965
  415TMC3    C5 6193   0.258   4.538   9.817 -1.3756  0.2195 -0.0530
  415TMC3    C6 6194   0.374   4.592   9.772  0.4779 -0.3428  0.5053
  415TMC3     C 6195   0.271   4.635  10.172 -0.5682  0.5983  0.5119
  415TMC3     O 6196   0.164   4.585  10.208  0.2487  0.1020 -0.2765
  415TMC3     H 6197   0.465   0.044  10.050 -2.2449  1.5288  0.5013
  415TMC3    H1 6198   0.130   4.500   9.977 -1.1344  1.8684  0.0848
  415TMC3    H2 6199   0.412   4.571   9.673  1.4882  0.4093  0.7343
  415TMC3    C7 6200   0.207   4.424   9.753  0.0959 -0.5061  0.1413
  415TMC3    C8 6201   0.596   4.664   9.827  0.2623  0.1865  0.3529
  415TMC3    O1 6202   0.214   4.414   9.632  0.0202  0.0646  0.1734
  415TMC3    O2 6203   0.640   4.554   9.789  0.3297 -0.2383  0.5927
  416MPD2     C 6204   2.134   3.799  11.424 -0.1554 -0.0517  0.2507
  416MPD2    C1 6205   2.047   3.782  11.314  0.1365  0.1303  0.1409
  416MPD2    C2 6206   2.083   3.681  11.220  0.9695  0.0869  0.0781
  416MPD2    C3 6207   2.196   3.599  11.243  0.3410 -0.3336  0.0684
  416MPD2    C4 6208   2.273   3.616  11.355  0.4730 -0.0810 -0.4809
  416MPD2    C5 6209   2.247   3.721  11.434 -0.5652  0.4630 -0.0571
  416MPD2     H 6210   2.021   3.664  11.133  0.6243 -0.6718  0.4662
  416MPD2    H1 6211   2.370   3.567  11.357  1.0622  1.1516  0.7998
  416MPD2    H2 6212   2.112   3.878  11.496 -1.3135  0.9340 -1.1789
  416MPD2    H3 6213   2.329   3.738  11.503 -0.1764  2.1589 -0.9477
  416MPD2     N 6214   2.226   3.482  11.174  0.4071 -0.2130 -0.4182
  416MPD2    H5 6215   2.281   3.406  11.213 -0.6037 -0.1643  1.1155
  416MPD2    N1 6216   1.930   3.869  11.306 -0.1836  0.1098  0.1647
  416MPD2    H7 6217   1.913   3.930  11.386 -0.8906 -0.9484  0.8209
  417TMC3    C1 6218   1.714   3.933  11.231  0.5209  0.2672  0.2657
  417TMC3    C2 6219   1.685   3.990  11.347 -0.0797  0.4091 -0.3020
  417TMC3    C3 6220   1.575   4.072  11.360 -0.1902  0.3844 -0.9080
  417TMC3    C4 6221   1.635   3.954  11.127 -0.3228  0.2380 -0.3682
  417TMC3    C5 6222   1.538   4.048  11.135 -0.3811 -0.6334 -0.4065
  417TMC3    C6 6223   1.502   4.108  11.253  0.3545 -0.5215  0.2482
  417TMC3     C 6224   1.832   3.859  11.208  0.4723  0.3465 -0.3654
  417TMC3     O 6225   1.848   3.795  11.106  0.8291  0.4101 -0.3627
  417TMC3     H 6226   1.749   3.971  11.433 -1.3409 -1.9224  0.1101
  417TMC3    H1 6227   1.666   3.917  11.030  0.3741 -2.5626  0.9076
  417TMC3    H2 6228   1.432   4.190  11.261  1.2648  0.0198  2.8957
  417TMC3    C7 6229   1.505   4.112  11.017  0.9242 -0.0982 -0.4390
  417TMC3    C8 6230   1.542   4.122  11.486 -0.0704  0.1067 -0.2877
  417TMC3    O1 6231   1.499   4.234  11.026  0.4553  0.3353  0.1419
  417TMC3    O2 6232   1.421   4.134  11.505 -0.3074 -0.0738 -0.4056
  418TMC3    C1 6233   0.581   1.254   0.034 -0.0687 -0.3874  0.2895
  418TMC3    C2 6234   0.474   1.339   0.051  0.5054  0.9088 -0.1316
  418TMC3    C3 6235   0.403   1.327   0.167  0.2247  0.5886  0.0080
  418TMC3    C4 6236   0.621   1.172   0.143 -0.4638 -1.0287  0.6199
  418TMC3    C5 6237   0.556   1.175   0.264  0.3634  0.1042  0.0472
  418TMC3    C6 6238   0.446   1.257   0.274 -0.3836 -0.2255 -0.6698
  418TMC3     C 6239   0.639   1.247  17.604 -1.0685  0.2510  0.3438
  418TMC3     O 6240   0.651   1.356  17.550  0.1184 -0.1110  0.5772
  418TMC3     H 6241   0.416   1.372  17.662  0.5956  0.4496 -0.3694
  418TMC3    H1 6242   0.710   1.111   0.136 -0.0822 -0.4248  0.1243
  418TMC3    H2 6243   0.389   1.267   0.366  1.2877  1.5863  0.1711
  418TMC3    C7 6244   0.547   1.055   0.338  0.4522  0.8856  0.0166
  418TMC3    C8 6245   0.264   1.312   0.138 -0.2817 -0.0775 -0.4643
  418TMC3    O1 6246   0.587   0.950   0.289 -1.0624  0.4756  0.0233
  418TMC3    O2 6247   0.206   1.392   0.064 -0.0926  0.3234  0.6134
  419MPD2     C 6248   3.797   3.781  12.709  0.1242 -0.5844  0.5031
  419MPD2    C1 6249   3.680   3.824  12.657 -0.2497 -0.1561 -1.3135
  419MPD2    C2 6250   3.597   3.889  12.745 -0.2515 -0.7275  0.8627
  419MPD2    C3 6251   3.616   3.887  12.880  0.0944  0.1827  0.4457
  419MPD2    C4 6252   3.729   3.823  12.931  0.0387  0.0236  0.2441
  419MPD2    C5 6253   3.823   3.775  12.844  0.0000 -0.1316  0.2572
  419MPD2     H 6254   3.504   3.933  12.711  0.1887 -0.5120 -0.0463
  419MPD2    H1 6255   3.753   3.816  13.037 -2.0947 -0.8313  0.6655
  419MPD2    H2 6256   3.881   3.742  12.653 -0.9600 -0.5319 -1.1640
  419MPD2    H3 6257   3.911   3.726  12.884 -0.5352 -1.3536 -0.0430
  419MPD2     N 6258   3.513   3.931  12.957  0.0526 -0.0669 -0.1787
  419MPD2    H5 6259   3.423   3.952  12.915 -0.3215  0.5560  0.9532
  419MPD2    N1 6260   3.643   3.803  12.521 -0.6724 -0.2348 -1.2721
  419MPD2    H7 6261   3.551   3.829  12.484 -0.3699  2.6894  0.0246
  420TMC3    C1 6262   3.415   4.001  13.156  0.0971  0.4203  0.2975
  420TMC3    C2 6263   3.354   4.104  13.084 -0.3202  0.1547 -0.5534
  420TMC3    C3 6264   3.291   4.204  13.154  0.1697  0.9633 -0.4508
  420TMC3    C4 6265   3.408   3.993  13.287  0.4030  0.2817  0.2595
  420TMC3    C5 6266   3.334   4.092  13.356 -0.7479 -0.1196 -0.7717
  420TMC3    C6 6267   3.287   4.198  13.291 -0.5427 -0.0920  0.0002
  420TMC3     C 6268   3.517   3.930  13.094 -0.8285  0.3555 -0.2013
  420TMC3     O 6269   3.596   3.876  13.173  0.1237  0.1631 -0.1898
  420TMC3     H 6270   3.341   4.106  12.976 -1.6877  2.3860 -0.3470
  420TMC3    H1 6271   3.457   3.913  13.342  0.5948  0.8353  0.8884
  420TMC3    H2 6272   3.211   4.260  13.337 -1.5291 -2.5740  1.7217
  420TMC3    C7 6273   3.343   4.090  13.507  0.2286  0.1558 -0.0341
  420TMC3    C8 6274   3.223   4.316  13.092  0.0692 -0.0458 -0.1423
  420TMC3    O1 6275   3.344   3.985  13.563 -0.2141  0.3574  0.1442
  420TMC3    O2 6276   3.162   4.303  12.986  0.3564  0.6991 -0.1698
  421TMC3    C1 6277   4.713   1.172  13.563  0.1710 -0.1433 -0.4877
  421TMC3    C2 6278   0.044   1.295  13.587 -0.5178  0.4966 -0.4768
  421TMC3    C3 6279   0.182   1.306  13.595  0.4504 -0.7218  0.1705
  421TMC3    C4 6280   0.073   1.059  13.560  0.4268 -0.6618  0.4891
  421TMC3    C5 6281   0.208   1.073  13.561 -0.1550 -0.1699  0.5879
  421TMC3    C6 6282   0.260   1.193  13.579 -0.4778  0.3757 -0.9337
  421TMC3     C 6283   4.569   1.162  13.595 -0.1225 -0.5904  0.6108
  421TMC3     O 6284   4.521   1.264  13.644  0.4877 -0.3520  0.4104
  421TMC3     H 6285   4.713   1.388  13.581 -0.4262  0.4895 -1.4314
  421TMC3    H1 6286   0.026   0.969  13.521 -0.9148  1.8351 -3.7587
  421TMC3    H2 6287   0.368   1.206  13.583 -0.7280  2.5788 -0.9005
  421TMC3    C7 6288   0.290   0.959  13.588  0.3852 -1.2426  0.2543
  421TMC3    C8 6289   0.239   1.390  13.696  0.0416  0.0326 -0.2366
  421TMC3    O1 6290   0.393   0.964  13.653  0.4189  0.0675 -0.1334
  421TMC3    O2 6291   0.356   1.366  13.726 -0.5093  0.1272 -0.1689
  422TMC3    C1 6292   2.665   2.280  12.572 -0.5236  0.5318  0.3264
  422TMC3    C2 6293   2.610   2.405  12.586  0.2652 -0.5548 -0.4441
  422TMC3    C3 6294   2.480   2.419  12.631  0.2644 -0.0882  0.1246
  422TMC3    C4 6295   2.587   2.167  12.608 -0.0876  0.3547  0.3689
  422TMC3    C5 6296   2.458   2.193  12.647  0.1002  1.3565 -0.4904
  422TMC3    C6 6297   2.401   2.311  12.661 -0.4435  0.3793 -0.0073
  422TMC3     C 6298   2.769   2.260  12.476 -0.3417  0.0327 -0.1659
  422TMC3     O 6299   2.841   2.352  12.442 -0.2890  0.1871  0.5837
  422TMC3     H 6300   2.658   2.494  12.548 -2.2601  0.5466 -1.0486
  422TMC3    H1 6301   2.627   2.067  12.602 -1.6332 -0.2398  0.0134
  422TMC3    H2 6302   2.303   2.322  12.706 -1.7757  1.2658 -3.1188
  422TMC3    C7 6303   2.377   2.077  12.688  0.5886 -0.0668  1.1700
  422TMC3    C8 6304   2.431   2.553  12.627  0.0078  0.8274 -0.1672
  422TMC3    O1 6305   2.442   1.981  12.728 -0.0952  0.7355  0.0079
  422TMC3    O2 6306   2.505   2.634  12.678 -0.1212 -0.1551  0.0960
  423MPD2     C 6307   4.552   3.307   0.756  0.2972 -0.6435  0.2183
  423MPD2    C1 6308   4.434   3.240   0.785 -0.1237  0.1062  0.6168
  423MPD2    C2 6309   4.374   3.163   0.689  0.6900  0.0242  0.1905
  423MPD2    C3 6310   4.428   3.158   0.560 -0.2715  0.1771 -0.1586
  423MPD2    C4 6311   4.547   3.223   0.536  0.6328 -0.1406  0.4849
  423MPD2    C5 6312   4.606   3.302   0.629 -0.5689  0.0416  0.6296
  423MPD2     H 6313   4.282   3.111   0.711  0.6095  0.2216  0.3156
  423MPD2    H1 6314   4.594   3.220   0.439  0.6489 -1.9402  0.5588
  423MPD2    H2 6315   4.610   3.350   0.837  1.3721 -2.6877  0.5413
  423MPD2    H3 6316   4.700   3.346   0.601 -2.1920  1.7087 -2.2047
  423MPD2     N 6317   4.382   3.084   0.446  0.2163 -0.4357 -0.6502
  423MPD2    H5 6318   4.430   3.104   0.359  3.0559 -0.0759  0.9966
  423MPD2    N1 6319   4.373   3.241   0.917 -0.2222  0.7140 -0.2604
  423MPD2    H7 6320   4.300   3.174   0.941 -0.3807  1.2407  0.7355
  424TMC3    C1 6321   4.311   3.327   1.121  0.0593  0.6306 -0.2002
  424TMC3    C2 6322   4.281   3.202   1.161  0.9321 -0.1829  1.2414
  424TMC3    C3 6323   4.188   3.189   1.259 -0.5671  0.6985  0.1317
  424TMC3    C4 6324   4.246   3.437   1.174 -0.0462 -0.1030  0.3029
  424TMC3    C5 6325   4.148   3.427   1.266  0.0636  0.2252 -0.0263
  424TMC3    C6 6326   4.114   3.299   1.313  1.0147 -0.4006 -0.5199
  424TMC3     C 6327   4.400   3.337   1.012 -0.7659  0.2400  0.2058
  424TMC3     O 6328   4.454   3.447   1.000 -0.6570  0.1077 -0.3553
  424TMC3     H 6329   4.332   3.111   1.135 -0.9007 -0.9922  0.4539
  424TMC3    H1 6330   4.269   3.531   1.123  2.5287  0.2468  2.1032
  424TMC3    H2 6331   4.050   3.289   1.400  1.7320 -0.6708 -0.0218
  424TMC3    C7 6332   4.070   3.549   1.303  0.0235  0.5010  0.0079
  424TMC3    C8 6333   4.167   3.052   1.298 -0.2451  0.1929  0.0237
  424TMC3    O1 6334   4.119   3.658   1.278 -0.4872  0.4718 -0.3207
  424TMC3    O2 6335   4.233   2.958   1.257 -0.1654  0.2228 -0.0079
  425MPD2     C 6336   2.969   2.557  17.691 -0.4081  0.4692  0.3386
  425MPD2    C1 6337   2.909   2.449  17.626  0.1586  0.6912 -0.0091
  425MPD2    C2 6338   2.776   2.449  17.592  0.3909  0.2851  0.4158
  425MPD2    C3 6339   2.701   2.563  17.604  0.1896  0.5827 -0.5928
  425MPD2    C4 6340   2.763   2.678  17.660 -0.2143  0.4171 -0.1640
  425MPD2    C5 6341   2.890   2.664   0.017 -0.5661  0.6531 -0.5451
  425MPD2     H 6342   2.724   2.359  17.559  0.8883  0.3361 -0.5011
  425MPD2    H1 6343   2.709   2.770  17.680  0.8493  0.8681  0.7020
  425MPD2    H2 6344   3.072   2.556   0.029 -0.2874 -1.2382 -0.0518
  425MPD2    H3 6345   2.930   2.753   0.063 -0.3060  1.3077 -2.0635
  425MPD2     N 6346   2.570   2.551  17.568 -0.2870 -0.5621  0.0034
  425MPD2    H5 6347   2.543   2.461  17.531 -2.5561 -0.3906  1.2105
  425MPD2    N1 6348   2.995   2.344  17.600  0.1746 -0.2262 -0.2363
  425MPD2    H7 6349   3.088   2.352  17.640  0.4668 -0.6946 -0.8167
  426TMC3    C1 6350   3.034   2.114  17.570  0.1625 -0.0470  0.1841
  426TMC3    C2 6351   3.041   2.018  17.467 -0.0487 -0.3168 -0.1135
  426TMC3    C3 6352   3.063   1.886  17.507 -0.3812 -0.0687 -0.8911
  426TMC3    C4 6353   3.029   2.077   0.006 -0.4357  0.6376  0.6347
  426TMC3    C5 6354   3.056   1.941   0.036 -0.6401 -0.1446 -0.3102
  426TMC3    C6 6355   3.069   1.845  17.637  0.1297  0.1312  0.7630
  426TMC3     C 6356   2.956   2.228  17.536 -0.7003 -0.1531 -0.0224
  426TMC3     O 6357   2.876   2.209  17.444  0.5163  0.0956  0.3188
  426TMC3     H 6358   3.027   2.041  17.362 -0.1655  1.7878  0.3599
  426TMC3    H1 6359   3.027   2.154   0.082  0.0341 -1.0965  2.4015
  426TMC3    H2 6360   3.081   1.740  17.660 -2.9267 -0.0596  1.4281
  426TMC3    C7 6361   3.013   1.890   0.169  0.4525 -0.9318  0.1931
  426TMC3    C8 6362   3.017   1.776  17.425 -0.6958 -0.3161  0.1326
  426TMC3    O1 6363   3.042   1.775   0.205  0.0881 -0.0842  0.3741
  426TMC3    O2 6364   3.084   1.678  17.397  0.3699 -0.0864 -0.3103
  427MPD2     C 6365   1.451   3.821  15.013  0.2354  0.4173  0.0209
  427MPD2    C1 6366   1.476   3.903  15.125 -0.6315 -0.6059 -0.2631
  427MPD2    C2 6367   1.424   4.031  15.138  0.0939  0.8963 -0.3170
  427MPD2    C3 6368   1.322   4.062  15.047  1.0444  0.2415  0.2115
  427MPD2    C4 6369   1.298   3.980  14.933 -0.0737 -0.4421 -0.0455
  427MPD2    C5 6370   1.357   3.862  14.916  0.6064  0.0918  0.5371
  427MPD2     H 6371   1.453   4.099  15.217 -0.8929  0.4764  0.4072
  427MPD2    H1 6372   1.227   4.019  14.862 -1.1465 -1.1966  0.6227
  427MPD2    H2 6373   1.502   3.728  14.992  0.0986  0.3506 -0.0204
  427MPD2    H3 6374   1.342   3.794  14.833  1.9566  0.6285 -0.1584
  427MPD2     N 6375   1.240   4.181  15.067 -0.3841  0.1907 -0.3622
  427MPD2    H5 6376   1.172   4.200  14.994 -1.1152  0.6267  0.4419
  427MPD2    N1 6377   1.566   3.866  15.228  0.6107 -0.2514  0.0207
  427MPD2    H7 6378   1.602   3.938  15.290  0.9494  0.7327 -1.3125
  428TMC3    C1 6379   1.726   3.736  15.346  0.1370 -0.2291 -0.6838
  428TMC3    C2 6380   1.738   3.618  15.415  0.1125 -0.7428 -0.4904
  428TMC3    C3 6381   1.825   3.609  15.521  0.1955 -0.0426 -0.0534
  428TMC3    C4 6382   1.796   3.846  15.372 -1.3894  0.5964  0.5127
  428TMC3    C5 6383   1.872   3.839  15.488  0.7675 -0.2554  0.3278
  428TMC3    C6 6384   1.891   3.722  15.567  0.0776 -0.2250  0.1524
  428TMC3     C 6385   1.623   3.738  15.248 -0.1810  0.2588  0.1695
  428TMC3     O 6386   1.589   3.630  15.201  0.6716  0.2498  0.5282
  428TMC3     H 6387   1.688   3.532  15.373 -1.0126  0.8417 -2.3893
  428TMC3    H1 6388   1.786   3.935  15.311 -0.6218  0.7665  0.6438
  428TMC3    H2 6389   1.969   3.728  15.642  0.5818  0.1036 -0.4002
  428TMC3    C7 6390   1.994   3.919  15.498 -0.2453 -0.2548 -0.1390
  428TMC3    C8 6391   1.830   3.493  15.611 -0.7833 -0.0150  0.3529
  428TMC3    O1 6392   2.029   3.946  15.611 -0.0442  0.3030 -0.0185
  428TMC3    O2 6393   1.855   3.499  15.728  0.0140  0.2955  0.2835
  429MPD2     C 6394   2.265   4.580   0.245 -0.1597  0.0616  0.2172
  429MPD2    C1 6395   2.334   4.529   0.136  0.2630 -0.9242 -0.3219
  429MPD2    C2 6396   2.396   4.615   0.045  0.4116 -0.4089  0.4470
  429MPD2    C3 6397   2.383   0.033   0.055 -0.3722 -0.6885  0.2565
  429MPD2    C4 6398   2.319   0.078   0.169 -0.8687 -0.0400 -0.3363
  429MPD2    C5 6399   2.251   4.719   0.257  0.3814  0.1669 -0.8686
  429MPD2     H 6400   2.441   4.572  17.653 -0.3101  0.0466 -0.1441
  429MPD2    H1 6401   2.328   0.183   0.193 -0.0098 -0.3383  0.6372
  429MPD2    H2 6402   2.215   4.511   0.311 -0.5594  1.5384  1.4585
  429MPD2    H3 6403   2.197   0.030   0.344 -0.1515 -0.1680 -1.0686
  429MPD2     N 6404   2.435   0.130  17.653  0.0383  0.3506  0.0136
  429MPD2    H5 6405   2.419   0.227  17.680 -0.5898 -0.0701  1.1594
  429MPD2    N1 6406   2.355   4.389   0.109  1.0127 -0.0797  0.1782
  429MPD2    H7 6407   2.415   4.366   0.030  1.3379 -1.2629  0.7709
  430TMC3    C1 6408   2.517   0.228  17.443  0.1286  0.0595 -0.2060
  430TMC3    C2 6409   2.516   0.194  17.313  0.4074  0.5333  0.6387
  430TMC3    C3 6410   2.587   0.280  17.228 -0.5237 -0.2552  0.6674
  430TMC3    C4 6411   2.595   0.321  17.497  0.2459  0.0660 -1.0146
  430TMC3    C5 6412   2.673   0.395  17.420 -0.1729 -0.0205  0.1384
  430TMC3    C6 6413   2.665   0.379  17.281  0.0522 -0.4946  0.2205
  430TMC3     C 6414   2.476   0.109  17.524 -0.4595 -0.3454 -0.0499
  430TMC3     O 6415   2.492   0.000  17.475  0.1778  0.5407 -0.2528
  430TMC3     H 6416   2.449   0.119  17.275  0.1016  1.7732 -1.2510
  430TMC3    H1 6417   2.613   0.315  17.604 -1.0356  0.0627 -0.8009
  430TMC3    H2 6418   2.722   0.436  17.208 -1.0340 -0.3793 -0.5492
  430TMC3    C7 6419   2.808   0.416  17.458 -0.2244  0.5326 -1.2006
  430TMC3    C8 6420   2.541   0.300  17.096 -0.2795 -0.1653 -0.1815
  430TMC3    O1 6421   2.890   0.387  17.372  0.2589  0.0574  0.3228
  430TMC3    O2 6422   2.526   0.199  17.026 -0.2037  0.1200  0.1438
  431MPD2     C 6423   3.473   4.403  12.713  0.0369  0.0038  0.6502
  431MPD2    C1 6424   3.573   4.422  12.614 -0.4197  0.1046  0.0434
  431MPD2    C2 6425   3.586   4.331  12.509  0.8205  0.0526  0.1443
  431MPD2    C3 6426   3.500   4.223  12.510  0.1577 -0.4782 -0.4333
  431MPD2    C4 6427   3.404   4.207  12.608 -0.4501 -0.2045 -0.9027
  431MPD2    C5 6428   3.388   4.296  12.705  0.5377 -0.2412 -0.0988
  431MPD2     H 6429   3.666   4.344  12.437  0.3548 -0.9804 -0.5490
  431MPD2    H1 6430   3.341   4.119  12.614 -0.5882 -0.0396  0.0696
  431MPD2    H2 6431   3.475   4.462  12.804  2.4278  3.6182 -1.7534
  431MPD2    H3 6432   3.322   4.281  12.790  1.1113  2.6533  0.8592
  431MPD2     N 6433   3.514   4.121  12.414  0.1984 -0.0023 -0.4443
  431MPD2    H5 6434   3.465   4.035  12.437 -0.1366  0.1724 -0.4969
  431MPD2    N1 6435   3.660   4.531  12.611 -0.1430  0.4133 -0.0785
  431MPD2    H7 6436   3.734   4.517  12.542 -0.2524 -1.7585  0.2218
  432TMC3    C1 6437   3.580   4.010  12.221  0.4161  1.1950 -0.4450
  432TMC3    C2 6438   3.671   4.009  12.111 -0.0163  1.0657 -0.3002
  432TMC3    C3 6439   3.760   3.908  12.095  0.5657 -0.5459  0.3828
  432TMC3    C4 6440   3.566   3.893  12.295  0.4187  0.0932 -0.0998
  432TMC3    C5 6441   3.665   3.800  12.282 -0.6497 -0.5105 -0.2688
  432TMC3    C6 6442   3.761   3.804  12.181 -0.3911  0.2899  0.2097
  432TMC3     C 6443   3.573   4.132  12.288  0.1048 -0.2140 -0.5630
  432TMC3     O 6444   3.614   4.227  12.217  0.4832 -0.6762 -0.2223
  432TMC3     H 6445   3.691   4.094  12.047 -0.5663 -0.0072 -1.9150
  432TMC3    H1 6446   3.483   3.877  12.362 -1.5896 -1.0332 -2.8630
  432TMC3    H2 6447   3.809   3.714  12.144 -2.2380 -1.0995  1.2266
  432TMC3    C7 6448   3.712   3.751  12.411 -0.3435  0.3474  0.4175
  432TMC3    C8 6449   3.823   3.912  11.966 -0.2330 -0.6683 -0.3781
  432TMC3    O1 6450   3.820   3.694  12.409  0.7373 -0.1443  0.3142
  432TMC3    O2 6451   3.784   3.980  11.870  0.4469 -0.4180 -0.2452
  433MPD2     C 6452   2.907   3.494  10.769  0.4238 -0.1573 -0.3588
  433MPD2    C1 6453   2.960   3.362  10.777 -0.4727 -0.0123 -0.1640
  433MPD2    C2 6454   3.047   3.329  10.881  0.2168 -0.0084 -0.3696
  433MPD2    C3 6455   3.079   3.424  10.980  0.4862 -0.0418 -0.0424
  433MPD2    C4 6456   3.026   3.550  10.963 -0.0926 -0.4027  0.1590
  433MPD2    C5 6457   2.948   3.587  10.859 -0.8748 -0.8242  0.5404
  433MPD2     H 6458   3.096   3.232  10.884 -0.3508 -0.2302  2.3311
  433MPD2    H1 6459   3.042   3.628  11.037 -0.4404 -1.9261  1.8360
  433MPD2    H2 6460   2.842   3.528  10.690  1.1506  0.7024 -0.5883
  433MPD2    H3 6461   2.906   3.687  10.861  0.3818 -0.2891  0.2465
  433MPD2     N 6462   3.139   3.373  11.095 -0.1043 -0.0037  0.2480
  433MPD2    H5 6463   3.149   3.272  11.093 -0.8188 -0.0837  0.7546
  433MPD2    N1 6464   2.934   3.258  10.693 -0.0455 -0.4719  0.2896
  433MPD2    H7 6465   2.999   3.180  10.699 -0.0137 -0.4972 -0.3785
  434TMC3    C1 6466   2.837   3.141  10.533  1.1345  0.1321  0.0602
  434TMC3    C2 6467   2.837   3.020  10.609 -0.6646 -0.1358  0.3592
  434TMC3    C3 6468   2.836   2.902  10.537 -0.3346 -0.1955 -0.2250
  434TMC3    C4 6469   2.801   3.139  10.404 -0.4882  0.4018  0.0124
  434TMC3    C5 6470   2.780   3.019  10.342 -0.1760  0.0547 -0.7027
  434TMC3    C6 6471   2.808   2.899  10.401 -0.2843  0.2896 -0.4556
  434TMC3     C 6472   2.825   3.257  10.612 -1.3280  0.3069  0.6211
  434TMC3     O 6473   2.744   3.343  10.591  0.4361 -0.4099  0.4913
  434TMC3     H 6474   2.881   3.034  10.707  1.3756  0.4397 -0.6445
  434TMC3    H1 6475   2.774   3.229  10.348  0.9077  1.1072  0.4717
  434TMC3    H2 6476   2.800   2.804  10.348  1.8763 -0.8890  1.3515
  434TMC3    C7 6477   2.721   3.021  10.207 -0.1735 -0.5175  0.2772
  434TMC3    C8 6478   2.899   2.785  10.600 -1.0741  0.7629 -0.4034
  434TMC3    O1 6479   2.703   3.135  10.159  0.0271  0.8298  0.3852
  434TMC3    O2 6480   2.912   2.785  10.724 -0.7384 -0.3355 -0.2684
  435MPD2     C 6481   4.444   3.092  15.347  0.3697 -0.0072  0.1947
  435MPD2    C1 6482   4.433   3.098  15.486  0.1698  0.4811  0.2818
  435MPD2    C2 6483   4.521   3.030  15.566 -0.6014 -0.2699 -0.1412
  435MPD2    C3 6484   4.618   2.948  15.515  0.2078  0.2324  0.2062
  435MPD2    C4 6485   4.630   2.947  15.379 -0.2095 -0.0565  0.1405
  435MPD2    C5 6486   4.551   3.032  15.297  0.1304  0.5450  0.3156
  435MPD2     H 6487   4.505   3.041  15.673  1.0862  0.4279  0.0236
  435MPD2    H1 6488   4.702   2.888  15.324  0.4868  0.1942  0.7821
  435MPD2    H2 6489   4.370   3.137  15.281 -1.1963 -1.3051  1.0746
  435MPD2    H3 6490   4.556   3.034  15.188 -0.3380  1.0408  0.3095
  435MPD2     N 6491   4.699   2.863  15.603  0.0999  0.0416  0.8555
  435MPD2    H5 6492   4.673   2.866  15.701  1.1429  0.3044  1.1234
  435MPD2    N1 6493   4.331   3.174  15.551 -0.3756 -0.2414  0.4724
  435MPD2    H7 6494   4.325   3.177  15.652 -0.0093  0.4323  0.4782
  436TMC3    C1 6495   4.088   3.377  15.808  0.4641 -0.0059  0.4658
  436TMC3    C2 6496   4.173   3.321  15.715 -1.3457  0.0298 -0.1488
  436TMC3    C3 6497   4.127   3.295  15.593  0.2940  0.5492 -0.8471
  436TMC3    C4 6498   3.953   3.385  15.790  0.7661  0.2682  0.0687
  436TMC3    C5 6499   3.909   3.342  15.668 -0.5066  0.0252 -0.2746
  436TMC3    C6 6500   3.995   3.306  15.562  0.0119 -0.0647  0.7598
  436TMC3     C 6501   4.154   3.431  15.928 -0.1705 -0.2850  0.8783
  436TMC3     O 6502   4.276   3.438  15.926  0.4721  0.0860 -0.7307
  436TMC3     H 6503   4.278   3.311  15.739 -0.8453  1.2544 -1.8108
  436TMC3    H1 6504   3.884   3.425  15.864  0.2499  0.8277 -0.7230
  436TMC3    H2 6505   3.955   3.276  15.466  0.7453  0.7149  0.2094
  436TMC3    C7 6506   3.768   3.331  15.649  0.3321 -0.3162  0.5315
  436TMC3    C8 6507   4.221   3.236  15.491 -0.5048 -0.5509  0.3102
  436TMC3    O1 6508   3.703   3.389  15.732  0.1777 -0.5668 -0.0807
  436TMC3    O2 6509   4.186   3.225  15.376 -0.4119  0.1693 -0.3170
  437TMC3    C1 6510   3.234   0.133  11.907  0.2541  0.0328  0.0074
  437TMC3    C2 6511   3.172   0.115  11.784 -0.7148 -0.3421 -0.5407
  437TMC3    C3 6512   3.230   0.163  11.671  0.4333  0.3963  1.3991
  437TMC3    C4 6513   3.348   0.196  11.920 -0.1385  0.6988  0.4567
  437TMC3    C5 6514   3.418   0.232  11.801 -0.2668 -0.6790 -0.0537
  437TMC3    C6 6515   3.350   0.218  11.682  0.7865  0.7670 -0.0511
  437TMC3     C 6516   3.131   0.188  12.002  0.2532  0.1573  0.2541
  437TMC3     O 6517   3.031   0.234  11.952 -0.6439  0.4830 -0.4061
  437TMC3     H 6518   3.069   0.084  11.775 -0.2131 -1.7365 -1.5338
  437TMC3    H1 6519   3.398   0.210  12.015 -1.8202  0.7588  1.3339
  437TMC3    H2 6520   3.392   0.254  11.589 -1.0996  1.5164 -0.6022
  437TMC3    C7 6521   3.544   0.303  11.802 -0.1769 -0.1982  0.5372
  437TMC3    C8 6522   3.169   0.156  11.542 -0.3610 -0.5422 -1.1236
  437TMC3    O1 6523   3.595   0.325  11.693 -0.6901  0.7749  0.1992
  437TMC3    O2 6524   3.114   0.051  11.519  0.3076  0.3206 -0.1430
  438MPD2     C 6525   0.800   0.818  16.393  0.4996 -0.3771  0.8279
  438MPD2    C1 6526   0.890   0.774  16.489 -0.6112 -0.3850 -0.0475
  438MPD2    C2 6527   0.864   0.802  16.616  0.1691 -0.8775 -0.3356
  438MPD2    C3 6528   0.743   0.861  16.657  0.2292  0.2678 -0.0992
  438MPD2    C4 6529   0.656   0.903  16.558 -0.1709  0.1240 -0.2145
  438MPD2    C5 6530   0.696   0.896  16.429  0.2427  1.5788 -0.4674
  438MPD2     H 6531   0.931   0.775  16.697  0.0292 -1.7455 -0.5079
  438MPD2    H1 6532   0.566   0.956  16.589  0.0859 -1.1212  2.6553
  438MPD2    H2 6533   0.819   0.797  16.289 -0.2408  1.0163  0.4034
  438MPD2    H3 6534   0.631   0.943  16.356 -0.2881  2.5064  0.6013
  438MPD2     N 6535   0.728   0.888  16.795  0.4219 -0.4969  0.6863
  438MPD2    H5 6536   0.785   0.835  16.860 -0.0937 -0.7296  0.9474
  438MPD2    N1 6537   1.009   0.705  16.452  0.2160 -0.2299  0.2444
  438MPD2    H7 6538   1.071   0.680  16.528  1.2274  3.0022  0.5034
  439TMC3    C1 6539   1.186   0.629  16.330  0.2724  0.3057  0.1387
  439TMC3    C2 6540   1.233   0.577  16.210  0.1657 -0.6840 -0.0447
  439TMC3    C3 6541   1.358   0.524  16.215 -0.4722 -0.2554  0.3620
  439TMC3    C4 6542   1.260   0.630  16.444 -0.2512  0.4510  0.0180
  439TMC3    C5 6543   1.385   0.571  16.441 -0.1832 -0.0820  0.8187
  439TMC3    C6 6544   1.431   0.509  16.326  0.0392  0.5272  0.0132
  439TMC3     C 6545   1.053   0.672  16.327  1.0915 -0.5555  0.0791
  439TMC3     O 6546   0.993   0.675  16.222  0.7255 -0.5223  0.0957
  439TMC3     H 6547   1.171   0.574  16.121 -0.4715 -2.4511  0.4756
  439TMC3    H1 6548   1.230   0.679  16.535  0.0535  1.0698 -0.2142
  439TMC3    H2 6549   1.527   0.458  16.335  1.6540  3.4717 -0.5304
  439TMC3    C7 6550   1.465   0.563  16.559  0.2412  0.6863  0.3642
  439TMC3    C8 6551   1.405   0.437  16.110 -0.2006  0.2580 -0.2097
  439TMC3    O1 6552   1.540   0.469  16.573 -0.1582 -0.4914 -0.3370
  439TMC3    O2 6553   1.493   0.356  16.136  0.4381 -0.2669 -0.2278
  440MPD2     C 6554   4.069   1.182  14.471 -0.4226 -0.0812  0.1959
  440MPD2    C1 6555   4.022   1.140  14.594  0.3967  0.1575  0.6365
  440MPD2    C2 6556   4.041   1.015  14.640 -0.0017 -0.2547 -0.6757
  440MPD2    C3 6557   4.101   0.915  14.566  0.0606  0.0862 -0.1233
  440MPD2    C4 6558   4.138   0.948  14.441  0.0740 -0.0675 -0.1208
  440MPD2    C5 6559   4.126   1.076  14.395 -0.1470  0.4313  0.4311
  440MPD2     H 6560   4.022   1.000  14.746 -0.6115  0.8305 -0.6348
  440MPD2    H1 6561   4.178   0.871  14.376  0.3960  0.9094 -1.0675
  440MPD2    H2 6562   4.070   1.283  14.432 -2.2519 -0.7774 -1.6808
  440MPD2    H3 6563   4.152   1.086  14.290 -1.8084 -0.3421 -0.0597
  440MPD2     N 6564   4.118   0.780  14.612  0.3142  0.3431  0.1837
  440MPD2    H5 6565   4.173   0.714  14.558  0.5294 -0.1458  1.0037
  440MPD2    N1 6566   3.954   1.228  14.686 -0.0674  0.7315  0.0078
  440MPD2    H7 6567   3.917   1.185  14.770 -1.4975 -1.9120 -1.9463
  441TMC3    C1 6568   4.158   0.618  14.781  0.3071 -0.2598  0.4523
  441TMC3    C2 6569   4.291   0.631  14.750 -0.2068 -0.3319 -0.1030
  441TMC3    C3 6570   4.386   0.605  14.847 -0.4562 -0.2016 -0.4911
  441TMC3    C4 6571   4.128   0.591  14.916 -0.6097 -1.0325 -0.1206
  441TMC3    C5 6572   4.226   0.586  15.013  0.7832  0.1767  0.0705
  441TMC3    C6 6573   4.361   0.588  14.979  0.1503  0.1813  0.1371
  441TMC3     C 6574   4.090   0.735  14.740  0.3548  0.1597 -0.2014
  441TMC3     O 6575   4.015   0.787  14.827  0.5833  0.4479  0.0284
  441TMC3     H 6576   4.318   0.632  14.646 -0.0006  1.0857 -0.0427
  441TMC3    H1 6577   4.022   0.592  14.942 -0.0723  1.8537  1.9501
  441TMC3    H2 6578   4.448   0.585  15.044 -0.5486  1.0679  1.1045
  441TMC3    C7 6579   4.203   0.600  15.147  0.2000 -0.6209  0.5284
  441TMC3    C8 6580   4.511   0.666  14.816  0.3008  0.3518 -0.3993
  441TMC3    O1 6581   4.109   0.671  15.180  0.1771  0.6429 -0.3966
  441TMC3    O2 6582   4.566   0.638  14.711 -0.0906 -0.1923 -0.3746
  442MPD2     C 6583   2.515   2.109  17.053  0.1302 -0.4426 -0.3253
  442MPD2    C1 6584   2.447   2.076  16.935  0.6140 -0.3008 -0.0287
  442MPD2    C2 6585   2.504   1.974  16.861 -0.6877  1.2129  0.4493
  442MPD2    C3 6586   2.622   1.911  16.900 -0.1870  0.6993 -0.0144
  442MPD2    C4 6587   2.686   1.944  17.018 -0.0883  0.0384  0.1486
  442MPD2    C5 6588   2.629   2.039  17.097  0.0978  0.2834  0.5292
  442MPD2     H 6589   2.465   1.944  16.764  2.8530  0.4534 -0.7334
  442MPD2    H1 6590   2.783   1.913  17.052  0.0683  1.7177  1.2830
  442MPD2    H2 6591   2.486   2.188  17.122  0.0144 -0.1516 -0.7045
  442MPD2    H3 6592   2.678   2.075  17.187 -2.3032  2.1563  1.0764
  442MPD2     N 6593   2.684   1.813  16.826  0.1054  0.0773  0.3247
  442MPD2    H5 6594   2.761   1.762  16.868  0.3851 -1.3214 -1.8799
  442MPD2    N1 6595   2.322   2.134  16.894 -0.1602  0.4049 -0.1392
  442MPD2    H7 6596   2.290   2.107  16.801 -1.0335  2.6947 -0.5115
  443TMC3    C1 6597   2.091   2.203  16.921  0.2195  0.0325  0.0078
  443TMC3    C2 6598   2.062   2.195  16.788  0.0604  0.2183 -1.0193
  443TMC3    C3 6599   1.931   2.188  16.757  0.9045 -0.6476  0.5151
  443TMC3    C4 6600   1.990   2.207  17.012 -0.4099 -0.4381 -0.1487
  443TMC3    C5 6601   1.864   2.183  16.979 -0.4583  0.5347 -0.9248
  443TMC3    C6 6602   1.828   2.179  16.849  0.2333 -0.4617  0.0597
  443TMC3     C 6603   2.232   2.197  16.978  0.5007 -0.3413  0.5381
  443TMC3     O 6604   2.260   2.223  17.090 -0.1799 -0.0712  0.1425
  443TMC3     H 6605   2.137   2.197  16.710 -0.1947  0.2952 -1.2594
  443TMC3    H1 6606   2.013   2.193  17.117 -0.7994 -1.7074 -0.2358
  443TMC3    H2 6607   1.727   2.144  16.832 -0.2417  0.2188  1.5054
  443TMC3    C7 6608   1.797   2.087  17.055 -0.6386  0.0329  0.6507
  443TMC3    C8 6609   1.887   2.128  16.632 -0.0094 -0.3405  0.1922
  443TMC3    O1 6610   1.737   2.000  16.990  0.1503 -0.0755  0.4935
  443TMC3    O2 6611   1.971   2.066  16.569 -0.4320  0.1195  0.1051
  444MPD2     C 6612   2.862   1.349  17.455 -0.1150  0.9021 -0.4622
  444MPD2    C1 6613   2.761   1.276  17.391  0.1761 -0.0689  0.1235
  444MPD2    C2 6614   2.795   1.170  17.315  0.7028 -0.7070  0.2173
  444MPD2    C3 6615   2.929   1.148  17.272  0.4704  0.6042 -0.3506
  444MPD2    C4 6616   3.028   1.235  17.323  0.3125 -0.3706  0.1508
  444MPD2    C5 6617   2.988   1.332  17.417 -0.0955  0.1054 -0.1176
  444MPD2     H 6618   2.723   1.093  17.292  0.7869 -0.0314 -2.3102
  444MPD2    H1 6619   3.135   1.225  17.306  0.3131  2.0786 -1.3871
  444MPD2    H2 6620   2.841   1.437  17.515  0.6931  1.6208 -1.2275
  444MPD2    H3 6621   3.069   1.395  17.452  0.2952 -0.5368  0.1274
  444MPD2     N 6622   2.956   1.039  17.181 -0.2692  0.3282 -0.1125
  444MPD2    H5 6623   2.891   0.961  17.169 -0.8817  0.6874  0.9254
  444MPD2    N1 6624   2.624   1.293  17.418  0.1266  0.2757 -0.6394
  444MPD2    H7 6625   2.566   1.226  17.367  1.6843 -0.9144 -0.8580
  445TMC3    C1 6626   3.110   0.921  17.034 -0.4865 -0.0581 -0.5018
  445TMC3    C2 6627   3.047   0.803  17.062 -0.6514  0.2669 -0.0836
  445TMC3    C3 6628   3.103   0.686  17.007 -0.0392  0.0194  0.6429
  445TMC3    C4 6629   3.222   0.924  16.956 -0.0825  0.4227  0.4483
  445TMC3    C5 6630   3.269   0.804  16.902  0.1948 -0.7707  1.0965
  445TMC3    C6 6631   3.207   0.690  16.926  0.1492 -0.0263 -0.8183
  445TMC3     C 6632   3.073   1.044  17.104 -0.0915  0.4336 -0.9426
  445TMC3     O 6633   3.140   1.144  17.077  0.1721 -0.0660 -0.4956
  445TMC3     H 6634   2.950   0.795  17.109  0.4197 -3.5163  1.4656
  445TMC3    H1 6635   3.276   1.016  16.934  0.4609  0.6110  2.6481
  445TMC3    H2 6636   3.256   0.610  16.871 -0.1149 -0.7170 -0.0461
  445TMC3    C7 6637   3.399   0.803  16.845  0.1435 -0.1055  0.2317
  445TMC3    C8 6638   3.024   0.561  17.021  0.2246 -0.3083 -0.1797
  445TMC3    O1 6639   3.422   0.841  16.729  0.3955  0.4486 -0.3434
  445TMC3    O2 6640   2.918   0.575  17.081 -0.3040 -0.1147 -0.4664
  446MPD2     C 6641   2.699   2.537  11.225 -0.4219  0.3057 -0.3614
  446MPD2    C1 6642   2.691   2.534  11.083 -0.1918 -0.2324 -0.1555
  446MPD2    C2 6643   2.777   2.618  11.018  0.4344  0.3657 -0.2364
  446MPD2    C3 6644   2.863   2.706  11.084 -0.4285  0.0423  0.4184
  446MPD2    C4 6645   2.874   2.699  11.222 -0.3634 -0.3683 -0.2250
  446MPD2    C5 6646   2.787   2.619  11.290  0.1740  0.3460  0.2406
  446MPD2     H 6647   2.768   2.629  10.910 -2.0794  0.6591  0.0137
  446MPD2    H1 6648   2.938   2.751  11.293 -0.4842  1.8758 -1.7850
  446MPD2    H2 6649   2.643   2.474  11.292 -0.3838 -1.2266 -1.7794
  446MPD2    H3 6650   2.798   2.619  11.398  0.4338  0.8934  0.2138
  446MPD2     N 6651   2.948   2.787  11.011 -0.0232  0.3258  1.1264
  446MPD2    H5 6652   2.948   2.775  10.910 -0.7247 -0.2841  1.2017
  446MPD2    N1 6653   2.592   2.453  11.019 -0.1041 -0.3648  0.1505
  446MPD2    H7 6654   2.589   2.445  10.918 -2.3455  1.5239  0.0659
  447TMC3    C1 6655   3.139   2.937  10.999  0.1714 -0.4897 -0.0629
  447TMC3    C2 6656   3.128   2.948  10.863 -0.1681 -0.2186 -1.0166
  447TMC3    C3 6657   3.231   2.913  10.777  0.1256 -0.5010  0.1286
  447TMC3    C4 6658   3.258   2.892  11.046  0.1077 -0.0813 -0.0200
  447TMC3    C5 6659   3.360   2.859  10.964  0.6205  0.6095 -0.0564
  447TMC3    C6 6660   3.349   2.867  10.828 -0.5332 -0.5900 -0.8351
  447TMC3     C 6661   3.030   2.879  11.069  0.3157 -0.3900  0.6647
  447TMC3     O 6662   3.013   2.939  11.171 -0.5364 -0.1854 -0.4431
  447TMC3     H 6663   3.030   2.971  10.822 -0.2569  2.7503  0.9098
  447TMC3    H1 6664   3.263   2.868  11.151  1.2259  0.4416  0.0427
  447TMC3    H2 6665   3.427   2.845  10.756 -0.2040 -1.4275 -0.2164
  447TMC3    C7 6666   3.484   2.801  11.015  0.1351  0.2509 -0.3067
  447TMC3    C8 6667   3.205   2.953  10.636  0.8598 -0.3028 -0.0091
  447TMC3    O1 6668   3.575   2.782  10.931  0.1993  0.0749  0.0942
  447TMC3    O2 6669   3.131   3.051  10.618  0.0004 -0.5306 -0.6053
  448TMC3    C1 6670   0.519   2.055  15.821 -0.8442 -0.2131  0.2501
  448TMC3    C2 6671   0.540   1.918  15.828  0.1840  0.0050 -0.1664
  448TMC3    C3 6672   0.620   1.869  15.932  0.4225  0.2812  0.1469
  448TMC3    C4 6673   0.572   2.147  15.904  0.1227  0.3190  0.5419
  448TMC3    C5 6674   0.656   2.093  15.996 -0.1847 -0.6508 -0.2312
  448TMC3    C6 6675   0.677   1.960  16.018 -0.3252 -0.0228 -0.2952
  448TMC3     C 6676   0.441   2.104  15.708 -0.2637 -0.7684  0.4406
  448TMC3     O 6677   0.466   2.044  15.606 -0.3796 -0.7247 -0.1887
  448TMC3     H 6678   0.503   1.853  15.749  0.3812 -1.0168  0.5873
  448TMC3    H1 6679   0.558   2.253  15.889  0.8110  0.2813 -0.4428
  448TMC3    H2 6680   0.751   1.928  16.091 -1.5979  0.4400  1.1911
  448TMC3    C7 6681   0.683   2.181  16.109  0.2489  0.0536  1.0184
  448TMC3    C8 6682   0.649   1.728  15.954  0.0691  0.3433 -0.6385
  448TMC3    O1 6683   0.728   2.289  16.092 -0.4681 -0.2155 -0.2455
  448TMC3    O2 6684   0.737   1.701  16.036  0.3118  0.2166 -0.2966
  449MPD2     C 6685   2.441   1.164  13.818  0.1275 -0.1061  0.2467
  449MPD2    C1 6686   2.305   1.162  13.769  1.0349 -0.1271 -0.4242
  449MPD2    C2 6687   2.210   1.100  13.842  0.1943  0.3145 -0.3649
  449MPD2    C3 6688   2.243   1.035  13.960 -0.6087  0.3829 -0.0912
  449MPD2    C4 6689   2.373   1.036  14.013 -0.1439  0.2688  0.1182
  449MPD2    C5 6690   2.469   1.105  13.941 -0.0557 -0.4719  0.1098
  449MPD2     H 6691   2.114   1.104  13.791 -0.6445  0.2635  1.2207
  449MPD2    H1 6692   2.390   1.000  14.113 -1.6372 -1.6965 -0.3366
  449MPD2    H2 6693   2.519   1.201  13.753  1.5369  0.3963  2.2308
  449MPD2    H3 6694   2.570   1.083  13.974  1.4693  2.9792 -2.2198
  449MPD2     N 6695   2.132   0.966  14.020 -0.3111 -0.5232  0.4125
  449MPD2    H5 6696   2.045   0.977  13.970 -0.5122  1.8443  1.2940
  449MPD2    N1 6697   2.269   1.213  13.645 -0.1267  0.1582 -0.1725
  449MPD2    H7 6698   2.170   1.199  13.625 -0.4944  1.7046  0.6039
  450TMC3    C1 6699   2.268   1.288  13.439  1.3600  0.3381  0.4789
  450TMC3    C2 6700   2.303   1.218  13.332 -0.4980  0.3958 -0.3192
  450TMC3    C3 6701   2.200   1.162  13.264  0.2039  0.1755 -0.6450
  450TMC3    C4 6702   2.144   1.325  13.464 -0.5537  0.4847  0.1585
  450TMC3    C5 6703   2.040   1.272  13.398 -0.3570 -0.6104  0.2620
  450TMC3    C6 6704   2.067   1.183  13.300  0.2012 -0.7895  0.1251
  450TMC3     C 6705   2.351   1.268  13.551  0.1640 -0.3350  0.1100
  450TMC3     O 6706   2.471   1.276  13.535 -0.1487 -0.5549 -0.7558
  450TMC3     H 6707   2.404   1.179  13.319 -0.2697  1.2007 -0.9482
  450TMC3    H1 6708   2.128   1.388  13.551  1.5471  3.1056 -1.3692
  450TMC3    H2 6709   1.990   1.137  13.240 -0.0673  0.2137 -0.2963
  450TMC3    C7 6710   1.942   1.225  13.487 -0.5308  0.4397  0.1844
  450TMC3    C8 6711   2.227   1.080  13.148 -0.2604  0.3190  0.3841
  450TMC3    O1 6712   1.980   1.223  13.603 -0.7762 -0.4006 -0.5975
  450TMC3    O2 6713   2.135   1.041  13.078 -0.1038 -0.1645  0.1398
  451MPD2     C 6714   3.234   0.104   1.255  0.1186 -0.0046  0.1726
  451MPD2    C1 6715   3.118   0.080   1.184 -0.4838 -0.2419  0.0211
  451MPD2    C2 6716   3.103   4.691   1.106 -0.6979  0.0295  0.3558
  451MPD2    C3 6717   3.217   4.604   1.096 -0.2553  0.3417 -0.1575
  451MPD2    C4 6718   3.329   4.627   1.167 -0.0054  0.1190  0.7240
  451MPD2    C5 6719   3.337   0.015   1.250 -0.3183 -0.1521 -0.3089
  451MPD2     H 6720   3.016   4.666   1.047  0.9487 -1.1036 -1.5885
  451MPD2    H1 6721   3.410   4.555   1.157  1.8373  2.2390  0.4018
  451MPD2    H2 6722   3.235   0.188   1.324 -0.1557 -1.0160  1.3983
  451MPD2    H3 6723   3.427   0.040   1.305 -0.0665 -0.5671 -0.5270
  451MPD2     N 6724   3.215   4.486   1.018  0.2272 -0.4009 -0.1358
  451MPD2    H5 6725   3.282   4.412   1.038 -2.0722 -2.1525  1.1457
  451MPD2    N1 6726   3.012   0.171   1.204 -0.0550  0.2970 -0.3121
  451MPD2    H7 6727   3.034   0.264   1.236  0.5134  0.3964 -1.0065
  452TMC3    C1 6728   3.161   4.321   0.863 -0.5292 -0.0276 -0.3446
  452TMC3    C2 6729   3.072   4.222   0.829  0.2163  0.3875 -0.5898
  452TMC3    C3 6730   3.121   4.104   0.785  0.4174 -0.1326  0.1422
  452TMC3    C4 6731   3.299   4.308   0.856 -0.3071  0.0619 -0.2806
  452TMC3    C5 6732   3.344   4.195   0.797  0.8619 -0.2013 -0.3764
  452TMC3    C6 6733   3.254   4.091   0.775  0.2540  0.1164 -0.1537
  452TMC3     C 6734   3.119   4.445   0.931  0.0325 -0.1860 -0.4311
  452TMC3     O 6735   3.013   4.499   0.901  0.1547  0.0850  0.1601
  452TMC3     H 6736   2.967   4.245   0.845  0.0344 -0.4738 -0.5413
  452TMC3    H1 6737   3.363   4.395   0.860 -2.8326  1.8412  2.0312
  452TMC3    H2 6738   3.292   4.000   0.732  1.5099  0.7666 -0.4104
  452TMC3    C7 6739   3.489   4.172   0.796 -0.2111 -0.3721  0.0439
  452TMC3    C8 6740   3.028   3.994   0.771  0.2221 -0.3766 -0.6009
  452TMC3    O1 6741   3.561   4.272   0.805  0.3087  0.0495  0.2774
  452TMC3    O2 6742   2.911   4.008   0.807  0.0552  0.0029  0.2973
  453TMC3    C1 6743   0.060   1.676  11.622 -0.5330 -0.2536  0.2413
  453TMC3    C2 6744   4.673   1.613  11.677  0.0385  0.1012  0.3878
  453TMC3    C3 6745   4.563   1.607  11.594 -0.4224  0.3075 -0.9153
  453TMC3    C4 6746   0.065   1.726  11.497  0.0878 -0.2598 -0.4676
  453TMC3    C5 6747   4.674   1.719  11.418  0.4728  0.5792 -0.2297
  453TMC3    C6 6748   4.562   1.665  11.472  0.1168 -0.3284 -0.2074
  453TMC3     C 6749   0.177   1.690  11.701  0.2860  0.4975 -0.9664
  453TMC3     O 6750   0.264   1.762  11.655  0.7780 -0.7388 -0.3516
  453TMC3     H 6751   4.675   1.598  11.785  0.0102  0.7409  0.4742
  453TMC3    H1 6752   0.149   1.785  11.462  1.1571 -1.4201  0.1548
  453TMC3    H2 6753   4.472   1.658  11.412  0.0270  1.3323 -0.2733
  453TMC3    C7 6754   4.669   1.784  11.286  0.6443  0.0867  0.0822
  453TMC3    C8 6755   4.448   1.527  11.632 -0.5065 -0.5492  0.2329
  453TMC3    O1 6756   4.557   1.807  11.243 -0.7342  0.3497 -0.1656
  453TMC3    O2 6757   4.350   1.545  11.560  0.2577  0.5447  0.4974
  454MPD2     C 6758   3.654   1.078  16.645 -0.4689  0.3550  1.0054
  454MPD2    C1 6759   3.578   1.122  16.537  0.2240  0.1834 -0.2671
  454MPD2    C2 6760   3.470   1.215  16.556  0.1361  0.3157 -0.8022
  454MPD2    C3 6761   3.427   1.221  16.694 -1.0790  0.0313  0.4169
  454MPD2    C4 6762   3.507   1.173  16.802 -0.3393 -0.5528  1.1065
  454MPD2    C5 6763   3.618   1.095  16.773 -0.1146  0.0014  0.7336
  454MPD2     H 6764   3.407   1.254  16.477  2.0910 -0.0044 -2.5010
  454MPD2    H1 6765   3.462   1.164  16.900  0.2750  1.3305  1.5514
  454MPD2    H2 6766   3.734   1.006  16.637 -1.7739 -0.8260 -1.2602
  454MPD2    H3 6767   3.677   1.051  16.853 -2.2340 -0.1667  2.1877
  454MPD2     N 6768   3.302   1.273  16.729  0.5535 -0.6718 -0.3317
  454MPD2    H5 6769   3.276   1.296  16.824 -1.5086  0.1939 -1.1086
  454MPD2    N1 6770   3.603   1.082  16.409  0.1343  0.3382 -0.1564
  454MPD2    H7 6771   3.546   1.115  16.331  0.9456 -0.9632 -1.3111
  455TMC3    C1 6772   3.061   1.252  16.724 -0.3730 -0.3454 -0.1884
  455TMC3    C2 6773   3.061   1.335  16.832  0.3770  0.5597  0.1906
  455TMC3    C3 6774   2.952   1.313  16.912  0.3171  0.4409  0.7198
  455TMC3    C4 6775   2.970   1.150  16.702 -0.0999  0.3186  0.0770
  455TMC3    C5 6776   2.874   1.130  16.800 -0.4778  0.7618  0.2704
  455TMC3    C6 6777   2.865   1.210  16.906  0.8553  0.0205 -0.0277
  455TMC3     C 6778   3.189   1.246  16.654  0.3917  0.2545 -0.1517
  455TMC3     O 6779   3.186   1.199  16.543  0.4780  0.4671  0.6205
  455TMC3     H 6780   3.133   1.415  16.849  0.8066 -0.0834  1.3771
  455TMC3    H1 6781   2.994   1.086  16.618 -0.0190  0.6048 -0.1163
  455TMC3    H2 6782   2.798   1.194  16.990 -1.4974  1.1222 -1.6716
  455TMC3    C7 6783   2.833   0.989  16.801  0.0008  0.5302  0.2205
  455TMC3    C8 6784   2.936   1.413  17.011  0.5927  0.3168 -0.7762
  455TMC3    O1 6785   2.800   0.944  16.912 -0.3849  0.0608  0.4407
  455TMC3    O2 6786   3.036   1.475  17.050 -0.0723 -0.1777 -0.0732
  456MPD2     C 6787   1.571   0.740  15.878 -0.2397  0.8891 -0.9717
  456MPD2    C1 6788   1.584   0.775  16.009  0.1712  0.3396  0.1512
  456MPD2    C2 6789   1.486   0.847  16.078 -0.7526  0.3877  0.4066
  456MPD2    C3 6790   1.370   0.869  16.009  0.0028 -0.5130 -0.2870
  456MPD2    C4 6791   1.352   0.842  15.875 -0.1178 -0.2753  0.3870
  456MPD2    C5 6792   1.456   0.767  15.814  0.4188  0.7602  0.3143
  456MPD2     H 6793   1.479   0.883  16.180 -1.3705  0.6482  0.2752
  456MPD2    H1 6794   1.265   0.854  15.812  0.0132 -0.6382  0.1342
  456MPD2    H2 6795   1.654   0.697  15.823 -0.3904 -0.7026  0.0495
  456MPD2    H3 6796   1.458   0.736  15.711 -1.5765  0.8491  0.2519
  456MPD2     N 6797   1.272   0.942  16.085 -0.4591 -0.4090 -0.1235
  456MPD2    H5 6798   1.322   0.984  16.163  1.0544  1.0819 -1.8880
  456MPD2    N1 6799   1.708   0.749  16.063  0.7290 -0.4811  0.6020
  456MPD2    H7 6800   1.770   0.693  16.005  0.8446 -1.0269  1.2567
  457TMC3    C1 6801   1.056   1.020  16.143 -0.7292 -0.2747  0.3198
  457TMC3    C2 6802   0.928   1.055  16.100 -0.2939 -0.1051  0.2452
  457TMC3    C3 6803   0.847   1.114  16.193  0.6429  0.6266  0.1979
  457TMC3    C4 6804   1.092   1.040  16.277 -0.0757 -0.0265  0.0680
  457TMC3    C5 6805   0.999   1.098  16.361  0.4924 -0.5756  0.1386
  457TMC3    C6 6806   0.877   1.137  16.324 -0.2495  1.0093 -0.4001
  457TMC3     C 6807   1.139   0.945  16.051 -0.1928 -0.2876  0.4476
  457TMC3     O 6808   1.082   0.882  15.964  0.0650 -0.5348 -0.0337
  457TMC3     H 6809   0.899   1.028  16.000 -0.9744 -0.4758  0.5465
  457TMC3    H1 6810   1.194   1.029  16.311 -1.0903 -1.5360  2.6394
  457TMC3    H2 6811   0.819   1.198  16.393  1.2301  0.8119  1.0103
  457TMC3    C7 6812   1.063   1.167  16.467  0.6875  0.3955  0.8131
  457TMC3    C8 6813   0.767   1.230  16.142 -0.6393 -0.4881 -0.2060
  457TMC3    O1 6814   1.117   1.107  16.558 -0.1806  0.4058  0.2207
  457TMC3    O2 6815   0.764   1.329  16.218 -0.1336  0.0223 -0.4786
  458MPD2     C 6816   3.949   0.555  12.015 -1.0605  0.1902  0.4394
  458MPD2    C1 6817   3.860   0.537  12.116  0.2729  0.0813  0.2963
  458MPD2    C2 6818   3.742   0.458  12.083  0.8775 -0.6208 -0.1080
  458MPD2    C3 6819   3.721   0.406  11.953  0.5981 -0.0733 -0.2704
  458MPD2    C4 6820   3.817   0.435  11.857 -0.4310  0.1448 -0.3621
  458MPD2    C5 6821   3.929   0.505  11.894 -0.0772 -0.3726 -0.4191
  458MPD2     H 6822   3.658   0.450  12.152 -0.3968 -2.8637 -1.9471
  458MPD2    H1 6823   3.808   0.397  11.756  1.4626 -1.5079  0.0857
  458MPD2    H2 6824   4.038   0.617  12.024 -0.6681 -0.1342 -1.1140
  458MPD2    H3 6825   4.003   0.532  11.820  0.9533 -0.0865  0.7155
  458MPD2     N 6826   3.596   0.343  11.924  0.3739 -0.2071 -0.1823
  458MPD2    H5 6827   3.524   0.334  11.995  0.7559 -0.0815  0.2262
  458MPD2    N1 6828   3.882   0.601  12.245 -0.3761  0.0735 -0.4621
  458MPD2    H7 6829   3.959   0.665  12.260 -0.8759 -0.0485  2.5315
  459TMC3    C1 6830   3.848   0.667  12.463 -0.3662 -0.0597  0.4820
  459TMC3    C2 6831   3.917   0.776  12.427 -0.2166 -0.2716  0.5366
  459TMC3    C3 6832   3.980   0.844  12.528  0.4800  0.3077  0.2063
  459TMC3    C4 6833   3.819   0.624  12.593  0.1898 -0.0670  0.0549
  459TMC3    C5 6834   3.891   0.692  12.691  0.6193 -0.3034  0.6421
  459TMC3    C6 6835   3.971   0.805  12.661  0.8567 -0.1215  0.0221
  459TMC3     C 6836   3.798   0.585  12.355  0.2402  0.4615 -0.2403
  459TMC3     O 6837   3.701   0.505  12.365 -0.0565  0.7342 -0.0251
  459TMC3     H 6838   3.917   0.816  12.326  2.0493  1.3867  1.2029
  459TMC3    H1 6839   3.768   0.532  12.616  0.8127 -0.9696 -2.1732
  459TMC3    H2 6840   4.033   0.853  12.736  0.4366  0.7227 -0.1721
  459TMC3    C7 6841   3.888   0.629  12.824  0.2808  0.2283  0.3595
  459TMC3    C8 6842   4.104   0.904  12.489  0.4864 -0.1426  0.0790
  459TMC3    O1 6843   3.811   0.533  12.835  0.1038 -0.3974  0.4430
  459TMC3    O2 6844   4.195   0.882  12.567 -0.1233  0.6087  0.4940
  460MPD2     C 6845   3.290   2.742  10.352 -0.3083 -0.4780 -0.6193
  460MPD2    C1 6846   3.234   2.852  10.414 -0.2366 -0.8107  0.9598
  460MPD2    C2 6847   3.170   2.944  10.334 -0.2524 -0.5821  0.2229
  460MPD2    C3 6848   3.158   2.933  10.195 -0.3465 -0.2056 -0.5479
  460MPD2    C4 6849   3.209   2.816  10.133 -0.8758 -0.8295  0.2286
  460MPD2    C5 6850   3.271   2.725  10.214  0.5202 -0.4855 -0.3744
  460MPD2     H 6851   3.140   3.033  10.389  1.1587 -0.3037  0.5631
  460MPD2    H1 6852   3.197   2.791  10.028 -1.9150 -1.6182  0.5314
  460MPD2    H2 6853   3.328   2.664  10.416 -2.7930 -0.9787  0.2395
  460MPD2    H3 6854   3.315   2.638  10.166  1.0873  1.1746 -2.8588
  460MPD2     N 6855   3.096   3.038  10.126 -0.0858 -0.4788 -0.4471
  460MPD2    H5 6856   3.051   3.115  10.175 -0.2045 -1.9164  1.6678
  460MPD2    N1 6857   3.262   2.864  10.551  0.0945  0.4133  0.2992
  460MPD2    H7 6858   3.314   2.789  10.596 -0.8532  0.0386  0.7485
  461TMC3    C1 6859   2.958   3.127   9.945 -0.7446 -0.4081  0.2298
  461TMC3    C2 6860   2.900   3.074   9.834  1.3851  0.0289 -0.2806
  461TMC3    C3 6861   2.823   3.155   9.762 -0.2671  0.0086  0.6087
  461TMC3    C4 6862   2.953   3.261   9.981  0.6369 -0.4720 -0.0384
  461TMC3    C5 6863   2.887   3.341   9.891  0.3721 -0.1013 -0.8127
  461TMC3    C6 6864   2.818   3.289   9.785 -0.1646 -0.3691 -0.0797
  461TMC3     C 6865   3.067   3.039   9.992 -0.1586  0.0423  0.0844
  461TMC3     O 6866   3.121   2.971   9.906  0.1461 -0.1362  0.3575
  461TMC3     H 6867   2.907   2.966   9.824  3.0757 -0.1196  2.5184
  461TMC3    H1 6868   2.991   3.305  10.073  0.6723 -2.2153  0.7804
  461TMC3    H2 6869   2.745   3.347   9.728  1.1016 -0.5138 -1.8480
  461TMC3    C7 6870   2.848   3.480   9.920  0.3441  0.0741  0.3235
  461TMC3    C8 6871   2.769   3.101   9.639  0.3017 -0.0251  0.0916
  461TMC3    O1 6872   2.735   3.518   9.882 -0.0512  0.0579  0.0384
  461TMC3    O2 6873   2.835   3.010   9.593  0.0447 -0.1166  0.5312
  462TMC3    C1 6874   2.863   3.856   0.322  0.3248  0.0606 -0.4722
  462TMC3    C2 6875   2.965   3.766   0.292  0.5099 -0.4152 -0.1162
  462TMC3    C3 6876   2.922   3.642   0.246  0.6629  0.1093 -0.4603
  462TMC3    C4 6877   2.733   3.830   0.342  0.0204  0.5015  0.5524
  462TMC3    C5 6878   2.695   3.697   0.322  0.1912  0.2018  0.6005
  462TMC3    C6 6879   2.793   3.602   0.284  0.6242  0.1183 -0.1028
  462TMC3     C 6880   2.913   3.989   0.358 -0.1373  0.2858  0.2432
  462TMC3     O 6881   3.021   4.018   0.316 -0.1375 -0.0620 -0.0760
  462TMC3     H 6882   3.063   3.809   0.276 -0.4793  1.4823 -1.0876
  462TMC3    H1 6883   2.658   3.908   0.346  0.0650  0.4865  1.6804
  462TMC3    H2 6884   2.750   3.511   0.244 -1.0165  0.5199  0.7461
  462TMC3    C7 6885   2.558   3.658   0.347  0.3958 -0.2225 -0.4707
  462TMC3    C8 6886   3.017   3.528   0.249  0.0611  0.7735  0.5170
  462TMC3    O1 6887   2.523   3.572   0.268 -0.1334  0.1689  0.2241
  462TMC3    O2 6888   2.988   3.416   0.290  0.2385  0.4037 -0.2361
  463MPD2     C 6889   4.033   2.645   1.987 -0.3922 -0.4290 -0.3058
  463MPD2    C1 6890   3.967   2.755   1.931  0.5166  0.3457 -0.0433
  463MPD2    C2 6891   4.051   2.846   1.852  0.7495  0.0856  0.0831
  463MPD2    C3 6892   4.181   2.821   1.825  0.1147 -0.2772  0.1921
  463MPD2    C4 6893   4.230   2.708   1.864  0.7202  0.3766 -0.6554
  463MPD2    C5 6894   4.163   2.618   1.946 -0.0124 -0.4441 -0.0409
  463MPD2     H 6895   4.007   2.938   1.817  1.0508  0.8031  1.5921
  463MPD2    H1 6896   4.332   2.691   1.829  0.9918  3.0757 -1.1659
  463MPD2    H2 6897   3.989   2.565   2.045  0.5406  0.3657  1.4906
  463MPD2    H3 6898   4.214   2.527   1.975  0.8856 -0.9825 -3.2313
  463MPD2     N 6899   4.260   2.914   1.748 -0.1880 -0.2035  0.4729
  463MPD2    H5 6900   4.352   2.879   1.721 -0.0785  0.8102 -0.4486
  463MPD2    N1 6901   3.828   2.782   1.938  0.1645 -0.4074  0.1325
  463MPD2    H7 6902   3.795   2.865   1.889  0.1477 -0.2340  0.4373
  464TMC3    C1 6903   3.599   2.763   1.958 -0.7518  0.2185  0.9655
  464TMC3    C2 6904   3.591   2.852   1.856  0.1437  0.4430  0.5131
  464TMC3    C3 6905   3.467   2.867   1.803  0.3784  0.1821 -0.1956
  464TMC3    C4 6906   3.492   2.701   2.017 -0.0967  0.6868 -0.3682
  464TMC3    C5 6907   3.375   2.703   1.951 -0.0098 -0.0404 -0.1083
  464TMC3    C6 6908   3.355   2.785   1.846 -0.0468  0.3699 -0.0764
  464TMC3     C 6909   3.729   2.711   1.996  0.1075 -0.4015  0.1908
  464TMC3     O 6910   3.743   2.618   2.075  0.2952  0.2858  0.2228
  464TMC3     H 6911   3.668   2.910   1.806  0.9567 -1.0171  0.0364
  464TMC3    H1 6912   3.510   2.629   2.096  2.6211  0.2144 -1.4380
  464TMC3    H2 6913   3.265   2.800   1.787 -0.8386 -1.0650  0.7543
  464TMC3    C7 6914   3.293   2.587   1.971  0.7998  0.1238 -1.0586
  464TMC3    C8 6915   3.451   2.966   1.698 -0.6637 -0.3253 -0.3928
  464TMC3    O1 6916   3.302   2.526   2.077 -0.3183  0.2254 -0.2542
  464TMC3    O2 6917   3.554   3.008   1.646 -0.3763  0.0058  0.0590
  465MPD2     C 6918   0.282   1.613  16.086 -1.0216  0.2396 -0.3482
  465MPD2    C1 6919   0.257   1.508  16.170  0.1167  0.9371 -0.1161
  465MPD2    C2 6920   0.124   1.464  16.175 -0.3451 -1.2943 -0.0203
  465MPD2    C3 6921   0.026   1.512  16.089 -0.0755 -0.1528 -0.1687
  465MPD2    C4 6922   0.057   1.621  16.008  1.0102 -0.4060  0.0602
  465MPD2    C5 6923   0.187   1.670  16.006 -0.2822  0.0578 -0.5249
  465MPD2     H 6924   0.096   1.379  16.237 -0.6529 -0.4524  0.9843
  465MPD2    H1 6925   4.705   1.669  15.948 -0.1185  0.9384  2.5388
  465MPD2    H2 6926   0.384   1.647  16.090 -1.3957  1.4090 -0.6338
  465MPD2    H3 6927   0.207   1.759  15.947  0.9629 -0.7951 -1.3768
  465MPD2     N 6928   4.615   1.466  16.111 -0.4176  0.0755  0.2531
  465MPD2    H5 6929   4.599   1.407  16.192 -2.4812 -0.5416 -0.6198
  465MPD2    N1 6930   0.346   1.437  16.258  0.1311 -0.1153  1.0566
  465MPD2    H7 6931   0.311   1.358  16.312  2.6750 -2.1570 -0.3037
  466TMC3    C1 6932   4.253   1.375  16.260  0.5757 -1.3009  0.0148
  466TMC3    C2 6933   4.160   1.470  16.251 -0.6193 -0.6140  0.6507
  466TMC3    C3 6934   4.180   1.561  16.155 -0.6540 -0.1511  0.0890
  466TMC3    C4 6935   4.370   1.381  16.189  0.1749 -0.3365  0.0857
  466TMC3    C5 6936   4.378   1.469  16.088 -0.5165  0.6443  0.0355
  466TMC3    C6 6937   4.281   1.561  16.068 -0.2501 -0.1059  0.2636
  466TMC3     C 6938   4.256   1.309  16.386 -0.5311  0.1394  0.8698
  466TMC3     O 6939   4.224   1.379  16.485 -1.3612 -0.0003  0.6333
  466TMC3     H 6940   4.079   1.466  16.323  2.8270 -2.3964  4.3544
  466TMC3    H1 6941   4.444   1.302  16.193 -0.5032 -0.8699  2.0121
  466TMC3    H2 6942   4.286   1.632  15.986 -0.2595  0.4201  0.7172
  466TMC3    C7 6943   4.506   1.504  16.035 -0.5403 -0.5594 -0.4256
  466TMC3    C8 6944   4.089   1.669  16.124 -0.5748 -0.2465 -0.2556
  466TMC3    O1 6945   4.507   1.563  15.925  0.3235 -0.5084 -0.0542
  466TMC3    O2 6946   4.082   1.716  16.013 -0.5523 -0.4285 -0.0262
  467TMC3    C1 6947   0.982   4.492  13.674 -0.1584  0.5506  0.6980
  467TMC3    C2 6948   0.926   4.421  13.572  0.1818  0.7313 -0.2070
  467TMC3    C3 6949   0.791   4.405  13.562 -0.2222  0.1896  0.0266
  467TMC3    C4 6950   0.901   4.552  13.774  0.1781  0.1536  0.0666
  467TMC3    C5 6951   0.767   4.530  13.760 -0.3806  0.5154 -0.2619
  467TMC3    C6 6952   0.706   4.450  13.659 -0.4305 -0.2755  0.7806
  467TMC3     C 6953   1.098   4.574  13.646 -0.6023 -0.3115  0.2152
  467TMC3     O 6954   1.103   4.685  13.694 -0.1735  0.9898 -0.7032
  467TMC3     H 6955   0.981   4.368  13.494  1.1931 -2.2578  2.5366
  467TMC3    H1 6956   0.940   4.616  13.852 -1.7125 -0.3595  1.4111
  467TMC3    H2 6957   0.601   4.425  13.644 -0.4627  0.3058  0.0627
  467TMC3    C7 6958   0.675   4.625  13.827  0.5786 -0.5609 -0.3716
  467TMC3    C8 6959   0.745   4.432  13.431 -0.3202 -0.3273 -0.2606
  467TMC3    O1 6960   0.722   0.011  13.848  0.7958 -0.7516 -0.2287
  467TMC3    O2 6961   0.638   4.391  13.394  0.0287  0.0652 -0.1120
  468MPD2     C 6962   0.123   2.878  10.549  0.1073 -0.1974 -0.3814
  468MPD2    C1 6963   0.251   2.817  10.549  0.5232 -0.3002  0.1504
  468MPD2    C2 6964   0.268   2.694  10.608 -0.0565 -0.4377 -0.0270
  468MPD2    C3 6965   0.168   2.643  10.692 -0.5339  0.5586 -0.3742
  468MPD2    C4 6966   0.048   2.712  10.709  0.4997 -0.4067  0.1344
  468MPD2    C5 6967   0.023   2.816  10.625  0.5312  0.1328  0.2081
  468MPD2     H 6968   0.366   2.650  10.620  0.0272 -0.0664  0.6484
  468MPD2    H1 6969   4.689   2.682  10.772 -1.9006 -1.5656 -3.5449
  468MPD2    H2 6970   0.105   2.965  10.487  0.5474  0.6771  0.6997
  468MPD2    H3 6971   4.647   2.858  10.632 -0.1928 -1.6073  0.2405
  468MPD2     N 6972   0.184   2.530  10.778 -0.4161 -0.8527  0.0091
  468MPD2    H5 6973   0.108   2.507  10.841  0.8868  1.2250  2.3128
  468MPD2    N1 6974   0.363   2.873  10.492 -0.9101 -0.3395 -0.3357
  468MPD2    H7 6975   0.443   2.810  10.482  1.4165  2.8255 -1.6724
  469TMC3    C1 6976   0.528   3.026  10.451 -0.0783  0.3040 -0.4970
  469TMC3    C2 6977   0.601   2.962  10.550  0.1088 -0.2476 -0.3532
  469TMC3    C3 6978   0.731   3.006  10.558  0.1485 -0.1885  0.3564
  469TMC3    C4 6979   0.574   3.099  10.354 -0.9152 -0.0435 -0.2348
  469TMC3    C5 6980   0.709   3.122  10.362 -0.5174 -0.3490  0.2067
  469TMC3    C6 6981   0.790   3.080  10.459 -0.6710  0.0783 -0.3634
  469TMC3     C 6982   0.381   3.000  10.456 -0.3446  0.4367 -0.0290
  469TMC3     O 6983   0.297   3.088  10.449  0.0640 -0.5805 -0.7842
  469TMC3     H 6984   0.552   2.908  10.630  0.6931  0.6165  0.5848
  469TMC3    H1 6985   0.510   3.134  10.275  0.5701  2.5875 -0.2748
  469TMC3    H2 6986   0.895   3.103  10.475 -0.2814 -0.5105 -2.0285
  469TMC3    C7 6987   0.771   3.221  10.266  0.3451 -0.1222 -0.7161
  469TMC3    C8 6988   0.814   2.989  10.678  0.6576  0.1525  0.8786
  469TMC3    O1 6989   0.896   3.231  10.282  0.5243 -0.6871  0.1178
  469TMC3    O2 6990   0.934   2.972  10.656  0.2020 -0.3771 -0.1324
  470TMC3    C1 6991   1.807   3.617   0.945  0.2163  0.1269 -0.8233
  470TMC3    C2 6992   1.847   3.678   1.063 -0.1957 -0.3277  0.5105
  470TMC3    C3 6993   1.754   3.731   1.148 -0.4877  0.5076  0.0789
  470TMC3    C4 6994   1.671   3.605   0.919 -0.2898 -0.4317 -0.3999
  470TMC3    C5 6995   1.580   3.651   1.013  0.5142  0.3989  0.1609
  470TMC3    C6 6996   1.619   3.717   1.124  0.4783 -0.9564 -0.5412
  470TMC3     C 6997   1.907   3.587   0.844  0.0635 -0.1606 -0.7882
  470TMC3     O 6998   2.018   3.647   0.851 -0.3562 -0.2188 -0.8833
  470TMC3     H 6999   1.952   3.703   1.070 -0.7282  1.7369  1.1375
  470TMC3    H1 7000   1.636   3.570   0.823 -1.4985 -2.1326  0.6626
  470TMC3    H2 7001   1.546   3.761   1.191  1.5007 -0.2927  0.1476
  470TMC3    C7 7002   1.442   3.649   0.975 -0.4506  0.3275 -0.6921
  470TMC3    C8 7003   1.795   3.824   1.256  0.2972  0.0271  0.1182
  470TMC3    O1 7004   1.423   3.621   0.857  0.2444  0.6887  0.4822
  470TMC3    O2 7005   1.700   3.873   1.321  1.1761  0.1252  0.0064
  471MPD2     C 7006   2.519   0.572  16.670  0.1715  0.0256  0.6439
  471MPD2    C1 7007   2.527   0.436  16.683 -0.3308 -0.1630  0.0995
  471MPD2    C2 7008   2.530   0.385  16.814  0.1816  0.3872 -0.6149
  471MPD2    C3 7009   2.525   0.473  16.923 -0.2788  0.1543  0.3882
  471MPD2    C4 7010   2.492   0.599  16.904  0.3132  0.7124 -0.1822
  471MPD2    C5 7011   2.505   0.655  16.776  0.1601  0.1757  0.0909
  471MPD2     H 7012   2.544   0.278  16.819  0.4894  0.5162  1.1131
  471MPD2    H1 7013   2.492   0.658  16.995  0.1844 -0.4481  0.5733
  471MPD2    H2 7014   2.522   0.620  16.573 -0.1039  3.4717  2.3429
  471MPD2    H3 7015   2.524   0.761  16.764  1.4565 -0.0294  0.3441
  471MPD2     N 7016   2.547   0.433  17.055 -0.3486 -0.3616  0.2868
  471MPD2    H5 7017   2.557   0.500  17.131  1.8979 -0.0422 -0.2671
  471MPD2    N1 7018   2.547   0.347  16.572  0.4176 -0.8449 -0.0753
  471MPD2    H7 7019   2.567   0.250  16.595 -1.3446 -1.4232 -0.9503
  472TMC3    C1 7020   2.534   0.273  16.348 -0.1440 -0.4128  0.2336
  472TMC3    C2 7021   2.508   0.286  16.211 -0.0159 -0.3087  0.2041
  472TMC3    C3 7022   2.548   0.180  16.122  0.0453 -0.3360  0.4044
  472TMC3    C4 7023   2.598   0.158  16.396  0.1841  0.8673  0.5680
  472TMC3    C5 7024   2.620   0.058  16.307 -1.1937  0.2860 -0.1657
  472TMC3    C6 7025   2.600   0.066  16.170  0.3355 -0.2547 -0.1580
  472TMC3     C 7026   2.523   0.381  16.439  0.2529  0.0581 -0.2813
  472TMC3     O 7027   2.495   0.489  16.388  0.0363 -0.2256  0.0003
  472TMC3     H 7028   2.454   0.371  16.173 -1.0898 -2.1255 -2.3187
  472TMC3    H1 7029   2.639   0.147  16.495  0.2237 -3.3294  0.1167
  472TMC3    H2 7030   2.625   4.707  16.105 -1.3151 -1.9748  1.3741
  472TMC3    C7 7031   2.579   4.656  16.369 -0.6908 -0.6212 -0.2476
  472TMC3    C8 7032   2.448   0.148  16.022  0.2633 -0.5112 -0.3419
  472TMC3    O1 7033   2.590   4.646  16.492 -0.3411 -0.0365 -1.2561
  472TMC3    O2 7034   2.483   0.079  15.932 -0.0096 -0.3091  0.6212
  473MPD2     C 7035   2.997   2.180  13.760  0.9191 -0.2724  0.4914
  473MPD2    C1 7036   2.865   2.216  13.778 -0.1817 -0.2220 -0.2079
  473MPD2    C2 7037   2.833   2.302  13.879  0.4460 -1.2715 -0.3981
  473MPD2    C3 7038   2.925   2.368  13.961 -0.3714 -0.1770  0.1468
  473MPD2    C4 7039   3.059   2.322  13.953 -0.6934 -0.1240  0.2571
  473MPD2    C5 7040   3.087   2.236  13.848  0.2675  0.8055 -0.3116
  473MPD2     H 7041   2.730   2.334  13.893 -0.5121 -3.1775 -3.1326
  473MPD2    H1 7042   3.142   2.363  14.010 -0.0579 -1.8640  0.5901
  473MPD2    H2 7043   3.037   2.128  13.674  1.1846  0.0253  0.4328
  473MPD2    H3 7044   3.191   2.204  13.842  1.0367  3.2346 -0.0334
  473MPD2     N 7045   2.897   2.468  14.059 -0.4078  0.0345 -0.0836
  473MPD2    H5 7046   2.972   2.516  14.108 -0.8285 -0.0740  0.6725
  473MPD2    N1 7047   2.762   2.173  13.690 -0.0709 -0.0232 -0.0688
  473MPD2    H7 7048   2.674   2.224  13.685  0.0830  0.4121  1.6293
  474TMC3    C1 7049   2.760   2.575  14.219  0.1899 -0.1428 -0.0590
  474TMC3    C2 7050   2.635   2.624  14.252  0.5482 -0.0332 -0.3132
  474TMC3    C3 7051   2.614   2.680  14.372 -0.1486 -0.5830  0.0713
  474TMC3    C4 7052   2.867   2.616  14.298  0.2500  0.7153  0.0722
  474TMC3    C5 7053   2.838   2.679  14.420  0.0329  0.1142 -0.2791
  474TMC3    C6 7054   2.713   2.720  14.455  0.0095  0.5246  0.0440
  474TMC3     C 7055   2.770   2.490  14.107  0.3126 -0.3040 -0.8308
  474TMC3     O 7056   2.664   2.451  14.055  0.0717 -0.3648 -0.1601
  474TMC3     H 7057   2.551   2.590  14.193  1.2899 -1.0541 -0.7987
  474TMC3    H1 7058   2.971   2.601  14.271 -0.1797 -0.3574 -0.9912
  474TMC3    H2 7059   2.679   2.778  14.541 -0.0846 -2.1881  1.8555
  474TMC3    C7 7060   2.944   2.707  14.516 -0.8221  0.4380  0.5330
  474TMC3    C8 7061   2.493   2.752  14.377  0.0151  0.0329  0.5713
  474TMC3    O1 7062   3.057   2.693  14.467 -0.2427 -0.1132  0.2912
  474TMC3    O2 7063   2.434   2.745  14.485  0.2024 -0.0202 -0.6285
  475MPD2     C 7064   1.362   0.405  10.497 -0.2178  0.0827  0.1256
  475MPD2    C1 7065   1.327   0.508  10.584 -0.2918 -0.1008  0.0151
  475MPD2    C2 7066   1.193   0.531  10.604  0.7844 -0.2558 -0.0944
  475MPD2    C3 7067   1.098   0.438  10.570 -0.5680  0.3701  0.1296
  475MPD2    C4 7068   1.139   0.328  10.504 -0.5195 -0.3830 -0.3191
  475MPD2    C5 7069   1.269   0.313  10.467 -0.2011 -0.5195 -0.4831
  475MPD2     H 7070   1.157   0.623  10.647 -0.7865 -0.8075 -0.2380
  475MPD2    H1 7071   1.066   0.253  10.476 -0.3185 -0.2925 -1.0947
  475MPD2    H2 7072   1.458   0.392  10.448  0.5850 -1.2373  2.0475
  475MPD2    H3 7073   1.294   0.226  10.407 -0.3359 -0.1711 -1.0440
  475MPD2     N 7074   0.954   0.471  10.589 -0.3126 -0.3075 -0.1862
  475MPD2    H5 7075   0.928   0.564  10.620  0.4641 -0.0129 -0.4258
  475MPD2    N1 7076   1.420   0.599  10.628  0.7200  0.1490 -0.5264
  475MPD2    H7 7077   1.510   0.596  10.582  0.4693 -2.1540 -0.8556
  476TMC3    C1 7078   1.486   0.803  10.719  0.7689  0.2084  0.7364
  476TMC3    C2 7079   1.461   0.864  10.598  0.4875 -0.1595  0.3188
  476TMC3    C3 7080   1.399   0.988  10.600  1.2142  0.3729 -0.5312
  476TMC3    C4 7081   1.476   0.870  10.838 -0.4159 -0.2389 -0.2731
  476TMC3    C5 7082   1.444   1.009  10.828 -0.6948 -0.0573  0.3662
  476TMC3    C6 7083   1.408   1.063  10.709  0.1602  0.1509  0.6161
  476TMC3     C 7084   1.396   0.691  10.730 -0.0859  0.1248  0.5895
  476TMC3     O 7085   1.304   0.701  10.810 -0.2352  0.0749  0.1471
  476TMC3     H 7086   1.467   0.809  10.505 -2.8171  0.0043  0.0172
  476TMC3    H1 7087   1.525   0.832  10.927  1.4453  0.2839 -1.0826
  476TMC3    H2 7088   1.355   1.157  10.710 -0.4383 -0.1733 -2.1859
  476TMC3    C7 7089   1.441   1.090  10.936 -0.1541  0.4147 -0.8749
  476TMC3    C8 7090   1.284   1.008  10.517 -0.0584 -0.2817 -0.1174
  476TMC3    O1 7091   1.436   1.210  10.908  0.3149  0.5721 -0.1278
  476TMC3    O2 7092   1.192   1.082  10.558 -0.2810 -0.5580 -0.4124
  477MPD2     C 7093   3.471   2.322  11.560 -0.4886  0.1102 -0.2315
  477MPD2    C1 7094   3.391   2.211  11.531  0.1033  0.2473  0.0346
  477MPD2    C2 7095   3.354   2.121  11.634 -0.5033  0.2478  0.0279
  477MPD2    C3 7096   3.412   2.145  11.764  0.4123 -0.8185  0.0690
  477MPD2    C4 7097   3.491   2.249  11.792  0.3108  0.9070 -0.6459
  477MPD2    C5 7098   3.513   2.341  11.691 -0.0236  0.5373 -0.1864
  477MPD2     H 7099   3.296   2.032  11.617 -1.0003  0.2556  1.7171
  477MPD2    H1 7100   3.534   2.272  11.889  0.1311 -1.2667 -0.0534
  477MPD2    H2 7101   3.505   2.400  11.493 -0.2789  0.0190 -0.2334
  477MPD2    H3 7102   3.583   2.422  11.707  0.1189  0.5877 -1.0654
  477MPD2     N 7103   3.380   2.048  11.864  0.1476  0.3840  0.0207
  477MPD2    H5 7104   3.340   1.960  11.834 -0.0253  0.8575 -1.1295
  477MPD2    N1 7105   3.341   2.211  11.400 -0.0228  0.3080  0.3438
  477MPD2    H7 7106   3.374   2.290  11.346  1.2919 -0.4056  0.1161
  478TMC3    C1 7107   3.180   2.190  11.247 -0.1891  0.1117 -0.1157
  478TMC3    C2 7108   3.129   2.300  11.306 -0.3980  0.0856  0.3001
  478TMC3    C3 7109   3.120   2.413  11.227 -0.0104 -0.7315  0.4224
  478TMC3    C4 7110   3.218   2.179  11.118  0.3178 -0.5341  0.1342
  478TMC3    C5 7111   3.188   2.292  11.041  0.7541 -0.5263  0.3863
  478TMC3    C6 7112   3.137   2.409  11.093  0.6660  0.0739 -0.1310
  478TMC3     C 7113   3.265   2.120  11.344  0.1759 -0.6422 -0.4851
  478TMC3     O 7114   3.220   2.018  11.398 -0.4716 -0.3648 -0.2004
  478TMC3     H 7115   3.107   2.292  11.411  1.3041 -2.4420  0.4613
  478TMC3    H1 7116   3.272   2.093  11.081  1.4291 -0.3951  1.4452
  478TMC3    H2 7117   3.155   2.502  11.040  3.1268  2.1296  4.3816
  478TMC3    C7 7118   3.172   2.277  10.895  1.0994 -0.4138  0.1943
  478TMC3    C8 7119   3.154   2.543  11.288  0.3981 -0.6839 -0.5773
  478TMC3    O1 7120   3.231   2.176  10.849  0.4507 -0.3117 -0.7919
  478TMC3    O2 7121   3.169   2.640  11.217 -0.1066  0.0052 -0.6161
  479MPD2     C 7122   2.090   4.184  15.280 -0.5646 -0.3859  0.1219
  479MPD2    C1 7123   2.111   4.096  15.380 -0.4884  0.2562  0.0502
  479MPD2    C2 7124   2.207   4.129  15.473  0.3417  0.6333  0.6611
  479MPD2    C3 7125   2.290   4.239  15.466  0.3780 -0.4540 -0.1381
  479MPD2    C4 7126   2.264   4.323  15.360 -0.4579  1.0594  0.0188
  479MPD2    C5 7127   2.165   4.300  15.268 -0.3510 -1.1729 -0.2256
  479MPD2     H 7128   2.226   4.048  15.543 -0.9767  0.2294  0.5464
  479MPD2    H1 7129   2.312   4.420  15.351  1.0707  0.1332 -1.6838
  479MPD2    H2 7130   2.007   4.156  15.216 -1.4706  0.0787  1.0961
  479MPD2    H3 7131   2.138   4.372  15.191 -0.6105 -1.5615 -0.4979
  479MPD2     N 7132   2.397   4.271  15.557 -0.1909 -0.2342  0.4792
  479MPD2    H5 7133   2.460   4.346  15.530 -0.9119 -0.1321 -0.9068
  479MPD2    N1 7134   2.020   3.996  15.391  0.3349 -0.9111 -0.6094
  479MPD2    H7 7135   1.974   3.978  15.302  0.2131  1.9446 -1.1217
  480TMC3    C1 7136   2.286   3.997  15.934  0.2971  0.1830 -0.1964
  480TMC3    C2 7137   2.168   4.057  15.944 -0.0481  0.2627  0.4417
  480TMC3    C3 7138   2.142   4.164  15.866 -0.6379  0.1551 -0.4607
  480TMC3    C4 7139   2.377   4.033  15.840  0.3462 -0.3679 -0.4673
  480TMC3    C5 7140   2.341   4.139  15.755  0.0495  0.3957  0.2936
  480TMC3    C6 7141   2.230   4.215  15.776  0.1752  0.0659 -0.0497
  480TMC3     C 7142   2.288   3.859  15.975 -0.0707 -0.1438 -0.0214
  480TMC3     O 7143   2.183   3.799  15.980  0.6967 -0.0547  0.2970
  480TMC3     H 7144   2.096   4.011  16.012  0.0351 -0.8339 -0.2213
  480TMC3    H1 7145   2.480   4.003  15.855  0.4491  1.2050  1.9403
  480TMC3    H2 7146   2.198   4.295  15.711 -0.6328 -0.1264  0.1115
  480TMC3    C7 7147   2.441   4.196  15.664 -1.0127 -0.1637  0.1448
  480TMC3    C8 7148   2.006   4.210  15.865  0.7243 -0.2032 -0.2353
  480TMC3    O1 7149   2.552   4.195  15.713 -0.4329  0.3081  0.6271
  480TMC3    O2 7150   1.951   4.235  15.973  0.1675 -0.2290 -0.5130
  481MPD2     C 7151   3.706   3.872  14.565  0.6726  0.4272 -0.0120
  481MPD2    C1 7152   3.573   3.848  14.595 -0.0399  0.4031  0.6546
  481MPD2    C2 7153   3.543   3.805  14.724 -0.7250 -0.4032 -0.0550
  481MPD2    C3 7154   3.638   3.791  14.827 -0.4268 -0.5116  0.5400
  481MPD2    C4 7155   3.772   3.807  14.787  0.8873 -0.2413  1.0114
  481MPD2    C5 7156   3.800   3.843  14.658 -0.5741 -0.1276  0.2038
  481MPD2     H 7157   3.436   3.797  14.744 -0.6839 -0.6252  0.0844
  481MPD2    H1 7158   3.851   3.784  14.857  3.0954  0.6599 -1.1443
  481MPD2    H2 7159   3.737   3.901  14.465  0.9812  2.3397  0.6293
  481MPD2    H3 7160   3.906   3.843  14.633 -0.8845 -0.7146 -1.0896
  481MPD2     N 7161   3.606   3.762  14.959  0.0298 -0.0010 -0.1884
  481MPD2    H5 7162   3.678   3.774  15.030 -0.5861  1.2012  0.2269
  481MPD2    N1 7163   3.474   3.863  14.495 -0.7356  0.1128 -0.3451
  481MPD2    H7 7164   3.502   3.920  14.416 -0.5009 -1.8464 -1.6822
  482TMC3    C1 7165   3.260   3.855  14.387  0.0253  0.1615  0.0861
  482TMC3    C2 7166   3.177   3.761  14.338  0.2696  0.1742 -0.3021
  482TMC3    C3 7167   3.119   3.790  14.217 -0.0343  0.6480  0.2350
  482TMC3    C4 7168   3.297   3.970  14.322  0.6834 -1.2124  0.7082
  482TMC3    C5 7169   3.230   3.993  14.206  0.1819 -0.8010 -0.7508
  482TMC3    C6 7170   3.144   3.906  14.147  0.5648 -0.0116 -0.3882
  482TMC3     C 7171   3.339   3.814  14.501  0.3867  0.1448  0.5570
  482TMC3     O 7172   3.289   3.727  14.568 -0.0892  0.1682  0.0878
  482TMC3     H 7173   3.156   3.672  14.396  1.4729  1.2098  1.7241
  482TMC3    H1 7174   3.341   4.059  14.367 -1.4433  0.4997 -0.5716
  482TMC3    H2 7175   3.077   3.940  14.068 -2.2642  0.8206  2.3767
  482TMC3    C7 7176   3.234   4.130  14.144  0.2033 -0.0932 -0.4594
  482TMC3    C8 7177   3.047   3.680  14.153 -0.0901 -0.2948 -0.0040
  482TMC3    O1 7178   3.225   4.231  14.219 -0.3828 -0.4604 -0.1056
  482TMC3    O2 7179   3.069   3.566  14.193  0.4631 -0.2964 -0.4696
  483TMC3    C1 7180   0.755   2.907   0.550 -0.5098  0.2159  0.3671
  483TMC3    C2 7181   0.825   2.999   0.483 -0.4116 -0.9498  0.1129
  483TMC3    C3 7182   0.906   3.083   0.560 -0.4043  0.0986 -0.0997
  483TMC3    C4 7183   0.769   2.885   0.686  0.8443 -0.4266  0.3926
  483TMC3    C5 7184   0.856   2.962   0.761  0.7564  0.3903 -0.0318
  483TMC3    C6 7185   0.930   3.063   0.694  0.1584  0.2961  0.7489
  483TMC3     C 7186   0.696   2.799   0.471  0.9299 -0.3762  0.5020
  483TMC3     O 7187   0.645   2.828   0.364 -0.6445 -0.0478 -0.0879
  483TMC3     H 7188   0.829   3.005   0.375  0.0998 -0.0147  0.1831
  483TMC3    H1 7189   0.701   2.809   0.723 -0.0611 -0.3804 -1.1647
  483TMC3    H2 7190   0.998   3.129   0.746 -0.3431  1.3800  0.0274
  483TMC3    C7 7191   0.880   2.939   0.901  0.1802 -0.3813 -0.5698
  483TMC3    C8 7192   1.002   3.156   0.490  0.0715  0.1629 -0.3593
  483TMC3    O1 7193   0.980   2.985   0.952  0.0225 -0.5561 -0.2807
  483TMC3    O2 7194   1.111   3.115   0.516  0.0220 -0.0648 -0.0525
  484MPD2     C 7195   4.189   1.122  12.197  0.0120 -0.5532 -0.4972
  484MPD2    C1 7196   4.215   1.045  12.314 -0.2027 -0.1602  0.3084
  484MPD2    C2 7197   4.349   1.021  12.353  0.3551  0.0382  0.1985
  484MPD2    C3 7198   4.447   1.072  12.272 -0.5972 -0.0394  0.1644
  484MPD2    C4 7199   4.420   1.149  12.159 -0.2412  0.3242 -0.3797
  484MPD2    C5 7200   4.286   1.177  12.128 -0.3803 -0.0006  0.1161
  484MPD2     H 7201   4.366   0.973  12.449 -1.6581 -2.6144 -0.7782
  484MPD2    H1 7202   4.498   1.189  12.095 -0.3728  1.3283  0.0784
  484MPD2    H2 7203   4.085   1.137  12.170 -0.4709 -1.3081  0.9424
  484MPD2    H3 7204   4.267   1.246  12.047  0.9512 -0.5922 -0.7032
  484MPD2     N 7205   4.584   1.046  12.290 -0.1011 -0.5157  0.1781
  484MPD2    H5 7206   4.638   1.095  12.219  0.0878 -0.0758  0.6186
  484MPD2    N1 7207   4.102   0.988  12.382  0.1299  0.0313  0.3584
  484MPD2    H7 7208   4.009   1.017  12.354 -0.1846 -1.8208 -0.5278
  485TMC3    C1 7209   0.059   0.990  12.383 -0.2088 -0.2959  0.0426
  485TMC3    C2 7210   0.135   0.981  12.495 -0.3965 -0.7488  0.0662
  485TMC3    C3 7211   0.256   1.028  12.492  0.1826  0.2969 -0.1290
  485TMC3    C4 7212   0.112   1.014  12.263 -0.1566 -0.0802  0.3903
  485TMC3    C5 7213   0.237   1.065  12.263  0.1396 -1.1205 -0.2361
  485TMC3    C6 7214   0.303   1.086  12.379 -1.1622  0.0693 -0.3848
  485TMC3     C 7215   4.640   0.977  12.393 -0.6148 -0.5519 -0.0828
  485TMC3     O 7216   4.589   0.931  12.494 -0.1487 -0.7011 -0.0520
  485TMC3     H 7217   0.089   0.948  12.588 -0.1738 -1.6373 -0.1431
  485TMC3    H1 7218   0.053   1.006  12.172  1.4499 -0.5888 -0.6100
  485TMC3    H2 7219   0.405   1.123  12.383 -0.3601 -1.9689 -1.8358
  485TMC3    C7 7220   0.323   1.019  12.150  0.4070 -1.2593 -0.3942
  485TMC3    C8 7221   0.361   0.944  12.548  0.7548 -0.0168 -1.1199
  485TMC3    O1 7222   0.416   0.947  12.180  0.0070 -0.2584 -0.1025
  485TMC3    O2 7223   0.472   0.975  12.523  0.1198 -0.5881  0.3184
  486MPD2     C 7224   2.379   0.137  13.416  0.0379 -0.0392 -0.2338
  486MPD2    C1 7225   2.310   0.083  13.307 -0.2662 -0.0675 -0.0951
  486MPD2    C2 7226   2.210   0.160  13.247  0.3474 -0.0716 -0.1586
  486MPD2    C3 7227   2.182   0.291  13.287  0.4356 -0.5649  0.8916
  486MPD2    C4 7228   2.260   0.343  13.388 -0.1000  0.4984 -0.6813
  486MPD2    C5 7229   2.352   0.264  13.456 -0.7253 -0.4170  0.0214
  486MPD2     H 7230   2.157   0.120  13.162  1.2432 -0.2588 -0.6289
  486MPD2    H1 7231   2.235   0.438  13.435 -2.0942 -0.9579  1.1657
  486MPD2    H2 7232   2.466   0.100  13.469  0.3840 -0.2163 -0.9212
  486MPD2    H3 7233   2.413   0.308  13.534 -1.8980  2.6401 -0.7800
  486MPD2     N 7234   2.075   0.365  13.230  0.6404 -0.2196  0.1456
  486MPD2    H5 7235   2.030   0.318  13.153 -3.2531 -0.6863  2.6942
  486MPD2    N1 7236   2.349   4.676  13.273 -0.8233  0.0210  0.1052
  486MPD2    H7 7237   2.404   4.637  13.349  0.5246  1.7303  0.0092
  487TMC3    C1 7238   2.291   4.458  13.198  0.1699 -1.4782 -0.3512
  487TMC3    C2 7239   2.251   4.375  13.096  0.6467 -0.3411 -0.0786
  487TMC3    C3 7240   2.232   4.243  13.131  0.6676 -0.1368 -0.7222
  487TMC3    C4 7241   2.284   4.421  13.331  0.1815 -0.3199 -0.7624
  487TMC3    C5 7242   2.245   4.296  13.364  0.4189 -0.6430 -0.0444
  487TMC3    C6 7243   2.237   4.195  13.263 -0.5473 -0.0948 -0.4190
  487TMC3     C 7244   2.298   4.598  13.169  0.4209 -0.5624 -0.1769
  487TMC3     O 7245   2.222   4.636  13.080  0.3451  0.2411  0.3392
  487TMC3     H 7246   2.255   4.414  12.995  0.5134  0.7932  0.3490
  487TMC3    H1 7247   2.283   4.494  13.410  3.9248 -0.3620 -0.6800
  487TMC3    H2 7248   2.196   4.097  13.281 -1.0788  0.3341  0.7102
  487TMC3    C7 7249   2.121   4.306  13.440 -0.0217 -0.1668  0.2866
  487TMC3    C8 7250   2.146   4.165  13.042  0.5243 -0.1611  0.6795
  487TMC3    O1 7251   2.096   4.412  13.498 -0.4275 -0.2077  0.0016
  487TMC3    O2 7252   2.072   4.233  12.968  0.4829  0.2459 -0.7269
  488MPD2     C 7253   1.878   1.070  16.470 -0.0178 -0.2172 -0.2630
  488MPD2    C1 7254   1.841   1.201  16.493  0.6402  1.5304  0.1928
  488MPD2    C2 7255   1.797   1.242  16.616  0.5958  0.4712 -0.0225
  488MPD2    C3 7256   1.786   1.154  16.731 -0.4303  0.3718 -0.9492
  488MPD2    C4 7257   1.813   1.019  16.707 -0.1532  0.0382 -0.4060
  488MPD2    C5 7258   1.865   0.986  16.581 -0.0594 -0.0840  0.0649
  488MPD2     H 7259   1.757   1.343  16.625  0.6511  0.6612 -1.8272
  488MPD2    H1 7260   1.813   0.939  16.780 -0.4419 -0.0401 -0.4910
  488MPD2    H2 7261   1.902   1.036  16.370  1.0647  0.0214 -0.0847
  488MPD2    H3 7262   1.877   0.881  16.558 -1.6525 -0.5887  1.4535
  488MPD2     N 7263   1.730   1.201  16.854 -0.5160  0.2168  0.7116
  488MPD2    H5 7264   1.686   1.292  16.849  0.0070  0.4361  0.1641
  488MPD2    N1 7265   1.865   1.303  16.398 -0.0036  0.4443  0.5840
  488MPD2    H7 7266   1.856   1.398  16.434 -0.9170  0.7408 -0.4238
  489TMC3    C1 7267   1.700   1.227  17.083  0.1031 -0.8448  0.0650
  489TMC3    C2 7268   1.727   1.360  17.077  0.3319 -0.4450 -0.1137
  489TMC3    C3 7269   1.723   1.424  17.199 -0.2425  0.5856  0.3763
  489TMC3    C4 7270   1.660   1.168  17.198  0.2905  0.7891  0.3310
  489TMC3    C5 7271   1.651   1.234  17.313  0.8022 -0.4877 -0.6513
  489TMC3    C6 7272   1.678   1.364  17.317 -0.5016 -0.0958  0.2544
  489TMC3     C 7273   1.728   1.135  16.975  0.3135 -0.8246 -0.0086
  489TMC3     O 7274   1.787   1.033  17.000  0.3356  0.3644  0.2635
  489TMC3     H 7275   1.759   1.413  16.988  2.1026 -0.1846  0.6855
  489TMC3    H1 7276   1.628   1.065  17.203  0.8183  0.6260  0.3927
  489TMC3    H2 7277   1.693   1.405  17.416 -3.7541 -0.9069  1.0925
  489TMC3    C7 7278   1.594   1.171  17.427  0.5158 -0.4171  0.2891
  489TMC3    C8 7279   1.759   1.569  17.197 -0.3187 -0.6700  1.0917
  489TMC3    O1 7280   1.542   1.256  17.500 -0.1444 -0.1041 -0.6444
  489TMC3    O2 7281   1.756   1.622  17.088 -0.6886 -0.3243 -0.3998
  490MPD2     C 7282   3.185   0.920  17.412  0.0365 -0.3278 -0.1708
  490MPD2    C1 7283   3.106   0.952  17.517  0.1963  0.0061  0.1616
  490MPD2    C2 7284   3.158   1.044  17.616 -0.3340  0.5943  0.2833
  490MPD2    C3 7285   3.292   1.088  17.609  1.0899  0.4098  0.7499
  490MPD2    C4 7286   3.371   1.037  17.507  0.2692 -0.9912  0.0562
  490MPD2    C5 7287   3.317   0.955  17.410  0.1804  0.0061 -0.1040
  490MPD2     H 7288   3.092   1.067   0.002 -0.8323 -1.6104  0.5093
  490MPD2    H1 7289   3.477   1.058  17.497 -0.0759  0.4831 -0.5055
  490MPD2    H2 7290   3.143   0.861  17.331 -0.3182 -1.7094  1.0222
  490MPD2    H3 7291   3.375   0.908  17.332 -1.0282  0.2871 -1.1586
  490MPD2     N 7292   3.361   1.158   0.008  0.2478  0.1766 -0.4048
  490MPD2    H5 7293   3.461   1.157  17.690  0.8870  0.1324  3.7121
  490MPD2    N1 7294   2.970   0.927  17.528 -0.4065  0.6893 -0.1083
  490MPD2    H7 7295   2.917   0.978  17.599 -4.6107  0.0719 -2.8069
  491TMC3    C1 7296   2.761   0.833  17.485  0.3094 -0.3043  0.6516
  491TMC3    C2 7297   2.712   0.927  17.570 -0.2031  0.1315 -0.4643
  491TMC3    C3 7298   2.570   0.945  17.579 -0.4443  0.3652 -0.5351
  491TMC3    C4 7299   2.676   0.764  17.406 -0.1072 -0.5637 -0.3314
  491TMC3    C5 7300   2.536   0.767  17.428  0.0451  0.7068  0.1840
  491TMC3    C6 7301   2.483   0.857  17.517 -0.1921 -0.5791  0.3835
  491TMC3     C 7302   2.898   0.838  17.452 -0.0821 -0.2324  0.4828
  491TMC3     O 7303   2.941   0.762  17.365 -0.2467 -0.1358  0.1370
  491TMC3     H 7304   2.765   0.990  17.641 -0.6863  1.8416 -1.6023
  491TMC3    H1 7305   2.717   0.701  17.328  3.1771 -1.2927  1.9892
  491TMC3    H2 7306   2.376   0.851  17.534  0.0223 -1.4717  1.4582
  491TMC3    C7 7307   2.448   0.732  17.318  0.3715  0.2778 -0.2257
  491TMC3    C8 7308   2.510   1.003   0.005  0.2999 -0.4179 -0.0232
  491TMC3    O1 7309   2.485   0.632  17.255 -0.0513 -0.3690 -0.8815
  491TMC3    O2 7310   2.408   0.953   0.050  0.3114  0.5847  0.3894
  492MPD2     C 7311   2.489   0.587  10.603 -0.7698  0.2328 -0.4600
  492MPD2    C1 7312   2.544   0.675  10.695  0.3452  0.4178  0.3397
  492MPD2    C2 7313   2.555   0.632  10.826  0.4444  0.0727  0.6477
  492MPD2    C3 7314   2.530   0.494  10.850 -0.5791  0.7815  0.9338
  492MPD2    C4 7315   2.491   0.409  10.750 -0.0076  0.3279 -0.4114
  492MPD2    C5 7316   2.460   0.457  10.629 -0.0209 -0.2712  0.3156
  492MPD2     H 7317   2.583   0.696  10.909  1.0979  1.0823 -0.3544
  492MPD2    H1 7318   2.472   0.307  10.780 -0.9610  0.3258 -1.0067
  492MPD2    H2 7319   2.472   0.610  10.498  0.3994  0.7933 -0.5251
  492MPD2    H3 7320   2.418   0.393  10.552 -2.1095 -0.7434  1.8552
  492MPD2     N 7321   2.539   0.442  10.980 -0.6962 -0.1087 -0.5796
  492MPD2    H5 7322   2.522   0.344  11.002 -0.6971 -0.1897 -0.9420
  492MPD2    N1 7323   2.571   0.806  10.655 -0.1264  0.2264 -0.0135
  492MPD2    H7 7324   2.524   0.823  10.566  0.3568  0.8138 -0.1595
  493TMC3    C1 7325   2.631   1.034  10.633 -0.3807 -0.2388  0.0011
  493TMC3    C2 7326   2.697   1.145  10.678 -0.3065  0.8481  1.1235
  493TMC3    C3 7327   2.687   1.254  10.600 -0.1740 -0.9823 -0.1938
  493TMC3    C4 7328   2.540   1.042  10.527 -0.7252  0.3167  0.4823
  493TMC3    C5 7329   2.519   1.165  10.471 -0.0215  0.5234  0.1183
  493TMC3    C6 7330   2.602   1.270  10.492  1.0982 -0.2642 -0.1666
  493TMC3     C 7331   2.644   0.907  10.712 -0.2595  0.3492  0.3551
  493TMC3     O 7332   2.702   0.907  10.820 -0.4721 -0.1148 -0.0240
  493TMC3     H 7333   2.754   1.133  10.769 -0.1036  2.8412  1.2509
  493TMC3    H1 7334   2.474   0.958  10.510  0.3083 -0.1903 -0.9944
  493TMC3    H2 7335   2.587   1.368  10.447  0.0900  0.5916  2.0370
  493TMC3    C7 7336   2.409   1.177  10.373 -0.6223 -0.2845  0.4414
  493TMC3    C8 7337   2.801   1.349  10.609 -0.4462 -0.3027  0.3960
  493TMC3    O1 7338   2.329   1.085  10.378  0.2255 -0.6507 -0.5112
  493TMC3    O2 7339   2.847   1.344  10.720 -0.2111 -0.8490 -0.0308
  494TMC3    C1 7340   3.918   3.114   0.450  0.4520 -0.5592 -0.1050
  494TMC3    C2 7341   3.866   2.988   0.447 -0.1139  1.2616  0.0859
  494TMC3    C3 7342   3.855   2.912   0.331  0.7191  0.1429 -0.1144
  494TMC3    C4 7343   3.956   3.172   0.332 -0.3758  0.7394  0.9224
  494TMC3    C5 7344   3.940   3.104   0.221 -0.5047  0.1043  0.3489
  494TMC3    C6 7345   3.894   2.972   0.220 -0.2005 -0.5360 -0.5942
  494TMC3     C 7346   3.946   3.170   0.580  0.2232 -0.2298 -0.6763
  494TMC3     O 7347   3.900   3.120   0.678 -0.3921 -0.6667 -0.5735
  494TMC3     H 7348   3.832   2.945   0.540  0.6054  2.4896  0.9169
  494TMC3    H1 7349   3.992   3.273   0.323  0.9234  0.4073  2.5857
  494TMC3    H2 7350   3.885   2.921   0.125 -1.4224 -0.2803 -0.6101
  494TMC3    C7 7351   3.985   3.153   0.089  0.9606 -0.3330 -0.1984
  494TMC3    C8 7352   3.817   2.770   0.339  0.1991 -0.3788  0.7831
  494TMC3    O1 7353   3.911   3.120  17.691 -0.4064  0.0154 -0.1388
  494TMC3    O2 7354   3.833   2.718   0.448  0.3298 -0.1924  0.1629
  495TMC3    C1 7355   1.707   4.184  14.962  0.0924  0.1412 -0.0605
  495TMC3    C2 7356   1.594   4.238  14.910 -0.4237 -0.2862 -0.0765
  495TMC3    C3 7357   1.529   4.337  14.977 -0.4193  0.7382 -0.0922
  495TMC3    C4 7358   1.743   4.221  15.087  0.3197  1.1735 -0.5172
  495TMC3    C5 7359   1.673   4.311  15.158  0.2727  0.1993  0.1284
  495TMC3    C6 7360   1.562   4.372  15.106  0.3981  0.2680  0.1236
  495TMC3     C 7361   1.809   4.145  14.866 -0.3791  0.9524 -0.2535
  495TMC3     O 7362   1.924   4.150  14.908 -0.3010  0.3545 -0.3129
  495TMC3     H 7363   1.567   4.212  14.808  0.2340 -1.0520 -0.0546
  495TMC3    H1 7364   1.831   4.167  15.118  0.8585  3.3880  1.8093
  495TMC3    H2 7365   1.495   4.434  15.164 -0.6572 -1.6318  0.9340
  495TMC3    C7 7366   1.685   4.277  15.300  0.1912  0.6863 -0.7935
  495TMC3    C8 7367   1.464   4.430  14.882 -0.4406 -0.2216  0.5428
  495TMC3    O1 7368   1.719   4.166  15.326  0.2938 -0.0340 -0.1899
  495TMC3    O2 7369   1.410   4.381  14.786  0.5087  0.4600  0.5455
  496MPD2     C 7370   4.443   4.233  15.841  0.1022  0.5313  0.2734
  496MPD2    C1 7371   4.380   4.225  15.722 -0.4877 -0.2402 -0.3417
  496MPD2    C2 7372   4.252   4.272  15.712 -0.4207  0.0242 -0.4406
  496MPD2    C3 7373   4.191   4.341  15.820  0.3948 -0.0541  0.0944
  496MPD2    C4 7374   4.260   4.346  15.938  0.3491 -0.2886  0.7783
  496MPD2    C5 7375   4.386   4.295  15.952 -0.3452 -0.2381 -0.2529
  496MPD2     H 7376   4.203   4.281  15.616 -3.1521  0.8146  1.0079
  496MPD2    H1 7377   4.219   4.401  16.022  1.6122  0.4370  0.9171
  496MPD2    H2 7378   4.547   4.206  15.854 -0.1208 -0.6836 -0.4435
  496MPD2    H3 7379   4.440   4.297  16.046 -2.0030  1.8651  0.6593
  496MPD2     N 7380   4.063   4.411  15.812 -0.4034  0.3840  0.9007
  496MPD2    H5 7381   4.041   4.475  15.887  0.3170 -0.8560  2.1654
  496MPD2    N1 7382   4.455   4.183  15.612 -0.3457 -0.5186 -0.1884
  496MPD2    H7 7383   4.552   4.160  15.632 -0.4980  0.4976  1.7287
  497TMC3    C1 7384   3.872   4.502  15.704  0.1031  0.2426  0.5012
  497TMC3    C2 7385   3.769   4.471  15.621  0.5294  0.9872 -0.4537
  497TMC3    C3 7386   3.656   4.553  15.624 -0.0230  0.5459  1.0698
  497TMC3    C4 7387   3.872   4.610  15.788 -0.1097  0.0665  0.2442
  497TMC3    C5 7388   3.756   4.686  15.793  1.1109  0.0219 -0.2612
  497TMC3    C6 7389   3.648   4.658  15.713 -0.1968 -0.0469  0.3940
  497TMC3     C 7390   3.985   4.404  15.705 -0.5861 -0.7270  0.5169
  497TMC3     O 7391   3.987   4.325  15.609  0.6347  0.2452  0.2496
  497TMC3     H 7392   3.761   4.379  15.564  4.1849 -0.1247  0.8371
  497TMC3    H1 7393   3.947   4.620  15.865 -2.0497 -1.0583  2.2718
  497TMC3    H2 7394   3.552   4.709  15.719  1.8261  3.9776 -1.1451
  497TMC3    C7 7395   3.752   0.072  15.878  0.5544 -0.3243 -0.2201
  497TMC3    C8 7396   3.529   4.495  15.581 -0.4676  0.2985  0.0552
  497TMC3    O1 7397   3.644   0.112  15.915 -0.1459  0.2745 -0.6396
  497TMC3    O2 7398   3.432   4.531  15.651 -0.5715 -0.0984  0.3886
  498MPD2     C 7399   1.054   0.164   9.766  0.6236 -0.2301  1.0771
  498MPD2    C1 7400   0.971   0.261   9.805 -0.0680 -0.5182 -0.1147
  498MPD2    C2 7401   0.836   0.223   9.828  0.5687 -0.2314 -0.1895
  498MPD2    C3 7402   0.795   0.092   9.814 -0.2339  0.8964 -0.2377
  498MPD2    C4 7403   0.882   4.722   9.771 -0.4820 -0.4045  0.2561
  498MPD2    C5 7404   1.013   0.031   9.749 -0.3941 -0.3508  0.1780
  498MPD2     H 7405   0.765   0.294   9.870 -1.0371 -1.2347 -1.2418
  498MPD2    H1 7406   0.851   4.619   9.768 -0.1351 -0.5310  0.9239
  498MPD2    H2 7407   1.158   0.189   9.750 -0.2056  2.0748 -0.6232
  498MPD2    H3 7408   1.083   4.684   9.708 -0.8693 -0.1497 -0.9697
  498MPD2     N 7409   0.655   0.064   9.844 -0.5456 -0.1109  0.4385
  498MPD2    H5 7410   0.605   0.145   9.878 -0.6468  0.3395 -0.7947
  498MPD2    N1 7411   1.007   0.391   9.825 -0.3747  0.1271 -0.5531
  498MPD2    H7 7412   0.923   0.446   9.840  0.1613  0.3428  1.6386
  499TMC3    C1 7413   1.135   0.586   9.874  0.9679  1.1423 -0.0233
  499TMC3    C2 7414   1.249   0.649   9.844 -0.3121  0.4834  0.2070
  499TMC3    C3 7415   1.252   0.779   9.869 -0.2260 -0.0623 -0.1484
  499TMC3    C4 7416   1.022   0.647   9.932 -0.0929  0.5318  0.6667
  499TMC3    C5 7417   1.027   0.782   9.950 -0.0969 -0.7466  0.3275
  499TMC3    C6 7418   1.145   0.848   9.916  1.3638  0.4463 -0.0773
  499TMC3     C 7419   1.130   0.449   9.817 -0.1767  0.0742  0.4024
  499TMC3     O 7420   1.231   0.386   9.789 -0.2408 -0.0960  0.3585
  499TMC3     H 7421   1.330   0.594   9.797  0.1991  0.1333  1.5094
  499TMC3    H1 7422   0.933   0.594   9.964  0.4114 -1.2569 -0.9177
  499TMC3    H2 7423   1.141   0.954   9.896 -1.5163 -0.1256 -2.5651
  499TMC3    C7 7424   0.907   0.866   9.957 -0.3808  0.0166  0.0198
  499TMC3    C8 7425   1.382   0.852   9.864 -0.6401 -0.3424 -0.0666
  499TMC3    O1 7426   0.919   0.991   9.954  0.1128  0.0640  0.1943
  499TMC3    O2 7427   1.394   0.972   9.861 -0.4115 -0.3318 -0.1329
  500MPD2     C 7428   1.735   2.345   9.995  0.3884  0.6143  0.4433
  500MPD2    C1 7429   1.808   2.243  10.047 -0.1641 -0.0251  0.1481
  500MPD2    C2 7430   1.740   2.146  10.116 -0.3965  0.1926 -0.0051
  500MPD2    C3 7431   1.597   2.146  10.114 -0.1551 -0.3361  0.2278
  500MPD2    C4 7432   1.530   2.248  10.054  0.1200  0.7735 -0.4070
  500MPD2    C5 7433   1.601   2.356   9.998  0.1978  0.6225 -0.0199
  500MPD2     H 7434   1.802   2.064  10.151  0.0758  0.3437 -0.4683
  500MPD2    H1 7435   1.423   2.257  10.067 -0.1611 -0.8595 -1.5607
  500MPD2    H2 7436   1.777   2.431   9.945 -0.1684  1.6413  1.7110
  500MPD2    H3 7437   1.544   2.436   9.952 -0.4433  1.3979  2.1141
  500MPD2     N 7438   1.521   2.042  10.169 -0.7595 -0.4694 -0.0845
  500MPD2    H5 7439   1.421   2.053  10.159 -0.2407  4.4738  0.1639
  500MPD2    N1 7440   1.949   2.243  10.042  0.5366  0.2125  0.1907
  500MPD2    H7 7441   1.986   2.166  10.097 -0.0260 -0.1869  0.0103
  501TMC3    C1 7442   2.177   2.293   9.999  0.2107 -0.2840 -0.1886
  501TMC3    C2 7443   2.269   2.364   9.928  0.1559  0.2431 -0.0930
  501TMC3    C3 7444   2.399   2.335   9.948 -0.0174  0.1543  0.1270
  501TMC3    C4 7445   2.211   2.186  10.071  0.1456 -0.2266  0.4006
  501TMC3    C5 7446   2.340   2.149  10.094  0.0058 -1.0475  0.7340
  501TMC3    C6 7447   2.434   2.219  10.025 -0.4146 -0.5465  0.3889
  501TMC3     C 7448   2.036   2.325   9.979  0.1248  0.9070 -0.1953
  501TMC3     O 7449   2.004   2.418   9.906 -0.0099  0.3085 -0.0967
  501TMC3     H 7450   2.248   2.462   9.887  0.2721  0.5205  0.5206
  501TMC3    H1 7451   2.142   2.118  10.122  1.9339 -1.1198  1.6316
  501TMC3    H2 7452   2.542   2.206  10.034 -0.1884 -0.0758 -1.4716
  501TMC3    C7 7453   2.368   2.147  10.242  0.2445 -0.3268  0.5165
  501TMC3    C8 7454   2.480   2.456   9.979 -0.1929  0.3807  0.1160
  501TMC3    O1 7455   2.293   2.091  10.323 -0.4750  0.1134 -0.0580
  501TMC3    O2 7456   2.552   2.439  10.078 -0.6871 -0.2265 -0.1689
  502TMC3    C1 7457   1.649   0.951  15.205  0.0839  0.1272 -0.3326
  502TMC3    C2 7458   1.609   1.055  15.121 -0.1852  0.4711 -0.9160
  502TMC3    C3 7459   1.488   1.112  15.148 -0.1154 -0.6774 -0.0900
  502TMC3    C4 7460   1.566   0.894  15.297 -0.0844  0.7970  0.1136
  502TMC3    C5 7461   1.433   0.938  15.301 -0.5071 -0.1316  0.6028
  502TMC3    C6 7462   1.405   1.051  15.235  0.9019 -0.4625  0.2130
  502TMC3     C 7463   1.765   0.883  15.156  0.1805  0.9547 -0.1488
  502TMC3     O 7464   1.822   0.922  15.055 -0.0700 -0.8091  0.1853
  502TMC3     H 7465   1.666   1.084  15.034  0.6780  0.9164 -0.1959
  502TMC3    H1 7466   1.586   0.810  15.363 -2.0737 -0.7446 -1.2872
  502TMC3    H2 7467   1.300   1.070  15.218  0.1889 -0.8695  4.2376
  502TMC3    C7 7468   1.325   0.845  15.341 -0.1417 -0.2749  0.2544
  502TMC3    C8 7469   1.452   1.227  15.069  0.2736 -0.4100 -0.1924
  502TMC3    O1 7470   1.356   0.726  15.339  0.1830 -0.3435  0.5029
  502TMC3    O2 7471   1.535   1.277  14.994  0.3206 -0.0099 -0.1011
  503MPD2     C 7472   3.767   1.543  16.933  0.1774  0.0800  0.5013
  503MPD2    C1 7473   3.816   1.578  17.056  0.2117 -0.6459  0.0498
  503MPD2    C2 7474   3.883   1.475  17.114 -0.7538  1.1258  0.6879
  503MPD2    C3 7475   3.881   1.341  17.069  0.4207 -0.1741  0.2726
  503MPD2    C4 7476   3.824   1.307  16.945 -0.8367  0.7985 -0.1728
  503MPD2    C5 7477   3.764   1.416  16.883 -0.4580  0.2762 -0.3476
  503MPD2     H 7478   3.937   1.494  17.206  1.0959  0.7529 -0.3130
  503MPD2    H1 7479   3.809   1.208  16.904 -2.1549  0.8599  0.1513
  503MPD2    H2 7480   3.730   1.618  16.864 -1.3404 -0.6491  0.5306
  503MPD2    H3 7481   3.712   1.405  16.789 -2.1085  1.4691  0.4288
  503MPD2     N 7482   3.937   1.241  17.153 -0.5744  0.1334 -0.0961
  503MPD2    H5 7483   3.955   1.270  17.248 -0.6058  2.5705 -0.8469
  503MPD2    N1 7484   3.835   1.709  17.105  0.4006 -0.2607  0.1229
  503MPD2    H7 7485   3.892   1.707  17.189  3.0048 -1.1202 -1.6675
  504TMC3    C1 7486   4.016   1.037  17.224  0.1091 -0.5660 -0.3428
  504TMC3    C2 7487   4.007   1.081  17.359 -0.0163 -1.1922  0.4308
  504TMC3    C3 7488   4.084   1.004  17.445 -0.1743  0.0937 -0.0170
  504TMC3    C4 7489   4.107   0.943  17.186  0.4179  0.9946  0.6649
  504TMC3    C5 7490   4.197   0.892  17.273  0.0476 -0.8261 -0.2612
  504TMC3    C6 7491   4.185   0.921  17.410 -0.5567  0.0958  0.7380
  504TMC3     C 7492   3.954   1.114  17.117 -0.1928 -0.4150 -0.3737
  504TMC3     O 7493   3.963   1.069  17.003 -0.4435  0.3370 -0.3938
  504TMC3     H 7494   3.919   1.135  17.393 -0.7850 -1.7831 -0.6157
  504TMC3    H1 7495   4.112   0.913  17.082 -0.3164 -1.2196  1.2651
  504TMC3    H2 7496   4.266   0.901  17.480 -1.8432 -2.7293  1.4105
  504TMC3    C7 7497   4.323   0.860  17.210  0.1701 -0.2669 -0.0794
  504TMC3    C8 7498   4.085   1.041  17.584 -0.0560 -0.6123 -0.6047
  504TMC3    O1 7499   4.345   0.909  17.096  0.1702  0.7249 -0.3914
  504TMC3    O2 7500   4.005   1.123  17.618 -0.1701 -0.0899 -0.5731
  505MPD2     C 7501   4.286   3.983  10.260  0.4548  0.3210  0.2399
  505MPD2    C1 7502   4.379   3.917  10.338  0.2039  0.1043 -0.5749
  505MPD2    C2 7503   4.436   3.989  10.446 -0.5955 -0.9176 -0.1668
  505MPD2    C3 7504   4.405   4.117  10.477 -0.2073 -0.3855 -0.3311
  505MPD2    C4 7505   4.297   4.172  10.405 -0.0993  0.1322 -0.0859
  505MPD2    C5 7506   4.242   4.108  10.297 -0.5275 -0.1390 -0.9574
  505MPD2     H 7507   4.504   3.930  10.507  2.8458  1.1990 -1.9499
  505MPD2    H1 7508   4.257   4.267  10.438  0.9907  1.3579 -2.2873
  505MPD2    H2 7509   4.239   3.939  10.172  4.2788 -2.2571 -0.5029
  505MPD2    H3 7510   4.172   4.170  10.242  0.4468  1.5232 -0.3401
  505MPD2     N 7511   4.455   4.191  10.584 -0.5246 -0.0320  0.7051
  505MPD2    H5 7512   4.422   4.287  10.594 -2.3772 -0.5682 -0.3935
  505MPD2    N1 7513   4.407   3.787  10.291  0.1392 -0.2169  0.4294
  505MPD2    H7 7514   4.364   3.753  10.205  0.6632 -0.6140  0.3241
  506TMC3    C1 7515   4.550   3.606  10.252  0.0005 -0.3801 -0.5141
  506TMC3    C2 7516   4.562   3.656  10.124  0.2032  0.7908  0.1744
  506TMC3    C3 7517   4.686   3.671  10.076  0.5829  0.1638  0.3126
  506TMC3    C4 7518   4.653   3.538  10.308 -0.0108  0.4271 -0.9714
  506TMC3    C5 7519   0.057   3.559  10.259 -0.1868  0.3408 -0.1470
  506TMC3    C6 7520   0.079   3.626  10.140 -0.8260  0.7704  0.0236
  506TMC3     C 7521   4.498   3.702  10.353 -0.5356  0.2905 -0.3193
  506TMC3     O 7522   4.569   3.717  10.449  0.1475  0.1933 -0.4999
  506TMC3     H 7523   4.483   3.708  10.071  0.4763  0.9450 -0.0805
  506TMC3    H1 7524   4.634   3.489  10.403 -2.2082  2.0751 -0.5832
  506TMC3    H2 7525   0.177   3.641  10.095 -0.1482  3.4877  2.3957
  506TMC3    C7 7526   0.168   3.571  10.350  0.7986 -0.1626 -0.3735
  506TMC3    C8 7527   4.679   3.753   9.958 -0.5072 -0.3954  0.7373
  506TMC3    O1 7528   0.280   3.561  10.297 -0.0909 -0.4998 -0.7900
  506TMC3    O2 7529   4.603   3.712   9.872 -0.0735  0.3661  0.3622
  507TMC3    C1 7530   4.531   0.776  14.406 -0.2890 -0.4372 -0.3132
  507TMC3    C2 7531   4.633   0.802  14.318  0.0036 -0.3785  0.0607
  507TMC3    C3 7532   0.003   0.897  14.354 -0.5457 -0.3456 -0.6880
  507TMC3    C4 7533   4.513   0.860  14.509 -0.3354  0.0933 -0.3685
  507TMC3    C5 7534   4.600   0.960  14.534  1.2520 -0.4302 -0.0324
  507TMC3    C6 7535   4.718   0.971  14.464  0.7568 -0.8169 -0.6777
  507TMC3     C 7536   4.440   0.664  14.390 -0.1340 -0.2830 -0.2225
  507TMC3     O 7537   4.321   0.673  14.374 -0.3957  0.0436  0.3867
  507TMC3     H 7538   4.626   0.746  14.225  0.6998 -2.0324  1.0056
  507TMC3    H1 7539   4.430   0.835  14.574 -0.9501  0.0858 -1.1656
  507TMC3    H2 7540   0.070   1.040  14.499  1.2976 -0.1923 -3.0758
  507TMC3    C7 7541   4.543   1.093  14.577  0.1067  0.6313  0.4980
  507TMC3    C8 7542   0.016   0.984  14.242  0.0567 -0.4587  0.5567
  507TMC3    O1 7543   4.595   1.189  14.526 -0.0229  0.0460 -0.2282
  507TMC3    O2 7544   0.026   0.930  14.134 -0.1896  0.2850 -0.1491
  508MPD2     C 7545   0.885   3.175  15.809 -0.5474  0.2742  0.8679
  508MPD2    C1 7546   1.014   3.154  15.842  0.0164  0.1207  0.5330
  508MPD2    C2 7547   1.111   3.169  15.745 -0.8144  0.2571 -0.0594
  508MPD2    C3 7548   1.077   3.198  15.609 -0.1754 -0.7576 -0.1256
  508MPD2    C4 7549   0.943   3.207  15.578 -0.5017 -0.9480 -0.2173
  508MPD2    C5 7550   0.848   3.203  15.684  0.4772 -0.1659 -0.6398
  508MPD2     H 7551   1.215   3.161  15.775 -0.3103 -1.6480 -2.3674
  508MPD2    H1 7552   0.903   3.234  15.481  1.5213  0.2149 -0.7076
  508MPD2    H2 7553   0.808   3.179  15.886 -0.9602 -1.5001  0.5567
  508MPD2    H3 7554   0.748   3.229  15.652  0.6989  1.4067 -0.0288
  508MPD2     N 7555   1.180   3.221  15.513  0.9690 -0.3306  0.0369
  508MPD2    H5 7556   1.276   3.221  15.546  1.2253  1.6263 -0.7131
  508MPD2    N1 7557   1.037   3.135  15.981 -0.1518 -0.4313  0.4429
  508MPD2    H7 7558   0.968   3.150  16.054  1.7152 -1.3281  2.3921
  509TMC3    C1 7559   1.246   3.502  15.178 -0.7386 -0.3092  0.2012
  509TMC3    C2 7560   1.297   3.597  15.266 -0.5811 -0.3696  0.0964
  509TMC3    C3 7561   1.336   3.544  15.387  0.0983 -0.0666 -0.0797
  509TMC3    C4 7562   1.224   3.369  15.209 -0.5829  0.3726  0.3513
  509TMC3    C5 7563   1.263   3.317  15.330  0.0907  0.9136 -0.2753
  509TMC3    C6 7564   1.320   3.408  15.418 -0.1847  0.4414  0.0839
  509TMC3     C 7565   1.165   3.551  15.071  0.4672  0.5408 -0.4722
  509TMC3     O 7566   1.145   3.490  14.967  0.2252 -0.1370 -0.0929
  509TMC3     H 7567   1.309   3.698  15.229 -1.3307  0.1314  1.2124
  509TMC3    H1 7568   1.164   3.306  15.144  2.8832 -0.6595 -1.8025
  509TMC3    H2 7569   1.351   3.376  15.518  1.4361 -2.9718 -1.5009
  509TMC3    C7 7570   1.164   3.235  15.381 -0.6955 -0.5855  0.2560
  509TMC3    C8 7571   1.393   3.634  15.487  0.3112 -0.6437 -0.0100
  509TMC3    O1 7572   1.067   3.196  15.313  0.2023 -0.0574 -0.6588
  509TMC3    O2 7573   1.464   3.581  15.573 -0.0890 -0.0027  1.3348
  510MPD2     C 7574   3.418   0.262  14.874  0.2054  0.0829 -0.0315
  510MPD2    C1 7575   3.416   0.122  14.889  0.4074  0.5984  0.2335
  510MPD2    C2 7576   3.517   0.053  14.825  0.5376 -0.3587  0.0825
  510MPD2    C3 7577   3.613   0.115  14.752  0.3117  0.2113 -0.4046
  510MPD2    C4 7578   3.599   0.247  14.715 -0.4875 -0.5040  0.5757
  510MPD2    C5 7579   3.506   0.320  14.777  0.1237  0.0217 -0.1817
  510MPD2     H 7580   3.531   4.672  14.851 -1.9837 -0.3480  1.5239
  510MPD2    H1 7581   3.680   0.298  14.664 -2.0544  0.2130 -1.1795
  510MPD2    H2 7582   3.338   0.323  14.913 -0.6428 -0.8614 -0.2911
  510MPD2    H3 7583   3.499   0.428  14.762  2.5149  0.4164  1.5609
  510MPD2     N 7584   3.722   0.037  14.711 -0.3734  0.1511 -0.1620
  510MPD2    H5 7585   3.723   4.665  14.745 -1.5402  0.0314 -0.4636
  510MPD2    N1 7586   3.318   0.051  14.968 -0.3444  0.1319 -0.3762
  510MPD2    H7 7587   3.259   0.101  15.033  0.8725  1.2082 -0.0820
  511TMC3    C1 7588   3.201   4.580  15.045  0.4520  0.6194 -0.1767
  511TMC3    C2 7589   3.147   4.647  15.156 -0.1762 -0.2420  0.1318
  511TMC3    C3 7590   3.043   4.589  15.228  0.3086  0.5752 -0.8481
  511TMC3    C4 7591   3.158   4.455  15.009 -0.4920 -0.1731  0.0234
  511TMC3    C5 7592   3.052   4.402  15.084 -0.2668  0.3749 -0.4934
  511TMC3    C6 7593   3.009   4.460  15.204  0.1480 -0.0110  0.0353
  511TMC3     C 7594   3.294   4.640  14.954  0.6632 -0.0510 -0.2459
  511TMC3     O 7595   3.327   4.565  14.865  0.3726  0.2819  0.1791
  511TMC3     H 7596   3.180   0.024  15.176 -0.6092 -0.1056  0.1528
  511TMC3    H1 7597   3.192   4.408  14.918 -0.3270 -1.4737  0.7635
  511TMC3    H2 7598   2.926   4.411  15.254  1.0498 -0.2642  1.2689
  511TMC3    C7 7599   2.997   4.281  15.041  0.4752  0.3011 -0.2072
  511TMC3    C8 7600   3.019   4.636  15.358 -0.2267 -0.6561 -0.4322
  511TMC3    O1 7601   3.026   4.242  14.931 -0.0205 -0.0313 -0.3110
  511TMC3    O2 7602   3.001   0.033  15.360  0.4387  0.1348 -0.2699
  512TMC3    C1 7603   2.664   4.395  13.118 -0.2946  0.0871 -0.7745
  512TMC3    C2 7604   2.645   4.351  13.246  0.1319  0.0775 -0.6501
  512TMC3    C3 7605   2.615   4.217  13.266  0.3393 -0.4291  0.0039
  512TMC3    C4 7606   2.644   4.314  13.013  0.7933 -0.3538 -0.0713
  512TMC3    C5 7607   2.609   4.182  13.037  0.5342 -0.1995 -0.0849
  512TMC3    C6 7608   2.602   4.134  13.162 -0.1800  0.2576 -0.5091
  512TMC3     C 7609   2.647   4.539  13.089  0.0335  0.0852 -0.2672
  512TMC3     O 7610   2.596   4.569  12.984 -0.4715 -0.0859  0.1897
  512TMC3     H 7611   2.655   4.417  13.331 -2.9789  1.7566 -1.5981
  512TMC3    H1 7612   2.642   4.346  12.909 -2.7447 -1.1784 -0.2352
  512TMC3    H2 7613   2.582   4.028  13.172 -2.9765  0.7485 -0.9223
  512TMC3    C7 7614   2.562   4.104  12.917  0.0985 -0.4073  0.2537
  512TMC3    C8 7615   2.567   4.168  13.396  0.4140 -0.1427 -0.4609
  512TMC3    O1 7616   2.522   4.182  12.830  0.1209 -0.4308 -0.6520
  512TMC3    O2 7617   2.496   4.069  13.396  0.8737  0.2498  0.3884
  513MPD2     C 7618   0.002   3.456  13.474 -1.6059 -0.9028 -0.5121
  513MPD2    C1 7619   0.098   3.374  13.409 -0.8906  0.2250  0.3334
  513MPD2    C2 7620   0.212   3.346  13.473  0.1665  0.2791 -0.6423
  513MPD2    C3 7621   0.237   3.393  13.598 -0.0959  0.0996  0.4064
  513MPD2    C4 7622   0.146   3.480  13.661  0.1033 -0.1390 -0.2359
  513MPD2    C5 7623   0.024   3.501  13.603 -0.3724 -0.2626 -0.2220
  513MPD2     H 7624   0.285   3.282  13.424  2.1163  2.2119 -0.2981
  513MPD2    H1 7625   0.147   3.514  13.764  0.9302  0.2156 -0.3666
  513MPD2    H2 7626   4.639   3.493  13.421 -2.2044 -2.0094 -0.3143
  513MPD2    H3 7627   4.685   3.575  13.652 -1.8848 -0.9068 -1.1813
  513MPD2     N 7628   0.362   3.359  13.653 -0.6633 -0.3087  0.7193
  513MPD2    H5 7629   0.416   3.303  13.589 -0.1649 -0.5853  1.3766
  513MPD2    N1 7630   0.051   3.309  13.289  0.9326  0.4842  0.1512
  513MPD2    H7 7631   4.683   3.337  13.256  0.8359  1.1774  1.0189
  514TMC3    C1 7632   0.077   3.198  13.084 -0.2661  0.1190 -0.0053
  514TMC3    C2 7633   0.004   3.296  13.020 -1.0987 -0.1644 -0.4809
  514TMC3    C3 7634   0.049   3.349  12.894 -0.1454  0.2205 -0.5271
  514TMC3    C4 7635   0.178   3.139  13.020 -0.4431  0.7585  0.5737
  514TMC3    C5 7636   0.229   3.198  12.906  0.3322 -0.9824 -1.1302
  514TMC3    C6 7637   0.164   3.301  12.836 -0.8711  1.0847 -0.4406
  514TMC3     C 7638   0.133   3.230  13.217  0.2930 -0.3553  0.0263
  514TMC3     O 7639   0.242   3.176  13.239  0.1610 -0.1446 -0.5196
  514TMC3     H 7640   4.638   3.338  13.062 -1.4419 -0.8866 -0.5091
  514TMC3    H1 7641   0.237   3.062  13.069 -1.8392  0.7393  2.2323
  514TMC3    H2 7642   0.211   3.354  12.754 -1.9045 -0.0811 -1.7672
  514TMC3    C7 7643   0.368   3.210  12.906 -0.3713 -0.0341 -1.1663
  514TMC3    C8 7644   4.676   3.427  12.813 -0.0124  0.1169  0.3337
  514TMC3    O1 7645   0.416   3.255  12.803  0.4993  0.1418  0.1850
  514TMC3    O2 7646   4.574   3.454  12.879  0.2595 -0.6224 -0.2615
  515MPD2     C 7647   2.671   1.622  14.325  0.8293 -0.4484 -0.0814
  515MPD2    C1 7648   2.617   1.499  14.363 -0.3668 -0.9169 -0.1444
  515MPD2    C2 7649   2.653   1.451  14.488  0.0564 -0.3876 -0.1643
  515MPD2    C3 7650   2.733   1.523  14.575 -0.2011 -0.1909  0.3012
  515MPD2    C4 7651   2.778   1.644  14.525 -0.0286 -0.3521  0.3889
  515MPD2    C5 7652   2.752   1.689  14.402 -0.1525  0.0897  0.1996
  515MPD2     H 7653   2.611   1.356  14.518  0.9319 -0.3641  1.1383
  515MPD2    H1 7654   2.847   1.700  14.587 -1.8492  2.5555 -0.2406
  515MPD2    H2 7655   2.654   1.659  14.224  0.1180 -2.8071 -0.8250
  515MPD2    H3 7656   2.803   1.776  14.363 -0.6249  0.2253 -0.1123
  515MPD2     N 7657   2.768   1.483  14.710  0.6187  0.1884 -0.4406
  515MPD2    H5 7658   2.836   1.546  14.751 -1.7489  1.1287  2.0127
  515MPD2    N1 7659   2.519   1.419  14.295 -0.6586 -0.6548  0.2518
  515MPD2    H7 7660   2.496   1.331  14.341 -2.2709 -1.0989 -1.4280
  516TMC3    C1 7661   2.330   1.364  14.153 -0.3748 -0.3266  0.7651
  516TMC3    C2 7662   2.262   1.396  14.038 -0.2925 -0.0545  0.5522
  516TMC3    C3 7663   2.126   1.364  14.034 -0.1785 -0.2094  0.0054
  516TMC3    C4 7664   2.269   1.283  14.242 -0.5334  0.6091 -0.2576
  516TMC3    C5 7665   2.138   1.252  14.234 -0.6482 -0.2080 -0.5148
  516TMC3    C6 7666   2.064   1.288  14.129 -0.5295 -0.1482 -0.0425
  516TMC3     C 7667   2.454   1.448  14.184  0.5209 -0.0134  0.3209
  516TMC3     O 7668   2.469   1.540  14.105 -0.1500  0.2704 -0.3807
  516TMC3     H 7669   2.315   1.459  13.966 -0.2803 -0.0565  0.5594
  516TMC3    H1 7670   2.318   1.262  14.336  0.1033  3.1381 -0.0208
  516TMC3    H2 7671   1.958   1.266  14.128 -0.6757  0.5897 -1.0088
  516TMC3    C7 7672   2.066   1.176  14.337 -0.8130 -0.5232  1.0274
  516TMC3    C8 7673   2.041   1.413  13.925 -1.1120 -0.2762 -0.2784
  516TMC3    O1 7674   1.952   1.138  14.315  0.6286 -0.0652  0.7199
  516TMC3    O2 7675   1.924   1.397  13.942  0.1704 -0.2743 -1.0912
  517MPD2     C 7676   1.764   2.806  17.540 -0.4154  0.0265  0.2001
  517MPD2    C1 7677   1.859   2.835  17.634 -0.4697  0.6681 -1.1048
  517MPD2    C2 7678   1.850   2.955  17.692 -0.4218 -1.1926 -1.4964
  517MPD2    C3 7679   1.755   3.052  17.660  0.1369  0.5760 -0.7916
  517MPD2    C4 7680   1.657   3.017  17.566 -0.2625  0.0080 -0.6891
  517MPD2    C5 7681   1.661   2.892  17.517  0.1292 -0.1221 -0.9077
  517MPD2     H 7682   1.935   2.989   0.054 -1.6286 -2.4664  0.9676
  517MPD2    H1 7683   1.574   3.083  17.544 -0.4293 -0.1252 -0.4620
  517MPD2    H2 7684   1.763   2.719  17.476  1.9929  0.2635 -0.1315
  517MPD2    H3 7685   1.591   2.874  17.436 -1.2174  3.2246 -0.4990
  517MPD2     N 7686   1.749   3.184   0.024  0.2157 -0.3054  1.0627
  517MPD2    H5 7687   1.678   3.245  17.681  0.0913 -1.5445 -0.6016
  517MPD2    N1 7688   1.976   2.747  17.643  0.1260  0.1574  0.2022
  517MPD2    H7 7689   2.060   2.790  17.679 -0.4114  1.3803  0.0001
  518TMC3    C1 7690   2.104   2.549  17.601  0.2735 -0.6748 -0.0492
  518TMC3    C2 7691   2.106   2.413  17.582  0.2457  0.3060 -0.2446
  518TMC3    C3 7692   2.227   2.347  17.568  0.3127  0.0636 -0.2748
  518TMC3    C4 7693   2.223   2.616  17.597  0.2789  0.0514 -0.0304
  518TMC3    C5 7694   2.341   2.550  17.599  0.3894 -0.4907 -0.4497
  518TMC3    C6 7695   2.345   2.410  17.591 -0.0232  0.4442 -0.6657
  518TMC3     C 7696   1.979   2.618  17.587 -0.3573  0.9323  0.1400
  518TMC3     O 7697   1.882   2.556  17.557  0.3640  0.3011  0.3176
  518TMC3     H 7698   2.011   2.368  17.557  0.4677 -0.5439  0.4423
  518TMC3    H1 7699   2.217   2.724  17.588 -0.9023  0.2853  3.4498
  518TMC3    H2 7700   2.433   2.351  17.612  1.1299  1.5549 -2.3825
  518TMC3    C7 7701   2.465   2.632  17.601 -0.4925  0.3081  0.7651
  518TMC3    C8 7702   2.225   2.209  17.609  0.2807  0.0149 -0.1723
  518TMC3    O1 7703   2.466   2.752  17.638  0.4653 -0.0421  0.3022
  518TMC3    O2 7704   2.334   2.150  17.612 -0.1739  0.0994 -0.3171
  519MPD2     C 7705   4.076   1.386  13.964  0.3663  0.0768 -0.4531
  519MPD2    C1 7706   3.978   1.296  14.009 -0.5836  0.5552  0.0983
  519MPD2    C2 7707   4.022   1.166  14.028  0.3399  0.8907 -0.1342
  519MPD2    C3 7708   4.150   1.129  14.005  0.1838  0.1659  1.0587
  519MPD2    C4 7709   4.238   1.223  13.970  0.0007  0.2167  0.1527
  519MPD2    C5 7710   4.199   1.347  13.948 -0.1063  0.5482  0.9112
  519MPD2     H 7711   3.949   1.098  14.069 -0.8846  0.4275 -3.0824
  519MPD2    H1 7712   4.344   1.212  13.953 -0.0433 -0.2966  0.2101
  519MPD2    H2 7713   4.058   1.492  13.956  2.2247  0.4262 -0.0186
  519MPD2    H3 7714   4.265   1.419  13.901  0.0195 -0.4474 -0.4380
  519MPD2     N 7715   4.195   0.994  14.012 -0.0178  0.0542  0.4476
  519MPD2    H5 7716   4.288   0.975  13.977 -0.8370  1.6497 -2.6676
  519MPD2    N1 7717   3.849   1.347  14.034  0.4349  0.3093 -0.3375
  519MPD2    H7 7718   3.827   1.443  14.009 -0.1388  0.8043  2.1125
  520TMC3    C1 7719   4.174   0.751  14.017 -0.0964  0.0278  0.5279
  520TMC3    C2 7720   4.081   0.651  14.009 -0.4583 -0.5118  0.3797
  520TMC3    C3 7721   4.115   0.521  14.025 -0.2969  0.4727 -0.0157
  520TMC3    C4 7722   4.310   0.722  14.037  0.6920 -0.1454 -0.0683
  520TMC3    C5 7723   4.347   0.585  14.034 -0.8058 -0.1292 -0.3638
  520TMC3    C6 7724   4.247   0.486  14.041  0.0902 -0.4126  0.8965
  520TMC3     C 7725   4.118   0.885  14.052 -0.1551  0.4073  0.2295
  520TMC3     O 7726   4.012   0.882  14.109 -0.0675  0.0503 -0.0408
  520TMC3     H 7727   3.980   0.679  13.979 -1.0439 -1.6150  1.3272
  520TMC3    H1 7728   4.383   0.801  14.040 -1.5028  1.9072 -0.1576
  520TMC3    H2 7729   4.269   0.380  14.042 -3.6238 -1.1961  1.0302
  520TMC3    C7 7730   4.484   0.534  14.022  0.6530 -0.4574 -0.0210
  520TMC3    C8 7731   4.023   0.412  14.000 -0.0026 -0.4545  0.3618
  520TMC3    O1 7732   4.501   0.416  14.043 -0.0724 -0.5264  0.1975
  520TMC3    O2 7733   4.073   0.307  13.962  0.4115 -0.1460 -0.4307
  521MPD2     C 7734   0.373   4.516  17.024  0.8539 -0.2336  0.6637
  521MPD2    C1 7735   0.345   4.404  16.962  0.0780  0.1402 -0.4662
  521MPD2    C2 7736   0.447   4.333  16.897 -0.9346  0.3041  0.1227
  521MPD2    C3 7737   0.583   4.375  16.904 -0.6846 -0.0181  0.1200
  521MPD2    C4 7738   0.617   4.484  16.986 -0.5146 -0.1372 -0.5211
  521MPD2    C5 7739   0.510   4.550  17.037  0.6538  0.1821  0.1602
  521MPD2     H 7740   0.430   4.241  16.841 -2.6696 -0.8345  2.5101
  521MPD2    H1 7741   0.716   4.526  16.998 -0.3365 -0.4799 -0.7651
  521MPD2    H2 7742   0.301   4.558  17.094  0.5188  1.8313 -0.9016
  521MPD2    H3 7743   0.534   4.640  17.094 -1.5041  0.9524 -0.1554
  521MPD2     N 7744   0.669   4.313  16.810 -0.3784 -0.2029 -0.1719
  521MPD2    H5 7745   0.631   4.254  16.738 -0.6791 -1.2363  0.8297
  521MPD2    N1 7746   0.211   4.366  16.974 -0.0084  0.6993 -0.2643
  521MPD2    H7 7747   0.152   4.409  17.044  1.6586 -0.0972  1.6267
  522TMC3    C1 7748   0.865   4.248  16.694 -0.2679 -0.0017  0.0807
  522TMC3    C2 7749   0.970   4.161  16.735  0.0869  0.9309  0.0369
  522TMC3    C3 7750   0.995   4.050  16.656  0.2569  0.3027  0.0026
  522TMC3    C4 7751   0.790   4.228  16.581  0.4368 -0.1756 -0.8367
  522TMC3    C5 7752   0.824   4.120  16.503 -0.7168 -0.7484  0.1697
  522TMC3    C6 7753   0.934   4.041  16.535 -0.3149 -0.6352  0.2678
  522TMC3     C 7754   0.805   4.331  16.795  0.1927 -0.0250  0.6592
  522TMC3     O 7755   0.881   4.365  16.884 -0.3248 -0.4835  0.4258
  522TMC3     H 7756   0.998   4.169  16.840 -1.3572 -1.1509  0.5906
  522TMC3    H1 7757   0.707   4.287  16.542  0.0352 -0.8438 -0.9832
  522TMC3    H2 7758   0.972   3.968  16.464 -0.4682  1.9869 -2.5097
  522TMC3    C7 7759   0.765   4.095  16.378 -0.3836  0.0876 -0.7707
  522TMC3    C8 7760   1.020   3.934  16.733 -0.1791  0.4767  0.2561
  522TMC3    O1 7761   0.837   4.036  16.301 -0.0781 -0.0461  0.2101
  522TMC3    O2 7762   1.057   3.950  16.848 -0.7401 -0.2708  0.2313
  523MPD2     C 7763   3.058   3.749  10.047 -0.0143  0.6329 -0.0954
  523MPD2    C1 7764   2.953   3.697   9.986 -0.1629 -0.0753 -0.6274
  523MPD2    C2 7765   2.851   3.780   9.942  0.7397 -0.2217 -0.9652
  523MPD2    C3 7766   2.859   3.915   9.948 -0.3874 -0.4028 -0.8371
  523MPD2    C4 7767   2.970   3.966  10.012  0.9144  0.9840 -0.2603
  523MPD2    C5 7768   3.066   3.882  10.065  0.0181 -0.1362 -0.4034
  523MPD2     H 7769   2.767   3.739   9.888  0.5924 -0.4763 -0.5433
  523MPD2    H1 7770   2.977   4.071  10.036  0.5625  0.8576  0.4029
  523MPD2    H2 7771   3.140   3.685  10.079  0.6714  0.0829 -2.9428
  523MPD2    H3 7772   3.154   3.916  10.120  0.4984 -4.7465  1.6192
  523MPD2     N 7773   2.769   4.005   9.896 -0.2759  0.5676  0.4920
  523MPD2    H5 7774   2.791   4.104   9.894 -0.8055  0.6738 -0.1948
  523MPD2    N1 7775   2.953   3.555   9.966 -0.1517  0.2747  0.0605
  523MPD2    H7 7776   3.040   3.507   9.986  0.4667  0.0641 -3.0629
  524TMC3    C1 7777   2.606   4.087   9.751 -0.2355  0.1793 -0.1261
  524TMC3    C2 7778   2.512   4.059   9.653 -0.6201 -0.3682  0.1603
  524TMC3    C3 7779   2.439   4.158   9.604  0.2491  0.1475  0.0531
  524TMC3    C4 7780   2.647   4.214   9.778 -0.4622 -0.2369  0.1327
  524TMC3    C5 7781   2.578   4.319   9.719 -0.6553  0.4613  0.5915
  524TMC3    C6 7782   2.468   4.289   9.638  0.0245 -0.0778  0.3173
  524TMC3     C 7783   2.663   3.973   9.818  0.6932  0.5596 -0.5361
  524TMC3     O 7784   2.616   3.866   9.787  0.1254 -0.5450 -0.3554
  524TMC3     H 7785   2.473   3.959   9.662  0.8355 -0.7855  1.8315
  524TMC3    H1 7786   2.727   4.237   9.848  1.3370 -1.6502 -1.4502
  524TMC3    H2 7787   2.388   4.360   9.621 -1.0542 -1.2347  0.5305
  524TMC3    C7 7788   2.607   4.448   9.777 -0.1410  0.1831  0.6058
  524TMC3    C8 7789   2.347   4.132   9.500  0.0042 -0.3861  0.2326
  524TMC3    O1 7790   2.701   4.448   9.850 -0.0556 -0.7985  0.6001
  524TMC3    O2 7791   2.310   4.016   9.491  0.5155  0.0917 -0.2133
  525MPD2     C 7792   0.411   0.684  14.354 -0.0873 -0.3227  0.3462
  525MPD2    C1 7793   0.520   0.752  14.406 -0.0668 -0.4568 -0.2563
  525MPD2    C2 7794   0.564   0.870  14.349 -0.0589 -0.4585 -0.1122
  525MPD2    C3 7795   0.480   0.928  14.254  0.0575  0.1418  0.8149
  525MPD2    C4 7796   0.367   0.870  14.219  0.4374  0.2369 -0.5050
  525MPD2    C5 7797   0.329   0.742  14.260 -0.3640  0.5290 -0.1654
  525MPD2     H 7798   0.660   0.915  14.371 -0.7538  0.4547  1.1046
  525MPD2    H1 7799   0.302   0.925  14.152  0.8829  0.4089 -0.8040
  525MPD2    H2 7800   0.391   0.581  14.384 -0.2373 -0.6828 -1.0186
  525MPD2    H3 7801   0.236   0.695  14.232 -1.4025  0.9863  2.5217
  525MPD2     N 7802   0.500   1.058  14.209 -0.0679 -0.0296  0.4751
  525MPD2    H5 7803   0.426   1.112  14.166 -0.4929 -0.5239  0.5980
  525MPD2    N1 7804   0.607   0.688  14.502  0.1070  0.9265 -0.4583
  525MPD2    H7 7805   0.678   0.755  14.529 -1.3176  2.5105 -0.6303
  526TMC3    C1 7806   0.680   0.531  14.666  0.0704  0.0947 -0.4335
  526TMC3    C2 7807   0.639   0.460  14.777 -1.0438 -0.1780  0.0618
  526TMC3    C3 7808   0.731   0.440  14.879 -0.1655 -0.0517 -0.3447
  526TMC3    C4 7809   0.813   0.560  14.648  0.3421  0.5415 -0.1426
  526TMC3    C5 7810   0.904   0.534  14.747  0.2535  0.0954  0.3117
  526TMC3    C6 7811   0.862   0.496  14.875  0.4019  0.2766  0.2015
  526TMC3     C 7812   0.587   0.567  14.563 -0.1142 -0.6187 -0.0033
  526TMC3     O 7813   0.501   0.479  14.552 -0.5915 -0.1491  0.3218
  526TMC3     H 7814   0.536   0.424  14.776 -0.9511 -0.4448  0.4730
  526TMC3    H1 7815   0.847   0.614  14.561 -1.7348  3.0664  0.5982
  526TMC3    H2 7816   0.938   0.480  14.950  1.3099  1.2651 -0.5069
  526TMC3    C7 7817   1.042   0.546  14.720 -0.0445 -0.2392 -0.1881
  526TMC3    C8 7818   0.680   0.426  15.018 -0.4008 -0.0613  0.2573
  526TMC3    O1 7819   1.114   0.591  14.805 -0.6345 -0.3062 -0.4776
  526TMC3    O2 7820   0.748   0.458  15.113  0.3701 -0.7917 -0.3702
  527MPD2     C 7821   3.655   3.754   1.539 -0.3537  0.0558  0.5546
  527MPD2    C1 7822   3.653   3.616   1.554  0.3796 -0.0182  0.0007
  527MPD2    C2 7823   3.760   3.541   1.502  0.2172 -0.6623  0.1317
  527MPD2    C3 7824   3.862   3.602   1.433  0.0720  0.3169 -0.0231
  527MPD2    C4 7825   3.867   3.741   1.437  0.6761 -0.2013  0.6070
  527MPD2    C5 7826   3.761   3.814   1.475  0.4617  0.9928 -0.3980
  527MPD2     H 7827   3.757   3.434   1.487  2.7426 -0.3918 -2.2108
  527MPD2    H1 7828   3.951   3.791   1.391  0.2246  0.0423  0.0441
  527MPD2    H2 7829   3.577   3.813   1.584 -0.7256 -1.4958  1.9418
  527MPD2    H3 7830   3.787   3.920   1.482  0.3021  1.0606 -0.8653
  527MPD2     N 7831   3.954   3.511   1.367  0.0784  0.2123  1.2962
  527MPD2    H5 7832   3.932   3.412   1.373 -2.5838  0.7212  0.0988
  527MPD2    N1 7833   3.561   3.544   1.631  0.3076 -0.1992  0.4891
  527MPD2    H7 7834   3.581   3.445   1.642  1.3134 -0.2580 -2.0243
  528TMC3    C1 7835   3.370   3.477   1.750 -1.3098 -0.2418  0.9013
  528TMC3    C2 7836   3.237   3.486   1.767  1.3048 -0.4291  0.5755
  528TMC3    C3 7837   3.173   3.404   1.860  0.2742 -0.0531 -0.0102
  528TMC3    C4 7838   3.441   3.389   1.833 -0.1767  0.4895 -0.2140
  528TMC3    C5 7839   3.371   3.306   1.922  0.2436  0.2346  0.2919
  528TMC3    C6 7840   3.241   3.314   1.936  0.1308 -0.1174  0.8811
  528TMC3     C 7841   3.433   3.583   1.674  0.1058 -0.1934 -0.1629
  528TMC3     O 7842   3.374   3.688   1.653  0.2242  0.0556  0.1985
  528TMC3     H 7843   3.181   3.559   1.709  1.9567  1.8651  2.8571
  528TMC3    H1 7844   3.548   3.375   1.830 -0.2282  0.7865 -4.1916
  528TMC3    H2 7845   3.195   3.256   2.015 -1.9886 -2.1433 -1.8803
  528TMC3    C7 7846   3.447   3.207   1.990  0.0649  0.4450  0.5441
  528TMC3    C8 7847   3.028   3.415   1.876 -0.3671  0.0878  0.7717
  528TMC3    O1 7848   3.568   3.216   1.982  0.3226  0.5335 -0.0159
  528TMC3    O2 7849   2.982   3.374   1.985 -0.1097  0.8711  0.4690
  529MPD2     C 7850   0.025   1.922  17.655 -0.3184  0.4115 -0.0638
  529MPD2    C1 7851   0.164   1.913  17.635 -0.1183  1.2929  0.0995
  529MPD2    C2 7852   0.214   1.924  17.508 -0.6000 -0.8769 -0.5955
  529MPD2    C3 7853   0.126   1.957  17.405 -0.8924 -0.0835  0.0250
  529MPD2    C4 7854   4.710   1.948  17.428  0.7759 -0.4543  0.1916
  529MPD2    C5 7855   4.665   1.936  17.554 -0.3629  0.6287 -0.0199
  529MPD2     H 7856   0.320   1.918  17.489 -0.5110 -1.0152 -0.0520
  529MPD2    H1 7857   4.634   1.946  17.350  1.3854  1.1757 -0.4527
  529MPD2    H2 7858   4.706   1.892   0.053  0.8807 -0.1830  0.2972
  529MPD2    H3 7859   4.559   1.919  17.569 -0.3767  1.4796  0.8158
  529MPD2     N 7860   0.172   1.968  17.274 -0.0759 -0.3571  0.2218
  529MPD2    H5 7861   0.093   1.960  17.210 -0.9104 -0.3913  1.2594
  529MPD2    N1 7862   0.257   1.881   0.039 -0.0899  0.5139 -0.4474
  529MPD2    H7 7863   0.354   1.855   0.023 -0.2214  1.2585 -2.4136
  530TMC3    C1 7864   0.345   1.888   0.262 -0.5145  0.3940 -0.1998
  530TMC3    C2 7865   0.335   1.915   0.391 -0.6326  0.6184 -0.4669
  530TMC3    C3 7866   0.434   1.888   0.483  0.2667  0.3524  0.5652
  530TMC3    C4 7867   0.444   1.804   0.224 -0.4768 -0.3186  0.2454
  530TMC3    C5 7868   0.533   1.766   0.314  0.0103 -0.4841 -0.2491
  530TMC3    C6 7869   0.536   1.802   0.452  0.4365  0.5355 -0.6346
  530TMC3     C 7870   0.233   1.906   0.171 -0.0808 -0.1246 -0.1018
  530TMC3     O 7871   0.130   1.954   0.223 -0.0675  0.0515  0.5558
  530TMC3     H 7872   0.253   1.982   0.413 -0.3129  0.3283  1.5443
  530TMC3    H1 7873   0.449   1.764   0.123 -1.7150  0.5320 -0.1479
  530TMC3    H2 7874   0.625   1.791   0.513  0.6445  1.8756 -0.6988
  530TMC3    C7 7875   0.647   1.698   0.252 -0.4246 -0.2861  0.0373
  530TMC3    C8 7876   0.420   1.940   0.615 -0.5092 -0.1863 -0.2902
  530TMC3    O1 7877   0.663   1.714   0.132  0.2062  0.3858  0.3272
  530TMC3    O2 7878   0.344   2.033   0.621  0.1303 -0.3544 -0.3279
  531MPD2     C 7879   0.821   3.275  13.153  0.5007  0.6339 -0.5053
  531MPD2    C1 7880   0.725   3.247  13.249  0.4040  0.6045  0.3784
  531MPD2    C2 7881   0.592   3.232  13.207  0.0873 -0.0961 -0.6555
  531MPD2    C3 7882   0.561   3.233  13.069  0.0372 -0.0710  0.3536
  531MPD2    C4 7883   0.667   3.262  12.972 -0.3456  0.5018 -0.5746
  531MPD2    C5 7884   0.792   3.276  13.012  0.2362 -0.6970  0.5663
  531MPD2     H 7885   0.507   3.229  13.274 -0.0269  2.5828 -0.6680
  531MPD2    H1 7886   0.653   3.267  12.865 -0.1355  2.0011 -0.5387
  531MPD2    H2 7887   0.923   3.300  13.180  0.1233  1.7982 -0.1720
  531MPD2    H3 7888   0.865   3.311  12.939  0.7067 -2.4744  0.1818
  531MPD2     N 7889   0.418   3.212  13.036  0.0352  0.2438 -0.3938
  531MPD2    H5 7890   0.356   3.193  13.115  1.6219 -0.5531  0.6535
  531MPD2    N1 7891   0.759   3.262  13.386  0.5804  0.1992  0.4337
  531MPD2    H7 7892   0.852   3.295  13.410  1.1956 -1.0430 -0.2257
  532TMC3    C1 7893   0.711   3.280  13.623 -0.2119 -0.3498 -0.1611
  532TMC3    C2 7894   0.615   3.365  13.674 -0.6961 -0.3714  0.4423
  532TMC3    C3 7895   0.545   3.327  13.788 -0.8968 -0.1677 -0.3184
  532TMC3    C4 7896   0.738   3.168  13.686 -0.2441  0.1296  0.3080
  532TMC3    C5 7897   0.652   3.121  13.778  0.6988  0.0940  0.0449
  532TMC3    C6 7898   0.559   3.200  13.840 -0.0894 -0.1342 -0.0641
  532TMC3     C 7899   0.668   3.247  13.493  0.0325 -0.2215  0.3537
  532TMC3     O 7900   0.552   3.207  13.490  0.2121  0.1016 -0.1650
  532TMC3     H 7901   0.598   3.458  13.620  1.1190 -1.4345 -1.9301
  532TMC3    H1 7902   0.810   3.103  13.637 -1.0445 -0.9771  0.5971
  532TMC3    H2 7903   0.502   3.173  13.928  1.9959 -0.9335  1.0372
  532TMC3    C7 7904   0.675   2.984  13.824 -0.7023  0.2636  0.0880
  532TMC3    C8 7905   0.408   3.380  13.784 -0.7793  0.4978 -0.0474
  532TMC3    O1 7906   0.794   2.946  13.817 -0.5395  0.2898  0.0097
  532TMC3    O2 7907   0.341   3.405  13.886 -0.5017 -0.0186  0.2447
  533TMC3    C1 7908   0.588   1.268  14.208 -0.1737 -0.3273  0.1413
  533TMC3    C2 7909   0.711   1.341  14.204 -0.2217 -0.5889 -0.7515
  533TMC3    C3 7910   0.716   1.448  14.291 -0.3579 -0.2007  0.3670
  533TMC3    C4 7911   0.483   1.303  14.293 -0.1542 -0.4197  0.9831
  533TMC3    C5 7912   0.499   1.413  14.370 -0.3723  0.3197 -0.4742
  533TMC3    C6 7913   0.617   1.483  14.378 -0.1190 -0.5001 -0.4794
  533TMC3     C 7914   0.618   1.131  14.212 -0.7383 -0.2741  0.3412
  533TMC3     O 7915   0.737   1.096  14.223  0.1697 -0.0670  0.1599
  533TMC3     H 7916   0.799   1.307  14.151 -0.2785 -1.0815 -0.5302
  533TMC3    H1 7917   0.387   1.252  14.291 -1.0279  1.3024 -1.4876
  533TMC3    H2 7918   0.627   1.569  14.444  1.3750  0.8649 -2.5024
  533TMC3    C7 7919   0.438   1.383  14.499  0.2115 -0.4612 -0.0054
  533TMC3    C8 7920   0.828   1.538  14.280 -1.2103 -0.4868  0.1854
  533TMC3    O1 7921   0.372   1.280  14.518  0.3134 -0.1151  0.2130
  533TMC3    O2 7922   0.845   1.607  14.378 -0.5134 -0.7954 -0.1486
  534MPD2     C 7923   3.054   2.410   1.988  0.0016  0.8139  0.5164
  534MPD2    C1 7924   3.100   2.477   1.870  0.0274 -0.3652  0.9449
  534MPD2    C2 7925   3.029   2.452   1.754  0.1483  0.3694 -0.1657
  534MPD2    C3 7926   2.904   2.391   1.754  0.0072  0.5790 -0.1687
  534MPD2    C4 7927   2.861   2.326   1.868  0.5062 -0.1314  0.0127
  534MPD2    C5 7928   2.935   2.337   1.983 -0.0818 -0.5060  0.2834
  534MPD2     H 7929   3.074   2.492   1.664 -2.5456 -0.7311 -1.9761
  534MPD2    H1 7930   2.767   2.272   1.868 -0.5362  1.6800  0.9025
  534MPD2    H2 7931   3.103   2.412   2.085 -0.5360  3.4408  0.7238
  534MPD2    H3 7932   2.906   2.281   2.071  2.1750 -0.3210  1.1293
  534MPD2     N 7933   2.820   2.385   1.635 -1.3884  0.0993 -0.5829
  534MPD2    H5 7934   2.735   2.330   1.639 -0.6430 -1.0235 -0.1933
  534MPD2    N1 7935   3.211   2.564   1.869 -0.4086 -0.0270 -0.1314
  534MPD2    H7 7936   3.246   2.597   1.780 -1.9166 -0.1594 -0.7791
  535TMC3    C1 7937   2.761   2.369   1.417  0.3527 -0.5735 -0.0937
  535TMC3    C2 7938   2.625   2.367   1.449  0.3067  0.2871 -0.7880
  535TMC3    C3 7939   2.534   2.349   1.343 -0.1854  0.2537  0.5536
  535TMC3    C4 7940   2.806   2.353   1.289 -0.8453 -0.1013  0.1937
  535TMC3    C5 7941   2.709   2.354   1.188  0.0665 -0.0273 -0.4730
  535TMC3    C6 7942   2.572   2.343   1.212 -0.8088 -0.0266 -0.9092
  535TMC3     C 7943   2.859   2.416   1.509  0.4781 -0.7983  0.3968
  535TMC3     O 7944   2.968   2.450   1.465  0.3604  0.0186  0.1204
  535TMC3     H 7945   2.593   2.383   1.551  1.3139  2.0188 -0.7432
  535TMC3    H1 7946   2.909   2.360   1.257 -0.4942  1.0422  1.5313
  535TMC3    H2 7947   2.503   2.335   1.128 -0.4461 -1.6743 -1.0420
  535TMC3    C7 7948   2.759   2.354   1.051  0.6355 -0.0531 -0.1671
  535TMC3    C8 7949   2.390   2.348   1.367  1.0452  0.6885 -0.1739
  535TMC3    O1 7950   2.875   2.311   1.035  0.0614  0.3444  0.0768
  535TMC3    O2 7951   2.322   2.310   1.277  0.0026  0.4327 -0.6009
  536MPD2     C 7952   2.265   0.566  16.231  0.2669  0.8817 -0.4085
  536MPD2    C1 7953   2.186   0.461  16.262 -0.0834 -0.4864  0.1589
  536MPD2    C2 7954   2.139   0.382  16.157 -0.0842 -0.4704  1.0455
  536MPD2    C3 7955   2.166   0.413  16.026  0.3927 -0.4489  0.0372
  536MPD2    C4 7956   2.251   0.519  16.005 -0.2695 -0.4688 -0.0448
  536MPD2    C5 7957   2.299   0.596  16.107  0.2692  0.2639 -0.3992
  536MPD2     H 7958   2.082   0.294  16.184  0.6245 -0.7730  1.5491
  536MPD2    H1 7959   2.272   0.550  15.903  0.6204 -0.9488 -0.0035
  536MPD2    H2 7960   2.286   0.627  16.318  3.7885 -0.4473 -0.3371
  536MPD2    H3 7961   2.353   0.687  16.084 -0.7371  1.3141  1.3995
  536MPD2     N 7962   2.112   0.355  15.912  0.7940 -0.7548  0.4645
  536MPD2    H5 7963   2.151   0.383  15.822  2.1425  2.0938  1.9302
  536MPD2    N1 7964   2.154   0.437  16.402 -0.2191 -0.2996  0.4099
  536MPD2    H7 7965   2.170   0.510  16.470  0.7811  1.5798 -1.8251
  537TMC3    C1 7966   2.111   0.316  16.599 -0.4165 -0.4742 -0.3718
  537TMC3    C2 7967   2.139   0.422  16.681  0.5126 -0.2152 -0.0207
  537TMC3    C3 7968   2.133   0.395  16.818 -0.1428 -0.2363 -0.7068
  537TMC3    C4 7969   2.064   0.193  16.650  0.5529  0.3384 -0.4254
  537TMC3    C5 7970   2.056   0.178  16.784 -0.6103  0.1156  0.7650
  537TMC3    C6 7971   2.088   0.276  16.870  0.8535  0.1164 -0.8842
  537TMC3     C 7972   2.093   0.320  16.447  0.2784  0.0767  1.1109
  537TMC3     O 7973   2.062   0.215  16.392 -0.2584  0.5130  0.2321
  537TMC3     H 7974   2.187   0.516  16.654 -0.8465 -0.2108 -2.4181
  537TMC3    H1 7975   2.009   0.124  16.588 -1.4272  1.6708 -0.1568
  537TMC3    H2 7976   2.065   0.271  16.975 -2.2701 -4.0712 -1.7625
  537TMC3    C7 7977   1.972   0.067  16.831 -0.3658 -0.5059 -0.1122
  537TMC3    C8 7978   2.180   0.484  16.920  0.2114  0.5647 -0.3633
  537TMC3    O1 7979   1.906   0.012  16.742  0.3188 -1.2495  0.2924
  537TMC3    O2 7980   2.229   0.430  17.022 -0.7272  0.5143  0.2281
  538TMC3    C1 7981   3.514   3.184  10.900 -0.3572  0.2697 -0.0016
  538TMC3    C2 7982   3.587   3.091  10.834 -0.5479  0.2821 -0.3300
  538TMC3    C3 7983   3.561   3.074  10.698 -0.4701  0.2025 -0.1300
  538TMC3    C4 7984   3.420   3.261  10.837  0.1990  0.2465  0.8948
  538TMC3    C5 7985   3.393   3.240  10.699 -0.3853 -0.2013 -0.1903
  538TMC3    C6 7986   3.468   3.147  10.631  0.1342  0.5722  0.2390
  538TMC3     C 7987   3.533   3.207  11.040 -0.0570  0.1343 -0.0842
  538TMC3     O 7988   3.445   3.264  11.100  0.0261  0.0997  0.1025
  538TMC3     H 7989   3.669   3.032  10.875 -1.7110 -0.4202  1.0004
  538TMC3    H1 7990   3.377   3.342  10.895 -2.0562 -1.4353  1.5755
  538TMC3    H2 7991   3.461   3.137  10.523 -0.1830  2.3818  0.0881
  538TMC3    C7 7992   3.325   3.355  10.635 -0.1850  0.1357  0.3582
  538TMC3    C8 7993   3.674   3.016  10.635 -0.8858  0.4068 -0.6199
  538TMC3    O1 7994   3.282   3.331  10.524  0.2315  0.1127  0.2863
  538TMC3    O2 7995   3.724   2.910  10.681 -0.1408  0.7922  0.5865
  539MPD2     C 7996   3.258   2.581  11.632 -1.0905 -0.2564  0.2152
  539MPD2    C1 7997   3.213   2.622  11.512 -0.0725 -0.5106  0.2686
  539MPD2    C2 7998   3.221   2.755  11.486 -0.7555 -0.2073 -0.0545
  539MPD2    C3 7999   3.268   2.848  11.580  0.5451 -0.5346  0.5229
  539MPD2    C4 8000   3.303   2.803  11.699  0.0763  0.0312  0.2144
  539MPD2    C5 8001   3.299   2.667  11.725  0.1673  0.1059  0.4986
  539MPD2     H 8002   3.192   2.792  11.389  2.0043  0.6848 -0.5384
  539MPD2    H1 8003   3.339   2.872  11.776 -0.9839 -1.9898  2.5099
  539MPD2    H2 8004   3.263   2.475  11.655 -0.5762 -0.2979 -0.0832
  539MPD2    H3 8005   3.331   2.634  11.823 -0.7931  0.8474  1.0525
  539MPD2     N 8006   3.282   2.982  11.555 -0.1880  0.1944 -0.0257
  539MPD2    H5 8007   3.299   3.045  11.633 -1.6023  0.0917  0.3683
  539MPD2    N1 8008   3.174   2.519  11.422  0.8577 -0.5019  0.0438
  539MPD2    H7 8009   3.173   2.426  11.463  1.8019 -0.9219 -0.8749
  540TMC3    C1 8010   3.258   3.183  11.441  0.2162  0.0934  0.4049
  540TMC3    C2 8011   3.236   3.251  11.326 -0.2140 -0.4578  0.4263
  540TMC3    C3 8012   3.200   3.384  11.324  0.5421 -0.1441 -0.4862
  540TMC3    C4 8013   3.229   3.252  11.557  0.0376  0.5015  0.0381
  540TMC3    C5 8014   3.181   3.381  11.548  0.2646  0.1253 -0.1047
  540TMC3    C6 8015   3.177   3.452  11.438 -0.1607 -0.3512 -0.1850
  540TMC3     C 8016   3.277   3.040  11.432 -0.1511  0.1194  0.5888
  540TMC3     O 8017   3.320   3.000  11.323  0.0502  0.0542  0.5243
  540TMC3     H 8018   3.268   3.200  11.236 -1.2938 -0.2265 -0.0910
  540TMC3    H1 8019   3.223   3.197  11.650 -0.4090 -1.2547 -1.0167
  540TMC3    H2 8020   3.129   3.550  11.434  2.7273  0.9745 -2.3397
  540TMC3    C7 8021   3.093   3.425  11.652 -0.0071 -0.1218 -0.3118
  540TMC3    C8 8022   3.178   3.458  11.198 -0.6202 -0.0702  0.1383
  540TMC3    O1 8023   2.984   3.477  11.621  0.4821  0.3745  0.2168
  540TMC3    O2 8024   3.165   3.580  11.208  0.5818 -0.0710  0.4349
  541MPD2     C 8025   1.214   4.507  12.916 -0.0258  0.6029  0.1694
  541MPD2    C1 8026   1.262   4.385  12.862  0.9186  0.2743 -0.6009
  541MPD2    C2 8027   1.261   4.358  12.728  0.4674  0.2074  0.6681
  541MPD2    C3 8028   1.203   4.453  12.647  0.2580 -0.0740 -0.2594
  541MPD2    C4 8029   1.156   4.575  12.699  0.4894  0.6084 -0.2970
  541MPD2    C5 8030   1.164   4.602  12.829  0.6489  1.1640  0.1787
  541MPD2     H 8031   1.303   4.262  12.700  0.4738  0.1743  0.7901
  541MPD2    H1 8032   1.127   4.653  12.630 -1.4897  0.3371  0.2392
  541MPD2    H2 8033   1.211   4.530  13.022  0.0032  2.0690 -0.1422
  541MPD2    H3 8034   1.147   4.705  12.860 -0.5571  1.3723 -1.1579
  541MPD2     N 8035   1.189   4.443  12.509 -0.7180  0.0827 -0.5708
  541MPD2    H5 8036   1.128   4.507  12.460 -0.6797  1.2113  0.8676
  541MPD2    N1 8037   1.299   4.284  12.950 -0.0832 -0.1720 -0.3627
  541MPD2    H7 8038   1.348   4.209  12.903  0.3844  1.7983 -3.0625
  542TMC3    C1 8039   1.198   4.339  12.302  0.6617 -0.0266  0.0085
  542TMC3    C2 8040   1.282   4.300  12.199 -0.7096 -0.4153  0.2967
  542TMC3    C3 8041   1.232   4.295  12.072 -0.3402 -0.1057 -0.7495
  542TMC3    C4 8042   1.063   4.362  12.272  0.0468  0.6141 -0.0074
  542TMC3    C5 8043   1.023   4.364  12.143  0.2660  0.4788  0.2487
  542TMC3    C6 8044   1.107   4.327  12.045 -0.4262 -0.2583  0.3745
  542TMC3     C 8045   1.246   4.337  12.437 -0.3864 -0.0215 -0.4486
  542TMC3     O 8046   1.355   4.283  12.454  0.4757  0.3956  0.5082
  542TMC3     H 8047   1.388   4.280  12.214  0.2262  1.9225 -3.3880
  542TMC3    H1 8048   0.998   4.380  12.357 -1.3963 -2.4783 -0.4440
  542TMC3    H2 8049   1.081   4.317  11.941  2.1353 -2.2809 -0.0583
  542TMC3    C7 8050   0.903   4.431  12.089  0.1260 -0.9138 -0.3614
  542TMC3    C8 8051   1.316   4.257  11.957 -0.3652  0.2291  0.5590
  542TMC3    O1 8052   0.885   4.421  11.970  0.0547 -0.1988  0.0859
  542TMC3    O2 8053   1.261   4.190  11.873 -0.3600  0.0904  0.0449
  543TMC3    C1 8054   0.643   0.985  16.983 -0.4159  0.1931  0.2193
  543TMC3    C2 8055   0.658   0.867  17.048 -0.8811 -0.2232  0.2733
  543TMC3    C3 8056   0.599   0.845  17.166  0.6194 -0.2329 -0.2429
  543TMC3    C4 8057   0.574   1.088  17.039 -0.6021 -0.8272 -0.4142
  543TMC3    C5 8058   0.525   1.064  17.168 -0.1188 -0.3284 -0.2738
  543TMC3    C6 8059   0.531   0.946  17.234  0.3725  0.0239  1.3320
  543TMC3     C 8060   0.649   0.987  16.842 -0.0321  0.6743  0.2781
  543TMC3     O 8061   0.588   1.074  16.781 -0.0745  0.2368 -0.2511
  543TMC3     H 8062   0.720   0.785  17.015  1.3253  1.2100  0.8818
  543TMC3    H1 8063   0.549   1.181  16.990 -1.8649 -1.2107 -0.5208
  543TMC3    H2 8064   0.510   0.939  17.340  0.4746 -0.5010  1.3144
  543TMC3    C7 8065   0.450   1.170  17.225 -0.4566 -0.5257 -0.1320
  543TMC3    C8 8066   0.593   0.710  17.217 -0.2455 -0.5339  0.6804
  543TMC3    O1 8067   0.369   1.136  17.305  0.2132  0.3218 -0.0893
  543TMC3    O2 8068   0.641   0.619  17.150  0.4422  0.1076  1.1102
  544MPD2     C 8069   0.420   0.366  17.566  0.1966 -0.5866 -0.1734
  544MPD2    C1 8070   0.533   0.355  17.481 -0.6316 -0.5332  0.3932
  544MPD2    C2 8071   0.560   0.463  17.397  0.1178 -0.0164 -0.2526
  544MPD2    C3 8072   0.488   0.579  17.405 -0.8789 -0.0054  1.0333
  544MPD2    C4 8073   0.391   0.590  17.503  0.0762 -0.6440 -0.3406
  544MPD2    C5 8074   0.352   0.480  17.576  0.2357  0.4674  0.8472
  544MPD2     H 8075   0.641   0.447  17.327 -0.9132 -0.6579 -1.2912
  544MPD2    H1 8076   0.319   0.670  17.516  2.0513  1.5687 -2.9254
  544MPD2    H2 8077   0.391   0.284  17.630  0.8846  0.4909  1.4948
  544MPD2    H3 8078   0.273   0.477  17.650  2.0231 -2.3171  2.6436
  544MPD2     N 8079   0.507   0.692  17.322 -0.0062 -0.1252  0.2283
  544MPD2    H5 8080   0.455   0.774  17.349 -0.2610  0.1766 -1.1667
  544MPD2    N1 8081   0.587   0.229  17.473  0.0897  0.4298 -0.5448
  544MPD2    H7 8082   0.547   0.154  17.528  0.2290 -1.5079 -3.0920
  545TMC3    C1 8083   0.711   0.054  17.364  0.6964  0.6915 -0.9099
  545TMC3    C2 8084   0.610   4.683  17.381 -0.5338 -0.2604  0.8700
  545TMC3    C3 8085   0.638   4.550  17.355 -0.2932 -0.7826  0.0956
  545TMC3    C4 8086   0.837   0.008  17.328  0.2344  0.4995 -0.2830
  545TMC3    C5 8087   0.854   4.596  17.318  0.3986  0.2803 -0.5884
  545TMC3    C6 8088   0.759   4.504  17.324 -0.0730 -0.9192  0.4897
  545TMC3     C 8089   0.689   0.197  17.379 -0.2290  0.2952 -0.0700
  545TMC3     O 8090   0.758   0.258  17.300 -0.0282  0.3600  0.2192
  545TMC3     H 8091   0.510   4.719  17.401 -0.0711  1.2681  0.4530
  545TMC3    H1 8092   0.922   0.075  17.333  1.6778 -1.3067 -0.3811
  545TMC3    H2 8093   0.788   4.399  17.321 -1.3619 -1.3127  1.8017
  545TMC3    C7 8094   0.984   4.549  17.368 -0.5449 -0.2079 -0.1861
  545TMC3    C8 8095   0.533   4.451  17.381 -0.1399  0.2956  0.1754
  545TMC3    O1 8096   0.989   4.452  17.441  0.0570  0.3407  0.4558
  545TMC3    O2 8097   0.564   4.331  17.394  0.0404 -0.0242 -0.3114
  546MPD2     C 8098   1.992   0.680   0.052  0.1195  0.3201 -0.7138
  546MPD2    C1 8099   2.012   0.709  17.619 -0.7623 -0.1056 -0.3587
  546MPD2    C2 8100   2.048   0.839  17.580  0.0689  0.3037  0.0881
  546MPD2    C3 8101   2.053   0.944  17.675  0.7754 -0.1726 -0.0589
  546MPD2    C4 8102   2.011   0.913   0.102  0.1891 -0.7723 -0.5724
  546MPD2    C5 8103   1.989   0.783   0.142 -0.3421 -0.4732 -0.8721
  546MPD2     H 8104   2.071   0.857  17.476 -0.2003 -2.6529 -0.4914
  546MPD2    H1 8105   2.006   0.994   0.174  0.8045 -0.0521 -1.3371
  546MPD2    H2 8106   1.974   0.578   0.082  1.3114  0.1606 -0.5246
  546MPD2    H3 8107   1.961   0.760   0.244 -2.8988 -0.8823 -1.6700
  546MPD2     N 8108   2.101   1.069  17.649  0.3119 -0.3541  0.6048
  546MPD2    H5 8109   2.089   1.135   0.029 -2.1009  1.5385 -1.4022
  546MPD2    N1 8110   1.992   0.604  17.532 -0.1968  0.5171  0.1820
  546MPD2    H7 8111   1.992   0.510  17.571 -1.5704  0.0763 -0.8608
  547TMC3    C1 8112   1.957   0.499  17.321  0.6564 -0.5993 -0.3607
  547TMC3    C2 8113   1.917   0.515  17.190 -0.1964 -0.4923  0.4600
  547TMC3    C3 8114   1.868   0.413  17.122  1.3352  0.0958 -0.0992
  547TMC3    C4 8115   1.952   0.377  17.381  0.6479 -0.1266 -0.9614
  547TMC3    C5 8116   1.890   0.275  17.311 -0.7462 -0.1924 -0.0466
  547TMC3    C6 8117   1.842   0.294  17.181 -0.0304 -0.0342 -0.7565
  547TMC3     C 8118   1.982   0.628  17.392 -0.1652  0.8151 -0.9724
  547TMC3     O 8119   1.950   0.725  17.322  0.5032 -0.1902  0.2404
  547TMC3     H 8120   1.946   0.608  17.141 -0.1166 -0.4601  0.5667
  547TMC3    H1 8121   1.975   0.357  17.485 -1.0414  1.5465 -0.2703
  547TMC3    H2 8122   1.787   0.211  17.136  0.4390 -0.7283 -0.0514
  547TMC3    C7 8123   1.812   0.190  17.402  0.0288 -0.4513 -0.0941
  547TMC3    C8 8124   1.769   0.443  17.019  0.6493  0.2680  0.5060
  547TMC3    O1 8125   1.693   0.181  17.381 -0.0440  0.1868 -0.0771
  547TMC3    O2 8126   1.705   0.355  16.961  1.4860 -0.6331 -0.5298
  548MPD2     C 8127   1.869   1.412  11.938  0.6087  1.0494 -0.0538
  548MPD2    C1 8128   1.873   1.329  12.054 -0.0582  0.1032 -0.1996
  548MPD2    C2 8129   1.976   1.234  12.057  0.1503  0.6279 -0.7034
  548MPD2    C3 8130   2.063   1.216  11.959  0.5152 -0.3493  0.1938
  548MPD2    C4 8131   2.054   1.288  11.845 -0.0391 -0.1896 -0.9508
  548MPD2    C5 8132   1.968   1.394  11.848  0.4217  0.5148  0.6320
  548MPD2     H 8133   1.996   1.173  12.144  1.5441  2.5345  0.3097
  548MPD2    H1 8134   2.118   1.294  11.757 -0.2801  0.7452 -1.0662
  548MPD2    H2 8135   1.801   1.493  11.915 -0.7113 -0.7474 -2.4055
  548MPD2    H3 8136   1.967   1.455  11.758 -1.8130  1.6463  1.4304
  548MPD2     N 8137   2.168   1.121  11.977  0.1085 -0.4780  0.2684
  548MPD2    H5 8138   2.168   1.080  12.070 -0.1648  1.0468  0.9398
  548MPD2    N1 8139   1.799   1.364  12.161  0.0191  0.6015 -0.1306
  548MPD2    H7 8140   1.737   1.442  12.141  0.2611  0.3429 -1.8999
  549TMC3    C1 8141   1.732   1.380  12.386  0.1405 -0.6658  0.3298
  549TMC3    C2 8142   1.681   1.507  12.358 -0.0441 -0.5806  0.1934
  549TMC3    C3 8143   1.601   1.560  12.459  0.0148  0.8869  0.6974
  549TMC3    C4 8144   1.700   1.308  12.508 -0.5776  0.0500  0.2157
  549TMC3    C5 8145   1.619   1.376  12.598 -0.2027  0.0034 -0.2282
  549TMC3    C6 8146   1.566   1.500  12.571  0.8183  0.0535  0.4609
  549TMC3     C 8147   1.805   1.304  12.288  0.3659  0.6061 -0.4009
  549TMC3     O 8148   1.877   1.213  12.331  0.2239 -0.5016 -0.5468
  549TMC3     H 8149   1.714   1.569  12.275  1.6800 -3.5178 -1.2736
  549TMC3    H1 8150   1.735   1.206  12.520 -0.6562 -0.0269 -0.2000
  549TMC3    H2 8151   1.488   1.555  12.623 -0.2918  0.0542 -1.2104
  549TMC3    C7 8152   1.536   1.303  12.679  0.5520  0.1218  0.4972
  549TMC3    C8 8153   1.502   1.656  12.416 -0.3678 -0.1145 -0.4636
  549TMC3    O1 8154   1.418   1.334  12.672 -0.4861  0.0970 -0.4779
  549TMC3    O2 8155   1.387   1.610  12.399  0.2143  0.2850  0.0884
  550TMC3    C1 8156   0.507   4.275  12.055 -0.2437  0.1324  0.5003
  550TMC3    C2 8157   0.409   4.322  12.143 -0.0741 -0.0257 -0.0977
  550TMC3    C3 8158   0.317   4.415  12.097 -0.0737  0.8346  0.3486
  550TMC3    C4 8159   0.507   4.328  11.924 -0.1398 -0.2174  0.2562
  550TMC3    C5 8160   0.400   4.405  11.882 -0.7080  0.5165 -0.2331
  550TMC3    C6 8161   0.305   4.452  11.969  0.1222 -0.1196  0.4071
  550TMC3     C 8162   0.570   4.155  12.096  0.1925  0.1588 -0.1660
  550TMC3     O 8163   0.568   4.121  12.216  0.0735  0.0673  0.5005
  550TMC3     H 8164   0.406   4.288  12.246 -0.8687  2.8065  0.8017
  550TMC3    H1 8165   0.590   4.311  11.856 -0.8991 -4.1214  0.3300
  550TMC3    H2 8166   0.234   4.528  11.937  0.9859  0.1188 -0.9761
  550TMC3    C7 8167   0.346   4.354  11.759  0.0781 -0.7156  0.6932
  550TMC3    C8 8168   0.229   4.474  12.197  0.2216  0.3726  0.0564
  550TMC3    O1 8169   0.224   4.351  11.755  0.0649  0.3111  0.0547
  550TMC3    O2 8170   0.279   4.505  12.304  0.2344 -0.3827 -0.3577
  551TMC3    C1 8171   3.194   2.497  13.526 -0.3100  0.0767  0.1891
  551TMC3    C2 8172   3.193   2.627  13.479 -0.0393 -0.2586 -0.0229
  551TMC3    C3 8173   3.294   2.699  13.531 -0.7345 -0.3193 -0.4095
  551TMC3    C4 8174   3.278   2.446  13.616  0.3787  0.3094 -0.1365
  551TMC3    C5 8175   3.375   2.521  13.667  0.0554  0.0260 -0.3345
  551TMC3    C6 8176   3.375   2.651  13.637 -0.4654 -0.7817 -0.0944
  551TMC3     C 8177   3.091   2.402  13.470 -0.1903  0.5204  0.3533
  551TMC3     O 8178   3.121   2.284  13.462 -0.4023  0.7599 -0.1074
  551TMC3     H 8179   3.126   2.659  13.401 -1.2135 -0.7180  0.8006
  551TMC3    H1 8180   3.259   2.351  13.664  0.8974 -0.7922 -2.1151
  551TMC3    H2 8181   3.454   2.716  13.670  0.0049 -1.0467 -0.6876
  551TMC3    C7 8182   3.411   2.486  13.797 -0.3567  0.9580  0.0212
  551TMC3    C8 8183   3.321   2.830  13.489  0.1685  0.4587 -0.0496
  551TMC3    O1 8184   3.387   2.564  13.887 -0.2258 -0.5128 -0.6618
  551TMC3    O2 8185   3.406   2.888  13.552  0.3470 -0.1064  0.5190
  552MPD2     C 8186   4.609   3.837  13.881  0.1753  0.3374  0.8247
  552MPD2    C1 8187   4.684   3.727  13.916  0.1536 -0.4886  0.2366
  552MPD2    C2 8188   0.097   3.742  13.958  0.3253  0.3358  0.0841
  552MPD2    C3 8189   0.154   3.868  13.944  0.2388 -0.0290 -0.5851
  552MPD2    C4 8190   0.068   3.973  13.915 -0.1276 -0.0343 -0.4816
  552MPD2    C5 8191   4.661   3.957  13.873  0.9049  0.1045 -0.3466
  552MPD2     H 8192   0.150   3.654  13.991 -2.3557 -1.8214 -1.3671
  552MPD2    H1 8193   0.104   4.075  13.922  0.4934 -0.2452 -0.6739
  552MPD2    H2 8194   4.503   3.829  13.860  0.3339  0.0559  0.1231
  552MPD2    H3 8195   4.599   4.041  13.846 -1.1530 -0.4907  2.5682
  552MPD2     N 8196   0.285   3.896  13.999 -0.0903 -0.4127 -0.5260
  552MPD2    H5 8197   0.300   3.994  14.019  2.1875 -1.0517  0.9532
  552MPD2    N1 8198   4.630   3.603  13.941 -0.1853 -0.3769  0.2590
  552MPD2    H7 8199   4.700   3.534  13.962 -0.7781 -0.6819  1.2292
  553TMC3    C1 8200   4.494   3.429  14.018 -0.1254  0.4659 -0.6304
  553TMC3    C2 8201   4.409   3.333  13.973 -0.0330 -0.4195 -0.6515
  553TMC3    C3 8202   4.397   3.226  14.053  0.0601 -0.2113  0.0328
  553TMC3    C4 8203   4.584   3.417  14.122 -0.3606 -0.3468  0.3227
  553TMC3    C5 8204   4.564   3.304  14.197  0.2020  0.3515  0.1384
  553TMC3    C6 8205   4.475   3.211  14.168 -0.0261 -0.1702 -0.6191
  553TMC3     C 8206   4.500   3.565  13.942 -0.5591  0.1294  0.3792
  553TMC3     O 8207   4.396   3.622  13.906 -0.2709 -0.6009  0.1319
  553TMC3     H 8208   4.354   3.348  13.881 -0.3783  0.6664 -0.2704
  553TMC3    H1 8209   4.657   3.493  14.148 -0.5738 -0.2695  0.6939
  553TMC3    H2 8210   4.483   3.117  14.221  1.3579  0.1208 -0.3226
  553TMC3    C7 8211   4.671   3.275  14.291 -0.3512 -0.2723 -0.2269
  553TMC3    C8 8212   4.358   3.098  14.004  0.0693 -0.3586  0.0438
  553TMC3    O1 8213   4.653   3.220  14.399  0.3018  0.2120  0.8503
  553TMC3    O2 8214   4.311   3.024  14.090  0.6777 -0.5925 -0.8764
  554TMC3    C1 8215   2.553   2.911  11.370  0.3934  0.4850  0.6313
  554TMC3    C2 8216   2.482   2.822  11.293 -0.3221  0.0374  0.0966
  554TMC3    C3 8217   2.508   2.817  11.152  0.0457  0.0847 -0.0180
  554TMC3    C4 8218   2.622   3.017  11.303  0.2284 -0.2599  0.0495
  554TMC3    C5 8219   2.654   2.999  11.171  0.0892  0.5004  0.2741
  554TMC3    C6 8220   2.601   2.895  11.093  0.4027  0.4084 -0.0594
  554TMC3     C 8221   2.609   2.868  11.499 -0.2391  0.1817 -0.0781
  554TMC3     O 8222   2.696   2.938  11.541 -0.4737  0.1224  0.1345
  554TMC3     H 8223   2.420   2.752  11.347  0.4253 -1.1913 -0.6394
  554TMC3    H1 8224   2.666   3.100  11.356  0.6900  1.3524 -2.8655
  554TMC3    H2 8225   2.619   2.881  10.988 -0.0908  2.2817 -0.3957
  554TMC3    C7 8226   2.694   3.112  11.082  0.6892 -0.0776 -0.1606
  554TMC3    C8 8227   2.409   2.755  11.057 -0.7894  0.0367  0.0704
  554TMC3    O1 8228   2.714   3.100  10.961  0.5587  0.1374  0.2551
  554TMC3    O2 8229   2.403   2.801  10.943  0.3411 -0.4432  0.1088
  555TMC3    C1 8230   1.041   2.596  14.990  0.2943  0.3420  0.6992
  555TMC3    C2 8231   1.120   2.679  15.064  0.2517 -0.5686 -0.5451
  555TMC3    C3 8232   1.210   2.626  15.155 -0.7250  0.2233  0.0508
  555TMC3    C4 8233   1.046   2.457  15.007  0.5267  0.8772  0.1227
  555TMC3    C5 8234   1.129   2.410  15.109  0.2156 -0.5080  0.4587
  555TMC3    C6 8235   1.206   2.492  15.179 -0.0670 -0.3891 -0.8548
  555TMC3     C 8236   0.958   2.655  14.892 -0.1338  0.3338 -0.4157
  555TMC3     O 8237   0.987   2.767  14.850  0.0033 -0.5203 -0.1656
  555TMC3     H 8238   1.125   2.787  15.065 -0.2236 -0.5715  1.3174
  555TMC3    H1 8239   0.979   2.395  14.948  0.8244 -0.0863  0.8177
  555TMC3    H2 8240   1.257   2.458  15.269 -0.7845  1.2922  0.1834
  555TMC3    C7 8241   1.097   2.291  15.177  0.8593 -0.3795 -0.0838
  555TMC3    C8 8242   1.226   2.707  15.274 -0.1247  0.0579  0.0255
  555TMC3    O1 8243   0.981   2.272  15.211 -0.6185  0.2587 -0.1717
  555TMC3    O2 8244   1.142   2.796  15.287 -0.2638 -0.7412  0.1169
  556MPD2     C 8245   3.995   3.681  11.292  0.7628  0.1878 -0.4889
  556MPD2    C1 8246   3.909   3.739  11.196  0.5414 -0.0352 -0.4989
  556MPD2    C2 8247   3.958   3.763  11.065  0.0293  0.1894 -0.2533
  556MPD2    C3 8248   4.093   3.732  11.037 -0.1878  0.5445 -0.3824
  556MPD2    C4 8249   4.168   3.668  11.137  0.0984  0.3895 -0.2295
  556MPD2    C5 8250   4.121   3.653  11.265  0.2777 -0.6963 -0.7255
  556MPD2     H 8251   3.889   3.796  10.989 -0.7846  1.5604  1.0856
  556MPD2    H1 8252   4.265   3.625  11.113  0.0595  1.2965 -2.0630
  556MPD2    H2 8253   3.966   3.669  11.396  4.7832  2.0915  0.8335
  556MPD2    H3 8254   4.185   3.617  11.345  0.1821  2.5475  0.8213
  556MPD2     N 8255   4.131   3.759  10.904 -0.2650  0.0326 -0.6538
  556MPD2    H5 8256   4.064   3.802  10.841  0.7096  2.2443 -0.1838
  556MPD2    N1 8257   3.774   3.774  11.234 -0.3563  0.3840  0.6559
  556MPD2    H7 8258   3.723   3.841  11.178  1.1411  1.2658  0.3534
  557TMC3    C1 8259   4.250   3.707  10.712  0.2920  0.2271 -0.3912
  557TMC3    C2 8260   4.169   3.799  10.648 -0.2994  0.2452 -0.4654
  557TMC3    C3 8261   4.123   3.754  10.527 -0.4577 -0.0805 -0.6329
  557TMC3    C4 8262   4.304   3.599  10.644  0.3504 -0.7911  0.0097
  557TMC3    C5 8263   4.255   3.564  10.521  0.2013  0.8945  0.1518
  557TMC3    C6 8264   4.152   3.639  10.463 -0.0535  0.5869  0.7173
  557TMC3     C 8265   4.241   3.696  10.851 -0.5142 -0.3657 -0.2012
  557TMC3     O 8266   4.333   3.629  10.899 -0.5756  0.5913  0.1026
  557TMC3     H 8267   4.135   3.887  10.702 -1.2797 -2.2696  3.0270
  557TMC3    H1 8268   4.350   3.517  10.698  1.0199  0.2467  1.0259
  557TMC3    H2 8269   4.118   3.599  10.368 -2.1258 -0.3168  1.8583
  557TMC3    C7 8270   4.246   3.416  10.494  0.1435 -0.2339  0.1605
  557TMC3    C8 8271   4.031   3.845  10.470  0.1872 -0.5152 -1.1472
  557TMC3    O1 8272   4.344   3.346  10.515  0.2382 -0.0658  0.2759
  557TMC3    O2 8273   4.014   3.951  10.527 -0.2274  0.6226  0.2071
  558TMC3    C1 8274   1.465   1.844  10.267  0.2118 -0.2113  0.6004
  558TMC3    C2 8275   1.434   1.804  10.392 -0.2516  0.8648 -0.1917
  558TMC3    C3 8276   1.317   1.742  10.414 -0.4827  0.0549  0.2822
  558TMC3    C4 8277   1.399   1.807  10.154  0.1205 -0.4565  0.5824
  558TMC3    C5 8278   1.292   1.727  10.176  0.3524  0.2537  0.0047
  558TMC3    C6 8279   1.247   1.706  10.304  0.2184  0.2399  0.5401
  558TMC3     C 8280   1.567   1.942  10.254  0.0274  0.4956  0.3866
  558TMC3     O 8281   1.674   1.912  10.311 -0.1519  0.1149  0.9500
  558TMC3     H 8282   1.497   1.827  10.478 -1.6172  2.2957  0.4286
  558TMC3    H1 8283   1.439   1.824  10.054  0.4804  1.9103  1.1312
  558TMC3    H2 8284   1.161   1.642  10.317  1.7765 -1.8057  0.8539
  558TMC3    C7 8285   1.222   1.679  10.063  0.8408 -0.2048  0.3181
  558TMC3    C8 8286   1.241   1.758  10.540 -0.0246 -0.2587 -1.0020
  558TMC3    O1 8287   1.278   1.658   9.957 -0.5244 -0.0843 -0.3053
  558TMC3    O2 8288   1.122   1.722  10.539  0.2302 -0.7433 -0.2611
  559MPD2     C 8289   1.870   2.391  10.326 -0.0309 -0.4182 -0.1242
  559MPD2    C1 8290   1.809   2.322  10.429 -0.1858  0.5080 -0.2472
  559MPD2    C2 8291   1.893   2.294  10.538 -0.4010 -1.0788  0.4977
  559MPD2    C3 8292   2.026   2.320  10.541  0.2478 -0.2276 -0.3624
  559MPD2    C4 8293   2.088   2.369  10.433  0.3014  0.0855  0.7528
  559MPD2    C5 8294   2.012   2.417  10.329  0.1108  0.4528  0.0705
  559MPD2     H 8295   1.836   2.281  10.629 -1.4185  0.9288  0.1521
  559MPD2    H1 8296   2.196   2.378  10.426  0.1959  0.3086 -0.5123
  559MPD2    H2 8297   1.821   2.431  10.239 -0.8985 -2.7256 -0.6898
  559MPD2    H3 8298   2.060   2.472  10.249 -0.4787  1.5522  0.4685
  559MPD2     N 8299   2.097   2.283  10.659  0.4152 -0.4615 -0.2183
  559MPD2    H5 8300   2.047   2.229  10.728  1.5735  1.1674  1.8710
  559MPD2    N1 8301   1.673   2.303  10.429 -0.1617 -0.8822  0.1439
  559MPD2    H7 8302   1.621   2.364  10.367  0.8184 -0.4215 -0.2317
  560TMC3    C1 8303   2.287   2.265  10.802  0.1591 -0.5525 -0.4184
  560TMC3    C2 8304   2.235   2.155  10.851  0.2990 -0.3564  0.4393
  560TMC3    C3 8305   2.259   2.133  10.981 -0.6270  0.7351  0.3840
  560TMC3    C4 8306   2.366   2.348  10.881 -0.6616  0.8089  0.3987
  560TMC3    C5 8307   2.390   2.319  11.012  1.2290 -0.7684  0.1895
  560TMC3    C6 8308   2.322   2.215  11.069  0.6152 -0.1847 -0.6632
  560TMC3     C 8309   2.226   2.332  10.687  0.2003  0.0401 -0.3846
  560TMC3     O 8310   2.294   2.422  10.636 -0.3086 -0.0329 -0.0780
  560TMC3     H 8311   2.188   2.079  10.789  0.2960 -0.1906  0.2393
  560TMC3    H1 8312   2.402   2.444  10.846  0.4512  0.1353 -0.2740
  560TMC3    H2 8313   2.340   2.173  11.167  0.3144 -0.2986 -0.6537
  560TMC3    C7 8314   2.501   2.374  11.089  0.4103 -0.4404  0.9018
  560TMC3    C8 8315   2.208   2.010  11.026 -0.3009  0.2882  0.1179
  560TMC3    O1 8316   2.472   2.368  11.210  0.0279 -0.2363  0.1930
  560TMC3    O2 8317   2.107   1.966  10.975 -0.3254  0.7308  0.1180
  561TMC3    C1 8318   4.223   1.618  11.190  0.3061 -0.3587 -0.3953
  561TMC3    C2 8319   4.117   1.558  11.256  0.3151 -0.0774 -0.4446
  561TMC3    C3 8320   4.068   1.614  11.368  0.2911  0.3635  0.5185
  561TMC3    C4 8321   4.273   1.737  11.236  0.4749 -0.2841  1.0007
  561TMC3    C5 8322   4.219   1.796  11.347 -0.7672  0.1151  0.0317
  561TMC3    C6 8323   4.125   1.727  11.422  0.0579 -0.6765  0.9510
  561TMC3     C 8324   4.283   1.548  11.074  0.0541  0.1442  0.5022
  561TMC3     O 8325   4.214   1.463  11.030  0.0233  0.1701 -0.3624
  561TMC3     H 8326   4.093   1.457  11.227  2.6029 -1.4426  2.4172
  561TMC3    H1 8327   4.333   1.799  11.170 -0.4133 -1.2157 -0.6706
  561TMC3    H2 8328   4.084   1.777  11.509  3.6118  0.7238  1.8235
  561TMC3    C7 8329   4.238   1.940  11.367 -0.4044 -0.7583  0.2455
  561TMC3    C8 8330   4.006   1.521  11.454 -0.1767 -0.5166 -0.6625
  561TMC3    O1 8331   4.142   2.001  11.415 -0.0806  0.4427  0.5327
  561TMC3    O2 8332   4.047   1.406  11.465 -0.0324  0.5031 -0.6490
  562TMC3    C1 8333   0.814   2.872  16.045  0.4424 -0.1375 -0.4798
  562TMC3    C2 8334   0.703   2.936  16.010  0.7025  0.5349 -0.5091
  562TMC3    C3 8335   0.658   2.942  15.886 -0.1197  0.1300 -0.2955
  562TMC3    C4 8336   0.891   2.805  15.952  0.4080  0.2201  0.0508
  562TMC3    C5 8337   0.852   2.825  15.818 -0.6927 -0.1208  0.0868
  562TMC3    C6 8338   0.737   2.891  15.787 -0.4737 -0.4884  0.2920
  562TMC3     C 8339   0.833   2.847  16.188  0.5208  0.0106 -0.1335
  562TMC3     O 8340   0.787   2.935  16.256  0.1223 -0.1339 -0.1449
  562TMC3     H 8341   0.639   2.967  16.092 -0.6637  1.7895 -2.0496
  562TMC3    H1 8342   0.990   2.764  15.968  0.6038  0.5792 -0.2332
  562TMC3    H2 8343   0.711   2.913  15.684  1.3408 -0.9767 -0.2700
  562TMC3    C7 8344   0.912   2.746  15.707  0.5045 -0.4165  0.7472
  562TMC3    C8 8345   0.525   2.987  15.866  0.5059  0.3468 -0.1450
  562TMC3    O1 8346   0.875   2.771  15.593  0.3767  0.0637 -0.2434
  562TMC3    O2 8347   0.457   3.022  15.965 -0.0165  0.3336  0.0150
  563MPD2     C 8348   2.959   4.122  15.787  0.7565 -0.3284  0.2693
  563MPD2    C1 8349   3.014   4.113  15.914 -0.6111  0.2163  0.5426
  563MPD2    C2 8350   3.129   4.040  15.935 -0.8416 -0.4034 -0.1684
  563MPD2    C3 8351   3.191   3.974  15.833  0.0018  0.6469  0.0503
  563MPD2    C4 8352   3.130   3.971  15.709 -0.1065 -0.2106 -0.3947
  563MPD2    C5 8353   3.024   4.054  15.685  0.7150 -0.0918  0.1160
  563MPD2     H 8354   3.170   4.032  16.035 -1.2936  1.7565  0.1743
  563MPD2    H1 8355   3.172   3.925  15.621 -1.5093  1.3541 -1.8731
  563MPD2    H2 8356   2.872   4.185  15.772 -0.3327 -1.2834  2.5127
  563MPD2    H3 8357   2.975   4.055  15.588 -1.5276 -0.5622  1.2220
  563MPD2     N 8358   3.317   3.915  15.866 -0.3494 -0.4133 -0.1412
  563MPD2    H5 8359   3.351   3.945  15.957 -0.6232 -0.9170  0.1245
  563MPD2    N1 8360   2.969   4.200  16.020 -0.4044  0.0961 -0.0395
  563MPD2    H7 8361   2.877   4.239  16.000 -0.2705 -0.3707 -1.5678
  564TMC3    C1 8362   2.973   4.340  16.207 -0.8195  0.3333 -0.0167
  564TMC3    C2 8363   2.844   4.297  16.241  0.5791 -0.2671  0.7737
  564TMC3    C3 8364   2.797   4.338  16.369  0.2545  0.2149  0.8009
  564TMC3    C4 8365   3.057   4.401  16.299  0.1307 -0.1387  0.4330
  564TMC3    C5 8366   3.009   4.431  16.422  0.5146  0.5413  0.3559
  564TMC3    C6 8367   2.879   4.411  16.446 -0.2044 -0.1048 -0.3794
  564TMC3     C 8368   3.049   4.256  16.116  0.2461 -0.6597 -0.1850
  564TMC3     O 8369   3.172   4.253  16.128 -0.4180 -1.1104 -0.0165
  564TMC3     H 8370   2.789   4.219  16.190  1.2928  0.3439 -0.9146
  564TMC3    H1 8371   3.158   4.432  16.273  0.5350 -3.0274 -1.4763
  564TMC3    H2 8372   2.845   4.437  16.546  1.9636 -0.8748  0.5511
  564TMC3    C7 8373   3.099   4.375  16.519 -0.5520 -0.0341  0.5252
  564TMC3    C8 8374   2.718   4.247  16.454 -0.2549  0.0975  0.0956
  564TMC3    O1 8375   3.221   4.377  16.496 -0.6416 -0.1402 -0.4562
  564TMC3    O2 8376   2.752   4.247  16.570  0.0963 -0.1374 -0.4400
  565TMC3    C1 8377   3.257   0.967  10.138  0.0425  0.2369  0.9917
  565TMC3    C2 8378   3.284   0.844  10.180  0.4877 -0.3807  0.4606
  565TMC3    C3 8379   3.184   0.755  10.220  0.5424  0.2569 -0.0574
  565TMC3    C4 8380   3.124   0.990  10.108 -0.0647 -0.5134  0.4386
  565TMC3    C5 8381   3.030   0.896  10.149  0.6821  0.4392 -0.7677
  565TMC3    C6 8382   3.057   0.784  10.218  0.3397  0.1390 -0.0583
  565TMC3     C 8383   3.352   1.051  10.077  0.3609 -0.3636  0.3324
  565TMC3     O 8384   3.312   1.114   9.978  0.7089 -0.1457 -0.1843
  565TMC3     H 8385   3.386   0.808  10.184  0.7621  0.2997 -0.6017
  565TMC3    H1 8386   3.093   1.087  10.071  1.7525  0.1107  0.5702
  565TMC3    H2 8387   2.982   0.709  10.236  0.6892  0.2159  1.7034
  565TMC3    C7 8388   2.897   0.921  10.108 -0.3405 -0.3309  0.7861
  565TMC3    C8 8389   3.232   0.642  10.294 -0.2109 -0.1014  0.4208
  565TMC3    O1 8390   2.885   1.020  10.037 -0.2926  0.1408 -0.0019
  565TMC3    O2 8391   3.333   0.672  10.356 -0.3496 -0.2950  0.6561
  566MPD2     C 8392   0.589   2.190  14.394  0.1523  0.2369  0.4749
  566MPD2    C1 8393   0.686   2.273  14.339 -0.5884 -0.3223  0.6520
  566MPD2    C2 8394   0.699   2.278  14.195  0.0305 -0.4398 -0.3847
  566MPD2    C3 8395   0.603   2.216  14.121  0.1676 -0.0501  0.5806
  566MPD2    C4 8396   0.505   2.135  14.181  0.4858 -0.0724  0.1455
  566MPD2    C5 8397   0.501   2.121  14.316 -0.2326  0.5332 -0.1580
  566MPD2     H 8398   0.774   2.345  14.156 -0.8435  0.0065 -1.2915
  566MPD2    H1 8399   0.428   2.085  14.125  1.9662 -0.8437 -1.1667
  566MPD2    H2 8400   0.586   2.173  14.501  1.3042 -1.7620  0.1900
  566MPD2    H3 8401   0.432   2.051  14.361  0.1038 -0.2254 -0.8254
  566MPD2     N 8402   0.604   2.226  13.979  1.0251  0.4157 -0.6034
  566MPD2    H5 8403   0.519   2.189  13.937  0.1628  0.1804  1.3241
  566MPD2    N1 8404   0.777   2.334  14.427  0.1298 -0.8121 -0.6088
  566MPD2    H7 8405   0.788   2.299  14.521  0.2637 -0.2176 -0.4067
  567TMC3    C1 8406   0.960   2.473  14.491 -0.2361  0.3874 -0.6627
  567TMC3    C2 8407   1.015   2.595  14.469 -0.2808  0.5952  0.0183
  567TMC3    C3 8408   1.147   2.602  14.500  0.6079  0.2327  0.2147
  567TMC3    C4 8409   1.022   2.363  14.535 -1.5190  0.3868 -0.0773
  567TMC3    C5 8410   1.155   2.379  14.560  0.0899  0.5994  0.2363
  567TMC3    C6 8411   1.221   2.495  14.546 -0.0119  0.0066 -0.0722
  567TMC3     C 8412   0.851   2.445  14.390  1.0181  0.1758 -0.0162
  567TMC3     O 8413   0.833   2.533  14.305 -0.1801 -0.2656 -0.2487
  567TMC3     H 8414   0.960   2.681  14.431  1.2596  0.9374 -1.4728
  567TMC3    H1 8415   0.979   2.264  14.548 -0.5004 -0.1216 -0.5971
  567TMC3    H2 8416   1.320   2.511  14.586  0.1780 -0.3049 -0.4237
  567TMC3    C7 8417   1.216   2.283  14.663 -0.1369  0.1439  0.1022
  567TMC3    C8 8418   1.216   2.669  14.384 -0.8203 -0.8080 -0.1617
  567TMC3    O1 8419   1.336   2.291  14.678  0.1382 -0.2090  0.2571
  567TMC3    O2 8420   1.146   2.692  14.287  0.4922  0.5495  1.0417
  568MPD2     C 8421   3.232   3.123  17.078 -0.0999 -0.6219 -0.7577
  568MPD2    C1 8422   3.095   3.100  17.098  0.2686  0.4854 -0.8099
  568MPD2    C2 8423   3.011   3.212  17.092 -0.1368 -0.4586 -0.0059
  568MPD2    C3 8424   3.058   3.337  17.074 -0.5989 -0.3962 -0.0117
  568MPD2    C4 8425   3.194   3.355  17.065  0.1434 -0.7358 -0.4871
  568MPD2    C5 8426   3.280   3.248  17.064 -0.2503  0.5320 -0.0247
  568MPD2     H 8427   2.903   3.204  17.105 -0.3279  0.0140 -1.3795
  568MPD2    H1 8428   3.234   3.454  17.044 -0.3429 -1.0477 -2.9332
  568MPD2    H2 8429   3.307   3.045  17.075 -0.7824 -1.3453  1.6669
  568MPD2    H3 8430   3.387   3.266  17.055 -0.3501  1.9599  1.6347
  568MPD2     N 8431   2.965   3.448  17.059  0.4270  0.3590 -0.2087
  568MPD2    H5 8432   2.866   3.429  17.064  0.6070 -0.2942  1.0049
  568MPD2    N1 8433   3.042   2.975  17.129 -0.7596 -0.0038  0.6331
  568MPD2    H7 8434   3.113   2.908  17.155 -0.0172  0.7300  0.5025
  569TMC3    C1 8435   2.882   3.668  17.036 -1.1069 -0.3692  0.5233
  569TMC3    C2 8436   2.895   3.786  17.103  0.2222 -0.4722  0.2000
  569TMC3    C3 8437   2.786   3.872  17.076 -0.0255 -0.1146  0.0740
  569TMC3    C4 8438   2.774   3.624  16.966 -0.2348 -0.2623 -0.2917
  569TMC3    C5 8439   2.664   3.710  16.942 -0.7517  0.3716  0.1585
  569TMC3    C6 8440   2.676   3.834  17.004  0.1193  1.0342  0.1685
  569TMC3     C 8441   2.998   3.580  17.040  0.5764  0.1687 -0.1934
  569TMC3     O 8442   3.105   3.642  17.041 -0.3111 -0.0663  0.1093
  569TMC3     H 8443   2.991   3.827  17.133 -1.6745  2.8592  1.8255
  569TMC3    H1 8444   2.771   3.526  16.920 -1.9096 -0.6665  0.6952
  569TMC3    H2 8445   2.601   3.909  16.988 -0.4403  0.4623  0.1183
  569TMC3    C7 8446   2.618   3.709  16.803 -0.2873 -1.0492 -0.9312
  569TMC3    C8 8447   2.839   3.998  17.025 -0.4804  0.5918  0.5899
  569TMC3    O1 8448   2.602   3.602  16.748 -0.1448  0.6136 -0.1643
  569TMC3    O2 8449   2.780   4.044  16.926 -0.1663 -0.5410  0.1764
  570TMC3    C1 8450   1.874   1.399  16.188 -0.5778 -0.0277 -0.1465
  570TMC3    C2 8451   1.908   1.397  16.052  0.3995  0.1906 -0.0851
  570TMC3    C3 8452   1.853   1.483  15.954 -0.0436  0.6716 -0.0739
  570TMC3    C4 8453   1.783   1.496  16.230 -0.3003  0.6408 -0.0967
  570TMC3    C5 8454   1.741   1.585  16.125 -0.2951 -0.4919 -0.1647
  570TMC3    C6 8455   1.767   1.580  15.990  0.6150 -0.6699 -0.4473
  570TMC3     C 8456   1.902   1.289  16.265  0.1147  0.2741 -0.0755
  570TMC3     O 8457   1.945   1.191  16.210 -0.0363 -0.5333  0.0438
  570TMC3     H 8458   1.981   1.328  16.011  0.0673 -0.5748  0.6093
  570TMC3    H1 8459   1.778   1.525  16.334 -1.0523  0.5969 -0.1249
  570TMC3    H2 8460   1.719   1.647  15.920  2.1628  1.2288  0.3203
  570TMC3    C7 8461   1.670   1.710  16.164  0.4072  0.0739 -0.3964
  570TMC3    C8 8462   1.932   1.509  15.834 -0.1740  1.1735 -0.7059
  570TMC3    O1 8463   1.570   1.741  16.099 -0.8779 -0.1926 -0.2756
  570TMC3    O2 8464   1.935   1.627  15.800 -0.7193  0.1008  0.3132
  571MPD2     C 8465   0.312   3.337  17.258  0.2729  0.3621 -0.1292
  571MPD2    C1 8466   0.277   3.311  17.391  0.4722 -0.5007 -0.3337
  571MPD2    C2 8467   0.332   3.395  17.487 -0.8947 -0.2091  0.1987
  571MPD2    C3 8468   0.413   3.502  17.448 -0.2547  0.1544  0.4580
  571MPD2    C4 8469   0.456   3.517  17.318  0.0722 -0.5171  0.0519
  571MPD2    C5 8470   0.394   3.441  17.225 -0.1110 -0.5419 -0.0626
  571MPD2     H 8471   0.303   3.373  17.589  2.0682  2.3517  1.6017
  571MPD2    H1 8472   0.520   3.597  17.282  0.9031 -0.3388  1.9110
  571MPD2    H2 8473   0.282   3.270  17.178 -0.6334 -0.8365  1.2105
  571MPD2    H3 8474   0.419   3.453  17.120 -0.8828  1.5856  0.0026
  571MPD2     N 8475   0.472   3.590  17.542  0.1166  0.5646 -0.4305
  571MPD2    H5 8476   0.531   3.663  17.503  0.5012  0.3739 -0.2044
  571MPD2    N1 8477   0.211   3.194  17.412  0.2456 -0.7881  0.3603
  571MPD2    H7 8478   0.189   3.137  17.330 -0.0406 -1.7019  1.0748
  572TMC3    C1 8479   0.532   3.700   0.042  0.1992  0.2224  0.4726
  572TMC3    C2 8480   0.631   3.663   0.134  0.2950 -0.3730 -0.6259
  572TMC3    C3 8481   0.711   3.770   0.158  0.1375  0.1170 -0.6740
  572TMC3    C4 8482   0.503   3.821  17.690  0.1326  0.3624  0.1898
  572TMC3    C5 8483   0.582   3.921   0.042 -0.3463  0.4773  0.0635
  572TMC3    C6 8484   0.695   3.898   0.112 -0.0437  0.2837  0.8563
  572TMC3     C 8485   0.475   3.577  17.676  0.1499  0.0498  0.2512
  572TMC3     O 8486   0.474   3.477   0.048 -0.2458  0.2038  0.4682
  572TMC3     H 8487   0.665   3.560   0.142 -2.3098 -1.0928  1.1459
  572TMC3    H1 8488   0.427   3.850  17.619  0.1040  0.1738  0.1443
  572TMC3    H2 8489   0.762   3.979   0.139 -0.2153  0.1698  1.6177
  572TMC3    C7 8490   0.539   4.055   0.008  0.2059  0.6588  0.0768
  572TMC3    C8 8491   0.834   3.746   0.230 -0.2428 -0.2099 -0.2428
  572TMC3    O1 8492   0.420   4.077  17.684 -0.0415 -0.3222 -0.2652
  572TMC3    O2 8493   0.933   3.812   0.211 -0.0964 -0.0868  0.2078
  573MPD2     C 8494   0.808   4.449   0.476 -0.7605  0.0010  0.1697
  573MPD2    C1 8495   0.910   4.457   0.566 -1.0896  0.2970 -0.7111
  573MPD2    C2 8496   1.041   4.432   0.529 -0.9814  0.1973 -0.6136
  573MPD2    C3 8497   1.073   4.426   0.393  0.2234  0.4723 -0.3338
  573MPD2    C4 8498   0.970   4.415   0.305  0.2257 -0.0676  0.4656
  573MPD2    C5 8499   0.838   4.422   0.346 -0.0317  0.5793  0.0393
  573MPD2     H 8500   1.124   4.427   0.598 -1.5917 -2.6152 -0.1156
  573MPD2    H1 8501   0.984   4.410   0.197 -0.7463  0.0722  0.3303
  573MPD2    H2 8502   0.707   4.464   0.514 -2.3203 -1.7734 -3.2532
  573MPD2    H3 8503   0.758   4.408   0.274  1.5754  0.7899 -1.7827
  573MPD2     N 8504   1.204   4.428   0.337 -0.2423  0.4580 -0.4859
  573MPD2    H5 8505   1.211   4.418   0.237 -0.2043  2.5126 -0.6768
  573MPD2    N1 8506   0.875   4.481   0.698 -0.2735  0.2544 -0.0930
  573MPD2    H7 8507   0.776   4.498   0.712 -0.1942  0.6861 -0.0490
  574TMC3    C1 8508   1.442   4.463   0.337 -0.2673 -0.0166 -1.2820
  574TMC3    C2 8509   1.434   4.499   0.205  1.0193  0.2916 -0.0448
  574TMC3    C3 8510   1.550   4.508   0.134 -0.8000 -0.8046 -0.1515
  574TMC3    C4 8511   1.565   4.454   0.395  0.5062 -1.1909  0.2831
  574TMC3    C5 8512   1.678   4.462   0.318  0.5786  0.8894  0.3572
  574TMC3    C6 8513   1.672   4.476   0.184 -0.3545 -0.0245  0.0771
  574TMC3     C 8514   1.320   4.447   0.412 -0.1504  0.5755  0.1576
  574TMC3     O 8515   1.337   4.452   0.535 -0.0788 -0.0502  0.3012
  574TMC3     H 8516   1.337   4.517   0.161  0.7988 -0.3327  0.1846
  574TMC3    H1 8517   1.574   4.453   0.503  1.1371  0.5730  0.2502
  574TMC3    H2 8518   1.759   4.506   0.127 -0.2854  1.0453  0.7312
  574TMC3    C7 8519   1.802   4.509   0.372 -0.0566 -0.4044  0.3524
  574TMC3    C8 8520   1.548   4.523  17.686 -0.0548 -0.2467 -0.1485
  574TMC3    O1 8521   1.905   4.478   0.312 -0.0980  1.1375 -0.4292
  574TMC3    O2 8522   1.652   4.551  17.629  0.1845  0.2473  0.0123
  575TMC3    C1 8523   3.641   0.379  11.028  0.0463  0.2687 -0.4253
  575TMC3    C2 8524   3.659   0.246  11.066  0.4089 -0.6669 -0.0934
  575TMC3    C3 8525   3.612   0.160  10.969 -0.1975 -0.4519  0.6815
  575TMC3    C4 8526   3.559   0.426  10.924  0.1645  0.0015  0.3076
  575TMC3    C5 8527   3.510   0.325  10.848  0.0185  0.1071  0.2195
  575TMC3    C6 8528   3.525   0.193  10.866 -0.0562  0.2472  0.3660
  575TMC3     C 8529   3.715   0.482  11.108 -0.6250  0.2435 -0.4455
  575TMC3     O 8530   3.739   0.588  11.059  0.1196 -0.3791 -0.2122
  575TMC3     H 8531   3.710   0.212  11.156  0.4100 -0.3841  0.0124
  575TMC3    H1 8532   3.542   0.530  10.901 -3.5088 -0.7389 -0.2750
  575TMC3    H2 8533   3.497   0.116  10.796  1.4807 -1.3287  1.4874
  575TMC3    C7 8534   3.428   0.368  10.734 -0.1873 -0.4187  0.6775
  575TMC3    C8 8535   3.660   0.019  10.964  0.1426  0.5651 -0.3511
  575TMC3    O1 8536   3.429   0.488  10.705 -0.0889  0.2873 -0.2087
  575TMC3    O2 8537   3.596   4.670  10.890 -0.0672 -0.3697  0.3794
  576MPD2     C 8538   3.006   1.837  12.557  0.0788  0.2606 -0.2282
  576MPD2    C1 8539   3.090   1.926  12.503 -0.6088  0.5966  0.0864
  576MPD2    C2 8540   3.114   2.047  12.565 -0.3846  0.1866 -0.6178
  576MPD2    C3 8541   3.038   2.079  12.678  0.1020  0.2192 -0.1050
  576MPD2    C4 8542   2.957   1.987  12.736 -1.1163 -0.1852  0.0370
  576MPD2    C5 8543   2.935   1.865  12.674  0.2063  0.5275 -1.0355
  576MPD2     H 8544   3.183   2.119  12.523 -0.5472  1.5485  1.4616
  576MPD2    H1 8545   2.893   2.000  12.822  0.3739  2.1749  0.8061
  576MPD2    H2 8546   3.000   1.733  12.526  3.8917 -0.9919  3.1945
  576MPD2    H3 8547   2.856   1.804  12.718  1.1547 -0.2335 -0.3884
  576MPD2     N 8548   3.052   2.210  12.726 -0.4557 -0.1166 -0.4220
  576MPD2    H5 8549   3.108   2.275  12.672  1.0235 -1.7277 -0.8179
  576MPD2    N1 8550   3.165   1.897  12.382 -0.1463 -0.1430 -0.5277
  576MPD2    H7 8551   3.233   1.966  12.355  0.4949  0.1631  1.8917
  577TMC3    C1 8552   3.254   1.793  12.184  0.0253  0.2457  0.3186
  577TMC3    C2 8553   3.336   1.690  12.147 -1.0473 -0.6416 -0.2333
  577TMC3    C3 8554   3.436   1.715  12.056  0.4079 -0.5495 -0.0147
  577TMC3    C4 8555   3.274   1.920  12.140 -0.5995 -0.3321  0.1841
  577TMC3    C5 8556   3.387   1.949  12.073  0.2084  0.6255  0.2929
  577TMC3    C6 8557   3.464   1.845  12.022  0.3881  0.3431 -0.3489
  577TMC3     C 8558   3.167   1.783  12.305  0.0797 -0.3798  0.4030
  577TMC3     O 8559   3.110   1.674  12.323  0.2848 -0.0470  0.5042
  577TMC3     H 8560   3.304   1.591  12.179  0.2288  0.2108  3.6643
  577TMC3    H1 8561   3.201   1.998  12.154 -1.0305 -0.7996  0.5408
  577TMC3    H2 8562   3.549   1.866  11.957 -0.9116 -0.1458 -2.2319
  577TMC3    C7 8563   3.387   2.072  11.999  0.0810 -0.5463 -0.0386
  577TMC3    C8 8564   3.519   1.604  12.015 -0.6589 -0.2486  0.0268
  577TMC3    O1 8565   3.394   2.180  12.056 -0.1988  0.5832 -0.0419
  577TMC3    O2 8566   3.518   1.508  12.087 -0.4046 -0.1553  0.4199
  578MPD2     C 8567   0.875   2.168   1.088 -0.0687  0.2086  0.1177
  578MPD2    C1 8568   0.962   2.082   1.022 -0.1245  0.1997  0.7419
  578MPD2    C2 8569   1.093   2.090   1.070  0.5044 -0.0957  0.0374
  578MPD2    C3 8570   1.129   2.173   1.173 -0.1020 -0.5837  0.1122
  578MPD2    C4 8571   1.027   2.237   1.245 -0.0719 -0.2506  0.1061
  578MPD2    C5 8572   0.899   2.239   1.202  0.1872  0.6267 -0.4429
  578MPD2     H 8573   1.168   2.027   1.024  0.0703  0.5898 -1.6142
  578MPD2    H1 8574   1.049   2.291   1.335 -0.4187 -1.5347  0.9640
  578MPD2    H2 8575   0.770   2.179   1.062 -0.7607  0.7757  3.1491
  578MPD2    H3 8576   0.818   2.290   1.254 -1.7048  0.1469 -2.8887
  578MPD2     N 8577   1.263   2.171   1.211  0.2547 -0.0582 -1.4848
  578MPD2    H5 8578   1.331   2.120   1.156 -0.6932 -1.9131 -0.9483
  578MPD2    N1 8579   0.918   2.013   0.908 -0.1324  0.7047 -0.1848
  578MPD2    H7 8580   0.830   2.044   0.868  0.0509  0.9367 -0.4030
  579TMC3    C1 8581   1.440   2.184   1.356 -0.5612 -0.2582  0.1821
  579TMC3    C2 8582   1.526   2.278   1.415 -0.2280 -0.2879 -0.9168
  579TMC3    C3 8583   1.658   2.250   1.422  0.1862 -0.1135  0.5899
  579TMC3    C4 8584   1.489   2.064   1.309 -0.0939  0.0256 -0.8555
  579TMC3    C5 8585   1.623   2.033   1.338 -0.6695  0.2171 -0.2024
  579TMC3    C6 8586   1.705   2.124   1.389 -0.4886  0.2781 -0.3834
  579TMC3     C 8587   1.306   2.232   1.323 -0.3412 -0.3285  0.6462
  579TMC3     O 8588   1.258   2.314   1.403  0.6284  0.2243  0.4908
  579TMC3     H 8589   1.478   2.364   1.461 -0.3456  0.4639 -2.4344
  579TMC3    H1 8590   1.419   1.985   1.283  0.8194 -1.2900  0.6726
  579TMC3    H2 8591   1.808   2.090   1.393 -0.1652  1.6285  2.7016
  579TMC3    C7 8592   1.676   1.905   1.327 -0.0299  0.5332 -0.4894
  579TMC3    C8 8593   1.744   2.338   1.499  0.5664  0.6585 -0.1057
  579TMC3    O1 8594   1.772   1.879   1.396  0.2571  0.2952  0.2216
  579TMC3    O2 8595   1.689   2.403   1.588  0.2471  0.1836  0.0718
  580TMC3    C1 8596   1.324   0.231  12.376  0.5218  0.2158 -0.4661
  580TMC3    C2 8597   1.436   0.310  12.356 -0.2411  0.1340 -0.7243
  580TMC3    C3 8598   1.563   0.263  12.379 -0.1213 -0.3307  0.0388
  580TMC3    C4 8599   1.343   0.117  12.447 -0.1170 -0.3201  0.1917
  580TMC3    C5 8600   1.470   0.069  12.471 -0.1560  0.6341  0.0276
  580TMC3    C6 8601   1.581   0.144  12.448 -0.4744  0.1467  0.0489
  580TMC3     C 8602   1.199   0.300  12.384  0.0699 -0.4577  0.2963
  580TMC3     O 8603   1.138   0.267  12.484 -0.0014  0.2090  0.3729
  580TMC3     H 8604   1.427   0.411  12.318  0.3887  0.5886  0.3434
  580TMC3    H1 8605   1.258   0.064  12.489  0.7991 -1.2744  0.8661
  580TMC3    H2 8606   1.679   0.122  12.487 -1.0025 -1.1796  0.6437
  580TMC3    C7 8607   1.463   4.722  12.595  0.2855  0.6103  0.2793
  580TMC3    C8 8608   1.672   0.357  12.378 -0.2926  0.1603 -0.2417
  580TMC3    O1 8609   1.512   4.611  12.589  0.3387 -0.3538  0.0090
  580TMC3    O2 8610   1.764   0.338  12.458 -0.2135 -0.1858 -0.6625
  581MPD2     C 8611   3.494   0.498  15.401  0.3302  0.8833  0.7159
  581MPD2    C1 8612   3.583   0.529  15.300  0.5635  0.3042  0.4698
  581MPD2    C2 8613   3.534   0.562  15.175  0.2578 -0.0256  0.1635
  581MPD2    C3 8614   3.396   0.550  15.149  0.7696 -0.0810 -0.0339
  581MPD2    C4 8615   3.311   0.520  15.249 -0.1233 -0.1966 -0.5240
  581MPD2    C5 8616   3.355   0.490  15.370  0.5011 -0.0004 -0.7864
  581MPD2     H 8617   3.601   0.581  15.091 -1.5424  1.2699 -1.0021
  581MPD2    H1 8618   3.205   0.506  15.231 -0.2602  2.1084 -1.5584
  581MPD2    H2 8619   3.534   0.475  15.499  0.3896 -2.3463 -0.0508
  581MPD2    H3 8620   3.282   0.457  15.443  1.7033  2.8562  1.7060
  581MPD2     N 8621   3.348   0.587  15.021  0.6876  0.1911  0.4285
  581MPD2    H5 8622   3.420   0.634  14.967 -0.3041 -1.3828 -2.2084
  581MPD2    N1 8623   3.720   0.519  15.334 -0.1862  1.0776  0.0554
  581MPD2    H7 8624   3.741   0.491  15.430 -1.5840  2.4557  0.7669
  582TMC3    C1 8625   3.936   0.458  15.304  0.1492  0.2013  0.3380
  582TMC3    C2 8626   3.975   0.516  15.422  0.0763  0.4628  0.1432
  582TMC3    C3 8627   4.026   0.426  15.513 -0.1368 -0.8940 -1.0152
  582TMC3    C4 8628   3.929   0.326  15.291  0.3210  0.4683  0.2282
  582TMC3    C5 8629   3.963   0.237  15.392  0.3787  0.0509  0.8232
  582TMC3    C6 8630   4.005   0.295  15.506  0.0684 -0.3211 -0.5797
  582TMC3     C 8631   3.825   0.526  15.245 -0.9202  0.9416  0.4701
  582TMC3     O 8632   3.829   0.563  15.130 -0.5025 -0.2444  0.4218
  582TMC3     H 8633   3.971   0.621  15.446  0.3122 -0.1915  3.1016
  582TMC3    H1 8634   3.885   0.285  15.200  2.2642  1.7531 -1.2858
  582TMC3    H2 8635   4.024   0.231  15.591 -0.3488  0.7659  0.3207
  582TMC3    C7 8636   3.854   0.146  15.417  0.3840  0.6188 -0.3644
  582TMC3    C8 8637   4.055   0.478  15.645 -0.1448  0.4139  0.4542
  582TMC3    O1 8638   3.834   0.052  15.344  0.0037 -0.5707  0.5642
  582TMC3    O2 8639   4.000   0.577  15.691 -0.2970 -0.1762  0.1144
  583MPD2     C 8640   3.694   2.773  16.476  0.6631 -0.2176 -0.6028
  583MPD2    C1 8641   3.821   2.720  16.506  0.2533 -0.4852  0.4122
  583MPD2    C2 8642   3.888   2.771  16.617  0.1394  0.2023 -0.3510
  583MPD2    C3 8643   3.835   2.877  16.691 -0.3079 -0.2478 -0.5640
  583MPD2    C4 8644   3.711   2.927  16.656  0.3426  0.6448  0.7326
  583MPD2    C5 8645   3.646   2.875  16.552 -0.5504  0.0805 -0.1034
  583MPD2     H 8646   3.986   2.735  16.646 -0.2455  0.1146  0.8473
  583MPD2    H1 8647   3.668   3.010  16.711  0.5905  1.2987 -0.0658
  583MPD2    H2 8648   3.630   2.728  16.401 -1.5482 -0.6268  1.5524
  583MPD2    H3 8649   3.551   2.912  16.515  0.5005  2.5233 -0.3440
  583MPD2     N 8650   3.904   2.929  16.802  0.1693 -0.1747 -0.1383
  583MPD2    H5 8651   4.002   2.909  16.820 -0.4165 -0.3308  2.8038
  583MPD2    N1 8652   3.889   2.626  16.427 -0.3127 -0.6288 -0.0174
  583MPD2    H7 8653   3.971   2.588  16.475 -0.0895 -1.1854 -0.8448
  584TMC3    C1 8654   3.959   3.100  16.948  0.5262 -0.6812  0.3165
  584TMC3    C2 8655   4.055   3.140  16.863 -0.8847 -0.0027  0.6252
  584TMC3    C3 8656   4.143   3.238  16.902  0.0044  0.3921 -0.5787
  584TMC3    C4 8657   3.949   3.135  17.075  0.2932  0.1374  0.2620
  584TMC3    C5 8658   4.051   3.215  17.118 -0.0367  0.6514  0.4315
  584TMC3    C6 8659   4.143   3.269  17.034 -0.1091 -0.3967  0.4594
  584TMC3     C 8660   3.850   3.022  16.890 -0.3658 -0.1840 -0.2540
  584TMC3     O 8661   3.735   3.037  16.936  0.4074  0.0207 -0.3323
  584TMC3     H 8662   4.050   3.117  16.757  0.9880 -0.5309  0.6482
  584TMC3    H1 8663   3.875   3.096  17.143  1.5981 -1.5132  0.7494
  584TMC3    H2 8664   4.203   3.358  17.053 -1.4697  1.0060 -1.8648
  584TMC3    C7 8665   4.031   3.273  17.253  0.2659  0.3078  0.8449
  584TMC3    C8 8666   4.200   3.321  16.792 -0.0438  0.1121  0.1918
  584TMC3    O1 8667   3.929   3.242  17.313  0.1547 -0.3967 -0.2082
  584TMC3    O2 8668   4.168   3.283  16.680  0.0843  0.1061 -0.3165
  585MPD2     C 8669   3.243   1.820   0.767  0.1116  0.6897 -0.5372
  585MPD2    C1 8670   3.276   1.840   0.632 -0.0955  0.4605 -0.4365
  585MPD2    C2 8671   3.306   1.730   0.557  0.0403 -0.3314 -0.2083
  585MPD2    C3 8672   3.311   1.604   0.615 -0.0528  0.0557  0.6031
  585MPD2    C4 8673   3.276   1.579   0.745  0.2091 -0.4658  0.5673
  585MPD2    C5 8674   3.242   1.689   0.815  0.6249  0.3205  0.3531
  585MPD2     H 8675   3.337   1.736   0.453 -0.8706 -0.0699 -0.4639
  585MPD2    H1 8676   3.276   1.486   0.802  0.0928  0.9788  2.9419
  585MPD2    H2 8677   3.202   1.902   0.825 -0.4908  0.3446 -0.4793
  585MPD2    H3 8678   3.211   1.670   0.917  2.3883  0.6438  0.9398
  585MPD2     N 8679   3.343   1.501   0.521  0.2603 -0.1096 -0.1012
  585MPD2    H5 8680   3.372   1.536   0.431  0.4788  1.3555  0.5351
  585MPD2    N1 8681   3.266   1.970   0.575  0.8188  0.0855  0.7657
  585MPD2    H7 8682   3.222   2.039   0.635 -0.3610 -1.3000  1.5066
  586TMC3    C1 8683   3.445   1.317   0.432 -0.3270  0.6326 -0.3156
  586TMC3    C2 8684   3.537   1.218   0.458  0.1972  0.0597 -0.7854
  586TMC3    C3 8685   3.554   1.123   0.363 -0.5892  0.0907  0.2647
  586TMC3    C4 8686   3.368   1.308   0.320  0.2614 -0.1008  0.0902
  586TMC3    C5 8687   3.400   1.227   0.219 -0.5417 -0.0152  0.5509
  586TMC3    C6 8688   3.490   1.127   0.236 -0.1277  0.0321 -0.1836
  586TMC3     C 8689   3.384   1.371   0.550  0.3532 -0.4019 -0.1577
  586TMC3     O 8690   3.398   1.322   0.664  0.6558 -0.1476 -0.4706
  586TMC3     H 8691   3.592   1.217   0.552 -0.4695  1.0504 -0.3894
  586TMC3    H1 8692   3.282   1.373   0.302  0.3067  0.2944  1.2543
  586TMC3    H2 8693   3.500   1.047   0.163  1.4706  2.1769 -2.2684
  586TMC3    C7 8694   3.304   1.211   0.119 -0.6925  0.3219  0.2146
  586TMC3    C8 8695   3.610   0.994   0.417 -0.2820 -0.6421 -0.2414
  586TMC3    O1 8696   3.182   1.234   0.150 -0.3787 -0.6804  0.1120
  586TMC3    O2 8697   3.586   0.985   0.535  0.3445 -0.2752  0.0484
  587TMC3    C1 8698   0.775   0.096  16.184  0.2927 -0.1056 -0.7632
  587TMC3    C2 8699   0.757   0.189  16.282 -0.1390  0.3508  0.6703
  587TMC3    C3 8700   0.867   0.197  16.368  0.3916  0.0944  0.2464
  587TMC3    C4 8701   0.892   0.032  16.156  0.0183 -0.1502  0.1741
  587TMC3    C5 8702   0.993   0.037  16.244  0.3752 -0.0242  0.5975
  587TMC3    C6 8703   0.979   0.120  16.356 -0.2896  0.4694  0.2388
  587TMC3     C 8704   0.670   0.089  16.088 -0.7180 -0.1561  0.3002
  587TMC3     O 8705   0.682   0.047  15.973 -0.3616  0.6177  0.7303
  587TMC3     H 8706   0.672   0.254  16.298 -0.1297  0.4418  0.3434
  587TMC3    H1 8707   0.905   4.694  16.068  0.6590  1.1662 -0.6640
  587TMC3    H2 8708   1.070   0.150  16.406 -0.4226 -1.0631  1.4025
  587TMC3    C7 8709   1.075   4.641  16.244 -0.0903 -0.2344  0.6996
  587TMC3    C8 8710   0.852   0.276  16.486  0.6943  0.1318 -0.1383
  587TMC3    O1 8711   1.028   4.539  16.197  0.7547  0.4966  0.0151
  587TMC3    O2 8712   0.945   0.258  16.564 -0.3087  0.1954  0.2241
  588TMC3    C1 8713   3.189   2.894   9.276  0.2558 -0.3353  0.1629
  588TMC3    C2 8714   3.098   2.793   9.264 -0.0492  0.6072 -0.7495
  588TMC3    C3 8715   3.121   2.680   9.338 -1.2518 -0.8066  0.5510
  588TMC3    C4 8716   3.306   2.876   9.336  0.7960  0.2019 -0.0123
  588TMC3    C5 8717   3.322   2.764   9.419  0.1803 -0.0174  0.3208
  588TMC3    C6 8718   3.231   2.660   9.413  0.3233 -0.1057 -0.8223
  588TMC3     C 8719   3.124   3.019   9.323 -0.0959 -0.4318 -0.6279
  588TMC3     O 8720   3.027   3.049   9.255 -1.0987 -0.1333  0.0118
  588TMC3     H 8721   2.998   2.805   9.224 -0.9375 -0.3322  1.1914
  588TMC3    H1 8722   3.387   2.948   9.333  1.1937 -0.2349  0.2038
  588TMC3    H2 8723   3.239   2.577   9.483 -0.4219  0.0702 -0.5254
  588TMC3    C7 8724   3.416   2.780   9.529  0.3068 -0.7817  0.9029
  588TMC3    C8 8725   3.003   2.620   9.395 -0.4765  0.6465  0.6679
  588TMC3    O1 8726   3.473   2.887   9.528 -0.1106 -0.4274 -0.5416
  588TMC3    O2 8727   2.908   2.696   9.407 -0.3557 -0.4219 -0.2594
  589TMC3    C1 8728   1.588   4.674   1.346  0.9993 -0.0712 -0.3140
  589TMC3    C2 8729   1.669   0.036   1.418  0.0671  0.8247  0.5045
  589TMC3    C3 8730   1.792   4.718   1.450  0.0088 -0.0462  0.3667
  589TMC3    C4 8731   1.639   4.549   1.291  0.3913 -0.3522 -0.8934
  589TMC3    C5 8732   1.762   4.510   1.339 -0.0232  0.2510 -0.5351
  589TMC3    C6 8733   1.845   4.598   1.402 -0.5354  0.2122 -0.6452
  589TMC3     C 8734   1.457   4.723   1.315  0.5683  0.5419  0.0408
  589TMC3     O 8735   1.419   4.682   1.203  0.2851  0.0766  0.0713
  589TMC3     H 8736   1.644   0.136   1.451 -0.6175  1.1359 -0.9251
  589TMC3    H1 8737   1.589   4.492   1.214 -1.0741  0.0956 -0.2900
  589TMC3    H2 8738   1.926   4.556   1.460 -1.1943  0.6603  0.6047
  589TMC3    C7 8739   1.801   4.369   1.315  1.0285  0.0716 -0.0879
  589TMC3    C8 8740   1.881   0.098   1.505  0.2640 -0.1662 -0.2742
  589TMC3    O1 8741   1.716   4.291   1.268 -0.7211 -0.2614  0.0944
  589TMC3    O2 8742   1.836   0.197   1.565  0.6219  0.5924  0.4713
  590MPD2     C 8743   1.577   3.033  16.644  0.6185  0.7026 -0.0816
  590MPD2    C1 8744   1.552   3.034  16.508  0.0244 -0.9141 -0.0743
  590MPD2    C2 8745   1.662   3.045  16.428 -0.3998  0.2672 -0.1247
  590MPD2    C3 8746   1.793   3.042  16.474 -0.5417  0.2202  0.3759
  590MPD2    C4 8747   1.813   3.041  16.610 -0.2694 -0.2474  0.1370
  590MPD2    C5 8748   1.708   3.026  16.696  0.0809 -0.4145  0.5843
  590MPD2     H 8749   1.628   3.063  16.326  2.8003 -3.3824 -1.8042
  590MPD2    H1 8750   1.912   3.063  16.649 -1.2601  2.9006  0.8277
  590MPD2    H2 8751   1.495   3.045  16.714  1.2691  1.6651  0.5164
  590MPD2    H3 8752   1.737   3.029  16.800  0.2274 -0.4055  0.5429
  590MPD2     N 8753   1.905   3.031  16.393 -0.4815 -0.2127  0.4193
  590MPD2    H5 8754   1.996   3.046  16.437 -1.4777  0.1027  2.3379
  590MPD2    N1 8755   1.427   3.023  16.437 -0.3294  0.6618 -0.6350
  590MPD2    H7 8756   1.424   3.036  16.336 -0.0729 -2.4533 -1.0517
  591TMC3    C1 8757   2.031   3.026  16.182 -0.2830  0.2399  0.7660
  591TMC3    C2 8758   2.019   2.989  16.049  0.5933 -0.0203 -0.6481
  591TMC3    C3 8759   2.113   3.041  15.970 -0.3969  0.5314 -0.1866
  591TMC3    C4 8760   2.131   3.106  16.236 -0.0999 -0.2768  0.1384
  591TMC3    C5 8761   2.221   3.158  16.144 -0.2190 -1.0271  0.3970
  591TMC3    C6 8762   2.209   3.127  16.011  0.4732  0.3517 -0.4874
  591TMC3     C 8763   1.909   3.016  16.256 -0.6361  0.4014  0.1622
  591TMC3     O 8764   1.814   3.017  16.181 -0.4676  0.2981 -0.3461
  591TMC3     H 8765   1.943   2.927  16.004 -2.1919  0.5421  3.2069
  591TMC3    H1 8766   2.127   3.138  16.340  2.3925 -0.4968  0.3013
  591TMC3    H2 8767   2.293   3.155  15.948  1.0750 -0.1928  0.0614
  591TMC3    C7 8768   2.318   3.248  16.188 -0.2254  0.1396 -0.5085
  591TMC3    C8 8769   2.122   2.995  15.839  0.3779  0.5409 -0.6880
  591TMC3    O1 8770   2.362   3.254  16.302 -0.0214 -0.5724  0.2434
  591TMC3    O2 8771   2.076   2.882  15.829  0.5086  0.2264  0.2212
  592MPD2     C 8772   2.214   0.455  11.015  0.4314 -0.2444  0.1771
  592MPD2    C1 8773   2.207   0.502  11.146  0.2233  0.1681 -0.0172
  592MPD2    C2 8774   2.138   0.428  11.235 -0.1066  0.0446  0.1023
  592MPD2    C3 8775   2.070   0.314  11.200  0.1899  0.1527  0.4611
  592MPD2    C4 8776   2.081   0.264  11.073  0.1325  0.1249  0.4504
  592MPD2    C5 8777   2.153   0.336  10.984 -0.1177  0.2282 -0.5384
  592MPD2     H 8778   2.115   0.458  11.337 -0.2417  1.1153 -0.2491
  592MPD2    H1 8779   2.026   0.176  11.042 -0.7927  1.5702 -2.0228
  592MPD2    H2 8780   2.255   0.504  10.927 -0.7745 -1.8910 -1.2954
  592MPD2    H3 8781   2.158   0.298  10.882  1.0855  0.5053 -0.5807
  592MPD2     N 8782   1.989   0.254  11.302  0.2160 -0.1206  0.4041
  592MPD2    H5 8783   2.015   0.287  11.394 -1.3256  3.2135 -0.3746
  592MPD2    N1 8784   2.279   0.617  11.174  0.0973  0.4792 -0.0972
  592MPD2    H7 8785   2.313   0.671  11.095 -0.0179  1.6325  0.6369
  593TMC3    C1 8786   2.348   0.797  11.314 -0.3875 -0.5222 -0.8889
  593TMC3    C2 8787   2.423   0.813  11.432 -0.9547 -0.4210  0.0260
  593TMC3    C3 8788   2.526   0.899  11.426 -0.1138 -1.0016  0.1285
  593TMC3    C4 8789   2.369   0.864  11.192 -0.0771 -0.2281 -0.0185
  593TMC3    C5 8790   2.474   0.950  11.199 -0.4424  0.4751  0.0003
  593TMC3    C6 8791   2.550   0.968  11.310 -0.3874 -0.6766 -0.3270
  593TMC3     C 8792   2.289   0.668  11.304  0.3951  0.6816 -0.1889
  593TMC3     O 8793   2.257   0.616  11.412 -0.2384  0.0134 -0.0255
  593TMC3     H 8794   2.402   0.765  11.527 -0.2518  3.0091  1.9152
  593TMC3    H1 8795   2.284   0.872  11.125  1.8768  2.0158 -2.2519
  593TMC3    H2 8796   2.634   1.036  11.311  0.2332 -1.4387 -0.8194
  593TMC3    C7 8797   2.484   1.057  11.097  0.3523 -0.9650 -0.4672
  593TMC3    C8 8798   2.574   0.955  11.547  0.4067 -0.1997  0.4360
  593TMC3    O1 8799   2.574   1.138  11.112 -0.4545 -0.1014  0.2426
  593TMC3    O2 8800   2.576   1.077  11.559  0.2896 -0.0173 -0.3851
  594MPD2     C 8801   0.568   4.421  14.177 -0.2462 -0.0991  0.5208
  594MPD2    C1 8802   0.671   4.329  14.170 -0.0347 -0.6695  0.6251
  594MPD2    C2 8803   0.803   4.366  14.144  0.6200 -0.5136 -0.0873
  594MPD2    C3 8804   0.830   4.499  14.144 -0.1584 -0.4949  0.1983
  594MPD2    C4 8805   0.729   4.587  14.159  0.0671  0.3297 -0.0609
  594MPD2    C5 8806   0.595   4.555  14.182 -0.0052  0.2258 -0.4161
  594MPD2     H 8807   0.885   4.296  14.132  1.5562  0.7218 -0.9439
  594MPD2    H1 8808   0.746   4.694  14.154  3.3454 -0.1512  0.7343
  594MPD2    H2 8809   0.468   4.386  14.200  0.3131 -3.5253 -2.3260
  594MPD2    H3 8810   0.514   4.622  14.206 -0.6825 -1.4334  2.0385
  594MPD2     N 8811   0.963   4.536  14.130  0.4034 -0.6687  0.3869
  594MPD2    H5 8812   1.035   4.465  14.131  2.5854  1.5600  0.4056
  594MPD2    N1 8813   0.632   4.192  14.165 -0.3257 -0.3332  0.0389
  594MPD2    H7 8814   0.531   4.178  14.171 -0.4008  0.4037  0.5301
  595TMC3    C1 8815   1.318   4.677  14.285  0.3498 -0.3493  0.2172
  595TMC3    C2 8816   1.198   4.620  14.241 -0.2660 -0.9339  0.5399
  595TMC3    C3 8817   1.151   4.675  14.124  0.0504 -0.5081 -0.5982
  595TMC3    C4 8818   1.388   0.060  14.228  0.0812 -0.2176  0.2460
  595TMC3    C5 8819   1.310   0.129  14.138 -0.5219  0.0405  0.8321
  595TMC3    C6 8820   1.200   0.072  14.082  0.2847  0.2020 -0.3515
  595TMC3     C 8821   1.357   4.650  14.422  0.1361  1.2160 -0.1737
  595TMC3     O 8822   1.349   4.535  14.457  0.2377 -0.4112 -0.2544
  595TMC3     H 8823   1.164   4.525  14.281  0.7913 -0.5943  2.2676
  595TMC3    H1 8824   1.486   0.089  14.265  0.8762 -2.8098  0.1642
  595TMC3    H2 8825   1.138   0.124  14.010 -1.5289 -1.1352  0.2228
  595TMC3    C7 8826   1.268   0.257  14.191  0.7307 -0.3316  0.9569
  595TMC3    C8 8827   1.006   4.664  14.105 -0.1269 -0.0893  1.1548
  595TMC3    O1 8828   1.148   0.270  14.189 -0.1117  0.2878  0.0069
  595TMC3    O2 8829   0.935   0.032  14.069 -0.3019  0.0206 -0.1799
  596MPD2     C 8830   4.360   2.199  16.560 -1.0123  0.2874  0.2553
  596MPD2    C1 8831   4.455   2.279  16.506 -0.2499 -0.0011 -0.4035
  596MPD2    C2 8832   4.491   2.260  16.376  0.7547 -0.2535 -0.0773
  596MPD2    C3 8833   4.418   2.167  16.305 -0.3732 -0.4660  1.1821
  596MPD2    C4 8834   4.321   2.092  16.359 -0.0184  0.3656 -0.0303
  596MPD2    C5 8835   4.295   2.108  16.491 -0.0845 -0.2645  0.5592
  596MPD2     H 8836   4.573   2.305  16.320  0.9011 -1.0015 -0.4610
  596MPD2    H1 8837   4.258   2.022  16.307  0.5825 -1.4308  1.6824
  596MPD2    H2 8838   4.338   2.205  16.666 -1.1928 -0.1198  0.2402
  596MPD2    H3 8839   4.236   2.037  16.547  0.5181 -1.1936  0.0155
  596MPD2     N 8840   4.448   2.144  16.168  0.1756 -0.3411 -0.0595
  596MPD2    H5 8841   4.378   2.084  16.126 -0.1715 -0.2353  0.3703
  596MPD2    N1 8842   4.518   2.379  16.578 -0.6207 -0.3436  0.1614
  596MPD2    H7 8843   4.576   2.441  16.521 -1.8249 -1.7985 -2.6302
  597TMC3    C1 8844   4.572   2.525  16.757 -0.3805 -0.1746  0.2046
  597TMC3    C2 8845   4.650   2.606  16.677 -0.3813 -0.5512  0.2757
  597TMC3    C3 8846   4.717   2.709  16.738  0.5120  0.0137 -0.3048
  597TMC3    C4 8847   4.569   2.542  16.894 -0.0902  0.7485  0.4645
  597TMC3    C5 8848   4.624   2.649  16.951  0.5949  0.3088 -0.4381
  597TMC3    C6 8849   4.706   2.739  16.876  0.3444  0.0140 -0.3774
  597TMC3     C 8850   4.509   2.399  16.716  0.0874 -0.1385  0.8684
  597TMC3     O 8851   4.442   2.340  16.800  0.4481  0.0343 -0.5109
  597TMC3     H 8852   4.664   2.604  16.570  1.6489  0.0242  0.5266
  597TMC3    H1 8853   4.532   2.465  16.961  0.8648  0.3972  0.5878
  597TMC3    H2 8854   0.034   2.827  16.913  1.2568 -0.5824 -0.2228
  597TMC3    C7 8855   4.577   2.690  17.086 -1.0712  0.1160 -0.6589
  597TMC3    C8 8856   0.120   2.757  16.681  0.7906  0.4105 -0.3574
  597TMC3    O1 8857   4.522   2.603  17.144  0.0323 -0.2228  0.4588
  597TMC3    O2 8858   0.176   2.851  16.735 -0.1016  0.5260  0.1231
  598TMC3    C1 8859   2.813   3.667  15.773 -0.3452  0.0684  0.3595
  598TMC3    C2 8860   2.779   3.543  15.810  0.2666 -0.4436 -0.0970
  598TMC3    C3 8861   2.715   3.472  15.707 -0.6170 -0.0431 -0.1210
  598TMC3    C4 8862   2.799   3.730  15.654 -0.0886 -0.3600  0.1194
  598TMC3    C5 8863   2.731   3.663  15.555 -0.5919  0.6248  0.3142
  598TMC3    C6 8864   2.690   3.533  15.582 -0.3598  0.2408 -0.2661
  598TMC3     C 8865   2.836   3.746  15.893 -0.1970  1.2434  0.2131
  598TMC3     O 8866   2.758   3.842  15.903  0.2511 -0.7429  0.0102
  598TMC3     H 8867   2.819   3.501  15.901 -2.5857 -0.0708  1.3362
  598TMC3    H1 8868   2.840   3.830  15.652  3.6725 -1.9439 -1.7508
  598TMC3    H2 8869   2.671   3.465  15.500 -2.2037  0.7823 -0.2905
  598TMC3    C7 8870   2.758   3.692  15.415  0.2604  0.1337 -0.1089
  598TMC3    C8 8871   2.646   3.347  15.740 -0.2927 -0.1445 -0.1226
  598TMC3    O1 8872   2.726   3.608  15.334  0.8665  0.1791  0.9235
  598TMC3    O2 8873   2.563   3.305  15.659 -0.3180  0.6219 -0.4182
  599MPD2     C 8874   3.383   1.469  16.264 -0.3008  0.0563 -0.3825
  599MPD2    C1 8875   3.286   1.374  16.247  0.3193  0.0559 -0.3323
  599MPD2    C2 8876   3.158   1.394  16.289  0.2434  0.8741 -0.5547
  599MPD2    C3 8877   3.123   1.509  16.372  0.5233 -0.4586  0.7195
  599MPD2    C4 8878   3.224   1.597  16.396 -0.2403  0.0315  0.0996
  599MPD2    C5 8879   3.356   1.576  16.338  0.4896  0.3564 -0.9863
  599MPD2     H 8880   3.085   1.316  16.271  1.6667 -0.5070 -0.3368
  599MPD2    H1 8881   3.197   1.688  16.450 -0.9089  0.9569 -1.7923
  599MPD2    H2 8882   3.486   1.475  16.231 -0.0370 -0.0728  0.4135
  599MPD2    H3 8883   3.435   1.650  16.342  0.6420  0.0399  1.7613
  599MPD2     N 8884   2.990   1.535  16.426  0.0744  0.0832  0.2493
  599MPD2    H5 8885   2.984   1.627  16.469 -1.1579 -0.5052  1.3062
  599MPD2    N1 8886   3.324   1.242  16.203 -0.1948 -0.3769 -1.3780
  599MPD2    H7 8887   3.262   1.165  16.225 -1.4125  1.5834  2.1958
  600TMC3    C1 8888   2.780   1.498  16.497  0.0429 -0.5535 -0.2349
  600TMC3    C2 8889   2.721   1.392  16.572 -0.6457 -0.6123 -0.0782
  600TMC3    C3 8890   2.663   1.422  16.688  0.2141  0.1395 -0.2383
  600TMC3    C4 8891   2.777   1.624  16.549 -0.0044  0.1679  0.1173
  600TMC3    C5 8892   2.707   1.649  16.663 -0.2192  0.2022  0.4665
  600TMC3    C6 8893   2.656   1.547  16.745 -0.2906 -0.3873  0.0153
  600TMC3     C 8894   2.884   1.451  16.407 -0.1497 -1.1741 -0.0230
  600TMC3     O 8895   2.873   1.338  16.360 -0.4957 -0.0176 -0.3950
  600TMC3     H 8896   2.722   1.290  16.535 -2.2253 -0.2846 -1.0188
  600TMC3    H1 8897   2.799   1.711  16.489 -1.1544 -0.4570 -1.2094
  600TMC3    H2 8898   2.620   1.565  16.846 -2.3277  1.8628 -1.1201
  600TMC3    C7 8899   2.660   1.784  16.699  0.4268 -0.3935 -0.3494
  600TMC3    C8 8900   2.581   1.323  16.755 -0.6831  0.3810  0.0849
  600TMC3    O1 8901   2.603   1.854  16.609 -0.3028  0.3768 -0.6355
  600TMC3    O2 8902   2.583   1.320  16.879 -0.1934  0.3916 -0.5938
  601MPD2     C 8903   0.627   4.559  17.690  0.6647  0.1309 -0.2231
  601MPD2    C1 8904   0.506   4.490   0.000 -0.9458  0.2013  0.1285
  601MPD2    C2 8905   0.517   4.351   0.020  0.1630 -0.3752 -0.2410
  601MPD2    C3 8906   0.641   4.283   0.011 -0.0726  0.1727 -0.2221
  601MPD2    C4 8907   0.752   4.363   0.008  0.6792 -0.1781 -0.5483
  601MPD2    C5 8908   0.744   4.495  17.690  0.3426  0.3080  0.0715
  601MPD2     H 8909   0.424   4.297   0.029  0.0902  0.0949  1.7214
  601MPD2    H1 8910   0.848   4.313   0.012  0.6026 -0.3312 -0.5896
  601MPD2    H2 8911   0.632   4.667  17.687  2.3259  0.1016  1.4156
  601MPD2    H3 8912   0.834   4.554  17.692 -0.9681  2.2450  1.7610
  601MPD2     N 8913   0.648   4.146   0.013  0.3244 -0.3854  0.4114
  601MPD2    H5 8914   0.744   4.113   0.009  0.2688 -0.6155  0.9370
  601MPD2    N1 8915   0.376   4.542   0.009 -0.5545 -0.3020 -0.2400
  601MPD2    H7 8916   0.303   4.475   0.029 -0.0197 -0.3487  1.5475
  602TMC3    C1 8917   0.201   4.695  17.682  0.9706 -1.2107  0.4392
  602TMC3    C2 8918   0.152   0.058  17.591  0.4116  0.2005  0.4322
  602TMC3    C3 8919   0.017   0.059  17.587 -0.2098 -0.3202  0.3595
  602TMC3    C4 8920   0.131   4.600   0.054  0.0357  0.3460  0.3362
  602TMC3    C5 8921   4.720   4.600   0.032  0.0103  0.4118  0.4245
  602TMC3    C6 8922   4.657   4.696  17.655 -0.0388  0.3819 -0.4407
  602TMC3     C 8923   0.344   4.670  17.677  0.1780 -0.1710  1.0849
  602TMC3     O 8924   0.413   0.028  17.621  0.0097  0.0167 -0.1151
  602TMC3     H 8925   0.219   0.129  17.544 -1.9792  2.6055  0.6486
  602TMC3    H1 8926   0.172   4.546   0.138 -0.0380  0.2077  0.2840
  602TMC3    H2 8927   4.557   4.685  17.615 -0.9405  0.0447  1.9366
  602TMC3    C7 8928   4.645   4.500   0.106  0.5685  0.3926  0.1331
  602TMC3    C8 8929   4.698   0.164  17.509  0.4695  0.5322 -0.1626
  602TMC3    O1 8930   4.693   4.412   0.173  0.0305  0.4290  0.0256
  602TMC3    O2 8931   0.043   0.205  17.416  0.3394  0.3613  0.4413
  603TMC3    C1 8932   3.486   4.455  11.388 -0.8028 -0.7012 -0.1239
  603TMC3    C2 8933   3.518   4.439  11.520  0.0023  0.0972 -0.0110
  603TMC3    C3 8934   3.542   4.546  11.597 -0.3403  0.5228  0.5982
  603TMC3    C4 8935   3.481   4.581  11.333  0.0865  0.2268 -0.3774
  603TMC3    C5 8936   3.504   4.690  11.420  0.1193 -0.8486  0.0473
  603TMC3    C6 8937   3.526   4.675  11.552  0.0200  0.3513  0.8376
  603TMC3     C 8938   3.459   4.337  11.309  0.0638 -0.5714  0.6756
  603TMC3     O 8939   3.452   4.226  11.360  0.3304  0.4718  0.1087
  603TMC3     H 8940   3.530   4.340  11.563  0.2698 -0.7710 -2.0809
  603TMC3    H1 8941   3.478   4.613  11.229  0.3053  0.5358 -0.2870
  603TMC3    H2 8942   3.546   0.037  11.614 -3.3218  2.0837 -0.4728
  603TMC3    C7 8943   3.530   0.099  11.372 -0.2478 -0.3178 -0.0656
  603TMC3    C8 8944   3.514   4.528  11.739  1.0080  0.0693  0.2230
  603TMC3    O1 8945   3.612   0.166  11.427 -0.0460  0.0682  0.5515
  603TMC3    O2 8946   3.439   4.434  11.770  0.2839  0.5853  0.1713
  604MPD2     C 8947   4.148   3.724  16.344  0.1500  0.3784  0.2438
  604MPD2    C1 8948   4.022   3.667  16.334  0.5874 -0.2400  0.1009
  604MPD2    C2 8949   3.996   3.593  16.226  0.2787  0.1119 -0.6001
  604MPD2    C3 8950   4.096   3.553  16.134  0.4333 -0.2896 -0.2642
  604MPD2    C4 8951   4.220   3.618  16.140  0.1946 -0.0185 -0.6102
  604MPD2    C5 8952   4.243   3.696  16.251  0.2714  0.7372 -0.8628
  604MPD2     H 8953   3.901   3.542  16.215 -0.7859  1.5261  1.9728
  604MPD2    H1 8954   4.296   3.600  16.066  1.6947 -3.9525  1.8795
  604MPD2    H2 8955   4.181   3.783  16.430  0.4271 -0.1974  0.5341
  604MPD2    H3 8956   4.340   3.740  16.268  0.2835 -0.4041  2.0361
  604MPD2     N 8957   4.065   3.467  16.027  0.3512 -0.4289  1.0359
  604MPD2    H5 8958   3.972   3.426  16.026  0.3042 -0.1703 -4.6960
  604MPD2    N1 8959   3.934   3.706  16.440  0.2955 -0.2616 -0.2097
  604MPD2    H7 8960   3.977   3.764  16.511  1.1117 -0.7682 -0.2922
  605TMC3    C1 8961   3.731   3.729  16.560  0.2203  0.3887  0.1238
  605TMC3    C2 8962   3.824   3.758  16.650 -1.1011 -0.1577  0.5798
  605TMC3    C3 8963   3.816   3.875  16.719  0.2659  0.2360  0.2399
  605TMC3    C4 8964   3.630   3.816  16.525 -0.2310  0.7115  0.2253
  605TMC3    C5 8965   3.623   3.931  16.596  0.5682 -0.1987 -0.4184
  605TMC3    C6 8966   3.718   3.963  16.685 -0.0449 -0.3566  0.2436
  605TMC3     C 8967   3.798   3.675  16.447  0.5356  0.4643 -0.2231
  605TMC3     O 8968   3.731   3.619  16.363 -0.7749 -0.0036 -0.2728
  605TMC3     H 8969   3.891   3.683  16.690 -0.6613  0.0301  0.1968
  605TMC3    H1 8970   3.568   3.797  16.438  0.7792 -0.2750 -0.2886
  605TMC3    H2 8971   3.719   4.059  16.735 -0.4187  1.1750 -2.6847
  605TMC3    C7 8972   3.504   4.004  16.581  0.4618 -0.2850 -0.4205
  605TMC3    C8 8973   3.953   3.924  16.719  0.1652 -0.3773 -0.0060
  605TMC3    O1 8974   3.520   4.121  16.617  0.8303  0.0826 -0.0837
  605TMC3    O2 8975   4.030   3.845  16.671  0.2755  0.1273 -0.0965
  606TMC3    C1 8976   0.097   1.848  16.325 -0.6824 -0.4237  0.1224
  606TMC3    C2 8977   4.682   1.856  16.345  0.0650  0.4450  0.0582
  606TMC3    C3 8978   4.627   1.743  16.409 -0.0944 -0.1322 -0.0911
  606TMC3    C4 8979   0.169   1.751  16.393  0.2050  0.0789  0.3231
  606TMC3    C5 8980   0.109   1.655  16.459  0.2122 -0.2195 -0.9727
  606TMC3    C6 8981   4.697   1.641  16.465 -0.0525 -0.1587 -0.1755
  606TMC3     C 8982   0.161   1.973  16.329 -0.5377 -0.7125 -0.0186
  606TMC3     O 8983   0.257   1.986  16.255  0.0058 -1.1263 -0.4569
  606TMC3     H 8984   4.616   1.932  16.304 -1.3513 -0.7651  0.0780
  606TMC3    H1 8985   0.276   1.763  16.408  0.3441 -1.7824  0.8053
  606TMC3    H2 8986   4.645   1.547  16.475  0.8089 -0.7651 -1.4777
  606TMC3    C7 8987   0.190   1.580  16.550  0.4060 -0.3670 -0.0814
  606TMC3    C8 8988   4.482   1.735  16.410  0.2752 -0.4870 -0.1416
  606TMC3    O1 8989   0.311   1.597  16.558  0.2164  0.4417  0.1704
  606TMC3    O2 8990   4.427   1.763  16.305 -1.0071  0.4639  0.4435
  607MPD2     C 8991   2.161   4.681  11.420  0.1176  0.1371  0.1755
  607MPD2    C1 8992   2.226   0.046  11.503  0.5979  0.1744 -0.2379
  607MPD2    C2 8993   2.196   0.050  11.634 -0.4696 -0.4023  0.1007
  607MPD2    C3 8994   2.133   4.674  11.698 -0.8033 -0.0608 -0.1442
  607MPD2    C4 8995   2.071   4.573  11.620 -0.1704 -0.9387  0.7368
  607MPD2    C5 8996   2.079   4.584  11.485 -0.4291 -0.4051  0.8844
  607MPD2     H 8997   2.229   0.130  11.700  0.9202 -0.1041 -0.9576
  607MPD2    H1 8998   2.017   4.488  11.661 -2.5269  0.6067  0.8769
  607MPD2    H2 8999   2.159   4.674  11.312  0.1768  0.5210  0.1473
  607MPD2    H3 9000   2.043   4.503  11.423  0.3614  0.2758 -0.4558
  607MPD2     N 9001   2.132   4.682  11.836 -0.1132  0.3137 -0.6799
  607MPD2    H5 9002   2.162   0.046  11.876 -0.8084  1.2131 -2.1170
  607MPD2    N1 9003   2.322   0.143  11.462 -0.0548  0.5841  0.2059
  607MPD2    H7 9004   2.365   0.214  11.521  0.2760  1.0393 -0.5822
  608TMC3    C1 9005   2.494   0.241  11.339 -0.7022  0.5062 -0.1750
  608TMC3    C2 9006   2.539   0.293  11.454  0.6462  0.2663  0.9342
  608TMC3    C3 9007   2.576   0.424  11.454  0.5104  0.3649 -0.1930
  608TMC3    C4 9008   2.500   0.308  11.219 -0.5779 -0.1503 -0.2934
  608TMC3    C5 9009   2.564   0.429  11.217 -0.7445 -0.5016 -0.3212
  608TMC3    C6 9010   2.610   0.483  11.340  0.2350  0.7963  0.4746
  608TMC3     C 9011   2.389   0.149  11.344  0.3015  0.1347 -0.1369
  608TMC3     O 9012   2.358   0.093  11.238 -0.0427 -0.3444  0.2803
  608TMC3     H 9013   2.526   0.224  11.537  0.2879 -0.4793  0.2647
  608TMC3    H1 9014   2.442   0.271  11.136 -1.2659 -0.1249  0.1794
  608TMC3    H2 9015   2.652   0.582  11.349  0.3129  0.6795  1.4362
  608TMC3    C7 9016   2.567   0.511  11.094  0.9242  0.1524  0.1345
  608TMC3    C8 9017   2.615   0.482  11.582  0.8523  0.3021 -0.2217
  608TMC3    O1 9018   2.622   0.622  11.107  0.6163  0.3759 -1.0419
  608TMC3    O2 9019   2.698   0.573  11.586  0.4280 -0.0675  0.1593
  609TMC3    C1 9020   1.353   4.140   8.974  0.1145 -0.5769  0.2866
  609TMC3    C2 9021   1.352   4.245   9.060  0.2309  0.2195 -0.9358
  609TMC3    C3 9022   1.472   4.291   9.086  0.3613 -0.2891 -0.8613
  609TMC3    C4 9023   1.461   4.073   8.922 -0.8360  1.0724  0.8478
  609TMC3    C5 9024   1.581   4.117   8.962  0.1885 -0.1403 -0.5176
  609TMC3    C6 9025   1.587   4.224   9.043 -0.3919 -0.3351  0.2944
  609TMC3     C 9026   1.227   4.096   8.927  0.0123  0.7160 -0.6058
  609TMC3     O 9027   1.134   4.104   9.002  0.3656  0.4609  0.5448
  609TMC3     H 9028   1.261   4.298   9.085  0.9094 -0.0256  2.0202
  609TMC3    H1 9029   1.442   3.990   8.855  0.8898 -0.3917  2.1829
  609TMC3    H2 9030   1.681   4.265   9.078 -0.2006 -2.7199  2.6637
  609TMC3    C7 9031   1.668   4.014   8.999  0.0176  0.7335  0.3656
  609TMC3    C8 9032   1.488   4.433   9.100  0.2939 -0.5519  0.1989
  609TMC3    O1 9033   1.749   4.042   9.085  0.0118 -0.0820  0.0905
  609TMC3    O2 9034   1.575   4.471   9.180 -0.0220 -0.0023 -0.4215
  610TMC3    C1 9035   2.687   0.252  12.749 -0.0933  1.0048  0.5240
  610TMC3    C2 9036   2.671   0.233  12.619  0.2583 -0.7577 -0.2733
  610TMC3    C3 9037   2.742   0.134  12.558  0.2254  0.1381 -0.4382
  610TMC3    C4 9038   2.785   0.182  12.816  0.5702  0.1052  0.1528
  610TMC3    C5 9039   2.862   0.092  12.755 -0.3664 -0.0333 -0.1082
  610TMC3    C6 9040   2.842   0.060  12.622 -0.0383  0.6785  0.2029
  610TMC3     C 9041   2.604   0.342  12.826 -0.0338 -0.4433  0.3111
  610TMC3     O 9042   2.658   0.399  12.921 -0.4072  0.2613 -0.0716
  610TMC3     H 9043   2.590   0.286  12.570  0.4171 -0.9622 -0.7546
  610TMC3    H1 9044   2.786   0.196  12.924  3.7024 -1.7722  0.3927
  610TMC3    H2 9045   2.904   4.706  12.577  0.9263  0.7526  1.4115
  610TMC3    C7 9046   2.940   0.003  12.839  0.0164 -0.2997  0.1578
  610TMC3    C8 9047   2.720   0.114  12.416 -0.2168  0.7782 -0.8339
  610TMC3    O1 9048   2.966   4.616  12.789  0.2879 -0.1746 -0.4492
  610TMC3    O2 9049   2.615   0.164  12.371 -0.4839  0.1756  0.5300
  611MPD2     C 9050   2.786   4.514  10.607  0.0435  0.1132 -0.2444
  611MPD2    C1 9051   2.748   4.613  10.517  0.4156 -0.2734  0.1718
  611MPD2    C2 9052   2.770   0.029  10.544  0.4170  0.0770  0.6308
  611MPD2    C3 9053   2.816   0.060  10.667  0.0794  0.5384  0.4164
  611MPD2    C4 9054   2.852   4.685  10.757 -0.3762  0.2187  0.4588
  611MPD2    C5 9055   2.835   4.551  10.729 -0.1236 -0.8204 -0.5017
  611MPD2     H 9056   2.738   0.102  10.470 -0.8907 -0.5664  0.5641
  611MPD2    H1 9057   2.896   4.713  10.852 -0.4839  0.2954  0.4864
  611MPD2    H2 9058   2.769   4.409  10.591  1.7473 -0.3347  0.8742
  611MPD2    H3 9059   2.854   4.481  10.809 -2.1130 -2.1231 -1.1625
  611MPD2     N 9060   2.854   0.189  10.714 -0.0353 -0.0590 -0.1382
  611MPD2    H5 9061   2.919   0.191  10.792 -0.7949  0.0135  0.4928
  611MPD2    N1 9062   2.688   4.566  10.399  0.4394  0.6119 -0.2542
  611MPD2    H7 9063   2.679   4.465  10.392  0.1992  0.7946 -2.7090
  612TMC3    C1 9064   2.902   0.419  10.682 -0.1567  0.4533 -0.2863
  612TMC3    C2 9065   2.972   0.417  10.800  0.1426  0.1660  0.3883
  612TMC3    C3 9066   3.038   0.532  10.834  0.0521  0.2837  0.5611
  612TMC3    C4 9067   2.900   0.528  10.595 -0.3909  0.3434  0.5228
  612TMC3    C5 9068   2.969   0.642  10.639 -0.2913  0.3214 -0.3530
  612TMC3    C6 9069   3.028   0.649  10.765  0.3608 -0.3369  0.7033
  612TMC3     C 9070   2.837   0.299  10.634  0.2617 -0.3913  0.2270
  612TMC3     O 9071   2.781   0.311  10.523 -0.1235  0.2814  0.1835
  612TMC3     H 9072   2.977   0.332  10.867 -1.4041  0.3356  0.7027
  612TMC3    H1 9073   2.873   0.523  10.490  0.6588 -0.2623  0.2860
  612TMC3    H2 9074   3.063   0.742  10.807  0.7401 -0.6160  1.0034
  612TMC3    C7 9075   2.954   0.762  10.559  0.1255 -0.7875  0.8364
  612TMC3    C8 9076   3.122   0.541  10.952  0.2424  0.1821 -0.1136
  612TMC3    O1 9077   2.877   0.758  10.465 -0.5591  0.3962  0.1287
  612TMC3    O2 9078   3.132   0.656  10.991  0.0714  0.6681  0.4611
  613MPD2     C 9079   1.582   2.620  16.445 -0.5091  0.1333 -0.6030
  613MPD2    C1 9080   1.685   2.588  16.359 -0.1930  0.0174 -0.3662
  613MPD2    C2 9081   1.664   2.478  16.269  0.1721  0.1983  0.2107
  613MPD2    C3 9082   1.545   2.404  16.261  0.0636  0.0760  0.4245
  613MPD2    C4 9083   1.435   2.454  16.337 -0.0819  0.5944 -0.1630
  613MPD2    C5 9084   1.463   2.548  16.429 -0.0368  0.4030 -0.0277
  613MPD2     H 9085   1.755   2.439  16.225  0.2540  1.4319 -0.7184
  613MPD2    H1 9086   1.335   2.413  16.344  0.8230 -1.3747  1.3213
  613MPD2    H2 9087   1.584   2.701  16.516  0.1604 -1.6055  1.3673
  613MPD2    H3 9088   1.386   2.573  16.501 -1.4833  0.3079 -1.5261
  613MPD2     N 9089   1.526   2.304  16.164 -0.1648 -0.0854 -0.0968
  613MPD2    H5 9090   1.431   2.273  16.144 -0.0425 -0.8142  0.4509
  613MPD2    N1 9091   1.799   2.664  16.369 -0.0169 -0.1971 -0.4212
  613MPD2    H7 9092   1.796   2.734  16.443 -1.3885  0.2218 -0.8636
  614TMC3    C1 9093   1.889   2.647  16.146  0.3463  0.4278  0.5434
  614TMC3    C2 9094   1.969   2.567  16.075  0.9319 -0.1284  0.2087
  614TMC3    C3 9095   1.940   2.543  15.944  0.8811 -0.4482 -0.1406
  614TMC3    C4 9096   1.788   2.720  16.090  0.1959  0.3702 -0.1638
  614TMC3    C5 9097   1.761   2.698  15.955 -0.1759 -1.1144 -0.8875
  614TMC3    C6 9098   1.842   2.613  15.879  0.4207  0.4745 -0.2366
  614TMC3     C 9099   1.913   2.652  16.287  0.3819 -0.0946 -0.2161
  614TMC3     O 9100   2.023   2.696  16.309 -0.3719 -0.4111 -0.8562
  614TMC3     H 9101   2.042   2.509  16.131  0.0146  0.0844  1.6169
  614TMC3    H1 9102   1.729   2.792  16.146  0.4834 -0.1624  0.8102
  614TMC3    H2 9103   1.832   2.587  15.775  3.5527  2.4418 -1.0109
  614TMC3    C7 9104   1.628   2.744  15.906  0.0529  0.4281 -0.0860
  614TMC3    C8 9105   1.937   2.400  15.904  0.2939  0.7318 -0.3678
  614TMC3    O1 9106   1.552   2.813  15.976  0.5146 -1.0918 -0.6763
  614TMC3    O2 9107   1.833   2.374  15.845 -0.3454  0.1371  0.6447
  615MPD2     C 9108   1.428   3.382  16.017 -0.5164  0.0539  0.9031
  615MPD2    C1 9109   1.319   3.430  16.083  0.3358 -0.3316 -0.5253
  615MPD2    C2 9110   1.210   3.476  16.017  0.0687 -0.2377  0.0629
  615MPD2    C3 9111   1.215   3.489  15.876  0.9664  0.3242 -0.4027
  615MPD2    C4 9112   1.323   3.434  15.814 -0.7789 -0.2541  0.1373
  615MPD2    C5 9113   1.432   3.384  15.886 -0.0149 -0.2935  0.3618
  615MPD2     H 9114   1.124   3.522  16.066  0.2501  0.4438 -0.2610
  615MPD2    H1 9115   1.339   3.419  15.708 -0.0212 -1.7521  0.4684
  615MPD2    H2 9116   1.515   3.346  16.070 -0.7134 -0.5182  0.8411
  615MPD2    H3 9117   1.517   3.342  15.833 -0.9633 -1.0447 -0.5591
  615MPD2     N 9118   1.105   3.518  15.799 -0.1540  0.6025  0.2055
  615MPD2    H5 9119   1.120   3.502  15.700 -0.6840  0.5661  0.1285
  615MPD2    N1 9120   1.317   3.433  16.225  0.0422 -0.7030  0.1505
  615MPD2    H7 9121   1.240   3.484  16.267  2.1499  0.4645  2.5145
  616TMC3    C1 9122   1.404   3.471  16.443  0.3001  0.0270  0.4336
  616TMC3    C2 9123   1.347   3.598  16.434 -0.4543 -0.4036  0.1398
  616TMC3    C3 9124   1.341   3.675  16.552 -0.1389 -0.1028 -0.4062
  616TMC3    C4 9125   1.459   3.417  16.554 -1.1264 -0.1521  0.3677
  616TMC3    C5 9126   1.436   3.502  16.662  0.5708 -0.4558 -0.4661
  616TMC3    C6 9127   1.373   3.626  16.667  0.3866 -0.0252 -0.4478
  616TMC3     C 9128   1.418   3.399  16.316 -0.0455 -0.2787  0.3900
  616TMC3     O 9129   1.507   3.319  16.306  0.0454  0.1188  0.1879
  616TMC3     H 9130   1.334   3.651  16.340 -1.2275  2.1206  1.6962
  616TMC3    H1 9131   1.493   3.314  16.551 -1.3032 -0.1999  0.0284
  616TMC3    H2 9132   1.352   3.685  16.755 -2.1639 -1.7657  0.1228
  616TMC3    C7 9133   1.446   3.435  16.793  0.8352 -1.0233  0.2826
  616TMC3    C8 9134   1.355   3.821  16.558  0.3913 -0.6012 -0.3025
  616TMC3    O1 9135   1.452   3.314  16.800 -0.2120 -0.1247 -0.4517
  616TMC3    O2 9136   1.416   3.865  16.656  0.0187  0.0168 -0.2037
  617MPD2     C 9137   3.488   1.959  13.643  0.2947 -0.4650 -1.0390
  617MPD2    C1 9138   3.522   1.868  13.737  0.2232  0.2063 -0.0862
  617MPD2    C2 9139   3.428   1.818  13.826 -0.4354  0.6405 -0.1029
  617MPD2    C3 9140   3.293   1.850  13.811 -0.2385  0.2347 -0.5710
  617MPD2    C4 9141   3.258   1.935  13.709  0.5171 -0.1911  0.4101
  617MPD2    C5 9142   3.355   1.991  13.630 -0.7471 -0.2024  0.3967
  617MPD2     H 9143   3.457   1.744  13.900  1.7567  0.7048 -0.9072
  617MPD2    H1 9144   3.155   1.953  13.682 -0.1361 -1.9055  1.7600
  617MPD2    H2 9145   3.556   2.000  13.570 -1.3665 -0.0619 -2.3586
  617MPD2    H3 9146   3.326   2.047  13.542 -1.7699  0.9419  1.4479
  617MPD2     N 9147   3.185   1.797  13.881 -0.3970 -1.2896 -0.2743
  617MPD2    H5 9148   3.091   1.817  13.847 -0.1199  1.8619  0.7543
  617MPD2    N1 9149   3.660   1.849  13.758  0.2081  0.6906 -0.9076
  617MPD2    H7 9150   3.730   1.913  13.722  0.5935  1.9562  2.0738
  618TMC3    C1 9151   3.856   1.731  13.823 -0.3769  0.6077 -0.2523
  618TMC3    C2 9152   3.926   1.633  13.767  0.6062  0.3452 -0.5044
  618TMC3    C3 9153   4.060   1.647  13.733  0.1465 -0.1073  0.3806
  618TMC3    C4 9154   3.914   1.853  13.853  0.5009 -0.0163  0.2551
  618TMC3    C5 9155   4.049   1.858  13.830 -0.1376 -0.3823 -0.5293
  618TMC3    C6 9156   4.130   1.760  13.771 -0.7188 -0.1647  0.6735
  618TMC3     C 9157   3.710   1.736  13.821 -0.1647  0.6989  0.2972
  618TMC3     O 9158   3.653   1.630  13.830  0.0085  0.6977  0.3676
  618TMC3     H 9159   3.874   1.552  13.719 -1.0141  0.6114  0.8320
  618TMC3    H1 9160   3.865   1.938  13.899  0.8447  0.2905  0.0496
  618TMC3    H2 9161   4.237   1.776  13.762 -0.8844  0.9675  0.7046
  618TMC3    C7 9162   4.130   1.974  13.889  0.2969 -0.4588  0.5231
  618TMC3    C8 9163   4.111   1.563  13.619 -0.2426  0.3190  0.3448
  618TMC3    O1 9164   4.107   2.005  14.009 -0.6543 -0.1300 -0.2149
  618TMC3    O2 9165   4.037   1.477  13.567 -0.1596 -0.3589 -0.4424
  619MPD2     C 9166   4.428   2.756  14.548  0.9696  0.4076 -0.2494
  619MPD2    C1 9167   4.405   2.753  14.416 -0.2530 -0.4614 -0.2254
  619MPD2    C2 9168   4.305   2.834  14.361 -0.4836  0.3980 -0.2075
  619MPD2    C3 9169   4.220   2.911  14.436  0.2786  0.1308 -0.3484
  619MPD2    C4 9170   4.231   2.896  14.570  0.4008 -0.3891  0.1803
  619MPD2    C5 9171   4.340   2.826  14.629  0.0453  0.1737 -0.1203
  619MPD2     H 9172   4.288   2.825  14.254 -2.1170  0.9503  0.0166
  619MPD2    H1 9173   4.157   2.950  14.628  0.1878 -0.0710 -0.3946
  619MPD2    H2 9174   4.518   2.712  14.588  1.0015  0.9915  0.3196
  619MPD2    H3 9175   4.351   2.818  14.737 -2.1616  0.9388  0.1719
  619MPD2     N 9176   4.129   2.991  14.367 -0.2652  0.6485 -0.0259
  619MPD2    H5 9177   4.155   3.002  14.269  1.5786  2.0488  0.6152
  619MPD2    N1 9178   4.473   2.666  14.335 -0.5811  0.0667  0.4990
  619MPD2    H7 9179   4.434   2.656  14.242 -0.6649  1.5307  0.3729
  620TMC3    C1 9180   4.632   2.511  14.246  0.3101  0.5393  0.2223
  620TMC3    C2 9181   4.519   2.476  14.172 -0.1211  0.2372 -0.3670
  620TMC3    C3 9182   4.523   2.480  14.034  0.7364  0.6338  0.5072
  620TMC3    C4 9183   0.029   2.539  14.189  0.0443  0.2373  0.2936
  620TMC3    C5 9184   0.033   2.541  14.051  0.3737 -0.8742  0.6192
  620TMC3    C6 9185   4.645   2.516  13.975 -0.4707  0.2187 -0.4955
  620TMC3     C 9186   4.594   2.609  14.351 -0.7106 -0.8556 -0.1840
  620TMC3     O 9187   4.683   2.641  14.428 -0.2068 -0.3220  0.6692
  620TMC3     H 9188   4.430   2.445  14.224 -0.4817  0.2065 -1.0029
  620TMC3    H1 9189   0.111   2.562  14.256  0.2835 -0.7047  0.3313
  620TMC3    H2 9190   4.652   2.539  13.870 -1.0730  0.3142 -0.5141
  620TMC3    C7 9191   0.143   2.615  13.987  0.4356 -0.7566  0.3809
  620TMC3    C8 9192   4.424   2.578  13.988 -0.4025  0.3384  0.4070
  620TMC3    O1 9193   0.119   2.675  13.885  0.0367  0.6860 -0.1490
  620TMC3    O2 9194   4.375   2.644  14.079 -0.2964  0.0606  0.5304
  621MPD2     C 9195   0.768   3.037   9.916 -0.1049  0.7956  0.1718
  621MPD2    C1 9196   0.651   3.097   9.869  0.8314 -0.3602 -0.1189
  621MPD2    C2 9197   0.655   3.221   9.802 -0.1107 -0.1384  0.3494
  621MPD2    C3 9198   0.778   3.281   9.767  0.3773  0.9107 -0.1205
  621MPD2    C4 9199   0.894   3.213   9.806 -0.6666  0.2468  0.0691
  621MPD2    C5 9200   0.887   3.094   9.878  0.0233  0.1328  0.1469
  621MPD2     H 9201   0.564   3.273   9.775  1.5653  2.4064 -0.4750
  621MPD2    H1 9202   0.988   3.263   9.784 -1.0851  0.0710 -2.1040
  621MPD2    H2 9203   0.772   2.944   9.972 -0.4654  1.1963  0.8693
  621MPD2    H3 9204   0.977   3.042   9.906  0.4899  1.1120  0.4762
  621MPD2     N 9205   0.774   3.390   9.677 -0.1658 -0.5025  0.0001
  621MPD2    H5 9206   0.681   3.403   9.639 -0.7531 -0.0769  1.5909
  621MPD2    N1 9207   0.529   3.031   9.887 -0.3797 -0.2711  0.4023
  621MPD2    H7 9208   0.449   3.079   9.848  0.2967 -1.1054 -1.9913
  622TMC3    C1 9209   0.362   2.888   9.961 -0.5821  0.3500 -0.5800
  622TMC3    C2 9210   0.314   2.824  10.071 -0.4090 -0.1682 -0.0820
  622TMC3    C3 9211   0.182   2.790  10.069  0.1257 -0.5135  0.4921
  622TMC3    C4 9212   0.286   2.909   9.847 -0.2438  0.4386  0.1400
  622TMC3    C5 9213   0.163   2.848   9.845  0.0001 -0.2126 -0.8580
  622TMC3    C6 9214   0.103   2.800   9.958 -0.2420 -0.2175  0.1510
  622TMC3     C 9215   0.503   2.921   9.961  0.3987  0.8369  0.6967
  622TMC3     O 9216   0.569   2.862  10.046 -0.5140  0.0220 -0.6476
  622TMC3     H 9217   0.385   2.809  10.152 -1.0508 -0.3873  0.4305
  622TMC3    H1 9218   0.340   2.945   9.760  0.2088  0.4002  0.4040
  622TMC3    H2 9219   0.003   2.758   9.964 -0.2853 -0.3257 -1.2863
  622TMC3    C7 9220   0.058   2.894   9.754 -0.6027  0.2624  0.8013
  622TMC3    C8 9221   0.149   2.701  10.171  0.3191 -0.5636 -0.1257
  622TMC3    O1 9222   4.665   2.895   9.795  0.1533 -0.3602 -0.0661
  622TMC3    O2 9223   0.224   2.612  10.195 -0.0233  0.6104 -0.3665
  623MPD2     C 9224   4.141   3.734  15.658  0.0650  0.9567 -0.0806
  623MPD2    C1 9225   4.085   3.768  15.781 -0.1050 -0.3449 -0.6766
  623MPD2    C2 9226   4.167   3.813  15.881 -0.2859  0.0314  0.2305
  623MPD2    C3 9227   4.296   3.855  15.859  0.1509  0.4089  0.1440
  623MPD2    C4 9228   4.346   3.823  15.736  0.9977  0.5705 -0.4454
  623MPD2    C5 9229   4.275   3.753  15.640  0.4994 -0.0393  0.2421
  623MPD2     H 9230   4.120   3.834  15.976  1.0439  2.3863  0.3717
  623MPD2    H1 9231   4.451   3.841  15.718  1.2086  0.4546  0.6424
  623MPD2    H2 9232   4.088   3.683  15.579 -0.2570  0.1253  0.6719
  623MPD2    H3 9233   4.325   3.726  15.548  0.1988  1.4115 -0.3476
  623MPD2     N 9234   4.364   3.904  15.977  0.1176 -0.9392  0.2645
  623MPD2    H5 9235   4.309   3.925  16.060  0.3261  0.5217  0.0246
  623MPD2    N1 9236   3.946   3.751  15.817 -0.4423 -0.4177  0.1526
  623MPD2    H7 9237   3.915   3.781  15.909 -0.2561  1.7855 -0.4982
  624TMC3    C1 9238   4.674   4.090  16.275  0.2302 -0.3514  0.5022
  624TMC3    C2 9239   4.572   4.108  16.369  0.1615 -0.2085  0.7025
  624TMC3    C3 9240   4.451   4.076  16.328  0.1319 -0.3610  0.0738
  624TMC3    C4 9241   4.652   4.033  16.145  0.2021 -0.3576 -0.6184
  624TMC3    C5 9242   4.529   4.000  16.113  0.0409  0.0770  0.5104
  624TMC3    C6 9243   4.425   4.014  16.206  0.1171 -0.1520 -0.5356
  624TMC3     C 9244   0.096   4.133  16.310 -0.5603  0.1495 -0.0338
  624TMC3     O 9245   0.120   4.152  16.429 -0.0515  0.1514 -0.0778
  624TMC3     H 9246   4.599   4.123  16.472 -0.1561  0.0299  0.7539
  624TMC3    H1 9247   0.009   4.017  16.075  0.2143 -1.8719 -0.2666
  624TMC3    H2 9248   4.321   3.986  16.205  0.0047  0.1998  0.9308
  624TMC3    C7 9249   4.497   3.930  15.989 -0.1573 -0.4911 -0.3487
  624TMC3    C8 9250   4.348   4.091  16.423  0.3260  0.0407 -0.7188
  624TMC3    O1 9251   4.580   3.923  15.899  0.3592  0.4618 -0.7107
  624TMC3    O2 9252   4.235   4.061  16.380  0.1086  0.3185  0.3018
  625MPD2     C 9253   4.578   0.066   0.688 -0.3055 -0.3658 -0.4378
  625MPD2    C1 9254   4.599   0.201   0.650  0.4571  0.9369  0.6615
  625MPD2    C2 9255   0.005   0.248   0.643 -0.2026 -0.1091 -0.8358
  625MPD2    C3 9256   0.112   0.161   0.672  0.9598  0.0407  0.5904
  625MPD2    C4 9257   0.093   0.023   0.693  0.3332 -0.2273  0.5223
  625MPD2    C5 9258   4.684   4.709   0.699  0.7737  0.0168  0.4505
  625MPD2     H 9259   0.032   0.352   0.632 -1.7399  0.2812 -1.0111
  625MPD2    H1 9260   0.172   4.674   0.696  1.0226  0.5106  0.2336
  625MPD2    H2 9261   4.483   0.012   0.687 -0.0446 -0.8375  0.3779
  625MPD2    H3 9262   4.669   4.605   0.723 -0.2027  0.3756  1.3668
  625MPD2     N 9263   0.246   0.214   0.681  0.1224  0.4110 -0.2249
  625MPD2    H5 9264   0.248   0.315   0.677  1.0872  0.3750 -0.7288
  625MPD2    N1 9265   4.491   0.285   0.625  0.2532 -0.0607 -0.2990
  625MPD2    H7 9266   4.512   0.379   0.593 -1.5411  0.8555  1.1745
  626TMC3    C1 9267   4.265   0.359   0.617 -0.5883  0.3944 -0.4316
  626TMC3    C2 9268   4.307   0.463   0.530  0.3950 -0.0958 -0.1436
  626TMC3    C3 9269   4.221   0.571   0.522 -0.1369  0.3191 -0.2759
  626TMC3    C4 9270   4.152   0.368   0.697 -0.0497  0.7927  0.4635
  626TMC3    C5 9271   4.087   0.492   0.694 -0.4625 -0.6898 -0.4932
  626TMC3    C6 9272   4.118   0.593   0.610  0.0880 -0.6612 -0.9106
  626TMC3     C 9273   4.360   0.249   0.644  0.2427 -0.6285  0.2448
  626TMC3     O 9274   4.308   0.155   0.706 -0.3253  0.1584  0.0793
  626TMC3     H 9275   4.391   0.456   0.461 -0.0927 -0.6221 -0.6860
  626TMC3    H1 9276   4.123   0.288   0.763  0.5496  1.2602  1.3024
  626TMC3    H2 9277   4.051   0.675   0.588  1.1842  0.1697 -1.1150
  626TMC3    C7 9278   3.970   0.508   0.784  0.3309 -0.2273 -0.4087
  626TMC3    C8 9279   4.232   0.657   0.404 -0.3651 -0.1488 -0.7071
  626TMC3    O1 9280   3.904   0.407   0.805  0.1517  0.1853 -0.2958
  626TMC3    O2 9281   4.268   0.601   0.301 -0.2809 -0.0186  0.0236
  627MPD2     C 9282   2.827   0.459  14.388  0.4597 -0.0321  0.4740
  627MPD2    C1 9283   2.859   0.426  14.513  0.4686  0.6808 -0.0040
  627MPD2    C2 9284   2.813   0.307  14.565  0.1709  0.4482 -0.2368
  627MPD2    C3 9285   2.734   0.221  14.488  0.3160 -0.0482 -0.6508
  627MPD2    C4 9286   2.706   0.257  14.356  0.2357  0.0654  0.2115
  627MPD2    C5 9287   2.756   0.369  14.309 -0.2425 -0.3476  0.6455
  627MPD2     H 9288   2.829   0.274  14.667  1.1689  2.5345  0.2821
  627MPD2    H1 9289   2.637   0.205  14.290 -1.6167 -0.2236  2.4000
  627MPD2    H2 9290   2.837   0.556  14.340  0.1364  0.1119  0.6968
  627MPD2    H3 9291   2.740   0.403  14.207 -0.1616  1.4013  1.2030
  627MPD2     N 9292   2.693   0.099  14.546 -0.0474  0.4820 -0.7182
  627MPD2    H5 9293   2.693   0.100  14.647 -0.0923 -1.3412 -0.7087
  627MPD2    N1 9294   2.929   0.506  14.608 -0.2455  0.1815  0.2852
  627MPD2    H7 9295   2.945   0.478  14.705  0.6695  2.3015  0.7369
  628TMC3    C1 9296   3.041   0.693  14.689 -0.2811  0.3626 -0.2310
  628TMC3    C2 9297   3.107   0.609  14.782 -0.4867  0.0677  0.0079
  628TMC3    C3 9298   3.188   0.669  14.877 -0.2306 -0.1829  0.9274
  628TMC3    C4 9299   3.075   0.828  14.686  0.0387 -0.4718 -0.3514
  628TMC3    C5 9300   3.151   0.881  14.783  0.0710  0.6065  0.3525
  628TMC3    C6 9301   3.196   0.803  14.889 -0.2459  0.0670  0.0145
  628TMC3     C 9302   2.963   0.635  14.580  0.4057  0.2805 -0.2371
  628TMC3     O 9303   2.948   0.702  14.479 -0.4474 -0.0668  0.1265
  628TMC3     H 9304   3.105   0.501  14.778 -0.5775  0.0693  0.0228
  628TMC3    H1 9305   3.028   0.888  14.609  2.4677  1.1451 -0.5773
  628TMC3    H2 9306   3.263   0.855  14.956 -0.3096  0.8380 -0.5086
  628TMC3    C7 9307   3.142   1.019  14.816  0.8338  0.1961 -0.1965
  628TMC3    C8 9308   3.224   0.586  14.985 -0.5669 -0.2702  0.2911
  628TMC3    O1 9309   3.143   1.042  14.936  0.4001  0.2656 -0.2980
  628TMC3    O2 9310   3.154   0.486  14.995 -0.2006  0.0560  0.2215
  629MPD2     C 9311   1.426   4.256  16.322 -0.0183  0.4161  0.1216
  629MPD2    C1 9312   1.506   4.194  16.413 -0.6598  0.5671 -1.0039
  629MPD2    C2 9313   1.472   4.072  16.458  0.9777 -0.0405  0.0905
  629MPD2    C3 9314   1.361   4.008  16.408  0.8057 -1.1433  0.1204
  629MPD2    C4 9315   1.281   4.058  16.305 -0.4631 -0.1994  0.6487
  629MPD2    C5 9316   1.317   4.186  16.265 -0.4885  0.0169 -0.2125
  629MPD2     H 9317   1.538   4.018  16.525  2.1759 -2.0553 -2.6682
  629MPD2    H1 9318   1.194   4.015  16.258 -0.0032 -2.0664  1.5145
  629MPD2    H2 9319   1.443   4.359  16.293  0.1513  0.7392  1.3726
  629MPD2    H3 9320   1.250   4.228  16.192 -1.7074 -0.8521  0.4008
  629MPD2     N 9321   1.319   3.880  16.441  0.5097 -0.5108  0.1231
  629MPD2    H5 9322   1.250   3.835  16.383  2.0506  0.2065 -2.2820
  629MPD2    N1 9323   1.620   4.270  16.451  0.4118 -0.3181  0.0985
  629MPD2    H7 9324   1.651   4.345  16.391  0.0142 -0.1387  0.1175
  630TMC3    C1 9325   1.823   4.309  16.570 -0.1261 -0.3281 -0.2367
  630TMC3    C2 9326   1.869   4.391  16.470  0.0884 -0.3577 -0.3009
  630TMC3    C3 9327   1.979   4.458  16.500 -0.1145  0.1694 -0.2268
  630TMC3    C4 9328   1.875   4.304  16.694  0.2886 -0.1228  0.1266
  630TMC3    C5 9329   1.978   4.391  16.723  0.6891 -0.1084  0.3181
  630TMC3    C6 9330   2.038   4.463  16.621 -0.3967  0.3881 -0.1210
  630TMC3     C 9331   1.696   4.236  16.563 -0.0371 -0.1300 -0.3784
  630TMC3     O 9332   1.662   4.167  16.661 -0.5049  0.4174  0.0585
  630TMC3     H 9333   1.814   4.385  16.377  1.9898 -0.5746 -1.4141
  630TMC3    H1 9334   1.827   4.251  16.776 -2.1637 -0.3508 -1.4625
  630TMC3    H2 9335   2.127   4.518  16.648  0.4879 -2.4113  2.6075
  630TMC3    C7 9336   2.045   4.386  16.858  0.6254 -0.0114  0.7283
  630TMC3    C8 9337   2.038   4.551  16.412 -0.7140 -0.1128  0.3139
  630TMC3    O1 9338   2.023   4.301  16.945  0.6289  0.7208 -0.8283
  630TMC3    O2 9339   2.115   4.632  16.455  0.0496  0.4401 -0.0774
  631MPD2     C 9340   0.043   3.658  15.645  0.1934  0.3590  0.2669
  631MPD2    C1 9341   0.115   3.733  15.559  0.2517 -0.3663 -0.1595
  631MPD2    C2 9342   0.251   3.703  15.543 -0.5020 -0.5025  0.4167
  631MPD2    C3 9343   0.316   3.615  15.632 -0.3412  0.5467 -0.2096
  631MPD2    C4 9344   0.239   3.542  15.718  0.1385  0.6736  0.0146
  631MPD2    C5 9345   0.105   3.563  15.723  0.5938  0.3525  0.3282
  631MPD2     H 9346   0.318   3.752  15.473 -1.0579 -3.0622 -1.8965
  631MPD2    H1 9347   0.273   3.456  15.774  0.5731  1.1943  0.5618
  631MPD2    H2 9348   4.659   3.670  15.655 -0.0800 -0.6898 -1.4874
  631MPD2    H3 9349   0.042   3.504  15.790  0.3372 -0.1254 -0.3308
  631MPD2     N 9350   0.452   3.584  15.608 -0.1079  0.2111  0.1010
  631MPD2    H5 9351   0.502   3.634  15.536  0.7568 -1.2932 -0.3420
  631MPD2    N1 9352   0.049   3.840  15.494  0.0862  0.0833  0.4052
  631MPD2    H7 9353   4.672   3.838  15.499  0.0132  0.1337 -1.0299
  632TMC3    C1 9354   4.709   4.000  15.344  0.8799  0.8590  0.2243
  632TMC3    C2 9355   4.611   4.035  15.442 -0.2407  0.0196  0.1730
  632TMC3    C3 9356   4.511   4.113  15.398 -0.8499 -0.6349 -0.1398
  632TMC3    C4 9357   4.707   4.048  15.218 -0.2284 -0.2446  0.5802
  632TMC3    C5 9358   4.605   4.137  15.189  0.4075 -0.2513 -1.0690
  632TMC3    C6 9359   4.503   4.165  15.275  0.4032  0.2125 -0.1296
  632TMC3     C 9360   0.090   3.909  15.384  0.2515  0.0793  0.5696
  632TMC3     O 9361   0.192   3.912  15.319 -0.1000  0.3127 -0.6830
  632TMC3     H 9362   4.600   3.995  15.542  0.2327  0.6232  0.4635
  632TMC3    H1 9363   0.066   4.018  15.154 -0.6814  1.6115 -0.8922
  632TMC3    H2 9364   4.420   4.233  15.259 -0.2540 -0.7150 -0.6654
  632TMC3    C7 9365   4.592   4.177  15.051 -0.1446  0.4076 -0.1080
  632TMC3    C8 9366   4.404   4.159  15.485 -0.6195  0.4928 -0.1472
  632TMC3    O1 9367   4.637   4.111  14.958 -0.2731  0.0316  0.3772
  632TMC3    O2 9368   4.294   4.168  15.435 -0.0919 -0.1949  0.1399
  633MPD2     C 9369   4.262   2.052  17.313  0.0737 -0.5178 -0.1767
  633MPD2    C1 9370   4.243   1.985  17.194  0.1214  0.6872  0.1977
  633MPD2    C2 9371   4.269   1.852  17.191  1.3200  0.5467  0.5167
  633MPD2    C3 9372   4.310   1.778  17.304  0.2211  0.3256 -0.5473
  633MPD2    C4 9373   4.337   1.846  17.418 -0.4080 -0.3557 -0.3505
  633MPD2    C5 9374   4.306   1.981  17.422 -0.4164  0.6461  0.3731
  633MPD2     H 9375   4.258   1.800  17.096 -0.7778  2.1732 -0.1158
  633MPD2    H1 9376   4.370   1.796  17.508 -1.9212  1.6173  1.3103
  633MPD2    H2 9377   4.237   2.155  17.337 -1.8293 -0.4011 -2.6304
  633MPD2    H3 9378   4.309   2.026  17.521  1.0899  0.7435  0.2919
  633MPD2     N 9379   4.329   1.640  17.303  0.5836 -0.5250  0.2272
  633MPD2    H5 9380   4.374   1.594  17.381 -0.5062 -1.7604  0.1270
  633MPD2    N1 9381   4.182   2.046  17.085  0.1266  0.4668 -0.3142
  633MPD2    H7 9382   4.147   1.990  17.007 -1.8846 -0.4381  1.2129
  634TMC3    C1 9383   4.104   2.213  16.938  0.1166  0.2131  0.1301
  634TMC3    C2 9384   4.031   2.129  16.860 -0.5452 -0.0021  0.0087
  634TMC3    C3 9385   3.995   2.168  16.734  0.6624  0.1973  0.2772
  634TMC3    C4 9386   4.147   2.327  16.881  0.2829  0.8493  0.3644
  634TMC3    C5 9387   4.102   2.368  16.753 -0.6171  1.0056 -0.6843
  634TMC3    C6 9388   4.025   2.284  16.676 -0.3628 -0.0963  0.2003
  634TMC3     C 9389   4.162   2.179  17.070  0.0142  0.8565  0.6110
  634TMC3     O 9390   4.193   2.276  17.137  0.0081 -0.3368  0.8087
  634TMC3     H 9391   3.992   2.032  16.890 -1.0192  0.5793  1.2836
  634TMC3    H1 9392   4.227   2.381  16.931  0.6851  2.1777 -1.6712
  634TMC3    H2 9393   3.990   2.316  16.578  1.7664  0.1918 -0.4623
  634TMC3    C7 9394   4.152   2.489  16.683 -0.3954 -0.2251  0.6912
  634TMC3    C8 9395   3.975   2.056  16.648 -0.7444 -0.1287 -0.2574
  634TMC3    O1 9396   4.138   2.506  16.562  0.4251 -0.0567 -0.2672
  634TMC3    O2 9397   4.045   1.952  16.666 -0.0459  0.2667 -0.4952
  635TMC3    C1 9398   0.110   3.011  17.526 -0.4784  0.6823  0.4566
  635TMC3    C2 9399   0.159   2.918  17.443  0.4197 -0.7124  0.6353
  635TMC3    C3 9400   0.093   2.794  17.438  0.3996  0.1086  0.1908
  635TMC3    C4 9401   0.012   2.981  17.618  0.1326 -0.3034 -0.1666
  635TMC3    C5 9402   4.675   2.859  17.610  0.3790  0.5359  0.6959
  635TMC3    C6 9403   4.719   2.757  17.527 -0.2866  0.3938  0.0033
  635TMC3     C 9404   0.170   3.139  17.535  0.3975  0.0158  0.1258
  635TMC3     O 9405   0.166   3.196  17.645 -0.1574 -0.1382  0.3160
  635TMC3     H 9406   0.258   2.937  17.404 -0.3254 -1.5354 -1.6329
  635TMC3    H1 9407   4.707   3.057  17.690 -0.2778 -0.4017 -0.2283
  635TMC3    H2 9408   4.681   2.657  17.540  0.2770  0.4057  1.7445
  635TMC3    C7 9409   4.613   2.800   0.031 -0.0637 -0.2537  1.4378
  635TMC3    C8 9410   0.142   2.689  17.359  0.0939  1.0914 -0.2888
  635TMC3    O1 9411   4.537   2.709   0.011 -0.3471  0.2461 -0.5498
  635TMC3    O2 9412   0.099   2.578  17.379 -0.1302 -0.2191 -0.8857
  636MPD2     C 9413   1.024   2.518  15.558 -0.4030  0.2238  0.5973
  636MPD2    C1 9414   1.075   2.571  15.673  0.0665  1.1734 -0.3558
  636MPD2    C2 9415   1.191   2.514  15.729 -0.4281 -0.2646  0.0918
  636MPD2    C3 9416   1.257   2.406  15.666 -0.0205  0.4030  0.3885
  636MPD2    C4 9417   1.204   2.359  15.551  0.2741 -0.5897 -0.1549
  636MPD2    C5 9418   1.090   2.418  15.499 -0.5069  0.0947 -0.0239
  636MPD2     H 9419   1.223   2.557  15.823  0.6542  2.4206 -1.4919
  636MPD2    H1 9420   1.256   2.281  15.496  2.0380 -0.4740  1.3493
  636MPD2    H2 9421   0.934   2.553  15.509  0.1819  1.6226  0.5082
  636MPD2    H3 9422   1.041   2.391  15.405 -0.6367 -0.0826  0.0936
  636MPD2     N 9423   1.369   2.358  15.731 -0.3883 -0.2121 -0.3316
  636MPD2    H5 9424   1.394   2.400  15.821 -1.6442 -0.3692  0.0847
  636MPD2    N1 9425   1.018   2.668  15.752 -0.4587 -0.2278 -0.5826
  636MPD2    H7 9426   1.047   2.679  15.848 -0.8840  0.5521 -0.5464
  637TMC3    C1 9427   1.515   2.188  15.781 -0.0288 -0.0691  1.1196
  637TMC3    C2 9428   1.500   2.223  15.912  0.1758 -0.4636 -0.2255
  637TMC3    C3 9429   1.583   2.156  16.000 -0.5527  0.3030  0.0684
  637TMC3    C4 9430   1.596   2.084  15.741  0.1016 -0.5337 -0.4140
  637TMC3    C5 9431   1.663   2.013  15.841  0.1708 -0.0245  0.1722
  637TMC3    C6 9432   1.653   2.039  15.973  0.0279  1.1633  0.3778
  637TMC3     C 9433   1.437   2.249  15.683  0.3615  0.0720  0.3208
  637TMC3     O 9434   1.453   2.218  15.566 -0.3777 -0.3102  0.3235
  637TMC3     H 9435   1.421   2.292  15.940  0.1934 -0.8465  0.7740
  637TMC3    H1 9436   1.611   2.070  15.635  1.6081 -0.7851 -0.1674
  637TMC3    H2 9437   1.717   2.002  16.052 -0.6827  0.0967  0.4560
  637TMC3    C7 9438   1.736   1.899  15.798 -0.4349 -0.0716 -0.3040
  637TMC3    C8 9439   1.625   2.223  16.118 -0.2340 -0.6966  0.5586
  637TMC3    O1 9440   1.682   1.815  15.726 -0.1546 -0.3624  0.5042
  637TMC3    O2 9441   1.743   2.201  16.154  0.0540 -0.3658  0.7234
  638MPD2     C 9442   0.471   1.577  14.814  0.0318  0.3069  0.8085
  638MPD2    C1 9443   0.462   1.464  14.735  0.4229 -0.2025 -0.3057
  638MPD2    C2 9444   0.443   1.343  14.800 -0.7133  0.1310 -0.0847
  638MPD2    C3 9445   0.451   1.325  14.935  1.0810 -1.0521  0.1917
  638MPD2    C4 9446   0.456   1.441  15.009 -0.1662  0.1259 -0.4183
  638MPD2    C5 9447   0.457   1.564  14.947  1.3865 -0.2451 -0.0186
  638MPD2     H 9448   0.444   1.249  14.746 -0.7873  0.9958 -1.5980
  638MPD2    H1 9449   0.426   1.437  15.114  1.6303 -0.1329  0.0776
  638MPD2    H2 9450   0.479   1.676  14.769 -0.3024  0.0969  0.2943
  638MPD2    H3 9451   0.449   1.653  15.009  0.0122 -1.1039  1.0261
  638MPD2     N 9452   0.455   1.195  14.985 -0.2768  0.4356  0.1544
  638MPD2    H5 9453   0.437   1.115  14.926 -2.5937  2.0223 -1.2615
  638MPD2    N1 9454   0.470   1.478  14.592  0.2632  0.3669  0.6160
  638MPD2    H7 9455   0.507   1.566  14.556 -1.8675  1.4381  1.0797
  639TMC3    C1 9456   0.436   1.028  15.153 -0.4693  0.0990 -0.0112
  639TMC3    C2 9457   0.367   0.957  15.064 -0.2923  0.5599  0.2405
  639TMC3    C3 9458   0.354   0.822  15.087  0.7452  0.2502  0.4666
  639TMC3    C4 9459   0.509   0.975  15.253  0.0933 -0.6427  0.2591
  639TMC3    C5 9460   0.497   0.843  15.271 -0.0424  0.0106  0.2936
  639TMC3    C6 9461   0.421   0.759  15.190  0.9569  0.0226  0.4195
  639TMC3     C 9462   0.464   1.165  15.118  0.2207 -0.1499 -0.4658
  639TMC3     O 9463   0.488   1.234  15.213  0.6710 -0.4383 -0.4699
  639TMC3     H 9464   0.298   1.003  14.994  1.4895 -1.4021 -2.8202
  639TMC3    H1 9465   0.570   1.028  15.325 -0.1755 -0.1465  0.1265
  639TMC3    H2 9466   0.420   0.650  15.191  1.1514  0.0176  0.1335
  639TMC3    C7 9467   0.601   0.778  15.357 -0.0436  1.0809 -0.2266
  639TMC3    C8 9468   0.319   0.737  14.975 -0.1257  0.9823  0.1567
  639TMC3    O1 9469   0.568   0.663  15.386  0.5663  0.4077 -0.5368
  639TMC3    O2 9470   0.362   0.767  14.863  0.3595 -0.2504 -0.1581
  640MPD2     C 9471   1.484   4.390   9.846  0.0991  0.2278  0.3310
  640MPD2    C1 9472   1.528   4.519   9.877  0.2531  0.7217 -0.0834
  640MPD2    C2 9473   1.447   4.613   9.944 -0.4191 -0.4776  0.4089
  640MPD2    C3 9474   1.311   4.587   9.968  0.9425  0.1307 -0.2602
  640MPD2    C4 9475   1.270   4.460   9.924 -0.0230 -0.1764  0.7910
  640MPD2    C5 9476   1.354   4.366   9.871 -0.2359 -0.4378  0.9427
  640MPD2     H 9477   1.486   4.705   9.987 -0.7186 -0.0449 -0.2445
  640MPD2    H1 9478   1.173   4.415   9.940 -0.3211 -0.2909 -1.3772
  640MPD2    H2 9479   1.550   4.307   9.820 -1.0102 -0.3805 -0.5612
  640MPD2    H3 9480   1.311   4.270   9.844  0.5749 -0.9540  1.4824
  640MPD2     N 9481   1.221   4.659  10.045 -0.1726  0.9153  0.0127
  640MPD2    H5 9482   1.129   4.617  10.048 -0.8465  2.4340  1.1581
  640MPD2    N1 9483   1.659   4.547   9.841 -0.1776  0.5041 -0.1553
  640MPD2    H7 9484   1.716   4.471   9.805  0.4051  0.2377  1.3395
  641TMC3    C1 9485   1.845   4.670   9.786 -0.0792  0.0980  0.5850
  641TMC3    C2 9486   1.922   4.551   9.808  0.3382 -0.1365  0.5597
  641TMC3    C3 9487   2.028   4.534   9.718 -0.5135 -0.5666 -0.6161
  641TMC3    C4 9488   1.877   0.037   9.688 -0.2091  0.0054  0.0494
  641TMC3    C5 9489   1.979   4.721   9.597 -0.1754  0.4451  0.0876
  641TMC3    C6 9490   2.057   4.612   9.610  0.3049 -0.2947  0.1776
  641TMC3     C 9491   1.716   4.674   9.842  0.2271  0.7427  0.0065
  641TMC3     O 9492   1.656   0.055   9.854 -0.2034 -0.0884 -0.2567
  641TMC3     H 9493   1.896   4.479   9.885 -1.2164 -0.6155 -0.4295
  641TMC3    H1 9494   1.826   0.133   9.687 -0.4221 -0.1370 -2.0254
  641TMC3    H2 9495   2.143   4.594   9.546 -1.3319 -0.9245 -1.8172
  641TMC3    C7 9496   2.040   0.097   9.516 -0.3640 -0.5623 -0.3803
  641TMC3    C8 9497   2.102   4.413   9.726  0.1486 -0.6820  0.3105
  641TMC3    O1 9498   2.163   0.108   9.518  0.0897  0.4516 -0.1625
  641TMC3    O2 9499   2.144   4.374   9.616 -0.2404 -0.3900 -0.1286
  642TMC3    C1 9500   2.320   0.950  11.927  0.1232  0.4153  0.0742
  642TMC3    C2 9501   2.364   0.942  12.055  0.2021  0.2242  0.3767
  642TMC3    C3 9502   2.415   0.827  12.108 -0.5865  0.8182 -0.2196
  642TMC3    C4 9503   2.330   0.843  11.843  0.2716  0.0580  0.2747
  642TMC3    C5 9504   2.370   0.718  11.896 -0.9888 -0.4751 -0.3055
  642TMC3    C6 9505   2.419   0.712  12.026  0.2552  0.3036 -0.1699
  642TMC3     C 9506   2.244   1.067  11.877 -0.4936  0.1889  0.2979
  642TMC3     O 9507   2.263   1.101  11.760 -0.4588 -0.0311 -0.0106
  642TMC3     H 9508   2.373   1.024  12.126 -0.8034  2.3890 -2.0045
  642TMC3    H1 9509   2.279   0.839  11.747 -2.7660  0.7670  1.8822
  642TMC3    H2 9510   2.458   0.619  12.065 -0.8406 -0.4461 -0.8358
  642TMC3    C7 9511   2.265   0.623  11.869  0.1617 -0.2494  0.5850
  642TMC3    C8 9512   2.518   0.838  12.216  0.5564  0.4680  0.3097
  642TMC3    O1 9513   2.229   0.615  11.754 -0.4891  0.0784 -0.2454
  642TMC3    O2 9514   2.572   0.947  12.235  0.3868  0.2370  0.1785
  643TMC3    C1 9515   1.328   0.554   0.301 -0.0352 -0.1201 -0.1765
  643TMC3    C2 9516   1.300   0.595   0.169 -0.3292 -0.0064  0.0051
  643TMC3    C3 9517   1.305   0.494   0.077  0.1595 -0.2121 -0.7147
  643TMC3    C4 9518   1.361   0.425   0.335 -0.1646 -0.0667 -0.0284
  643TMC3    C5 9519   1.362   0.332   0.242  0.1917  0.5160  0.1011
  643TMC3    C6 9520   1.334   0.368   0.107  0.2702  0.3027  0.2848
  643TMC3     C 9521   1.327   0.667   0.400 -0.2351 -0.4423 -0.1180
  643TMC3     O 9522   1.306   0.775   0.346 -0.6883 -0.3065 -0.0596
  643TMC3     H 9523   1.262   0.693   0.145 -1.7997 -0.8047 -0.9020
  643TMC3    H1 9524   1.399   0.401   0.434  0.4322 -0.0511 -0.2542
  643TMC3    H2 9525   1.328   0.300   0.022 -3.8319  1.0069  0.0522
  643TMC3    C7 9526   1.463   0.226   0.263 -0.1056  0.2456  0.8502
  643TMC3    C8 9527   1.324   0.536  17.631 -0.0328  0.2819 -0.2806
  643TMC3    O1 9528   1.510   0.210   0.376  0.4338 -0.3201 -0.0154
  643TMC3    O2 9529   1.376   0.457  17.554  0.0910  0.6170  0.1983
  644MPD2     C 9530   1.577   0.740   9.529 -0.6929  0.0950  0.8715
  644MPD2    C1 9531   1.627   0.617   9.567 -0.8357  0.5210 -0.4485
  644MPD2    C2 9532   1.542   0.506   9.555  0.4112 -0.2851 -0.4905
  644MPD2    C3 9533   1.416   0.524   9.502 -1.1469  0.1142  0.1678
  644MPD2    C4 9534   1.374   0.645   9.454 -0.8074 -0.3442 -0.1815
  644MPD2    C5 9535   1.450   0.756   9.481 -0.0520 -0.3874 -0.1616
  644MPD2     H 9536   1.576   0.404   9.572 -0.3490 -0.1192  2.0600
  644MPD2    H1 9537   1.276   0.665   9.413 -0.6821  0.2286 -0.2011
  644MPD2    H2 9538   1.636   0.831   9.532  1.3962 -1.2129 -0.3014
  644MPD2    H3 9539   1.413   0.854   9.453  0.6500 -0.3678 -1.0178
  644MPD2     N 9540   1.327   0.416   9.498  0.0851  0.2893  0.3735
  644MPD2    H5 9541   1.356   0.331   9.546 -4.6802 -0.9016  1.1006
  644MPD2    N1 9542   1.765   0.611   9.598  0.4882 -0.2848  0.2781
  644MPD2    H7 9543   1.812   0.700   9.582  0.5764 -0.4431 -0.3461
  645TMC3    C1 9544   1.146   0.274   9.429  0.3690  1.2024  0.1990
  645TMC3    C2 9545   1.232   0.165   9.433  0.2133  0.1466  0.3370
  645TMC3    C3 9546   1.175   0.039   9.406 -0.2243  0.4943 -0.5110
  645TMC3    C4 9547   1.013   0.268   9.393  0.3876  0.2672  0.7891
  645TMC3    C5 9548   0.962   0.146   9.376  0.0418  0.2415  0.2644
  645TMC3    C6 9549   1.037   0.030   9.381  0.1205  0.1296 -0.1634
  645TMC3     C 9550   1.196   0.413   9.443 -0.1705  0.0419  0.0621
  645TMC3     O 9551   1.137   0.494   9.373  0.2478 -0.1971 -0.4528
  645TMC3     H 9552   1.332   0.179   9.471  0.8190 -2.2986 -0.3308
  645TMC3    H1 9553   0.956   0.358   9.375  0.5699  0.1217 -0.4851
  645TMC3    H2 9554   0.985   4.659   9.373  0.9097 -0.3036 -0.1639
  645TMC3    C7 9555   0.821   0.126   9.402 -0.0436 -0.4209 -0.4538
  645TMC3    C8 9556   1.245   4.646   9.452 -0.9877  0.1642 -0.3520
  645TMC3    O1 9557   0.785   0.006   9.408 -0.8575 -0.1433  0.1830
  645TMC3    O2 9558   1.346   4.657   9.520 -0.4615  0.6954 -0.2823
  646MPD2     C 9559   1.055   0.054  14.785 -0.6411 -0.4362  0.0067
  646MPD2    C1 9560   0.961   4.676  14.793 -0.1999 -0.3301  0.1047
  646MPD2    C2 9561   0.849   4.685  14.716 -0.2704  0.0797  0.2634
  646MPD2    C3 9562   0.836   0.059  14.617 -0.1240  0.0676 -0.0741
  646MPD2    C4 9563   0.940   0.152  14.604  0.0761  0.0509  0.4155
  646MPD2    C5 9564   1.044   0.148  14.686 -0.1440  0.7953 -0.2672
  646MPD2     H 9565   0.768   4.616  14.735  0.8420 -0.3936  3.3077
  646MPD2    H1 9566   0.943   0.232  14.531 -0.0860  0.1303  0.4966
  646MPD2    H2 9567   1.140   0.060  14.851 -1.2303  3.4544  0.4398
  646MPD2    H3 9568   1.123   0.219  14.662  1.7435 -1.5088 -0.7906
  646MPD2     N 9569   0.711   0.078  14.546  0.1746 -0.1756  0.2988
  646MPD2    H5 9570   0.640   0.015  14.583 -0.3433  0.8146  0.9952
  646MPD2    N1 9571   0.984   4.583  14.896 -0.3619 -0.0080 -0.3937
  646MPD2    H7 9572   1.071   4.592  14.947 -0.7357 -0.7449  0.3695
  647TMC3    C1 9573   0.949   4.393  15.040  0.0744 -0.3958 -0.6874
  647TMC3    C2 9574   0.856   4.327  15.116 -0.4025  1.6444 -0.4176
  647TMC3    C3 9575   0.896   4.275  15.227 -0.0336 -0.2240  0.7973
  647TMC3    C4 9576   1.081   4.393  15.057  0.3370 -0.1924 -0.9284
  647TMC3    C5 9577   1.116   4.345  15.186 -0.4004 -0.4888  0.5410
  647TMC3    C6 9578   1.022   4.308  15.272  0.1842  0.0442 -0.1264
  647TMC3     C 9579   0.900   4.473  14.929 -0.8917  0.4660  0.1815
  647TMC3     O 9580   0.799   4.426  14.875  0.1976  0.0019 -0.1537
  647TMC3     H 9581   0.748   4.327  15.101 -0.4599 -0.1124  0.0493
  647TMC3    H1 9582   1.156   4.421  14.985 -0.2344  0.9247 -1.0925
  647TMC3    H2 9583   1.057   4.248  15.356  0.9454  0.1127 -0.3923
  647TMC3    C7 9584   1.225   4.246  15.188  0.5928  0.2581 -0.5201
  647TMC3    C8 9585   0.897   4.135  15.219 -1.0323 -0.3413  0.4273
  647TMC3    O1 9586   1.299   4.245  15.287  0.0006  0.0083  0.3167
  647TMC3    O2 9587   0.937   4.072  15.317  0.5893  0.2413 -0.5509
  648TMC3    C1 9588   4.549   2.152  15.949  0.0013  0.3895 -0.0610
  648TMC3    C2 9589   4.653   2.096  15.872 -0.9165 -1.0010 -0.8260
  648TMC3    C3 9590   4.626   2.084  15.738 -0.4181 -0.2638  0.0158
  648TMC3    C4 9591   4.441   2.209  15.886 -0.1876 -0.3736  0.0498
  648TMC3    C5 9592   4.431   2.214  15.749  0.0306  0.4419  0.3451
  648TMC3    C6 9593   4.519   2.145  15.675 -0.0981  0.1572 -0.4236
  648TMC3     C 9594   4.559   2.172  16.096  0.5541 -1.0122 -0.9533
  648TMC3     O 9595   4.673   2.203  16.139 -0.3057 -0.3253  0.0940
  648TMC3     H 9596   0.018   2.051  15.915 -1.1342  0.7149  1.4192
  648TMC3    H1 9597   4.361   2.248  15.948  0.1355 -0.5576  0.5876
  648TMC3    H2 9598   4.522   2.150  15.567  0.4702 -0.1849 -0.4265
  648TMC3    C7 9599   4.372   2.334  15.687 -0.5024 -0.3116 -0.2826
  648TMC3    C8 9600   0.005   2.012  15.657 -0.0056 -0.8633 -0.4220
  648TMC3    O1 9601   4.377   2.333  15.562  0.0663 -0.0373 -0.6413
  648TMC3    O2 9602   0.102   1.964  15.714 -0.3915  0.2033 -0.3748
  649TMC3    C1 9603   3.612   3.528  13.224  0.0508 -0.1924  0.7353
  649TMC3    C2 9604   3.749   3.547  13.224  0.5431  0.3096 -0.7624
  649TMC3    C3 9605   3.807   3.556  13.348  0.3449  0.3107  0.0168
  649TMC3    C4 9606   3.540   3.533  13.342  0.0520  0.1418  0.0974
  649TMC3    C5 9607   3.605   3.542  13.462  0.3409  0.8619  0.1592
  649TMC3    C6 9608   3.744   3.548  13.465  0.4856  0.2952 -0.3344
  649TMC3     C 9609   3.527   3.509  13.103  0.0979  0.3594 -0.2672
  649TMC3     O 9610   3.405   3.527  13.113 -0.2354 -0.0163  0.4814
  649TMC3     H 9611   3.812   3.549  13.135 -1.1848 -3.8620 -2.0731
  649TMC3    H1 9612   3.434   3.509  13.347  0.4588 -1.3454  1.3319
  649TMC3    H2 9613   3.787   3.543  13.564 -2.9281  0.9754  1.2091
  649TMC3    C7 9614   3.521   3.492  13.572 -0.7085  0.7667 -0.4775
  649TMC3    C8 9615   3.951   3.557  13.364 -1.1744 -0.1284  0.0154
  649TMC3    O1 9616   3.401   3.509  13.567 -0.7717 -0.0506 -0.1047
  649TMC3    O2 9617   4.019   3.473  13.300 -0.2422 -0.0143  0.1345
  650TMC3    C1 9618   1.900   0.527  13.212 -0.0787 -0.0704 -0.3290
  650TMC3    C2 9619   1.863   0.657  13.194 -0.0375  0.4339 -0.0587
  650TMC3    C3 9620   1.737   0.692  13.165 -0.0953 -0.1710  0.7355
  650TMC3    C4 9621   1.799   0.427  13.203  0.1802  1.2350  0.1641
  650TMC3    C5 9622   1.671   0.473  13.171 -0.3007 -0.0654  0.1064
  650TMC3    C6 9623   1.641   0.600  13.145  0.2450 -0.6065  0.6984
  650TMC3     C 9624   2.028   0.491  13.275 -0.6264  0.2770 -0.5082
  650TMC3     O 9625   2.073   0.574  13.352  0.5656  0.2907 -0.1886
  650TMC3     H 9626   1.932   0.740  13.191  1.4095 -0.7482  0.8154
  650TMC3    H1 9627   1.829   0.328  13.237  0.8820  1.1697 -0.6510
  650TMC3    H2 9628   1.540   0.624  13.115  0.4191 -2.5942 -1.4796
  650TMC3    C7 9629   1.588   0.376  13.099  0.3914 -0.1888  0.0794
  650TMC3    C8 9630   1.713   0.827  13.117 -0.4182  0.3695  0.5805
  650TMC3    O1 9631   1.499   0.417  13.027 -1.2474 -0.5437  0.5345
  650TMC3    O2 9632   1.812   0.896  13.092  0.3020  0.2564  0.1581
  651MPD2     C 9633   0.865   2.215  11.169  0.2357 -0.5040  0.1166
  651MPD2    C1 9634   0.808   2.248  11.048  0.0169 -0.4472  0.1053
  651MPD2    C2 9635   0.892   2.287  10.944  0.0490 -0.3542  0.7477
  651MPD2    C3 9636   1.032   2.285  10.957 -1.0493 -0.0338  0.2797
  651MPD2    C4 9637   1.087   2.249  11.075  0.1000  0.4759 -0.7061
  651MPD2    C5 9638   1.002   2.215  11.183  0.8424 -0.4815 -0.2260
  651MPD2     H 9639   0.846   2.306  10.848 -0.4018  1.9604  1.4342
  651MPD2    H1 9640   1.194   2.231  11.082 -0.2707 -1.9489 -1.2631
  651MPD2    H2 9641   0.799   2.186  11.250 -0.5867  0.9574 -0.0255
  651MPD2    H3 9642   1.041   2.185  11.279  2.0695 -1.7922 -1.1352
  651MPD2     N 9643   1.095   2.306  10.838 -0.8565 -0.0938 -0.2960
  651MPD2    H5 9644   1.039   2.341  10.761  2.0634  2.3360 -1.3218
  651MPD2    N1 9645   0.670   2.258  11.026 -0.1764 -0.1271 -0.8903
  651MPD2    H7 9646   0.636   2.276  10.932  1.0320 -1.1195 -1.5189
  652TMC3    C1 9647   1.455   2.263  10.525 -0.0697  0.0616  0.9599
  652TMC3    C2 9648   1.397   2.246  10.647 -0.5673 -0.0931 -0.1204
  652TMC3    C3 9649   1.271   2.291  10.670  0.1266  0.5324  0.2235
  652TMC3    C4 9650   1.398   2.334  10.425  0.1252 -0.5437 -0.1585
  652TMC3    C5 9651   1.270   2.379  10.450 -0.2392 -0.4008  0.4532
  652TMC3    C6 9652   1.207   2.369  10.577 -0.2078  0.1450 -0.0478
  652TMC3     C 9653   1.601   2.228  10.523  0.1759  0.1472  0.1088
  652TMC3     O 9654   1.641   2.145  10.603 -0.1527 -0.3035  0.3987
  652TMC3     H 9655   1.441   2.185  10.725 -1.3127 -0.8791 -0.3144
  652TMC3    H1 9656   1.454   2.359  10.337  0.6207 -0.1957  0.2588
  652TMC3    H2 9657   1.126   2.434  10.609 -0.7214 -0.9740  0.8906
  652TMC3    C7 9658   1.225   2.475  10.345 -0.0622 -0.1215 -0.4500
  652TMC3    C8 9659   1.230   2.287  10.817  0.4396  0.5852 -0.4681
  652TMC3    O1 9660   1.282   2.486  10.241 -0.3557 -0.3063 -0.0141
  652TMC3    O2 9661   1.321   2.267  10.895 -0.3990 -0.0549 -0.2730
  653MPD2     C 9662   4.080   2.308   0.180  0.2228 -0.3433  0.3741
  653MPD2    C1 9663   4.062   2.411   0.082  0.4983 -0.0089  0.1736
  653MPD2    C2 9664   4.022   2.365  17.653 -0.2636 -0.7698 -0.4244
  653MPD2    C3 9665   4.001   2.229  17.622  0.5473  0.1081 -0.0972
  653MPD2    C4 9666   4.037   2.134   0.020 -0.2517 -1.1436 -0.8071
  653MPD2    C5 9667   4.070   2.173   0.147  0.6678  0.1145 -0.2182
  653MPD2     H 9668   3.997   2.442  17.581 -1.4496 -1.0571 -0.3208
  653MPD2    H1 9669   4.019   2.029  17.696 -1.7583 -0.7167 -1.6878
  653MPD2    H2 9670   4.103   2.331   0.283  0.3354  1.6237 -0.0905
  653MPD2    H3 9671   4.105   2.099   0.218 -0.1648  0.8948  1.0190
  653MPD2     N 9672   3.950   2.201  17.490  0.7552  0.1309 -0.9118
  653MPD2    H5 9673   3.921   2.280  17.434 -1.0823 -1.5394 -2.3142
  653MPD2    N1 9674   4.080   2.549   0.107  0.1400 -0.3805 -0.2594
  653MPD2    H7 9675   4.046   2.611   0.033  1.5214  0.1573 -0.4370
  654TMC3    C1 9676   3.860   2.074  17.313 -0.3791 -0.0970  0.0969
  654TMC3    C2 9677   3.778   2.175  17.284  1.0547  0.0878  0.0635
  654TMC3    C3 9678   3.711   2.160  17.159  0.0599  0.0700 -0.0552
  654TMC3    C4 9679   3.882   1.966  17.239  0.1040  0.2681  0.5908
  654TMC3    C5 9680   3.812   1.953  17.121 -0.2351  0.2623 -0.3791
  654TMC3    C6 9681   3.726   2.051  17.081  0.0240  0.0350  0.0184
  654TMC3     C 9682   3.929   2.080  17.437 -0.1898  0.7479 -0.3803
  654TMC3     O 9683   3.961   1.971  17.480 -0.5352  0.0615 -0.6121
  654TMC3     H 9684   3.750   2.254  17.354 -0.1276 -1.1612  0.9954
  654TMC3    H1 9685   3.970   1.907  17.261  0.3925  0.4040 -0.1828
  654TMC3    H2 9686   3.670   2.034  16.990 -0.1081  0.7785 -0.0444
  654TMC3    C7 9687   3.792   1.830  17.051 -1.1770  0.4725  0.1403
  654TMC3    C8 9688   3.596   2.246  17.142 -0.1676  0.6248  0.3122
  654TMC3    O1 9689   3.735   1.844  16.942 -0.1840  0.5868  0.3208
  654TMC3    O2 9690   3.566   2.320  17.236 -0.4352 -0.2531  0.1453
  655MPD2     C 9691   0.708   2.492  15.727 -0.1550  0.5600  0.2219
  655MPD2    C1 9692   0.586   2.491  15.658  0.1310  0.1694 -0.5459
  655MPD2    C2 9693   0.574   2.406  15.551 -0.3884  0.9418 -0.3953
  655MPD2    C3 9694   0.675   2.321  15.507 -0.1865 -0.2037 -0.4072
  655MPD2    C4 9695   0.783   2.308  15.593  0.4207  0.4591  0.5454
  655MPD2    C5 9696   0.796   2.391  15.705  0.0504  0.9656 -0.0214
  655MPD2     H 9697   0.471   2.399  15.516 -0.8819  4.5684  0.3337
  655MPD2    H1 9698   0.856   2.231  15.570  0.5584  0.0595  2.3675
  655MPD2    H2 9699   0.724   2.558  15.811  0.0120  0.5041  0.2340
  655MPD2    H3 9700   0.880   2.389  15.774 -1.7697 -0.3115  2.1190
  655MPD2     N 9701   0.667   2.236  15.396  0.3915  0.3853 -0.3303
  655MPD2    H5 9702   0.739   2.165  15.382  1.1662  0.8802  1.0989
  655MPD2    N1 9703   0.474   2.576  15.683  0.1055  0.2785  0.0465
  655MPD2    H7 9704   0.408   2.586  15.606  0.2765 -2.0783 -0.4135
  656TMC3    C1 9705   0.340   2.737  15.800 -0.2193 -0.4016  0.7502
  656TMC3    C2 9706   0.271   2.714  15.920  0.5831  0.5596 -0.0133
  656TMC3    C3 9707   0.143   2.698  15.908 -0.7934 -0.5253 -0.3664
  656TMC3    C4 9708   0.281   2.736  15.679 -0.3662 -0.5033 -0.2124
  656TMC3    C5 9709   0.148   2.716  15.674 -0.0712  0.6551  0.0057
  656TMC3    C6 9710   0.077   2.689  15.790 -0.0938  0.0961  0.3806
  656TMC3     C 9711   0.462   2.657  15.793 -0.1997 -0.0753  0.3504
  656TMC3     O 9712   0.526   2.646  15.893 -0.0750  0.3230 -0.4759
  656TMC3     H 9713   0.312   2.720  16.021  0.9143 -0.3185 -0.0988
  656TMC3    H1 9714   0.338   2.763  15.591 -1.0303  1.0189 -0.1713
  656TMC3    H2 9715   4.694   2.674  15.775 -0.1465 -0.6895  1.5202
  656TMC3    C7 9716   0.083   2.791  15.564  0.0168 -0.5401 -0.1436
  656TMC3    C8 9717   0.070   2.648  16.011  0.1990  0.0268  0.2421
  656TMC3    O1 9718   0.136   2.791  15.454  0.1956 -0.0301 -0.1144
  656TMC3    O2 9719   0.016   2.538  15.992 -0.1502 -0.0518 -0.2105
  657TMC3    C1 9720   3.863   1.425  14.771  0.0070 -0.1168 -0.7624
  657TMC3    C2 9721   3.859   1.367  14.897 -0.8676  0.6564  0.5043
  657TMC3    C3 9722   3.800   1.444  14.992 -0.8945  0.7211  0.0544
  657TMC3    C4 9723   3.832   1.558  14.748  0.3593  0.2178 -0.5188
  657TMC3    C5 9724   3.787   1.630  14.855 -0.0237 -0.7980  0.1796
  657TMC3    C6 9725   3.763   1.574  14.976  0.0196  0.5108  0.1860
  657TMC3     C 9726   3.927   1.358  14.659  0.0357  0.9362 -0.0763
  657TMC3     O 9727   3.954   1.431  14.560 -0.3128 -1.2245  0.0974
  657TMC3     H 9728   3.904   1.272  14.924  0.4603  0.6682 -1.6878
  657TMC3    H1 9729   3.835   1.612  14.654 -0.8411  1.1272 -0.0313
  657TMC3    H2 9730   3.732   1.623  15.068  0.8031  2.1167 -0.3988
  657TMC3    C7 9731   3.771   1.776  14.847  0.1205  0.0789 -0.9202
  657TMC3    C8 9732   3.776   1.390  15.127 -0.2672  0.3438 -0.4029
  657TMC3    O1 9733   3.707   1.833  14.934 -0.4639 -0.4021  0.1727
  657TMC3    O2 9734   3.739   1.452  15.224 -0.4142  0.5376  0.7516
  658MPD2     C 9735   1.152   1.936  15.043 -0.2050  0.3143  0.8545
  658MPD2    C1 9736   1.028   1.977  14.994  0.5582  0.2333  0.1614
  658MPD2    C2 9737   1.034   2.075  14.898 -0.3424  0.3274  0.8205
  658MPD2    C3 9738   1.147   2.113  14.832 -0.1066 -0.4072  0.0650
  658MPD2    C4 9739   1.268   2.069  14.886  0.0895  0.1629 -0.2916
  658MPD2    C5 9740   1.269   1.981  14.993 -0.4202  0.2544 -0.2650
  658MPD2     H 9741   0.938   2.119  14.873  0.5094  0.4389 -2.2946
  658MPD2    H1 9742   1.357   2.120  14.851  0.6426 -1.9445 -1.9009
  658MPD2    H2 9743   1.148   1.868  15.127  0.2445  1.7214  2.0061
  658MPD2    H3 9744   1.358   1.934  15.033 -0.5714  2.4314  2.6778
  658MPD2     N 9745   1.126   2.208  14.728 -0.1027 -0.2669  0.1854
  658MPD2    H5 9746   1.028   2.229  14.718 -0.4898 -2.0927  0.1194
  658MPD2    N1 9747   0.903   1.937  15.050  0.1498  0.4709 -0.3912
  658MPD2    H7 9748   0.900   1.915  15.149  1.8582  1.7272 -0.0742
  659TMC3    C1 9749   0.667   1.966  15.078 -0.5137 -0.1267 -0.6871
  659TMC3    C2 9750   0.670   2.066  15.172 -0.1911 -0.2696 -0.6452
  659TMC3    C3 9751   0.554   2.122  15.220  0.1142 -0.2863 -0.1455
  659TMC3    C4 9752   0.546   1.941  15.019  0.2582  0.7678 -0.4254
  659TMC3    C5 9753   0.432   2.005  15.061 -0.6407  0.2945  0.2821
  659TMC3    C6 9754   0.431   2.088  15.172  0.5007 -0.0506 -0.0867
  659TMC3     C 9755   0.778   1.946  14.985 -1.2385 -0.1499 -1.1933
  659TMC3     O 9756   0.762   1.967  14.865  0.2007 -0.0568 -0.2244
  659TMC3     H 9757   0.763   2.093  15.221  0.0300 -1.8457 -0.2043
  659TMC3    H1 9758   0.529   1.876  14.934  1.2274 -1.0833  0.7850
  659TMC3    H2 9759   0.342   2.126  15.221 -0.1497 -2.2110  0.3898
  659TMC3    C7 9760   0.302   1.978  15.013 -1.3305 -0.4829 -0.5297
  659TMC3    C8 9761   0.571   2.249  15.297  0.5417  0.5726  0.1732
  659TMC3    O1 9762   0.276   1.870  14.967 -0.3919 -0.2444 -0.6070
  659TMC3    O2 9763   0.496   2.342  15.279  0.5131  0.2848  0.0592
  660MPD2     C 9764   3.539   0.399  12.635 -0.2506  0.2301  0.4103
  660MPD2    C1 9765   3.417   0.464  12.603  0.0348 -0.1624 -0.3119
  660MPD2    C2 9766   3.317   0.465  12.705 -0.1345  0.5881  0.5605
  660MPD2    C3 9767   3.334   0.399  12.822 -0.6395 -0.3518  0.5907
  660MPD2    C4 9768   3.451   0.337  12.846  0.1598  1.1125 -0.2664
  660MPD2    C5 9769   3.556   0.352  12.755  0.7135  0.7530 -0.6604
  660MPD2     H 9770   3.221   0.511  12.681  0.0361 -0.7009 -2.5242
  660MPD2    H1 9771   3.463   0.292  12.944  1.6884 -0.0508 -0.9903
  660MPD2    H2 9772   3.626   0.397  12.570 -0.3595 -1.6457  0.3266
  660MPD2    H3 9773   3.656   0.319  12.778  1.4766  2.8280 -1.0513
  660MPD2     N 9774   3.230   0.375  12.921 -0.1402 -0.9737 -0.6607
  660MPD2    H5 9775   3.263   0.338  13.010  2.1401  2.3361 -0.1315
  660MPD2    N1 9776   3.395   0.514  12.468  0.0809  0.5517 -0.3338
  660MPD2    H7 9777   3.466   0.499  12.397 -1.1001 -0.6647 -1.2713
  661TMC3    C1 9778   3.261   0.615  12.297 -0.3648  0.0789 -0.3633
  661TMC3    C2 9779   3.359   0.611  12.208 -0.9441  0.2083 -0.2760
  661TMC3    C3 9780   3.325   0.632  12.079  0.2140 -0.2542 -0.4948
  661TMC3    C4 9781   3.130   0.635  12.262 -0.4157 -0.0012 -0.3269
  661TMC3    C5 9782   3.103   0.658  12.135 -0.7069  0.2994  0.0778
  661TMC3    C6 9783   3.199   0.653  12.041 -0.9920  0.1325 -0.6842
  661TMC3     C 9784   3.288   0.598  12.440  0.1837 -1.3955 -0.1349
  661TMC3     O 9785   3.198   0.640  12.511 -0.1292 -0.5874 -0.3861
  661TMC3     H 9786   3.459   0.605  12.248 -1.0694  0.4266  0.0680
  661TMC3    H1 9787   3.051   0.627  12.335 -1.2340  1.1272 -1.0932
  661TMC3    H2 9788   3.178   0.671  11.936 -2.6543 -1.2342 -0.5733
  661TMC3    C7 9789   2.986   0.747  12.113  0.3529  0.3198 -0.1096
  661TMC3    C8 9790   3.428   0.662  11.987 -0.1026 -0.3796 -0.0804
  661TMC3    O1 9791   2.988   0.838  12.195 -0.6689  0.3011 -0.3551
  661TMC3    O2 9792   3.404   0.644  11.867 -0.5846 -0.0366 -0.1055
  662MPD2     C 9793   3.840   0.564   0.392 -0.2333 -0.1182  0.5446
  662MPD2    C1 9794   3.713   0.584   0.440  0.4052 -0.4826 -0.7464
  662MPD2    C2 9795   3.669   0.715   0.410  0.0934  0.0658  0.2871
  662MPD2    C3 9796   3.743   0.808   0.333  0.1910  0.4085 -0.1102
  662MPD2    C4 9797   3.858   0.764   0.270 -0.3727 -0.0505 -0.4631
  662MPD2    C5 9798   3.912   0.649   0.316 -0.6560 -0.0544 -0.3537
  662MPD2     H 9799   3.576   0.745   0.457  0.1855 -1.0255  1.1450
  662MPD2    H1 9800   3.914   0.829   0.203 -1.7291 -0.1885 -1.7154
  662MPD2    H2 9801   3.885   0.467   0.409 -1.0071 -0.6131 -0.2921
  662MPD2    H3 9802   4.010   0.621   0.281 -0.6319  2.5007 -2.3215
  662MPD2     N 9803   3.696   0.939   0.324  0.5954  0.0771  0.2116
  662MPD2    H5 9804   3.737   0.996   0.251 -1.1596  1.2433  0.1289
  662MPD2    N1 9805   3.645   0.478   0.506  0.5698 -0.2616 -0.1809
  662MPD2    H7 9806   3.694   0.389   0.511 -0.5661 -0.9316 -0.8846
  663TMC3    C1 9807   3.454   0.356   0.571  0.1644  0.6654 -0.3931
  663TMC3    C2 9808   3.329   0.381   0.606  0.7078  0.0917  0.5378
  663TMC3    C3 9809   3.229   0.295   0.563 -0.2927  0.3328 -1.0867
  663TMC3    C4 9810   3.500   0.243   0.497  0.1263  0.5460 -0.0363
  663TMC3    C5 9811   3.404   0.166   0.449 -0.1808  0.5356 -0.6609
  663TMC3    C6 9812   3.268   0.194   0.476  0.2976 -0.2720 -0.0553
  663TMC3     C 9813   3.509   0.481   0.539 -0.4324 -0.0245  0.0585
  663TMC3     O 9814   3.428   0.571   0.519 -0.2147 -0.0351  1.0497
  663TMC3     H 9815   3.313   0.469   0.668  1.3590  0.0326  0.7884
  663TMC3    H1 9816   3.594   0.245   0.445 -1.6764  0.3343 -3.2767
  663TMC3    H2 9817   3.202   0.108   0.468  0.2698 -0.0946 -1.9321
  663TMC3    C7 9818   3.448   0.026   0.433  0.4818 -0.1213  0.2755
  663TMC3    C8 9819   3.119   0.373   0.510 -0.4951  0.5189  0.6382
  663TMC3    O1 9820   3.560   0.003   0.477  0.0051  0.6554  0.5327
  663TMC3    O2 9821   3.014   0.308   0.486 -0.1451 -0.0179  0.1588
  664MPD2     C 9822   1.544   4.092  17.544  0.2115 -0.4993 -0.6674
  664MPD2    C1 9823   1.618   4.133  17.651 -0.2719  0.5439  0.0457
  664MPD2    C2 9824   1.552   4.130   0.074 -0.2180  0.5141  0.7786
  664MPD2    C3 9825   1.419   4.094   0.089  0.1020 -0.3946 -0.5298
  664MPD2    C4 9826   1.345   4.063  17.669  0.3824 -0.2102  0.4297
  664MPD2    C5 9827   1.409   4.055  17.549 -0.1513 -1.1084  0.0809
  664MPD2     H 9828   1.613   4.138   0.163  1.2153 -1.9964  0.0184
  664MPD2    H1 9829   1.245   4.024  17.683  0.6175 -1.6391 -1.8914
  664MPD2    H2 9830   1.584   4.102  17.444 -0.6468  1.1342 -0.8629
  664MPD2    H3 9831   1.362   4.023  17.457  0.6664  0.9197 -1.0647
  664MPD2     N 9832   1.365   4.082   0.216 -0.2881  0.3433  0.2593
  664MPD2    H5 9833   1.435   4.091   0.290  0.5286 -1.5797 -0.2849
  664MPD2    N1 9834   1.748   4.180  17.641  0.2301 -0.1003 -0.6605
  664MPD2    H7 9835   1.793   4.212   0.029  0.4963 -0.4261 -0.6799
  665TMC3    C1 9836   1.214   4.034   0.381  0.0286  0.8372  0.5124
  665TMC3    C2 9837   1.094   4.071   0.439  0.4005  0.0765 -0.1097
  665TMC3    C3 9838   1.064   4.016   0.565 -0.1590  0.3540  0.5763
  665TMC3    C4 9839   1.303   3.946   0.434  0.2184 -0.5284  0.0892
  665TMC3    C5 9840   1.256   3.885   0.545 -0.4821 -0.5177  0.1083
  665TMC3    C6 9841   1.138   3.915   0.616  0.9771  0.1284  0.2533
  665TMC3     C 9842   1.230   4.082   0.243 -0.0497 -0.1379 -0.3440
  665TMC3     O 9843   1.137   4.129   0.178  0.0739  0.5009 -0.5543
  665TMC3     H 9844   1.043   4.158   0.398 -2.6175 -3.0538 -3.0448
  665TMC3    H1 9845   1.392   3.917   0.380 -0.7120  1.1425 -2.3417
  665TMC3    H2 9846   1.104   3.861   0.704  0.0743 -2.0281 -1.4277
  665TMC3    C7 9847   1.374   3.852   0.634  0.3358 -0.1157  0.3298
  665TMC3    C8 9848   0.925   4.010   0.597  0.2160 -0.1951 -0.0883
  665TMC3    O1 9849   1.475   3.816   0.579 -0.0045  0.4424  0.0433
  665TMC3    O2 9850   0.888   3.940   0.686 -0.3303  0.1173 -0.2892
  666TMC3    C1 9851   0.820   3.539   9.506  0.1316  0.1500  0.7265
  666TMC3    C2 9852   0.931   3.556   9.417 -0.6255  0.4470  0.4361
  666TMC3    C3 9853   0.973   3.687   9.392 -0.2293 -1.1722 -0.2783
  666TMC3    C4 9854   0.753   3.653   9.551 -0.1192  0.0011  0.6610
  666TMC3    C5 9855   0.794   3.783   9.511 -0.2742  0.3454 -0.1651
  666TMC3    C6 9856   0.912   3.797   9.439  0.2666  0.8246  0.5257
  666TMC3     C 9857   0.873   3.450   9.611 -0.8211 -0.0634  0.3732
  666TMC3     O 9858   0.994   3.426   9.610 -0.3452  0.0007 -0.4275
  666TMC3     H 9859   0.978   3.465   9.380 -0.3368  1.2457 -1.1634
  666TMC3    H1 9860   0.677   3.643   9.628 -0.9747 -0.1984 -0.2126
  666TMC3    H2 9861   0.941   3.895   9.402  1.0523  0.8268  1.1349
  666TMC3    C7 9862   0.779   3.875   9.618 -0.0703  0.5269 -0.3387
  666TMC3    C8 9863   1.117   3.696   9.409  0.0020  0.3098 -0.0842
  666TMC3    O1 9864   0.751   3.824   9.723 -0.2897 -1.2612  0.0681
  666TMC3    O2 9865   1.174   3.798   9.376 -0.1436  0.1955  0.2372
  667MPD2     C 9866   2.525   3.942  14.563  0.3459 -0.9305 -0.3747
  667MPD2    C1 9867   2.439   3.939  14.684  0.7597 -0.3054 -1.1779
  667MPD2    C2 9868   2.328   3.862  14.682  0.0968  0.1586  0.0315
  667MPD2    C3 9869   2.303   3.771  14.573  0.4553  0.9744  0.5669
  667MPD2    C4 9870   2.384   3.767  14.467  0.2988 -0.1104  0.0313
  667MPD2    C5 9871   2.497   3.846  14.465  0.4147  0.1494  0.1249
  667MPD2     H 9872   2.267   3.865  14.771  0.1903  0.2786  0.0911
  667MPD2    H1 9873   2.375   3.702  14.380  0.8654  0.6221 -0.5820
  667MPD2    H2 9874   2.615   4.001  14.551 -0.4809  0.5894  1.0263
  667MPD2    H3 9875   2.563   3.823  14.383  0.2948 -1.1670  0.3853
  667MPD2     N 9876   2.193   3.683  14.579  0.0717 -0.0730 -0.6633
  667MPD2    H5 9877   2.169   3.624  14.500  0.0526  1.0560 -1.5074
  667MPD2    N1 9878   2.458   4.017  14.799 -0.2986 -0.7096 -0.0501
  667MPD2    H7 9879   2.386   4.007  14.870  0.4667  1.2480  0.9781
  668TMC3    C1 9880   2.535   4.172  14.936 -0.3396 -0.4942  0.2639
  668TMC3    C2 9881   2.582   4.301  14.944 -0.1611 -0.2795  0.4251
  668TMC3    C3 9882   2.603   4.345  15.072  0.4016 -0.2801 -0.3165
  668TMC3    C4 9883   2.513   4.088  15.044  0.6917 -0.0363  0.9146
  668TMC3    C5 9884   2.542   4.135  15.165  0.2070  0.3598 -0.0352
  668TMC3    C6 9885   2.580   4.267  15.185  0.4056 -0.6883 -0.7221
  668TMC3     C 9886   2.559   4.102  14.820  0.2456 -0.2439  0.3457
  668TMC3     O 9887   2.642   4.148  14.742 -0.1852 -0.0115 -1.0120
  668TMC3     H 9888   2.592   4.357  14.852  1.8251 -2.8930 -0.9448
  668TMC3    H1 9889   2.495   3.981  15.036  0.2498  0.1127 -0.1823
  668TMC3    H2 9890   2.592   4.310  15.284 -2.3443  0.5489 -0.9276
  668TMC3    C7 9891   2.517   4.060  15.281 -0.1302 -0.6634 -0.6987
  668TMC3    C8 9892   2.659   4.474  15.097  0.5707 -0.7631  0.0368
  668TMC3    O1 9893   2.576   4.096  15.382 -0.1485 -0.3922 -0.4173
  668TMC3    O2 9894   2.668   4.509  15.214  0.0102  0.6082  0.0765
  669TMC3    C1 9895   0.597   3.781  14.304 -0.2248 -0.3484 -0.5558
  669TMC3    C2 9896   0.476   3.775  14.249 -0.5040  0.3499 -0.4904
  669TMC3    C3 9897   0.446   3.857  14.145 -0.0916 -0.2682 -0.9482
  669TMC3    C4 9898   0.693   3.879  14.259 -0.1089  0.3207  0.1955
  669TMC3    C5 9899   0.657   3.960  14.163 -0.7416  0.6504  0.3885
  669TMC3    C6 9900   0.533   3.955  14.105 -0.0762  0.1595 -0.3312
  669TMC3     C 9901   0.599   3.721  14.437  0.2278  0.1730 -0.2234
  669TMC3     O 9902   0.487   3.686  14.479 -0.0976  1.0367  0.5276
  669TMC3     H 9903   0.410   3.691  14.269  1.4434 -1.1065 -0.1479
  669TMC3    H1 9904   0.771   3.904  14.330  0.0444  1.0491 -0.2335
  669TMC3    H2 9905   0.511   4.021  14.022  0.4230 -0.1562 -0.7147
  669TMC3    C7 9906   0.723   4.090  14.175 -0.5750 -0.1501  0.1756
  669TMC3    C8 9907   0.369   3.803  14.042  0.6526 -0.8091  0.2792
  669TMC3    O1 9908   0.842   4.087  14.206 -0.3122 -0.0677  1.1269
  669TMC3    O2 9909   0.390   3.689  14.003 -0.3008 -0.3533 -0.6060
  670MPD2     C 9910   3.253   1.611  13.419  0.2869  0.3603  0.4227
  670MPD2    C1 9911   3.385   1.621  13.460  0.4089  0.4432 -0.0500
  670MPD2    C2 9912   3.431   1.558  13.578  0.7042 -0.1368 -0.9329
  670MPD2    C3 9913   3.348   1.494  13.664  0.0130  0.1973  0.1047
  670MPD2    C4 9914   3.216   1.480  13.623  0.0011  0.0803  0.4128
  670MPD2    C5 9915   3.172   1.546  13.502  0.0233  0.5373 -0.1005
  670MPD2     H 9916   3.533   1.575  13.611  0.6003 -2.1328  0.3635
  670MPD2    H1 9917   3.145   1.417  13.676  0.5090 -1.3844 -0.6591
  670MPD2    H2 9918   3.210   1.654  13.329  1.6861  0.8179 -0.0364
  670MPD2    H3 9919   3.066   1.539  13.481  0.4982 -0.1065 -2.2410
  670MPD2     N 9920   3.412   1.449  13.783 -0.3016  0.0298 -0.3848
  670MPD2    H5 9921   3.507   1.483  13.791  0.2106 -1.5001  0.1949
  670MPD2    N1 9922   3.474   1.712  13.398 -0.1009  0.5088  1.0692
  670MPD2    H7 9923   3.563   1.717  13.445  0.8526 -1.9956 -0.4790
  671TMC3    C1 9924   3.422   1.410  14.016 -0.0009 -0.3232 -0.0369
  671TMC3    C2 9925   3.563   1.395  14.006 -0.4727  0.3573  0.0641
  671TMC3    C3 9926   3.625   1.341  14.109  0.3208 -1.2904  0.3776
  671TMC3    C4 9927   3.351   1.383  14.135 -0.5135  0.5502 -0.1180
  671TMC3    C5 9928   3.419   1.322  14.234  0.1749 -0.4805  0.8031
  671TMC3    C6 9929   3.559   1.307  14.229  0.4389 -0.5400 -0.8309
  671TMC3     C 9930   3.345   1.400  13.894  0.3081  0.4697 -0.0088
  671TMC3     O 9931   3.226   1.374  13.901  0.2068 -0.5163 -0.7169
  671TMC3     H 9932   3.611   1.389  13.910 -0.1156 -0.7491  0.3162
  671TMC3    H1 9933   3.243   1.383  14.142 -0.4195  0.4380  1.3162
  671TMC3    H2 9934   3.623   1.260  14.303  1.2467  0.1764 -1.0741
  671TMC3    C7 9935   3.351   1.211  14.291  0.5120  0.5753 -0.0665
  671TMC3    C8 9936   3.753   1.273  14.094 -0.1758 -0.6955  0.3945
  671TMC3    O1 9937   3.246   1.168  14.245  0.0531  0.4156 -0.0589
  671TMC3    O2 9938   3.768   1.180  14.171  0.3591 -0.6579 -0.1695
  672MPD2     C 9939   3.772   2.054   1.026  0.5929 -0.1393  0.5914
  672MPD2    C1 9940   3.901   2.091   0.978 -0.6469  0.1912  0.2059
  672MPD2    C2 9941   3.996   2.136   1.068 -0.0872  0.4447  0.1685
  672MPD2    C3 9942   3.973   2.147   1.204 -0.0252 -0.1407  0.5272
  672MPD2    C4 9943   3.846   2.124   1.246 -0.7881 -0.3947 -0.2897
  672MPD2    C5 9944   3.751   2.076   1.155 -1.0389 -0.9286 -0.2429
  672MPD2     H 9945   4.093   2.175   1.040  0.6705 -0.9318  0.8493
  672MPD2    H1 9946   3.813   2.148   1.346  0.4987  2.1516 -0.4862
  672MPD2    H2 9947   3.698   2.020   0.955  0.9977 -0.0098  0.1045
  672MPD2    H3 9948   3.649   2.053   1.183 -0.5306 -0.2327  2.2318
  672MPD2     N 9949   4.070   2.184   1.302 -0.2720 -0.0709 -0.1882
  672MPD2    H5 9950   4.032   2.215   1.391 -1.8929 -3.4724  0.3107
  672MPD2    N1 9951   3.931   2.066   0.839 -0.0730  0.1553  0.4239
  672MPD2    H7 9952   4.025   2.085   0.807 -0.8924  1.3928 -1.2810
  673TMC3    C1 9953   3.894   2.042   0.606  0.3456  0.3884  0.1174
  673TMC3    C2 9954   4.001   1.956   0.585  0.3743 -0.6761  0.5479
  673TMC3    C3 9955   4.018   1.918   0.452  0.5633  0.9076 -0.0199
  673TMC3    C4 9956   3.809   2.083   0.510 -0.1074  0.0412 -0.2344
  673TMC3    C5 9957   3.832   2.043   0.382 -0.5037 -0.6108  0.3342
  673TMC3    C6 9958   3.930   1.957   0.355  0.0767 -0.6837  0.1961
  673TMC3     C 9959   3.833   2.052   0.740  0.8607 -0.2567  0.5017
  673TMC3     O 9960   3.718   2.095   0.745  0.0700  0.0533  0.5892
  673TMC3     H 9961   4.070   1.924   0.662  1.1090 -0.9707 -0.2343
  673TMC3    H1 9962   3.725   2.143   0.542 -0.5284 -0.7288  0.1036
  673TMC3    H2 9963   3.938   1.927   0.251  1.1296 -0.5977  0.2578
  673TMC3    C7 9964   3.761   2.113   0.278 -0.3481  0.0798  0.8098
  673TMC3    C8 9965   4.145   1.869   0.401  0.4271  0.0998  0.2346
  673TMC3    O1 9966   3.750   2.049   0.176 -0.0443 -0.3401 -0.4984
  673TMC3    O2 9967   4.151   1.863   0.280 -0.7942  0.2653  0.3192
  674MPD2     C 9968   3.444   1.985  17.427  0.1082  0.0060  0.4799
  674MPD2    C1 9969   3.475   1.925  17.541 -0.7789 -0.9697 -0.0001
  674MPD2    C2 9970   3.465   2.001  17.653 -0.3543 -0.4351 -0.3766
  674MPD2    C3 9971   3.413   2.126  17.658 -0.8347  0.1117  0.7306
  674MPD2    C4 9972   3.373   2.191  17.540 -0.5089 -0.2571  0.3180
  674MPD2    C5 9973   3.391   2.115  17.428 -0.4224  0.3552  0.0796
  674MPD2     H 9974   3.487   1.954   0.051  3.4799  0.2532 -0.9337
  674MPD2    H1 9975   3.325   2.289  17.542 -0.0940 -0.0465 -0.5024
  674MPD2    H2 9976   3.446   1.929  17.334  0.4686 -2.0466  1.7174
  674MPD2    H3 9977   3.362   2.156  17.332  2.9589  1.4795 -0.4594
  674MPD2     N 9978   3.384   2.176   0.091 -0.5182 -0.0629  0.2265
  674MPD2    H5 9979   3.414   2.116   0.167 -0.3015  0.4920  0.5776
  674MPD2    N1 9980   3.513   1.790  17.553 -0.6339 -0.0521 -0.2959
  674MPD2    H7 9981   3.514   1.759  17.650  0.8881  1.0052  0.0171
  675TMC3    C1 9982   3.588   1.570  17.521  0.3394 -0.6993 -0.0629
  675TMC3    C2 9983   3.539   1.542  17.642 -0.0432  0.1748 -0.6463
  675TMC3    C3 9984   3.640   1.508   0.044  0.0795 -0.1377  0.2461
  675TMC3    C4 9985   3.712   1.535  17.481  0.3838  0.1218  0.0961
  675TMC3    C5 9986   3.806   1.501  17.577 -0.6981  0.1946  0.3457
  675TMC3    C6 9987   3.763   1.477   0.005 -0.5061  0.6532  0.1799
  675TMC3     C 9988   3.543   1.695  17.456 -0.4824 -0.0172  0.3581
  675TMC3     O 9989   3.550   1.701  17.331 -0.3666 -0.4051  0.0844
  675TMC3     H 9990   3.437   1.566  17.669  0.3992 -1.1967  2.2097
  675TMC3    H1 9991   3.743   1.568  17.383 -0.6479 -0.2589 -0.3501
  675TMC3    H2 9992   3.828   1.453   0.089 -1.5392 -0.7407  0.5796
  675TMC3    C7 9993   3.936   1.445  17.533 -0.0395  0.2274 -0.7980
  675TMC3    C8 9994   3.631   1.593   0.161 -0.3729  0.7225 -0.3917
  675TMC3    O1 9995   3.942   1.388  17.422 -0.1980 -0.1459  0.3875
  675TMC3    O2 9996   3.555   1.688   0.141 -0.2824  0.2714 -0.5855
  676MPD2     C 9997   1.760   4.543  10.717  0.1127 -0.0474  0.2059
  676MPD2    C1 9998   1.724   4.450  10.808  0.2587 -0.6365 -0.1255
  676MPD2    C2 9999   1.766   4.319  10.789 -0.2730  0.1921 -0.1922
  676MPD2    C310000   1.856   4.283  10.696 -0.8409  0.3245  0.4252
  676MPD2    C410001   1.901   4.383  10.608 -0.3258  0.3177  0.4366
  676MPD2    C510002   1.849   4.509  10.619  0.8203 -0.0523  0.1995
  676MPD2     H10003   1.717   4.244  10.851  1.4527 -1.8762 -1.3570
  676MPD2    H110004   1.972   4.361  10.530 -0.6694 -1.2486  0.5642
  676MPD2    H210005   1.733   4.648  10.715  0.5295  0.0138 -2.1185
  676MPD2    H310006   1.892   4.585  10.555 -0.4925 -0.3774 -1.0652
  676MPD2     N10007   1.898   4.148  10.684  0.3037  0.0510 -0.2488
  676MPD2    H510008   1.948   4.121  10.600  1.1905 -1.2910  0.7240
  676MPD2    N110009   1.640   4.476  10.914  0.1363  0.7015  0.3882
  676MPD2    H710010   1.617   4.392  10.966  0.9670 -1.5573 -2.8864
  677TMC3    C110011   1.498   4.613  11.039 -0.2436  0.1041  0.5681
  677TMC3    C210012   1.410   4.508  11.049  0.0723 -0.5923  0.3037
  677TMC3    C310013   1.313   4.513  11.144 -0.5405 -0.1595  0.2493
  677TMC3    C410014   1.489   0.003  11.116  0.1861  1.4485  0.0321
  677TMC3    C510015   1.384   0.009  11.209  0.6948  0.2202 -0.4231
  677TMC3    C610016   1.294   4.627  11.219 -0.0296 -0.2365  0.7445
  677TMC3     C10017   1.613   4.605  10.955  0.2400  0.2290 -0.3969
  677TMC3     O10018   1.672   4.708  10.922 -0.2370  0.3221  0.5229
  677TMC3     H10019   1.407   4.432  10.972  1.3929  2.5671 -2.8772
  677TMC3    H110020   1.558   0.087  11.108  1.2838  0.5620  0.2684
  677TMC3    H210021   1.207   4.634  11.283 -1.0635  0.9540 -0.7947
  677TMC3    C710022   1.366   0.112  11.303 -0.2305 -0.0988  0.6305
  677TMC3    C810023   1.223   4.403  11.147 -0.3608 -0.4803 -0.0814
  677TMC3    O110024   1.261   0.114  11.366 -0.1501 -0.0553  0.3721
  677TMC3    O210025   1.198   4.340  11.041  0.2331 -0.2083 -0.3561
  678MPD2     C10026   2.299   0.379   1.502  0.3039  0.0994 -0.6577
  678MPD2    C110027   2.313   0.279   1.412 -0.2330  0.5403  0.6119
  678MPD2    C210028   2.224   0.175   1.405  0.3479 -0.3617  0.0179
  678MPD2    C310029   2.111   0.181   1.487  0.1368 -1.2409 -0.4263
  678MPD2    C410030   2.103   0.274   1.585  0.3071  0.3501 -0.1310
  678MPD2    C510031   2.197   0.371   1.595 -0.0549  0.5022  0.6438
  678MPD2     H10032   2.236   0.093   1.336  1.0733 -0.9192  0.8164
  678MPD2    H110033   2.021   0.270   1.656 -0.3879  0.6541 -0.9002
  678MPD2    H210034   2.368   0.462   1.511  1.1773 -0.5918 -1.0328
  678MPD2    H310035   2.174   0.448   1.667  0.6279  1.2886  0.0201
  678MPD2     N10036   2.005   0.090   1.454  0.1880  0.5595 -0.2402
  678MPD2    H510037   2.019   0.020   1.382  0.7839 -0.3342  0.7336
  678MPD2    N110038   2.419   0.278   1.316  0.1990 -0.2061 -0.4005
  678MPD2    H710039   2.433   0.189   1.269  1.8760 -0.8166  1.2293
  679TMC3    C110040   2.803   0.264   1.180  0.0887  0.0044  0.0660
  679TMC3    C210041   2.666   0.254   1.201 -0.5592  0.8984  0.3817
  679TMC3    C310042   2.609   0.383   1.211  0.5379 -0.4749 -0.0210
  679TMC3    C410043   2.864   0.385   1.155  0.2123  0.2557 -0.3262
  679TMC3    C510044   2.796   0.507   1.154 -0.1356  0.7278 -1.0200
  679TMC3    C610045   2.661   0.506   1.178  0.1266  0.3035  0.1306
  679TMC3     C10046   2.883   0.146   1.174 -0.1222  0.3071 -0.3998
  679TMC3     O10047   2.825   0.040   1.172  0.1065 -0.2067 -0.6609
  679TMC3     H10048   2.622   0.161   1.235  0.2001 -0.2554 -1.8052
  679TMC3    H110049   2.966   0.385   1.119  0.1140 -0.0536 -0.6109
  679TMC3    H210050   2.611   0.601   1.187  2.3437  1.5734 -0.9708
  679TMC3    C710051   2.870   0.634   1.111  0.8378 -0.7812 -0.2060
  679TMC3    C810052   2.491   0.396   1.282 -0.0050  0.6444 -0.4472
  679TMC3    O110053   2.804   0.719   1.056  0.6031 -0.1698  0.3558
  679TMC3    O210054   2.476   0.513   1.325 -0.2707 -0.1081 -0.6317
  680MPD2     C10055   2.751   3.510  13.751 -0.1299 -0.2327  0.7878
  680MPD2    C110056   2.841   3.438  13.837 -0.4383 -0.0793  0.3423
  680MPD2    C210057   2.909   3.508  13.937 -0.2132  0.4763 -0.0709
  680MPD2    C310058   2.903   3.646  13.951 -0.7526  0.5035 -0.1517
  680MPD2    C410059   2.819   3.719  13.866  0.1791 -0.1953  0.6540
  680MPD2    C510060   2.741   3.649  13.770 -0.2365  0.6565 -0.2132
  680MPD2     H10061   2.957   3.447  14.013 -1.0246 -0.5760 -0.4025
  680MPD2    H110062   2.811   3.827  13.869 -0.4677 -0.2526  1.1763
  680MPD2    H210063   2.677   3.475  13.681  0.8199  0.0233 -0.3340
  680MPD2    H310064   2.673   3.713  13.715 -0.0219 -0.3068 -1.5847
  680MPD2     N10065   2.963   3.723  14.052 -0.5820  0.3362  0.7286
  680MPD2    H510066   2.943   3.822  14.040 -0.7887  0.1831 -0.1793
  680MPD2    N110067   2.867   3.297  13.823  0.0565 -0.7715  0.1434
  680MPD2    H710068   2.927   3.253  13.892 -0.3612 -1.7847 -0.1484
  681TMC3    C110069   2.827   3.073  13.751 -0.7103  0.3814 -0.0285
  681TMC3    C210070   2.755   3.005  13.843  0.3367  0.3600 -0.3622
  681TMC3    C310071   2.832   2.932  13.930  0.4886  0.4296 -0.2164
  681TMC3    C410072   2.960   3.053  13.730 -0.5225 -0.4408 -0.8915
  681TMC3    C510073   3.026   2.970  13.814  0.4011  0.0857  0.4210
  681TMC3    C610074   2.968   2.903  13.914  0.5516  0.5661 -0.2441
  681TMC3     C10075   2.790   3.214  13.740 -0.1789  0.1056 -1.0594
  681TMC3     O10076   2.675   3.228  13.698 -0.7890  0.4889 -0.0136
  681TMC3     H10077   2.653   3.035  13.866  0.8176  1.1617  0.7108
  681TMC3    H110078   3.007   3.087  13.638  0.6027  1.0865  0.2627
  681TMC3    H210079   3.028   2.845  13.984  1.0788  1.7203  0.2765
  681TMC3    C710080   3.171   2.969  13.811  0.1075 -0.3089 -0.0688
  681TMC3    C810081   2.784   2.927  14.069 -0.0852  0.3911  0.1876
  681TMC3    O110082   3.232   2.872  13.854  0.3127  0.5336 -0.6737
  681TMC3    O210083   2.673   2.888  14.088 -0.2698  0.0681  0.4435
  682MPD2     C10084   1.044   4.510  10.835 -0.3978  0.7199 -0.1470
  682MPD2    C110085   0.939   4.431  10.796  0.8444 -0.6269 -0.4701
  682MPD2    C210086   0.824   4.423  10.865  0.4331 -0.1202  0.5838
  682MPD2    C310087   0.808   4.496  10.985 -0.4452  0.0776 -0.2694
  682MPD2    C410088   0.917   4.577  11.025  0.0695  0.2967  0.2061
  682MPD2    C510089   1.035   4.579  10.955  0.3000  0.2543 -0.2961
  682MPD2     H10090   0.747   4.360  10.823  0.4910 -0.1598  0.5368
  682MPD2    H110091   0.906   4.629  11.119 -0.9997 -0.2067  0.3631
  682MPD2    H210092   1.136   4.520  10.778 -0.2144 -0.4639 -0.0456
  682MPD2    H310093   1.112   4.648  10.986  0.4736  0.0604 -0.2948
  682MPD2     N10094   0.683   4.510  11.059  0.3203  0.0834  0.3092
  682MPD2    H510095   0.678   4.566  11.143  0.8885  0.2101  0.2566
  682MPD2    N110096   0.952   4.347  10.676  0.0183 -0.7656  0.0017
  682MPD2    H710097   0.871   4.295  10.647 -0.7792 -0.3338  1.4668
  683TMC3    C110098   0.393   4.521  11.335  0.0549 -0.7267  0.2008
  683TMC3    C210099   0.306   4.416  11.343 -0.1354  0.5042  0.9202
  683TMC3    C310100   0.305   4.322  11.242  0.5435  0.3963 -0.2286
  683TMC3    C410101   0.482   4.532  11.236  0.0505  0.2938  0.5727
  683TMC3    C510102   0.476   4.436  11.138  0.8715  0.7495 -1.2503
  683TMC3    C610103   0.387   4.330  11.139 -0.6483  0.2604 -0.3190
  683TMC3     C10104   0.391   4.630  11.436 -0.0994  0.4543 -0.4607
  683TMC3     O10105   0.476   4.719  11.435 -0.1384  0.1515  0.8465
  683TMC3     H10106   0.237   4.403  11.426 -0.8019 -0.9241  0.1489
  683TMC3    H110107   0.544   4.620  11.224  1.6498 -0.9785 -0.4537
  683TMC3    H210108   0.366   4.270  11.052  1.0017 -0.3198 -0.3176
  683TMC3    C710109   0.567   4.440  11.027  0.0547 -0.1569  0.1390
  683TMC3    C810110   0.246   4.195  11.267 -0.5068 -0.6764  0.0393
  683TMC3    O110111   0.553   4.351  10.947  0.3298 -0.0914 -0.0077
  683TMC3    O210112   0.139   4.191  11.323  0.5602 -0.1941  0.2776
  684MPD2     C10113   3.866   4.036  16.323 -0.2743 -0.0167 -0.3125
  684MPD2    C110114   3.740   4.062  16.270  0.6352  0.4813  0.1791
  684MPD2    C210115   3.671   4.177  16.310  0.5089  0.6502 -0.2998
  684MPD2    C310116   3.726   4.258  16.410  0.4281 -0.3957 -0.1092
  684MPD2    C410117   3.838   4.221  16.478 -0.2972  0.1221 -0.2699
  684MPD2    C510118   3.914   4.124  16.422  0.2402 -0.2127  0.4894
  684MPD2     H10119   3.578   4.200  16.259 -0.7674 -0.6017  1.4406
  684MPD2    H110120   3.874   4.267  16.569  2.0682  1.0202 -1.6462
  684MPD2    H210121   3.919   3.946  16.293  0.9192  1.5705 -2.9606
  684MPD2    H310122   3.998   4.098  16.485 -0.5580  0.9332  2.0170
  684MPD2     N10123   3.648   4.365  16.473 -0.3590  0.1175  0.1513
  684MPD2    H510124   3.678   4.408  16.560 -0.9445 -0.6781  0.7513
  684MPD2    N110125   3.682   3.982  16.173 -0.4885 -0.4687 -0.5004
  684MPD2    H710126   3.581   3.991  16.170 -0.4869 -0.2794  0.0180
  685TMC3    C110127   3.672   3.810  16.020  0.2986 -0.3578  0.2281
  685TMC3    C210128   3.564   3.873  15.963 -0.1221 -0.1206 -0.6638
  685TMC3    C310129   3.541   3.841  15.831  0.1148  0.1654  0.6491
  685TMC3    C410130   3.749   3.720  15.946 -0.2460 -0.3485 -0.0854
  685TMC3    C510131   3.726   3.695  15.816 -0.1485  0.3739 -0.3584
  685TMC3    C610132   3.621   3.760  15.758 -0.4889  0.0820 -0.4595
  685TMC3     C10133   3.756   3.891  16.104 -1.0470 -0.3021 -0.4868
  685TMC3     O10134   3.877   3.888  16.086  0.1687 -0.0010  0.4861
  685TMC3     H10135   3.523   3.964  16.005 -0.7098 -0.3805 -0.6858
  685TMC3    H110136   3.820   3.666  16.007  0.6164  1.4567  0.5223
  685TMC3    H210137   3.598   3.735  15.655  0.0712 -0.0982 -0.5413
  685TMC3    C710138   3.849   3.701  15.739  0.2986 -0.1312  0.2636
  685TMC3    C810139   3.403   3.848  15.784  0.1635  0.2643 -0.7538
  685TMC3    O110140   3.847   3.686  15.619  0.2706  0.4381  0.1140
  685TMC3    O210141   3.377   3.796  15.674 -0.2552 -0.7688 -0.1410
  686MPD2     C10142   0.526   3.944  15.268 -0.3316 -0.2213  0.2642
  686MPD2    C110143   0.583   3.907  15.391  0.0627  0.1824 -0.1045
  686MPD2    C210144   0.685   3.817  15.397  0.1297 -0.2234  0.2095
  686MPD2    C310145   0.730   3.758  15.280 -0.3037  0.0192  0.0051
  686MPD2    C410146   0.676   3.792  15.159 -0.1620 -0.1447  0.0580
  686MPD2    C510147   0.579   3.887  15.150  0.5514 -0.6086  0.4609
  686MPD2     H10148   0.725   3.794  15.495 -1.0530 -2.1999  0.2243
  686MPD2    H110149   0.709   3.748  15.066 -1.0410 -0.2589 -0.1983
  686MPD2    H210150   0.432   3.998  15.268  0.4149  1.0735  0.9651
  686MPD2    H310151   0.530   3.895  15.053 -2.3010  1.5812  2.0822
  686MPD2     N10152   0.823   3.655  15.271 -0.5551  0.1192  0.5889
  686MPD2    H510153   0.863   3.647  15.178 -1.2972 -0.5609  0.3277
  686MPD2    N110154   0.518   3.952  15.507  0.0552  0.1664  0.2105
  686MPD2    H710155   0.433   4.007  15.496 -0.9473 -1.3555  0.2381
  687TMC3    C110156   0.821   3.578  15.508  1.0334  0.1400 -0.2700
  687TMC3    C210157   0.697   3.530  15.528 -0.0385 -0.1996  0.7253
  687TMC3    C310158   0.658   3.512  15.657  0.5333 -0.4948  0.1583
  687TMC3    C410159   0.919   3.580  15.604  0.4912 -0.3799 -0.2271
  687TMC3    C510160   0.884   3.541  15.731 -0.4815 -0.0531 -0.3559
  687TMC3    C610161   0.754   3.513  15.762  0.2512 -0.6401  0.2741
  687TMC3     C10162   0.883   3.581  15.375 -0.3043  0.4237 -0.3700
  687TMC3     O10163   0.980   3.508  15.359 -0.1703  0.1439 -0.0152
  687TMC3     H10164   0.624   3.530  15.448 -0.6103  0.5022  1.2527
  687TMC3    H110165   1.020   3.614  15.588  0.6289 -0.7783 -0.2046
  687TMC3    H210166   0.727   3.497  15.866 -0.1378 -1.2998  0.0712
  687TMC3    C710167   0.977   3.546  15.840 -0.1095 -0.4140  0.2234
  687TMC3    C810168   0.520   3.505  15.692  0.5550 -0.5882  0.5254
  687TMC3    O110169   0.931   3.557  15.950  0.0748 -0.4460 -0.0264
  687TMC3    O210170   0.493   3.478  15.805  0.7717  0.2625 -0.0039
  688MPD2     C10171   4.408   3.089  17.377 -0.0987  0.0318  0.4354
  688MPD2    C110172   4.401   2.949  17.414  1.2420  0.2554  0.2915
  688MPD2    C210173   4.461   2.863  17.317  0.3236 -0.2748  0.6252
  688MPD2    C310174   4.521   2.904  17.202  0.6123  0.0317  0.0202
  688MPD2    C410175   4.540   3.039  17.190  1.0755  0.6174  0.2583
  688MPD2    C510176   4.478   3.128  17.270  1.1680  0.2694 -0.0016
  688MPD2     H10177   4.451   2.757  17.333  2.3506 -0.4995  0.3222
  688MPD2    H110178   4.593   3.080  17.105  0.6016  3.3324  1.2612
  688MPD2    H210179   4.352   3.163  17.434 -0.5888  1.0745 -1.3770
  688MPD2    H310180   4.484   3.234  17.246 -1.9291  0.0211 -1.7948
  688MPD2     N10181   4.581   2.827  17.102 -0.1493  0.0347  0.3299
  688MPD2    H510182   4.618   2.874  17.021  0.7965  0.2447  0.8925
  688MPD2    N110183   4.350   2.897  17.542 -0.1265  0.7320  0.1949
  688MPD2    H710184   4.341   2.797  17.559 -2.2655  1.0444  0.9369
  689TMC3    C110185   4.286   2.912   0.077  0.5162 -0.7020 -0.3779
  689TMC3    C210186   4.299   2.982   0.192  1.1166 -0.8710 -0.2033
  689TMC3    C310187   4.248   2.941   0.312  0.0464  0.1846 -0.0312
  689TMC3    C410188   4.218   2.790   0.078  1.0201 -0.1715 -0.4007
  689TMC3    C510189   4.169   2.749   0.198  0.3192 -0.1702 -0.2755
  689TMC3    C610190   4.176   2.822   0.313  0.1418  0.0744  0.3660
  689TMC3     C10191   4.327   2.985  17.652 -0.2159 -0.1772  0.2859
  689TMC3     O10192   4.354   3.102  17.660  0.0103 -0.0265  0.6203
  689TMC3     H10193   4.349   3.079   0.192 -0.4962 -0.0569 -2.1597
  689TMC3    H110194   4.212   2.730  17.685  1.0210 -1.6882  0.6073
  689TMC3    H210195   4.143   2.780   0.407 -0.5253 -0.2187 -0.0003
  689TMC3    C710196   4.123   2.612   0.221  1.3594  0.4252  0.7736
  689TMC3    C810197   4.278   3.000   0.439  0.1070  0.2692  0.0431
  689TMC3    O110198   4.137   2.554   0.328  0.4378 -0.3982  0.3495
  689TMC3    O210199   4.225   2.945   0.537  0.3644  0.6164  0.6288
  690MPD2     C10200   1.659   0.132  15.241  0.0468 -0.3524  0.3491
  690MPD2    C110201   1.533   0.183  15.259  0.9506 -0.2885  0.1672
  690MPD2    C210202   1.502   0.300  15.196  0.0809  0.7633  0.7089
  690MPD2    C310203   1.595   0.364  15.115 -0.1205 -0.6314 -0.1294
  690MPD2    C410204   1.728   0.322  15.117 -0.3481 -0.0133 -0.4452
  690MPD2    C510205   1.757   0.208  15.187 -0.3017 -0.4325 -0.1923
  690MPD2     H10206   1.403   0.343  15.191 -0.4287 -0.5156 -0.4188
  690MPD2    H110207   1.812   0.366  15.064  0.7299  0.1049  1.3840
  690MPD2    H210208   1.691   0.031  15.265  3.3565  0.9755  1.5480
  690MPD2    H310209   1.854   0.161  15.175 -1.1597 -2.4198  0.5947
  690MPD2     N10210   1.544   0.485  15.048  0.0162 -0.0275 -0.1946
  690MPD2    H510211   1.447   0.513  15.055 -0.6526 -2.4756  0.1655
  690MPD2    N110212   1.433   0.109  15.325 -0.2212 -0.0535  0.0238
  690MPD2    H710213   1.348   0.163  15.341  1.0447  1.7352  0.6807
  691TMC3    C110214   1.336   4.665  15.447 -0.0544 -0.1893 -0.9548
  691TMC3    C210215   1.282   0.030  15.538  0.3009 -0.1078  0.6017
  691TMC3    C310216   1.240   4.688  15.649  0.5070 -0.3182  0.0843
  691TMC3    C410217   1.330   4.528  15.465  0.2191 -0.3996  0.5819
  691TMC3    C510218   1.285   4.472  15.577 -0.2077  0.4653  0.2788
  691TMC3    C610219   1.240   4.560  15.674 -0.7171 -0.5816  0.5983
  691TMC3     C10220   1.442   4.705  15.360 -0.0101  0.0482  0.0118
  691TMC3     O10221   1.516   4.615  15.328 -0.2087 -0.5031 -0.1782
  691TMC3     H10222   1.311   0.134  15.538  1.0464 -0.3068  1.0608
  691TMC3    H110223   1.366   4.460  15.389  1.1749 -0.0459  0.7253
  691TMC3    H210224   1.196   4.516  15.763 -0.8836  0.8177  1.2069
  691TMC3    C710225   1.351   4.354  15.626 -0.1956  0.2099 -0.4944
  691TMC3    C810226   1.214   0.049  15.761 -0.5193  0.5504  0.1875
  691TMC3    O110227   1.358   4.349  15.749 -0.1034  0.3140 -0.7265
  691TMC3    O210228   1.262   0.005  15.864 -0.4388 -0.1931  0.0074
  692TMC3    C110229   3.474   1.071  16.131  1.1442 -0.1698  0.2062
  692TMC3    C210230   3.596   1.047  16.173  0.0546  0.3207 -0.2722
  692TMC3    C310231   3.633   0.933  16.240  0.0338  0.0622 -0.3009
  692TMC3    C410232   3.374   0.983  16.141 -0.6431  0.8184  0.3164
  692TMC3    C510233   3.405   0.855  16.190  0.1102  0.0654  0.2832
  692TMC3    C610234   3.535   0.830  16.227  0.1705  0.0843 -0.7834
  692TMC3     C10235   3.447   1.212  16.160 -0.1649 -0.3361  0.5053
  692TMC3     O10236   3.533   1.290  16.121  0.5434  0.7122  0.0118
  692TMC3     H10237   3.661   1.133  16.182  0.7584 -0.1138 -1.1685
  692TMC3    H110238   3.276   1.008  16.104 -0.4185  0.3191 -0.6192
  692TMC3    H210239   3.539   0.748  16.298 -0.7783  0.3155 -0.4694
  692TMC3    C710240   3.304   0.754  16.175 -0.3881  0.3646  0.2101
  692TMC3    C810241   3.667   0.966  16.378  0.2115  0.2332 -0.0372
  692TMC3    O110242   3.211   0.775  16.097 -0.7495 -0.8254  0.0696
  692TMC3    O210243   3.726   0.881  16.441 -0.4242 -0.1825 -0.1563
  693MPD2     C10244   3.131   3.829  10.632  0.3788  0.6422 -0.5770
  693MPD2    C110245   3.087   3.715  10.574  0.1596 -0.2475  0.0914
  693MPD2    C210246   3.161   3.596  10.589 -0.3055  0.3632  0.5728
  693MPD2    C310247   3.279   3.598  10.662  0.6548  0.0246  0.0871
  693MPD2    C410248   3.327   3.715  10.719  0.2340  0.4313  0.5586
  693MPD2    C510249   3.250   3.832  10.702  0.0595  0.4749 -0.2060
  693MPD2     H10250   3.124   3.499  10.560  2.0947 -0.2411 -0.4644
  693MPD2    H110251   3.422   3.712  10.771  1.7989 -0.3083 -2.3528
  693MPD2    H210252   3.068   3.917  10.632 -0.5287 -0.0087  1.3506
  693MPD2    H310253   3.278   3.927  10.747 -0.3060  1.8834 -2.9362
  693MPD2     N10254   3.354   3.477  10.690 -0.2059 -0.6837  0.3203
  693MPD2    H510255   3.425   3.487  10.761 -0.7163 -0.7976  0.8457
  693MPD2    N110256   2.965   3.720  10.506  0.2865  0.1838 -0.2428
  693MPD2    H710257   2.906   3.798  10.534 -0.9228 -1.1033  0.8097
  694TMC3    C110258   2.765   3.631  10.409  0.1650 -0.3863 -0.4322
  694TMC3    C210259   2.709   3.536  10.328  0.0158  0.8250  0.4730
  694TMC3    C310260   2.589   3.488  10.363  0.7268 -0.0100 -0.0055
  694TMC3    C410261   2.687   3.682  10.517  0.8112 -0.5060 -0.0261
  694TMC3    C510262   2.569   3.619  10.549 -0.7053  0.1560 -0.4337
  694TMC3    C610263   2.521   3.517  10.481  0.2698  0.7136 -0.4819
  694TMC3     C10264   2.911   3.616  10.440  0.3846 -0.0198  0.1875
  694TMC3     O10265   2.963   3.514  10.392 -0.3457  0.1733  0.3349
  694TMC3     H10266   2.762   3.503  10.239 -1.1181  0.8526 -0.2022
  694TMC3    H110267   2.727   3.752  10.590  3.7012 -0.9194 -1.2231
  694TMC3    H210268   2.424   3.477  10.507 -0.0436  1.7889 -0.0080
  694TMC3    C710269   2.530   3.626  10.689 -0.6315  0.2698 -0.5518
  694TMC3    C810270   2.513   3.417  10.266  0.1168 -0.1160  1.3787
  694TMC3    O110271   2.521   3.739  10.736  0.1942 -0.1426 -0.3604
  694TMC3    O210272   2.515   3.467  10.155  0.3232 -1.0802  0.3238
  695MPD2     C10273   3.781   0.262  13.895  0.8592 -0.1407 -0.2050
  695MPD2    C110274   3.776   0.392  13.950 -0.1260 -0.1248 -0.2243
  695MPD2    C210275   3.657   0.450  13.987 -0.2868 -0.6027  0.8333
  695MPD2    C310276   3.538   0.387  13.955 -0.3636 -0.2106  0.2534
  695MPD2    C410277   3.535   0.267  13.880 -0.2944 -0.1164  0.3055
  695MPD2    C510278   3.659   0.205  13.858 -0.5575 -0.0207  0.3508
  695MPD2     H10279   3.660   0.544  14.041  2.3795 -1.1153  1.5618
  695MPD2    H110280   3.451   0.211  13.841 -0.5246  1.4314 -1.4365
  695MPD2    H210281   3.869   0.200  13.888  2.1661  1.8182 -1.1325
  695MPD2    H310282   3.667   0.116  13.796 -3.2372  2.8342 -4.0925
  695MPD2     N10283   3.416   0.437  13.998  0.0742  0.8850  0.6978
  695MPD2    H510284   3.427   0.526  14.045  0.7126  1.5126 -0.6527
  695MPD2    N110285   3.895   0.458  14.003  0.1536 -0.0952 -0.5805
  695MPD2    H710286   3.880   0.549  14.044 -3.6458  0.0249 -2.2460
  696TMC3    C110287   3.184   0.467  14.032  0.0607  0.0647 -0.4088
  696TMC3    C210288   3.208   0.525  14.154  0.1437 -0.0261  0.1461
  696TMC3    C310289   3.106   0.608  14.198  0.3271 -0.4664 -0.9684
  696TMC3    C410290   3.066   0.492  13.959 -1.0437 -0.1419 -0.1007
  696TMC3    C510291   2.967   0.570  14.012  0.0746  0.3740 -0.0841
  696TMC3    C610292   2.985   0.618  14.140  0.9546  0.4332 -0.8561
  696TMC3     C10293   3.290   0.389  13.972  0.5174  0.1917 -0.2648
  696TMC3     O10294   3.255   0.295  13.903 -0.0900 -0.8783 -0.0824
  696TMC3     H10295   3.304   0.510  14.201 -0.0616 -1.6839  0.0506
  696TMC3    H110296   3.053   0.464  13.855  2.3613  1.5317 -1.0090
  696TMC3    H210297   2.905   0.681  14.178  1.9771 -0.2929  2.4963
  696TMC3    C710298   2.896   0.661  13.919 -0.2877 -0.5614 -0.0480
  696TMC3    C810299   3.149   0.729  14.256  0.4341 -0.0741 -0.3922
  696TMC3    O110300   2.862   0.610  13.814  0.3153  0.2064  0.1461
  696TMC3    O210301   3.097   0.827  14.206 -0.0291  0.2974  0.0015
  697MPD2     C10302   2.321   2.372  15.607 -0.3212  0.3390 -0.5180
  697MPD2    C110303   2.414   2.354  15.503  0.2532 -0.4754  0.2593
  697MPD2    C210304   2.490   2.469  15.467  0.4676  0.3653 -0.4925
  697MPD2    C310305   2.460   2.595  15.527 -1.1880 -0.1392  0.5377
  697MPD2    C410306   2.362   2.606  15.621 -0.8722  0.2541  0.6692
  697MPD2    C510307   2.292   2.495  15.661 -0.2230  0.7189  1.2617
  697MPD2     H10308   2.554   2.460  15.380 -0.5925 -1.2552 -1.0866
  697MPD2    H110309   2.326   2.700  15.661 -1.7530  0.7633 -1.3743
  697MPD2    H210310   2.257   2.291  15.641  1.0804  0.8127  3.2907
  697MPD2    H310311   2.210   2.504  15.733 -2.9156 -0.4604 -1.6588
  697MPD2     N10312   2.520   2.704  15.465 -0.3693  0.0466  0.9205
  697MPD2    H510313   2.579   2.688  15.384  1.4311 -1.7045  2.5941
  697MPD2    N110314   2.434   2.231  15.437 -0.2152  0.0157 -1.1012
  697MPD2    H710315   2.506   2.225  15.366 -1.0922  2.6942 -2.2078
  698TMC3    C110316   2.628   2.912  15.461  0.1557 -0.3077 -0.0016
  698TMC3    C210317   2.697   2.997  15.538  0.5113 -0.0592 -0.8184
  698TMC3    C310318   2.804   3.062  15.479 -0.8372 -0.6393 -0.8220
  698TMC3    C410319   2.671   2.871  15.336  0.2990 -0.7634  0.3360
  698TMC3    C510320   2.786   2.929  15.292  0.1279 -0.2029 -0.3095
  698TMC3    C610321   2.853   3.031  15.358 -0.1406 -0.0124  0.4920
  698TMC3     C10322   2.546   2.822  15.531  0.5135  0.2617 -0.2291
  698TMC3     O10323   2.528   2.845  15.647  0.6402 -0.2441 -0.0310
  698TMC3     H10324   2.670   3.038  15.634 -0.2797 -0.7259 -0.7556
  698TMC3    H110325   2.616   2.805  15.270  1.0252  0.0749 -1.1006
  698TMC3    H210326   2.945   3.075  15.321 -0.7509  2.3167  1.7418
  698TMC3    C710327   2.817   2.908  15.149  0.2086  0.4044 -0.2332
  698TMC3    C810328   2.889   3.134  15.572 -0.4785 -0.2887  0.4091
  698TMC3    O110329   2.718   2.892  15.075  0.4024 -0.2903 -0.3850
  698TMC3    O210330   2.916   3.098  15.683 -0.1423  0.3373 -0.7615
  699TMC3    C110331   3.024   0.448  13.028  0.3455  0.4541  0.3793
  699TMC3    C210332   3.096   0.435  13.145 -0.1994 -0.0422 -0.4888
  699TMC3    C310333   3.064   0.514  13.256  0.5176  0.0881  0.8586
  699TMC3    C410334   2.918   0.532  13.015 -0.5882 -0.9307 -0.0342
  699TMC3    C510335   2.898   0.611  13.124 -0.3629  0.4220 -0.1087
  699TMC3    C610336   2.973   0.610  13.240  0.2667  0.3736  0.3507
  699TMC3     C10337   3.100   0.425  12.906  0.2979 -0.3537  0.0996
  699TMC3     O10338   3.049   0.488  12.820 -0.9106  0.2725  0.0428
  699TMC3     H10339   3.154   0.345  13.160  1.5421  1.5108  2.1025
  699TMC3    H110340   2.857   0.522  12.925  0.8096  0.8597 -1.1771
  699TMC3    H210341   2.965   0.687  13.316 -2.1705  1.4664 -1.0196
  699TMC3    C710342   2.782   0.692  13.122 -0.4939 -0.2606 -0.2859
  699TMC3    C810343   3.081   0.469  13.388  0.9849 -0.6226 -0.0504
  699TMC3    O110344   2.776   0.774  13.214  0.1076  0.5804  0.4452
  699TMC3    O210345   2.998   0.505  13.470 -0.2996  0.3585  0.3285
  700TMC3    C110346   1.837   3.214  17.220 -0.3664  0.0749  0.4299
  700TMC3    C210347   1.897   3.091  17.242 -0.3353 -0.1809 -0.4327
  700TMC3    C310348   1.972   3.072  17.358  0.2321  0.4607 -0.2088
  700TMC3    C410349   1.836   3.316  17.318  0.1124 -0.3578 -0.4096
  700TMC3    C510350   1.911   3.290  17.428  0.3784  0.4117  0.4710
  700TMC3    C610351   1.986   3.181  17.445 -0.6804 -0.3029 -0.1005
  700TMC3     C10352   1.832   3.247  17.078 -0.1631  0.2498 -0.5089
  700TMC3     O10353   1.794   3.169  16.992 -0.3789 -0.2490 -0.1310
  700TMC3     H10354   1.898   3.025  17.157  1.6660  0.6897 -1.0758
  700TMC3    H110355   1.778   3.407  17.307  0.3044 -0.0608  0.9439
  700TMC3    H210356   2.048   3.162  17.532 -2.9170 -0.0856  1.5692
  700TMC3    C710357   1.941   3.400  17.514  0.0780  0.0250 -0.6962
  700TMC3    C810358   2.077   2.976  17.350  0.0899  0.1945  0.0474
  700TMC3    O110359   2.050   3.414  17.571  0.0275  0.0333  0.3080
  700TMC3    O210360   2.163   2.998  17.436 -0.1481  0.1214 -0.0268
  701TMC3    C110361   2.388   1.465  14.882  0.3788 -0.1209 -0.0497
  701TMC3    C210362   2.376   1.444  14.744  0.4093 -0.4029 -0.1062
  701TMC3    C310363   2.371   1.563  14.666 -0.0545  0.0231 -0.6906
  701TMC3    C410364   2.388   1.592  14.938 -0.1718  0.4399 -0.1592
  701TMC3    C510365   2.381   1.701  14.851  0.5706 -0.5990 -0.1679
  701TMC3    C610366   2.386   1.687  14.717 -0.6468 -0.3679 -0.3847
  701TMC3     C10367   2.392   1.343  14.971 -0.0432 -0.2253  0.5548
  701TMC3     O10368   2.365   1.362  15.087 -0.5634  0.7717 -0.0656
  701TMC3     H10369   2.358   1.344  14.707 -0.6552 -0.4833  0.6585
  701TMC3    H110370   2.411   1.599  15.043 -0.2957 -0.5478 -0.0607
  701TMC3    H210371   2.376   1.771  14.649 -0.7401 -0.3029 -0.2915
  701TMC3    C710372   2.308   1.820  14.902 -0.1639  0.9431  0.0681
  701TMC3    C810373   2.273   1.550  14.565 -0.5149  0.3829 -0.3251
  701TMC3    O110374   2.307   1.914  14.825 -0.0966 -0.4210  0.2850
  701TMC3    O210375   2.278   1.451  14.489 -0.0586 -0.1072 -0.4210
  702MPD2     C10376   2.351   3.785  10.282  0.4677 -0.2571  0.1068
  702MPD2    C110377   2.286   3.888  10.354  0.1479 -0.7304 -0.2719
  702MPD2    C210378   2.319   4.016  10.320  0.3207  0.8716  0.2349
  702MPD2    C310379   2.417   4.041  10.224  0.4207 -0.5188  1.2653
  702MPD2    C410380   2.476   3.934  10.159 -0.0353 -0.1901  0.3015
  702MPD2    C510381   2.439   3.808  10.181 -0.1599 -0.1147  0.8538
  702MPD2     H10382   2.277   4.100  10.374 -1.6238  1.0314 -1.5247
  702MPD2    H110383   2.547   3.960  10.081 -0.9683 -0.4577 -0.6271
  702MPD2    H210384   2.329   3.683  10.312  0.5716 -0.4387 -0.4259
  702MPD2    H310385   2.495   3.734  10.125 -0.7494 -0.4077  0.6525
  702MPD2     N10386   2.449   4.173  10.192  0.6882 -0.1484 -0.3053
  702MPD2    H510387   2.390   4.242  10.237 -2.0078 -2.6407 -0.0609
  702MPD2    N110388   2.199   3.866  10.466  0.1201 -0.2891  0.0232
  702MPD2    H710389   2.148   3.949  10.496 -2.0717 -1.9095  0.7969
  703TMC3    C110390   2.531   4.368  10.118  0.4705  0.1032 -0.4835
  703TMC3    C210391   2.405   4.408  10.080  0.1820  0.3423  0.3055
  703TMC3    C310392   2.364   4.533  10.113  0.1455  0.3898 -0.6123
  703TMC3    C410393   2.623   4.447  10.171 -0.0287  0.3259  0.8902
  703TMC3    C510394   2.582   4.574  10.197  0.4163  0.4970 -0.4522
  703TMC3    C610395   2.453   4.620  10.175  0.4350 -0.8098  0.2087
  703TMC3     C10396   2.557   4.228  10.126 -0.5410  0.0347  0.1529
  703TMC3     O10397   2.666   4.177  10.104  0.4214 -0.5351  0.1565
  703TMC3     H10398   2.318   4.356  10.041  2.2592 -2.5789 -0.4882
  703TMC3    H110399   2.720   4.410  10.202 -1.0373 -4.1163 -1.2904
  703TMC3    H210400   2.419   4.715  10.212 -1.1619 -1.4438  0.3811
  703TMC3    C710401   2.650   4.649  10.295 -0.2565 -0.5035  0.0894
  703TMC3    C810402   2.231   4.584  10.085  0.0897  0.4352  0.8185
  703TMC3    O110403   2.641   0.047  10.299 -0.2586  0.6787 -0.3235
  703TMC3    O210404   2.139   4.505  10.075 -0.3556 -0.5329  0.1000
  704TMC3    C110405   3.993   2.410  12.718 -0.0106 -0.5854 -0.0450
  704TMC3    C210406   4.121   2.461  12.700 -0.2631  0.0905  0.7767
  704TMC3    C310407   4.221   2.375  12.732 -0.6327 -0.8965 -0.1608
  704TMC3    C410408   3.968   2.290  12.771  0.3934  0.0953 -0.0909
  704TMC3    C510409   4.067   2.205  12.793  0.0327  0.2445 -0.8433
  704TMC3    C610410   4.200   2.246  12.776  0.0707  0.4058 -0.4685
  704TMC3     C10411   3.917   2.436  12.596 -0.2404  0.0061  0.1473
  704TMC3     O10412   3.797   2.412  12.587 -0.3887 -0.2014 -0.6597
  704TMC3     H10413   4.135   2.567  12.682 -0.7841 -0.6535 -3.9473
  704TMC3    H110414   3.865   2.257  12.785 -0.1227  0.7308 -2.4188
  704TMC3    H210415   4.288   2.183  12.778 -0.0746  0.2112 -0.2292
  704TMC3    C710416   4.041   2.065  12.759  0.4550  0.0728 -0.5415
  704TMC3    C810417   4.325   2.380  12.635  0.2837  0.0503  0.3628
  704TMC3    O110418   4.118   2.016  12.682 -0.4636 -0.3205  0.4148
  704TMC3    O210419   4.294   2.429  12.523 -0.0470 -0.2530 -0.8246
  705MPD2     C10420   3.880   0.724  16.959 -0.3399 -0.5511 -0.0978
  705MPD2    C110421   3.818   0.754  16.837  0.4808 -0.1081  0.0638
  705MPD2    C210422   3.684   0.765  16.839  0.6052  0.3225 -0.0154
  705MPD2    C310423   3.618   0.750  16.952 -0.9470  0.2851  0.0614
  705MPD2    C410424   3.670   0.726  17.080 -0.3802 -0.0716  0.6611
  705MPD2    C510425   3.807   0.707  17.079  0.1946  0.3059 -0.2561
  705MPD2     H10426   3.635   0.786  16.745 -0.5590 -0.8694  0.3251
  705MPD2    H110427   3.601   0.711  17.162 -0.7272  1.3128  0.6218
  705MPD2    H210428   3.985   0.700  16.951 -0.5381 -0.8077 -2.0228
  705MPD2    H310429   3.861   0.672  17.166 -2.2799  0.6264  1.3958
  705MPD2     N10430   3.481   0.770  16.949 -0.0706 -0.4496  0.2370
  705MPD2    H510431   3.425   0.773  17.034  0.6368  0.6144  0.6712
  705MPD2    N110432   3.875   0.765  16.714  0.6329  0.2654  0.8170
  705MPD2    H710433   3.816   0.799  16.639  1.1060 -0.9417 -0.1062
  706TMC3    C110434   4.144   0.722  16.355  0.1008 -0.5905 -0.0088
  706TMC3    C210435   4.101   0.835  16.297  0.1261  0.6035 -0.4477
  706TMC3    C310436   4.033   0.922  16.381  0.5983  0.1723  0.0727
  706TMC3    C410437   4.115   0.681  16.482 -0.7633 -0.0107  0.3964
  706TMC3    C510438   4.039   0.769  16.556 -0.1043 -0.6020 -0.1805
  706TMC3    C610439   4.005   0.897  16.509 -0.6717  0.8738 -1.0110
  706TMC3     C10440   4.222   0.636  16.270  0.0947 -0.2363 -0.3630
  706TMC3     O10441   4.334   0.607  16.318  0.0674 -0.1829  0.1183
  706TMC3     H10442   4.147   0.868  16.205  0.7972  0.5114 -0.1454
  706TMC3    H110443   4.140   0.585  16.525 -2.0478 -0.1537  0.8174
  706TMC3    H210444   3.952   0.964  16.575  0.2048  1.4931 -0.9430
  706TMC3    C710445   4.004   0.724  16.690 -0.3761 -0.8565  0.3320
  706TMC3    C810446   3.984   1.046  16.325  1.1625 -0.0209  0.2752
  706TMC3    O110447   4.073   0.649  16.756 -0.5467 -0.1523 -0.1297
  706TMC3    O210448   3.983   1.054  16.205  0.2761 -0.3825  0.2624
  707TMC3    C110449   0.029   0.232   1.029 -0.8139  0.7606  0.4647
  707TMC3    C210450   4.679   0.118   1.044  0.2222  0.2272  0.6112
  707TMC3    C310451   4.543   0.124   1.034  0.4947  0.0797  0.0299
  707TMC3    C410452   4.687   0.351   0.998 -0.2608  0.4212 -0.0233
  707TMC3    C510453   4.554   0.348   0.983  0.2287 -0.0622  0.6859
  707TMC3    C610454   4.479   0.240   0.998 -0.2558 -0.6039  0.1398
  707TMC3     C10455   0.170   0.229   1.062 -0.2671 -0.3235  0.5247
  707TMC3     O10456   0.210   0.115   1.098 -0.7201 -0.3703  0.0321
  707TMC3     H10457   4.722   0.023   1.072  0.1604  0.2438  0.7626
  707TMC3    H110458   0.010   0.447   1.011  0.4971  0.0488 -0.0103
  707TMC3    H210459   4.374   0.248   0.973  0.3056 -1.4034 -2.5038
  707TMC3    C710460   4.489   0.480   0.972  0.1036  0.5000  0.3864
  707TMC3    C810461   4.461   4.723   1.029 -0.5600  0.4855  0.1888
  707TMC3    O110462   4.551   0.568   0.912  0.4165  0.4741 -0.1152
  707TMC3    O210463   4.339   0.019   1.020  0.1499  0.7754 -0.3396
  708MPD2     C10464   1.966   4.250  13.821 -0.8425 -0.6824  0.1004
  708MPD2    C110465   1.849   4.220  13.876 -0.5396 -0.3290  0.3336
  708MPD2    C210466   1.809   4.085  13.891  0.7708  0.0802 -0.2296
  708MPD2    C310467   1.892   3.988  13.854 -0.8695  0.5039 -0.9113
  708MPD2    C410468   2.007   4.019  13.787 -1.1030  0.0095  0.8433
  708MPD2    C510469   2.047   4.151  13.775 -0.0736  0.6163  0.3792
  708MPD2     H10470   1.715   4.058  13.940  0.3093  0.5838 -0.8460
  708MPD2    H110471   2.081   3.949  13.750 -0.8085  0.6916  0.1398
  708MPD2    H210472   1.985   4.355  13.799 -1.6756 -1.3716 -3.7854
  708MPD2    H310473   2.128   4.178  13.708 -0.7689 -0.6697 -0.9811
  708MPD2     N10474   1.859   3.847  13.875 -0.2368  0.4001 -0.6759
  708MPD2    H510475   1.932   3.780  13.854  0.6448  1.2250 -0.1998
  708MPD2    N110476   1.772   4.332  13.919  0.4340  0.3348 -0.3922
  708MPD2    H710477   1.805   4.427  13.903  1.5114 -0.1848 -1.2605
  709TMC3    C110478   1.570   4.443  13.985 -0.1694 -0.1562  0.0859
  709TMC3    C210479   1.570   4.507  13.866  0.2098 -0.6886 -0.3715
  709TMC3    C310480   1.463   4.494  13.785 -0.2614  0.6740 -0.9723
  709TMC3    C410481   1.453   4.400  14.049 -0.2467  0.4915 -0.7836
  709TMC3    C510482   1.342   4.407  13.971 -0.3755  0.4691 -0.2894
  709TMC3    C610483   1.346   4.449  13.842  0.7639  0.2486 -0.2658
  709TMC3     C10484   1.649   4.320  13.985  0.0787  0.5135 -0.2544
  709TMC3     O10485   1.593   4.223  14.032 -0.0605  0.1660  0.5602
  709TMC3     H10486   1.670   4.530  13.832  0.5183 -2.9108 -0.9589
  709TMC3    H110487   1.449   4.363  14.151 -1.2051  0.1190 -0.9618
  709TMC3    H210488   1.263   4.415  13.780  0.8092 -1.7714  0.7992
  709TMC3    C710489   1.243   4.302  13.986  1.1831  0.5349  0.2658
  709TMC3    C810490   1.501   4.400  13.678  0.0214 -0.5150 -0.5095
  709TMC3    O110491   1.122   4.328  13.962 -0.7975 -0.3539 -0.6012
  709TMC3    O210492   1.424   4.311  13.658 -0.1738 -0.0123 -0.7609
  710TMC3    C110493   2.990   1.316   0.591  0.1567  0.3874 -0.4091
  710TMC3    C210494   3.047   1.230   0.497 -0.0432 -0.3355 -0.4281
  710TMC3    C310495   3.143   1.141   0.538  0.4387 -0.5207 -0.4507
  710TMC3    C410496   3.020   1.290   0.724 -0.7181 -0.2132 -0.9684
  710TMC3    C510497   3.104   1.188   0.759  0.1267 -0.5581  0.4498
  710TMC3    C610498   3.173   1.112   0.666  0.0523 -0.1251 -0.3783
  710TMC3     C10499   2.933   1.433   0.540 -0.8115  0.3586 -0.5825
  710TMC3     O10500   2.944   1.445   0.421  0.0152  0.3853  0.2885
  710TMC3     H10501   3.016   1.239   0.394 -0.4323  0.0829 -0.2758
  710TMC3    H110502   2.982   1.358   0.800  0.1933 -1.3421  0.4967
  710TMC3    H210503   3.242   1.033   0.693 -0.5816 -0.8669 -0.9308
  710TMC3    C710504   3.066   1.112   0.875  0.3980  0.0604 -0.0300
  710TMC3    C810505   3.168   1.017   0.460 -0.8761  0.1431 -0.6842
  710TMC3    O110506   2.950   1.101   0.919 -0.0533 -0.2401  0.0641
  710TMC3    O210507   3.273   0.954   0.473 -0.2405 -0.4020 -0.0684
  711TMC3    C110508   2.792   1.363  14.894  0.5861  0.1522  0.4396
  711TMC3    C210509   2.819   1.475  14.971  0.0258  0.0413  0.2845
  711TMC3    C310510   2.889   1.453  15.084 -0.4870 -0.4971  0.0524
  711TMC3    C410511   2.820   1.234  14.937  0.1197  0.0909 -0.7126
  711TMC3    C510512   2.882   1.218  15.061  0.7940 -0.1823 -0.4713
  711TMC3    C610513   2.925   1.328  15.128  0.2590 -0.5852  0.1369
  711TMC3     C10514   2.731   1.371  14.772 -0.2331  0.1998  0.4330
  711TMC3     O10515   2.657   1.287  14.731 -0.5978  0.1948  0.1504
  711TMC3     H10516   2.810   1.576  14.933  0.9692  1.1488  2.9481
  711TMC3    H110517   2.812   1.151  14.868 -2.5197 -2.3383  2.5186
  711TMC3    H210518   2.982   1.307  15.218 -0.2348  0.6329  0.7292
  711TMC3    C710519   2.890   1.086  15.118 -0.3883  0.3269 -0.8616
  711TMC3    C810520   2.921   1.563  15.165 -0.1197 -0.1565 -0.1468
  711TMC3    O110521   2.902   1.092  15.238  0.2283 -0.0972 -0.3099
  711TMC3    O210522   2.839   1.652  15.161  0.4525 -0.4745  0.4140
  712MPD2     C10523   4.016   3.218  13.444  0.0909  0.5334  0.4041
  712MPD2    C110524   3.926   3.137  13.510  0.3090 -0.0246 -0.2493
  712MPD2    C210525   3.936   3.114  13.647 -0.0246  0.1132 -0.0517
  712MPD2    C310526   4.025   3.189  13.714  0.3765 -0.0076 -0.2390
  712MPD2    C410527   4.117   3.266  13.657 -0.2661 -0.6125  0.5742
  712MPD2    C510528   4.112   3.275  13.524 -1.0300  0.2733  0.0061
  712MPD2     H10529   3.869   3.040  13.691 -1.6311  0.8562 -1.2437
  712MPD2    H110530   4.194   3.312  13.717  0.3482 -1.0359  0.1067
  712MPD2    H210531   4.022   3.224  13.336 -0.4810  1.4747  0.4219
  712MPD2    H310532   4.195   3.328  13.477 -1.8750  0.9729 -0.7105
  712MPD2     N10533   4.027   3.188  13.858  0.5312  0.5319 -0.2329
  712MPD2    H510534   4.070   3.267  13.905 -1.5056  0.9927  0.8432
  712MPD2    N110535   3.815   3.085  13.450 -0.1117  0.5041  0.4345
  712MPD2    H710536   3.754   3.027  13.506  1.3179  0.2236  1.6884
  713TMC3    C110537   3.951   3.164  14.075  0.2892 -0.8181 -0.3116
  713TMC3    C210538   3.983   3.078  14.182  0.0385  0.1335 -0.3372
  713TMC3    C310539   3.966   3.124  14.304 -0.1667 -0.5355  0.6896
  713TMC3    C410540   3.898   3.286  14.085 -0.1286 -0.4247  0.1318
  713TMC3    C510541   3.868   3.321  14.209 -1.0050  1.0878  0.0106
  713TMC3    C610542   3.903   3.250  14.325 -0.2072  0.7333 -0.2564
  713TMC3     C10543   3.960   3.106  13.944  1.2546  0.3533  0.6792
  713TMC3     O10544   3.898   3.000  13.932  0.2068  0.8302  0.4663
  713TMC3     H10545   4.019   2.978  14.158  1.0850  0.1912  1.0054
  713TMC3    H110546   3.874   3.352  14.002  0.8294  0.4176  0.5237
  713TMC3    H210547   3.881   3.288  14.424 -2.1805  1.5447 -0.9899
  713TMC3    C710548   3.783   3.435  14.230  0.1243  0.4253  0.4610
  713TMC3    C810549   4.031   3.063  14.413 -0.2165  0.2708 -0.3986
  713TMC3    O110550   3.777   3.493  14.336 -0.2921  0.3388  0.3322
  713TMC3    O210551   4.011   3.100  14.528 -0.7545 -0.5057 -0.0088
  714MPD2     C10552   0.537   1.978   1.111 -0.0106  0.3723 -0.0317
  714MPD2    C110553   0.633   1.890   1.055 -0.5558  0.1436  0.0175
  714MPD2    C210554   0.618   1.850   0.923 -0.9748 -0.5397  0.2208
  714MPD2    C310555   0.517   1.914   0.842  0.7346 -0.1491  0.2494
  714MPD2    C410556   0.426   1.992   0.902 -0.2728  0.0301  0.2626
  714MPD2    C510557   0.437   2.024   1.032 -0.1108 -0.7252  0.4572
  714MPD2     H10558   0.678   1.773   0.877 -1.1521 -1.4065  1.4343
  714MPD2    H110559   0.340   2.035   0.852 -0.5909  0.5043  1.2160
  714MPD2    H210560   0.534   2.011   1.215  2.4463  0.7254 -0.0773
  714MPD2    H310561   0.350   2.070   1.076  0.4551  1.4554 -0.6816
  714MPD2     N10562   0.503   1.878   0.706 -0.1489 -0.2388 -0.5457
  714MPD2    H510563   0.563   1.804   0.670  0.4034  0.2562 -0.6444
  714MPD2    N110564   0.745   1.844   1.127 -0.6991 -0.0775  0.4740
  714MPD2    H710565   0.755   1.898   1.213 -0.0184  2.9255 -1.4731
  715TMC3    C110566   0.919   1.703   1.189 -0.2131  0.0530 -0.5490
  715TMC3    C210567   0.952   1.574   1.209  0.5086  0.2604 -0.0928
  715TMC3    C310568   1.057   1.536   1.289  0.4954  0.0996  1.0071
  715TMC3    C410569   0.999   1.800   1.240 -0.3571  0.0080 -0.3920
  715TMC3    C510570   1.115   1.759   1.302 -0.0914 -0.5240 -0.0859
  715TMC3    C610571   1.150   1.631   1.320  0.1350  0.5416 -0.7520
  715TMC3     C10572   0.808   1.728   1.097  0.6149  0.1079 -0.6254
  715TMC3     O10573   0.778   1.638   1.025 -0.1422  0.7167  0.0162
  715TMC3     H10574   0.883   1.502   1.164 -0.0775 -1.0409  2.8900
  715TMC3    H110575   0.985   1.906   1.223  2.4512  0.3718 -0.4724
  715TMC3    H210576   1.243   1.608   1.370  0.3315 -0.2234 -1.4596
  715TMC3    C710577   1.179   1.862   1.391 -1.0300 -0.1254  0.6567
  715TMC3    C810578   1.080   1.390   1.309 -0.7411  0.4708  0.4515
  715TMC3    O110579   1.277   1.819   1.449  0.0780 -0.3862  0.1556
  715TMC3    O210580   1.195   1.349   1.327  0.0741 -0.3860 -0.2547
  716MPD2     C10581   2.102   4.171  10.015  1.0967  0.6697  0.5196
  716MPD2    C110582   2.116   4.206   9.882  0.1973  0.5233 -0.0355
  716MPD2    C210583   2.134   4.109   9.785  0.4277 -0.0964  0.0356
  716MPD2    C310584   2.151   3.973   9.818  0.8081 -0.2131  0.1339
  716MPD2    C410585   2.147   3.946   9.954  0.0043  0.3237  0.6087
  716MPD2    C510586   2.116   4.040  10.048  0.1817  0.2714 -0.0096
  716MPD2     H10587   2.126   4.135   9.680 -1.5470 -1.9136 -0.2576
  716MPD2    H110588   2.144   3.848  10.001  0.4653  0.2050  0.3886
  716MPD2    H210589   2.087   4.236  10.100  1.3212 -1.2558  2.0107
  716MPD2    H310590   2.105   3.998  10.147  0.1720  0.7811  0.2065
  716MPD2     N10591   2.178   3.886   9.715  0.3241  0.1546 -0.2905
  716MPD2    H510592   2.188   3.926   9.622 -0.9960  0.8491 -0.1274
  716MPD2    N110593   2.099   4.349   9.849  0.4095 -0.1652 -0.0587
  716MPD2    H710594   2.083   4.412   9.927 -0.2934 -0.7629  0.2762
  717TMC3    C110595   2.189   3.686   9.607  0.2262  0.0988  0.5894
  717TMC3    C210596   2.131   3.740   9.492 -0.3117 -0.5355  0.3594
  717TMC3    C310597   2.077   3.662   9.398  0.3236 -0.6478 -0.3742
  717TMC3    C410598   2.195   3.548   9.613  0.8347 -0.1378 -0.1322
  717TMC3    C510599   2.159   3.471   9.509  0.1391  0.2933 -0.2918
  717TMC3    C610600   2.090   3.520   9.401  0.0016 -1.0761 -0.0407
  717TMC3     C10601   2.191   3.751   9.738 -0.3703 -0.9243 -0.4558
  717TMC3     O10602   2.201   3.686   9.839 -0.2514  0.2088 -0.5142
  717TMC3     H10603   2.108   3.846   9.488 -1.2011 -0.7289  0.2771
  717TMC3    H110604   2.241   3.504   9.701  0.6224 -0.9600 -0.4351
  717TMC3    H210605   2.030   3.457   9.336  0.5322 -0.4116 -1.1779
  717TMC3    C710606   2.169   3.322   9.524  0.4272  0.5434 -0.8648
  717TMC3    C810607   2.009   3.722   9.287 -0.3352 -0.1008  0.4205
  717TMC3    O110608   2.201   3.286   9.635  0.1519 -0.0826  1.1172
  717TMC3    O210609   2.016   3.843   9.270  0.3240 -0.0874 -0.4885
  718MPD2     C10610   1.262   3.097  13.017 -0.5433 -0.0629  0.0992
  718MPD2    C110611   1.239   3.123  12.883  0.8943 -0.0525 -0.1596
  718MPD2    C210612   1.111   3.088  12.830 -0.1354 -0.2778  0.3804
  718MPD2    C310613   1.018   3.024  12.915 -0.1309  0.5453 -0.2139
  718MPD2    C410614   1.044   2.999  13.051  0.7602 -0.0261  0.4314
  718MPD2    C510615   1.162   3.040  13.095 -0.2669  0.3198 -0.1122
  718MPD2     H10616   1.071   3.107  12.732  1.9559  1.9039 -0.0382
  718MPD2    H110617   0.969   2.951  13.112  0.9184 -1.6935 -0.6817
  718MPD2    H210618   1.355   3.117  13.069 -0.3007  0.5307 -0.5587
  718MPD2    H310619   1.188   3.021  13.198 -1.9281 -0.5894  0.1435
  718MPD2     N10620   0.902   2.989  12.846  0.2613 -0.6356 -0.1741
  718MPD2    H510621   0.885   3.029  12.755 -0.8910 -2.1028 -0.6036
  718MPD2    N110622   1.344   3.184  12.808 -0.2681 -0.1389  0.4188
  718MPD2    H710623   1.435   3.203  12.848  1.5101  1.2467 -4.3062
  719TMC3    C110624   1.447   3.238  12.594 -0.2397 -0.2176 -0.1286
  719TMC3    C210625   1.406   3.279  12.469  0.3635 -0.1409 -0.2493
  719TMC3    C310626   1.455   3.223  12.362 -0.6470 -0.6476  0.7714
  719TMC3    C410627   1.558   3.150  12.602  0.6845  0.0694 -0.4004
  719TMC3    C510628   1.619   3.110  12.485 -0.7489  0.2820  0.6275
  719TMC3    C610629   1.562   3.134  12.364  0.2616 -0.2042 -0.1614
  719TMC3     C10630   1.323   3.205  12.670  0.6565 -0.5707 -0.4545
  719TMC3     O10631   1.229   3.190  12.592 -0.0064 -0.1079  0.1498
  719TMC3     H10632   1.327   3.353  12.475  1.9277  1.5733 -0.9426
  719TMC3    H110633   1.592   3.108  12.696  0.1972 -0.6245 -0.5324
  719TMC3    H210634   1.609   3.107  12.270 -1.8956 -1.8719 -0.7604
  719TMC3    C710635   1.745   3.046  12.481  0.0518 -0.1177 -0.4667
  719TMC3    C810636   1.356   3.199  12.248 -0.5784  0.8985  0.0168
  719TMC3    O110637   1.781   2.988  12.379  0.0401 -0.0631 -0.6251
  719TMC3    O210638   1.400   3.175  12.138 -0.4457  0.1710  0.3299
  720MPD2     C10639   3.961   4.453  13.885 -0.1210 -0.1447  0.5582
  720MPD2    C110640   4.068   4.485  13.811  0.0355  0.3153 -0.6631
  720MPD2    C210641   4.192   4.434  13.853 -0.0067  0.2875  0.1505
  720MPD2    C310642   4.206   4.341  13.949 -0.5847  0.1366 -0.4543
  720MPD2    C410643   4.096   4.288  14.005  0.0246 -0.3394  0.1538
  720MPD2    C510644   3.978   4.353  13.982 -0.6115 -0.4148 -0.6057
  720MPD2     H10645   4.284   4.464  13.804  1.5269 -1.5960  1.8499
  720MPD2    H110646   4.109   4.217  14.085  2.7254  0.2509  0.2694
  720MPD2    H210647   3.862   4.471  13.845  0.4147 -0.7073 -1.0082
  720MPD2    H310648   3.892   4.309  14.031 -0.7518  2.0528  1.3811
  720MPD2     N10649   4.339   4.303  13.987  0.1064  0.2662  0.2273
  720MPD2    H510650   4.419   4.348  13.942 -0.4005  1.0261  0.0803
  720MPD2    N110651   4.056   4.572  13.695 -0.1091 -0.0965 -0.0209
  720MPD2    H710652   4.137   4.585  13.636  0.0421 -1.5258 -0.1293
  721TMC3    C110653   4.508   4.224  14.126  0.2081 -0.4832  0.4870
  721TMC3    C210654   4.513   4.249  14.262  0.1257  0.0425  0.3723
  721TMC3    C310655   4.591   4.339  14.314 -0.0510  0.0127  0.4270
  721TMC3    C410656   4.601   4.278  14.050 -0.1105  0.5510  0.6249
  721TMC3    C510657   4.699   4.360  14.112 -0.2064 -0.0324 -0.0179
  721TMC3    C610658   4.694   4.390  14.238  0.0292  0.6432 -0.0078
  721TMC3     C10659   4.375   4.201  14.070  0.0129 -0.0285  0.1530
  721TMC3     O10660   4.305   4.110  14.117 -0.1472  0.0255  1.1132
  721TMC3     H10661   4.425   4.227  14.321  0.7380 -3.0601  0.1542
  721TMC3    H110662   4.606   4.276  13.942  0.4691 -0.9633  0.6697
  721TMC3    H210663   0.036   4.459  14.292  1.7647 -1.4881  0.6054
  721TMC3    C710664   0.082   4.410  14.029 -0.4347 -0.2020 -0.3134
  721TMC3    C810665   4.555   4.423  14.429 -0.2710  0.5974 -1.0772
  721TMC3    O110666   0.124   4.327  13.947  0.4955 -0.0887 -0.4178
  721TMC3    O210667   4.579   4.543  14.418 -0.8525 -0.4796  0.3031
  722MPD2     C10668   2.973   3.167  13.383 -0.1484  0.6495  0.5519
  722MPD2    C110669   2.903   3.282  13.388  0.3241  0.2224  0.2115
  722MPD2    C210670   2.791   3.302  13.306  0.3426  0.0237 -0.0359
  722MPD2    C310671   2.747   3.195  13.223  1.0438 -0.5429 -0.1127
  722MPD2    C410672   2.819   3.082  13.223  0.1367  0.0264 -0.0633
  722MPD2    C510673   2.934   3.073  13.295  0.3783 -0.0294  0.2395
  722MPD2     H10674   2.735   3.392  13.327  0.7236 -0.0070  1.1152
  722MPD2    H110675   2.799   2.996  13.160 -0.7603 -0.8171  1.3646
  722MPD2    H210676   3.058   3.141  13.445 -0.0952  0.8324  0.5558
  722MPD2    H310677   3.008   2.994  13.291  0.6543  0.1950  0.9171
  722MPD2     N10678   2.628   3.208  13.150  0.3780  0.8005  0.3837
  722MPD2    H510679   2.592   3.303  13.146  1.0609  1.0315 -0.4092
  722MPD2    N110680   2.945   3.395  13.456 -0.6403  0.2728 -0.2606
  722MPD2    H710681   2.887   3.477  13.445 -0.3802  0.5196  0.1632
  723TMC3    C110682   2.428   3.151  13.047  0.4010  0.2752  0.0231
  723TMC3    C210683   2.324   3.056  13.048 -0.0305  0.1684 -0.1952
  723TMC3    C310684   2.196   3.099  13.022 -0.1070  0.1869 -0.4893
  723TMC3    C410685   2.403   3.283  13.007  0.1021  0.7039  0.0437
  723TMC3    C510686   2.277   3.320  12.975 -0.3120 -0.0791 -0.2200
  723TMC3    C610687   2.174   3.230  12.981  0.2608 -0.3406  0.8194
  723TMC3     C10688   2.556   3.110  13.093 -0.3719  0.4409  0.5466
  723TMC3     O10689   2.574   2.990  13.103 -0.3226 -0.3531 -0.3997
  723TMC3     H10690   2.344   2.954  13.080 -1.7873 -0.2349 -0.3635
  723TMC3    H110691   2.486   3.352  13.011 -0.5794  1.4235  1.9660
  723TMC3    H210692   2.075   3.261  12.948  0.9629 -1.7590 -2.6181
  723TMC3    C710693   2.245   3.446  12.901  0.2754  0.2231  0.0548
  723TMC3    C810694   2.103   3.003  12.958 -0.5439 -0.2907  0.0040
  723TMC3    O110695   2.136   3.467  12.846 -0.0532  0.0862  0.2876
  723TMC3    O210696   1.982   3.034  12.944 -0.4307 -0.8519  0.7215
  724TMC3    C110697   3.593   1.518  10.480 -0.4672 -0.5082  0.0949
  724TMC3    C210698   3.520   1.491  10.368 -0.6360 -0.1441 -0.5347
  724TMC3    C310699   3.585   1.504  10.247  0.1890 -0.1686 -0.2697
  724TMC3    C410700   3.729   1.551  10.482  0.9215 -0.3714 -0.2617
  724TMC3    C510701   3.789   1.562  10.363  0.3344  0.0474  0.3733
  724TMC3    C610702   3.721   1.530  10.251  0.6828 -0.9061  0.1168
  724TMC3     C10703   3.535   1.509  10.612 -0.1463  0.1513 -0.4744
  724TMC3     O10704   3.602   1.544  10.706  0.6174 -0.4687 -0.9057
  724TMC3     H10705   3.412   1.481  10.368 -0.5999 -0.5299 -1.4225
  724TMC3    H110706   3.792   1.546  10.570 -2.7340  1.5482  2.4713
  724TMC3    H210707   3.767   1.558  10.157  0.5577  0.2082  0.3865
  724TMC3    C710708   3.911   1.645  10.352 -0.0069  0.2516 -0.4822
  724TMC3    C810709   3.506   1.529  10.128 -0.1264  0.1036  0.1616
  724TMC3    O110710   3.984   1.612  10.257 -0.1824  0.3336  0.2330
  724TMC3    O210711   3.400   1.465  10.118  0.0144 -0.2477 -0.3945
  725TMC3    C110712   4.672   0.099  12.906 -0.4844 -0.3575 -0.4422
  725TMC3    C210713   4.560   0.156  12.864  0.1905  0.4316  0.2855
  725TMC3    C310714   4.460   0.074  12.809  0.2467 -0.2390 -0.2935
  725TMC3    C410715   4.706   4.694  12.865  0.1202 -0.2129  0.2151
  725TMC3    C510716   4.614   4.627  12.789  0.0111  0.7511  0.4318
  725TMC3    C610717   4.481   4.667  12.787  0.5465 -0.8693  0.5139
  725TMC3     C10718   0.057   0.193  12.954  0.4902  0.0087 -0.1933
  725TMC3     O10719   0.044   0.317  12.953 -0.0966  0.4318 -0.1931
  725TMC3     H10720   4.551   0.264  12.870  1.0202  0.3666  2.4175
  725TMC3    H110721   0.079   4.649  12.884 -0.1142 -0.7434  0.1672
  725TMC3    H210722   4.405   4.610  12.734 -0.4873  0.5806  0.4330
  725TMC3    C710723   4.675   4.590  12.656 -0.2798 -0.2498  0.3699
  725TMC3    C810724   4.371   0.130  12.710 -0.1523  0.0882 -0.3952
  725TMC3    O110725   0.062   4.537  12.658 -0.0986 -0.0471 -0.3149
  725TMC3    O210726   4.271   0.062  12.681 -0.2912 -0.6141  0.1173
  726MPD2     C10727   2.267   1.713  10.281  0.2833 -0.0600  0.1675
  726MPD2    C110728   2.337   1.744  10.392 -0.4871  0.3216  0.5991
  726MPD2    C210729   2.272   1.733  10.515 -0.6344 -1.1817  0.2049
  726MPD2    C310730   2.133   1.699  10.519 -0.4549  0.1595  0.2557
  726MPD2    C410731   2.068   1.664  10.400 -0.6562 -0.5805 -0.8853
  726MPD2    C510732   2.138   1.672  10.281  0.8743  0.4398 -0.1032
  726MPD2     H10733   2.330   1.760  10.603  0.2087  0.5015 -0.8590
  726MPD2    H110734   1.963   1.637  10.401 -1.3382  2.2008  2.0189
  726MPD2    H210735   2.313   1.721  10.183  0.9785 -1.1441  0.4036
  726MPD2    H310736   2.089   1.656  10.185  0.8662  2.3268 -0.4225
  726MPD2     N10737   2.058   1.707  10.637  0.0293  0.6519 -0.1140
  726MPD2    H510738   1.959   1.686  10.631 -0.1546  1.4804 -0.0291
  726MPD2    N110739   2.473   1.781  10.386  0.1667 -0.2821 -0.6528
  726MPD2    H710740   2.508   1.810  10.477 -0.5387 -1.6812  0.0674
  727TMC3    C110741   2.682   1.864  10.300  0.3618 -0.6063 -0.2177
  727TMC3    C210742   2.740   1.864  10.423  0.8915  0.3026 -0.2142
  727TMC3    C310743   2.838   1.959  10.445 -0.8263  0.3023 -0.0958
  727TMC3    C410744   2.720   1.952  10.199 -0.3538  1.1194  0.1751
  727TMC3    C510745   2.811   2.046  10.229 -0.3482 -0.6109 -0.2527
  727TMC3    C610746   2.876   2.046  10.350  0.1165  0.0830  0.6388
  727TMC3     C10747   2.547   1.808  10.278  0.4002  0.4302  0.4416
  727TMC3     O10748   2.531   1.765  10.166 -0.7156 -0.0921  0.1365
  727TMC3     H10749   2.710   1.784  10.490  0.9918 -0.4425 -1.0451
  727TMC3    H110750   2.665   1.959  10.106 -1.0606 -0.2683  0.4873
  727TMC3    H210751   2.943   2.125  10.383 -0.9555 -0.1201  3.3688
  727TMC3    C710752   2.840   2.150  10.131  1.1791  0.3000 -0.5557
  727TMC3    C810753   2.930   1.938  10.556 -1.1059  0.2951 -0.4366
  727TMC3    O110754   2.765   2.163  10.035 -0.2944 -0.1013 -0.6944
  727TMC3    O210755   3.042   1.979  10.533  0.0571 -0.1344  0.4160
  728TMC3    C110756   1.576   0.686  14.923  0.3283 -0.1024  0.1351
  728TMC3    C210757   1.461   0.750  14.963  0.1890 -0.4902 -0.3962
  728TMC3    C310758   1.420   0.862  14.890  0.7201  0.0384 -0.0318
  728TMC3    C410759   1.642   0.744  14.817  0.3279 -0.1865  0.8674
  728TMC3    C510760   1.596   0.852  14.738 -0.0522  0.1864  0.0694
  728TMC3    C610761   1.482   0.916  14.783 -0.3426 -0.1097 -1.1778
  728TMC3     C10762   1.632   0.558  14.974  0.0226  0.6671 -1.2751
  728TMC3     O10763   1.748   0.532  14.939  0.0524 -0.0394  0.1396
  728TMC3     H10764   1.413   0.713  15.052 -1.4874  0.8188 -0.7606
  728TMC3    H110765   1.735   0.709  14.773  0.3288 -0.7413  1.3114
  728TMC3    H210766   1.453   1.010  14.736 -1.8572  1.4825  2.9902
  728TMC3    C710767   1.691   0.940  14.680 -0.0601  0.2757  0.5156
  728TMC3    C810768   1.294   0.926  14.923 -0.6928  0.8143  0.4155
  728TMC3    O110769   1.655   0.993  14.575 -0.3423  0.0802 -0.6378
  728TMC3    O210770   1.268   1.037  14.873  0.6014  0.2749 -0.2811
  729MPD2     C10771   4.367   0.969  16.486  0.1354 -0.6644 -0.3238
  729MPD2    C110772   4.315   1.093  16.499  0.0373 -0.8724 -0.1625
  729MPD2    C210773   4.296   1.140  16.633 -0.1682 -0.1532 -0.7193
  729MPD2    C310774   4.323   1.055  16.734  0.3944  0.4693 -0.0247
  729MPD2    C410775   4.361   0.928  16.717  0.0013 -0.5339  0.2466
  729MPD2    C510776   4.374   0.880  16.587 -0.1565  0.4580 -0.2150
  729MPD2     H10777   4.261   1.240  16.658  0.9671 -0.7152  3.1110
  729MPD2    H110778   4.375   0.856  16.797  0.3753 -1.1806 -0.3997
  729MPD2    H210779   4.381   0.930  16.386 -0.4017 -1.4965 -0.0825
  729MPD2    H310780   4.399   0.776  16.569  1.5726  0.7253  0.6149
  729MPD2     N10781   4.310   1.097  16.872  0.1154 -0.3076  0.0478
  729MPD2    H510782   4.310   1.022  16.941  2.8747 -0.0163  0.3684
  729MPD2    N110783   4.298   1.177  16.385  0.4308 -0.6564  0.2538
  729MPD2    H710784   4.323   1.138  16.294  1.9066  1.5915 -0.2965
  730TMC3    C110785   4.318   1.235  17.059  0.4896 -0.1146 -0.4479
  730TMC3    C210786   4.443   1.201  17.103 -0.1533  0.1870 -0.0143
  730TMC3    C310787   4.501   1.286  17.195  0.3977 -0.3590  0.0700
  730TMC3    C410788   4.252   1.339  17.115  0.4499 -0.1279 -0.4663
  730TMC3    C510789   4.312   1.417  17.214 -0.8281 -0.3696 -1.1586
  730TMC3    C610790   4.442   1.392  17.249  0.1156  0.1180 -0.0981
  730TMC3     C10791   4.297   1.223  16.918  0.0354  0.3311 -0.5031
  730TMC3     O10792   4.308   1.324  16.850  0.5576  0.5368  0.1405
  730TMC3     H10793   4.508   1.141  17.041 -0.2349  0.6299 -0.5342
  730TMC3    H110794   4.153   1.361  17.077  0.8921  1.4756 -0.6806
  730TMC3    H210795   4.500   1.451  17.319  0.9049 -1.6809  0.7429
  730TMC3    C710796   4.270   1.553  17.214 -0.3185  0.3631  0.5887
  730TMC3    C810797   4.636   1.323  17.165  0.0395 -0.1479 -0.1974
  730TMC3    O110798   4.175   1.582  17.142  0.5690  0.7916 -0.6119
  730TMC3    O210799   4.707   1.364  17.252  0.0927 -0.0415  0.3897
  731MPD2     C10800   4.491   3.664  12.387 -0.0843 -0.5340 -0.9691
  731MPD2    C110801   4.610   3.611  12.358  0.0291  0.2101 -0.3551
  731MPD2    C210802   4.685   3.549  12.456  0.5021 -0.2831  0.4943
  731MPD2    C310803   4.638   3.530  12.584  0.0607 -0.3101 -0.2053
  731MPD2    C410804   4.513   3.582  12.612 -0.1798 -0.6317  0.1682
  731MPD2    C510805   4.444   3.641  12.512  0.0155  0.5835  0.0395
  731MPD2     H10806   0.059   3.509  12.431 -0.2851 -1.6466 -0.4409
  731MPD2    H110807   4.466   3.590  12.710  0.6430  0.0299  0.5006
  731MPD2    H210808   4.416   3.711  12.325  1.0429 -1.9162 -3.4020
  731MPD2    H310809   4.346   3.686  12.526 -0.8605 -0.7809 -1.6223
  731MPD2     N10810   4.712   3.458  12.681 -0.0131  0.2821  0.1961
  731MPD2    H510811   0.073   3.414  12.646 -1.7217 -2.5344 -0.3659
  731MPD2    N110812   4.656   3.637  12.230 -0.5149  0.1120  0.0089
  731MPD2    H710813   4.593   3.686  12.167 -1.0881  0.0475  0.5353
  732TMC3    C110814   0.028   3.599  12.026  0.3561 -0.7061  1.0122
  732TMC3    C210815   4.623   3.630  11.977 -0.5339 -0.1137 -0.3207
  732TMC3    C310816   4.620   3.660  11.843 -0.3978  0.3459  0.3011
  732TMC3    C410817   0.140   3.616  11.947 -0.1742  0.3376 -0.0183
  732TMC3    C510818   0.120   3.670  11.824 -0.3702  0.2121  0.2844
  732TMC3    C610819   0.001   3.682  11.767 -0.1621 -0.0347 -0.1635
  732TMC3     C10820   0.046   3.597  12.167 -0.4403 -0.0478 -0.2283
  732TMC3     O10821   0.140   3.538  12.217  0.6152 -0.4131  0.3838
  732TMC3     H10822   4.528   3.610  12.024  0.8043 -0.6966  2.1160
  732TMC3    H110823   0.242   3.612  11.984  0.2817  0.2025 -1.2953
  732TMC3    H210824   0.001   3.712  11.663  0.2440  0.3691 -0.0454
  732TMC3    C710825   0.233   3.712  11.751  0.7017  0.4142 -1.0556
  732TMC3    C810826   4.488   3.680  11.772  0.2072  0.1688 -0.3313
  732TMC3    O110827   0.332   3.640  11.746  0.4059 -0.6512 -0.3477
  732TMC3    O210828   4.498   3.695  11.653  0.4207 -0.0017  0.0730
  733TMC3    C110829   0.491   2.841  12.706  0.3496  0.2741 -0.3222
  733TMC3    C210830   0.577   2.878  12.814 -0.2201  1.0332 -0.1948
  733TMC3    C310831   0.711   2.884  12.787 -0.8435 -0.3954  0.2317
  733TMC3    C410832   0.529   2.834  12.579 -0.2272 -0.2002 -0.1706
  733TMC3    C510833   0.669   2.856  12.559 -0.4014  0.8595  0.2128
  733TMC3    C610834   0.761   2.861  12.663  0.1930  0.4775 -0.5114
  733TMC3     C10835   0.348   2.857  12.730  0.3242 -0.1668  0.6623
  733TMC3     O10836   0.276   2.877  12.637  0.6271  0.3534  0.1427
  733TMC3     H10837   0.555   2.872  12.920  0.2199  0.8353 -0.1165
  733TMC3    H110838   0.468   2.854  12.491 -0.0427 -0.3051 -0.3222
  733TMC3    H210839   0.869   2.860  12.653 -0.0762 -0.1501 -3.2586
  733TMC3    C710840   0.714   2.888  12.424  0.1117  0.1041  0.2803
  733TMC3    C810841   0.794   2.919  12.896 -0.5107 -0.4223 -0.3342
  733TMC3    O110842   0.634   2.875  12.333 -0.1591  0.3369  0.1367
  733TMC3    O210843   0.769   2.883  13.007  0.1504  0.4852  0.1727
  734MPD2     C10844   2.603   0.384  12.092 -1.0641  0.2877 -0.1599
  734MPD2    C110845   2.496   0.325  12.036  0.1914 -0.2608  0.1460
  734MPD2    C210846   2.496   0.329  11.898 -0.1079 -0.0522  0.4881
  734MPD2    C310847   2.571   0.419  11.823 -0.5843  0.4977 -0.6342
  734MPD2    C410848   2.670   0.490  11.887  0.6701 -0.2859 -0.1211
  734MPD2    C510849   2.695   0.460  12.022  0.6304 -0.2641 -0.4099
  734MPD2     H10850   2.432   0.256  11.851  3.6208 -4.1451  1.7609
  734MPD2    H110851   2.739   0.559  11.839 -1.4503  1.4260 -0.6803
  734MPD2    H210852   2.624   0.369  12.197  2.2146  1.2819 -0.6735
  734MPD2    H310853   2.776   0.506  12.077  1.9077 -0.7135 -1.9222
  734MPD2     N10854   2.545   0.418  11.683 -0.3136 -0.1885  0.7577
  734MPD2    H510855   2.469   0.362  11.645  0.5069  2.4662 -4.8324
  734MPD2    N110856   2.400   0.256  12.109  0.1648  0.1696 -0.0727
  734MPD2    H710857   2.402   0.248  12.210 -0.8831  1.9845  0.0902
  735TMC3    C110858   2.213   0.104  12.158  0.2921 -0.4423  0.5174
  735TMC3    C210859   2.120   0.027  12.091 -0.6420  0.2527  0.3320
  735TMC3    C310860   2.134   4.619  12.057  0.1380  0.1228 -0.2658
  735TMC3    C410861   2.314   0.026  12.212 -0.5874 -0.2259 -0.0757
  735TMC3    C510862   2.310   4.610  12.198 -0.4827  0.0473  0.8845
  735TMC3    C610863   2.219   4.539  12.128  0.3859  0.2969  0.4091
  735TMC3     C10864   2.290   0.187  12.063  0.4527 -0.3752  0.5943
  735TMC3     O10865   2.251   0.175  11.947 -0.4657  0.3457  0.1179
  735TMC3     H10866   2.039   0.083  12.045 -1.9249 -0.9675  1.1124
  735TMC3    H110867   2.393   0.065  12.275 -0.8826 -1.4365  1.0342
  735TMC3    H210868   2.226   4.434  12.102  0.3639  0.3392  0.2328
  735TMC3    C710869   2.395   4.536  12.287 -0.0561  0.3263 -1.1908
  735TMC3    C810870   2.118   4.577  11.921  0.6653 -0.2098  0.5156
  735TMC3    O110871   2.482   4.601  12.344 -0.6934 -0.6689 -0.5467
  735TMC3    O210872   2.104   4.459  11.902 -0.5529 -0.3082 -0.2915
  736MPD2     C10873   2.348   4.194  12.413  0.2149 -0.1014  0.5141
  736MPD2    C110874   2.411   4.306  12.375 -0.3392  0.0515 -0.4326
  736MPD2    C210875   2.547   4.322  12.400  0.2742  0.4221  0.1532
  736MPD2    C310876   2.627   4.222  12.465 -0.1331 -0.2401 -0.8733
  736MPD2    C410877   2.555   4.111  12.503  0.1900 -0.1364  0.0037
  736MPD2    C510878   2.421   4.101  12.476 -0.0814 -0.1217  0.1046
  736MPD2     H10879   2.602   4.408  12.362  0.4135 -0.3849 -1.4592
  736MPD2    H110880   2.597   4.027  12.558  3.6030  2.1415  0.9099
  736MPD2    H210881   2.241   4.179  12.401  0.3015 -0.8340  0.6483
  736MPD2    H310882   2.370   4.013  12.513  0.0516  0.0402  0.6820
  736MPD2     N10883   2.764   4.236  12.496 -0.3603  0.7095  0.4209
  736MPD2    H510884   2.800   4.145  12.522 -1.9071 -0.1389 -0.3624
  736MPD2    N110885   2.339   4.416  12.321 -0.4678 -0.1460  0.3289
  736MPD2    H710886   2.243   4.396  12.295  0.6273 -3.8410 -0.8332
  737TMC3    C110887   2.976   4.325  12.461 -0.0435 -0.5702  0.9954
  737TMC3    C210888   3.065   4.436  12.448  0.2699  0.3089  0.2350
  737TMC3    C310889   3.182   4.412  12.379  0.7053  0.3736 -0.7279
  737TMC3    C410890   3.001   4.199  12.406 -0.4448  0.5703 -0.2071
  737TMC3    C510891   3.123   4.188  12.337 -0.8536 -0.3889  0.0064
  737TMC3    C610892   3.214   4.287  12.324  0.1349 -0.1457  0.5561
  737TMC3     C10893   2.838   4.352  12.478  0.2871 -0.2000 -0.4690
  737TMC3     O10894   2.804   4.465  12.452  0.3016 -0.0913 -0.4756
  737TMC3     H10895   3.046   4.524  12.507  1.8148  1.9210 -1.6926
  737TMC3    H110896   2.937   4.112  12.413 -0.7578  0.6841 -1.6222
  737TMC3    H210897   3.308   4.267  12.274  0.6349 -0.1249  1.4883
  737TMC3    C710898   3.162   4.056  12.314 -0.6453  0.1645  0.0240
  737TMC3    C810899   3.281   4.519  12.349  0.2702 -0.1104  0.2845
  737TMC3    O110900   3.138   3.970  12.398 -0.4179 -0.3867  0.1569
  737TMC3    O210901   3.275   4.615  12.420 -0.2537 -0.1770 -0.1214
  738MPD2     C10902   3.082   3.328  15.704  0.3546  0.0165 -0.1445
  738MPD2    C110903   3.036   3.343  15.572 -0.1328 -0.1094  0.2847
  738MPD2    C210904   3.071   3.451  15.499  0.3030  0.0869 -0.5082
  738MPD2    C310905   3.157   3.542  15.553 -0.1164 -0.0166  0.0975
  738MPD2    C410906   3.199   3.535  15.685 -1.0824 -0.1352  0.8586
  738MPD2    C510907   3.171   3.425  15.758 -0.3588  0.5290  0.0812
  738MPD2     H10908   3.030   3.468  15.400 -2.6094  1.0276  0.8838
  738MPD2    H110909   3.266   3.610  15.724 -0.6539  0.6488 -1.4164
  738MPD2    H210910   3.053   3.247  15.769 -0.7938  0.9181  0.4705
  738MPD2    H310911   3.203   3.415  15.862 -2.2096 -3.7198  0.2575
  738MPD2     N10912   3.207   3.652  15.484  0.3126 -0.0128  1.2140
  738MPD2    H510913   3.267   3.709  15.543 -0.2471  0.0045  1.7707
  738MPD2    N110914   2.935   3.254  15.518  0.0742 -0.3158 -0.2960
  738MPD2    H710915   2.904   3.283  15.426 -0.2498 -2.3622 -0.8288
  739TMC3    C110916   3.300   3.749  15.304  0.3020 -0.0017  0.0499
  739TMC3    C210917   3.350   3.702  15.184  0.5902  0.3040 -0.1167
  739TMC3    C310918   3.474   3.735  15.147 -0.4671 -0.5140  0.0483
  739TMC3    C410919   3.369   3.840  15.379 -0.7790  0.1980 -0.2414
  739TMC3    C510920   3.501   3.861  15.336 -0.3158  0.3315  0.8970
  739TMC3    C610921   3.558   3.804  15.223 -0.8502  0.2420 -0.4027
  739TMC3     C10922   3.187   3.684  15.353  0.5670  0.0353 -0.1953
  739TMC3     O10923   3.125   3.622  15.268 -0.8346  0.0025  0.0704
  739TMC3     H10924   3.296   3.621  15.136 -1.2477 -0.0703  2.5871
  739TMC3    H110925   3.327   3.872  15.473  0.4130 -0.3983  0.4850
  739TMC3    H210926   3.654   3.835  15.184  0.3948 -0.6189  1.9351
  739TMC3    C710927   3.590   3.937  15.416 -0.0577  0.2747  0.2266
  739TMC3    C810928   3.478   3.727  15.007  0.5654 -0.7464  0.5914
  739TMC3    O110929   3.707   3.923  15.392 -0.6746 -0.5800 -0.0488
  739TMC3    O210930   3.386   3.684  14.942  0.5044  0.3420 -0.5416
  740TMC3    C110931   3.921   4.692  14.608 -0.0954  0.2769  0.3278
  740TMC3    C210932   3.940   4.601  14.712  0.1586  0.2750 -0.3408
  740TMC3    C310933   4.037   4.507  14.690 -0.3241 -0.8277  0.2019
  740TMC3    C410934   3.986   4.685  14.487 -0.0585 -0.0592 -0.0140
  740TMC3    C510935   4.069   4.578  14.468 -0.3171  0.4381  0.0311
  740TMC3    C610936   4.099   4.496  14.574 -0.3264 -0.0315  0.0647
  740TMC3     C10937   3.826   0.074  14.621 -0.4960 -0.4825 -0.0546
  740TMC3     O10938   3.827   0.168  14.542 -0.2568 -0.3933 -0.3845
  740TMC3     H10939   3.887   4.615  14.805  1.2796  2.6441 -0.0671
  740TMC3    H110940   3.943   0.009  14.399 -0.1619 -2.1052 -1.0836
  740TMC3    H210941   4.179   4.423  14.578  1.0922  1.6217  1.8389
  740TMC3    C710942   4.155   4.550  14.351  0.0243  0.3980  0.0990
  740TMC3    C810943   4.055   4.409  14.793  0.0095  0.4753 -0.1057
  740TMC3    O110944   4.226   4.451  14.356 -0.7956  0.0445 -0.7180
  740TMC3    O210945   4.041   4.457  14.907  0.1625  0.2091  0.6648
  741TMC3    C110946   3.078   4.347  14.541 -0.0116 -0.2226 -0.3638
  741TMC3    C210947   3.000   4.247  14.492 -0.0506 -0.0938  0.2238
  741TMC3    C310948   3.026   4.120  14.544  0.4344  0.0273  0.7945
  741TMC3    C410949   3.170   4.331  14.639 -0.0870  0.7823  0.1231
  741TMC3    C510950   3.195   4.201  14.676  0.2035  0.9889  0.2472
  741TMC3    C610951   3.120   4.093  14.642  0.1555  0.1932 -0.8102
  741TMC3     C10952   3.052   4.472  14.490 -1.1223  0.0915  1.2736
  741TMC3     O10953   3.004   4.557  14.567 -0.6411  0.1974 -0.2202
  741TMC3     H10954   2.923   4.272  14.421  0.8192 -2.3735 -1.5081
  741TMC3    H110955   3.222   4.419  14.674 -1.0246  1.7903 -1.0054
  741TMC3    H210956   3.141   3.998  14.690  2.2876  1.2407  0.3650
  741TMC3    C710957   3.326   4.173  14.731 -0.2890 -0.0082 -0.0657
  741TMC3    C810958   2.949   4.017  14.476  0.1448 -0.6173 -0.1760
  741TMC3    O110959   3.337   4.056  14.772 -0.0814 -0.7497 -0.0342
  741TMC3    O210960   2.926   4.025  14.354  0.0853 -0.3628 -0.6118
  742TMC3    C110961   3.946   2.487  15.674 -0.2497  0.0037 -0.5698
  742TMC3    C210962   3.878   2.534  15.564 -0.5310 -0.6736 -0.6374
  742TMC3    C310963   3.842   2.438  15.467 -0.5136 -0.3772 -0.5501
  742TMC3    C410964   3.996   2.361  15.680  0.8018 -0.0270 -0.5402
  742TMC3    C510965   3.974   2.273  15.575  1.1579  0.1236  0.3527
  742TMC3    C610966   3.891   2.313  15.470 -0.2275  0.7745  0.2504
  742TMC3     C10967   3.948   2.573  15.790 -0.1930  0.0562  0.6407
  742TMC3     O10968   3.950   2.515  15.899  0.1499 -0.6871 -0.2361
  742TMC3     H10969   3.819   2.624  15.574 -1.8868 -1.6612  0.2696
  742TMC3    H110970   4.063   2.338  15.762  0.6405  2.3026  0.2280
  742TMC3    H210971   3.872   2.248  15.385  0.9445  1.3709 -0.4623
  742TMC3    C710972   4.058   2.159  15.549 -0.2579  0.2279  0.5155
  742TMC3    C810973   3.765   2.477  15.354  0.0507  0.2607  0.2927
  742TMC3    O110974   4.046   2.112  15.439  0.0340 -0.1428  0.8057
  742TMC3    O210975   3.721   2.378  15.291 -0.2501 -0.6741  0.1702
  743MPD2     C10976   0.161   3.943   1.491  0.5574  0.4014  0.3183
  743MPD2    C110977   0.221   3.857   1.402  0.8132 -0.1446  0.7786
  743MPD2    C210978   0.340   3.791   1.436 -0.2706 -0.4223  0.3305
  743MPD2    C310979   0.397   3.817   1.557 -0.6454 -0.6266 -0.0311
  743MPD2    C410980   0.333   3.895   1.654  0.3651 -0.4079 -0.0468
  743MPD2    C510981   0.214   3.945   1.618  0.6109 -0.3312 -0.3583
  743MPD2     H10982   0.395   3.731   1.364  0.4912  0.8294 -0.1315
  743MPD2    H110983   0.372   3.914   1.753 -0.3984  1.4114 -0.0855
  743MPD2    H210984   0.068   3.991   1.465  0.1257  0.5041  2.0414
  743MPD2    H310985   0.157   4.003   1.689 -0.7752  1.0660 -2.5948
  743MPD2     N10986   0.529   3.765   1.588 -0.3626  0.3352 -0.6323
  743MPD2    H510987   0.571   3.710   1.513  0.8070  0.3186  0.0209
  743MPD2    N110988   0.170   3.851   1.269 -0.3510  0.7276 -0.1582
  743MPD2    H710989   0.088   3.907   1.247  0.1147  1.1059 -0.9218
  744TMC3    C110990   0.186   3.845   1.035  0.3091 -0.0007  0.1479
  744TMC3    C210991   0.078   3.931   1.019 -0.3250  0.0678 -0.3178
  744TMC3    C310992   0.091   4.021   0.920 -0.7077 -0.3374 -0.6650
  744TMC3    C410993   0.276   3.828   0.936 -0.1619  0.5914  0.7008
  744TMC3    C510994   0.277   3.908   0.830 -0.7521  0.0513  0.0211
  744TMC3    C610995   0.188   4.011   0.826  1.1872 -0.1432 -0.3635
  744TMC3     C10996   0.235   3.794   1.165 -0.3222  0.1520  0.1939
  744TMC3     O10997   0.325   3.715   1.159 -0.1385  0.1791  0.0153
  744TMC3     H10998   4.711   3.931   1.078 -0.6422  1.0875 -0.8077
  744TMC3    H110999   0.356   3.755   0.937 -1.8909 -1.2819 -0.3693
  744TMC3    H211000   0.193   4.086   0.749 -0.9024  1.4788  1.0858
  744TMC3    C711001   0.399   3.910   0.747 -1.0191 -0.4995  0.1795
  744TMC3    C811002   0.021   4.146   0.928 -0.7458  0.3377  1.1983
  744TMC3    O111003   0.491   3.832   0.762  0.8480 -0.6307  0.4603
  744TMC3    O211004   0.084   4.242   0.888  0.0654  0.5046 -0.7885
  745TMC3    C111005   3.676   2.998  13.283 -0.3592  0.0492  0.2536
  745TMC3    C211006   3.695   2.869  13.326  0.3389  0.6917  0.1608
  745TMC3    C311007   3.629   2.773  13.259 -0.3256  0.8294 -0.5859
  745TMC3    C411008   3.616   3.014  13.160  0.0467  0.4123 -0.2261
  745TMC3    C511009   3.568   2.913  13.084  0.3404  1.2372  0.5680
  745TMC3    C611010   3.567   2.784  13.134  0.4235  0.4352 -0.6820
  745TMC3     C11011   3.777   3.100  13.318  0.3952 -0.3754 -0.3208
  745TMC3     O11012   3.806   3.181  13.236 -0.1610  0.4670 -0.0329
  745TMC3     H11013   3.761   2.851  13.410 -0.1993  1.1819  0.6888
  745TMC3    H111014   3.628   3.112  13.116  1.5518  1.2567  2.1253
  745TMC3    H211015   3.540   2.697  13.076  0.4344 -1.2198  1.7870
  745TMC3    C711016   3.586   2.924  12.947 -0.2040 -0.2691  0.7582
  745TMC3    C811017   3.633   2.638  13.309 -0.1392 -0.4437 -0.3126
  745TMC3    O111018   3.515   2.861  12.869  0.2611 -0.2441 -0.3256
  745TMC3    O211019   3.586   2.547  13.245 -0.6062 -0.3220  0.2442
  746TMC3    C111020   1.938   3.913  10.745 -0.4467  0.3488 -0.5132
  746TMC3    C211021   2.044   3.897  10.663 -0.2394  0.1421 -0.5951
  746TMC3    C311022   2.074   3.768  10.627 -0.1228  0.9369 -1.0326
  746TMC3    C411023   1.870   3.801  10.796  0.0451  0.0198 -0.0468
  746TMC3    C511024   1.916   3.675  10.772  0.2273  0.6298  0.4902
  746TMC3    C611025   2.011   3.662  10.675  0.5063 -0.1042 -0.8349
  746TMC3     C11026   1.881   4.044  10.771 -0.9307  0.1466  0.5887
  746TMC3     O11027   1.832   4.048  10.884 -0.6184 -0.4642  0.3330
  746TMC3     H11028   2.113   3.980  10.649  0.3126 -0.3563 -0.8540
  746TMC3    H111029   1.789   3.821  10.865  0.2595 -1.3348  0.5926
  746TMC3    H211030   2.032   3.563  10.637 -0.0294 -0.9966  1.1729
  746TMC3    C711031   1.829   3.566  10.806  0.3241  0.1547  0.1231
  746TMC3    C811032   2.165   3.743  10.522  0.8582  0.0933  0.5227
  746TMC3    O111033   1.810   3.473  10.724  0.2823  1.0254  0.1368
  746TMC3    O211034   2.213   3.630  10.504 -0.1800 -0.0602  1.2121
  747TMC3    C111035   3.595   3.820  11.372 -0.5631  0.7577  0.4096
  747TMC3    C211036   3.546   3.779  11.487  0.7085  0.4057 -0.1281
  747TMC3    C311037   3.545   3.861  11.596  0.1127  0.4939  0.2835
  747TMC3    C411038   3.615   3.954  11.359  0.3973  0.2961 -0.6214
  747TMC3    C511039   3.624   4.033  11.469 -0.0594  0.5888  0.2775
  747TMC3    C611040   3.581   3.991  11.588  0.0198 -0.5836 -0.1314
  747TMC3     C11041   3.705   3.734  11.345  0.0546  0.5402 -0.0200
  747TMC3     O11042   3.739   3.651  11.430 -0.2748  0.6958  0.2858
  747TMC3     H11043   3.523   3.674  11.499 -0.3733  0.6937  0.3010
  747TMC3    H111044   3.639   4.004  11.266 -0.4750 -0.7041 -1.3925
  747TMC3    H211045   3.594   4.050  11.677 -4.5310  0.4403 -0.1636
  747TMC3    C711046   3.752   4.108  11.475  0.5972  0.3606  0.1961
  747TMC3    C811047   3.501   3.793  11.719 -0.8666  0.5191 -0.9085
  747TMC3    O111048   3.766   4.185  11.569 -0.0413 -0.1441 -0.1015
  747TMC3    O211049   3.520   3.673  11.728  0.0638 -0.9595 -0.2476
  748MPD2     C11050   4.409   0.339   1.313 -0.1017 -0.1261 -0.5681
  748MPD2    C111051   4.483   0.223   1.353  0.4634  0.1776 -0.2434
  748MPD2    C211052   4.621   0.239   1.385 -0.1286 -0.0796  0.2479
  748MPD2    C311053   4.690   0.357   1.347 -0.5748 -0.0783  0.2337
  748MPD2    C411054   4.612   0.462   1.310  0.0089 -0.3879 -0.5507
  748MPD2    C511055   4.477   0.456   1.306 -0.2741 -0.1179 -0.5476
  748MPD2     H11056   4.670   0.162   1.443  0.5246  0.2865  0.1790
  748MPD2    H111057   4.651   0.562   1.296  0.6033 -0.5679 -0.2196
  748MPD2    H211058   4.301   0.346   1.303  0.0715  1.1927 -1.5146
  748MPD2    H311059   4.430   0.550   1.279  0.9354  0.8367  0.6596
  748MPD2     N11060   0.107   0.366   1.362 -0.2897 -0.2288 -0.4142
  748MPD2    H511061   0.158   0.284   1.393  0.5326  1.6021  3.0473
  748MPD2    N111062   4.408   0.102   1.375 -0.0722  0.1030 -0.0557
  748MPD2    H711063   4.307   0.103   1.383  0.0408  0.2190  1.4010
  749TMC3    C111064   0.330   0.463   1.356  0.7370  0.7394 -0.0238
  749TMC3    C211065   0.384   0.337   1.396 -1.4447  0.4488  0.8781
  749TMC3    C311066   0.517   0.308   1.378  0.1678  0.6496 -0.7696
  749TMC3    C411067   0.411   0.554   1.303 -0.5738  0.0152  0.1878
  749TMC3    C511068   0.542   0.520   1.296 -1.0319  0.0441  0.2301
  749TMC3    C611069   0.606   0.403   1.331 -0.2164  0.1233 -0.3302
  749TMC3     C11070   0.183   0.472   1.318  0.1602 -0.0427  0.0806
  749TMC3     O11071   0.155   0.559   1.235 -0.3186  0.3221 -0.3297
  749TMC3     H11072   0.319   0.260   1.435 -1.1656 -0.1980  0.0531
  749TMC3    H111073   0.380   0.657   1.289  1.8001  0.7116  0.1061
  749TMC3    H211074   0.713   0.399   1.344 -0.4958  2.1180  2.5922
  749TMC3    C711075   0.640   0.614   1.238 -0.6741 -0.2318 -0.2209
  749TMC3    C811076   0.564   0.217   1.485 -0.1403 -0.5553 -0.3591
  749TMC3    O111077   0.602   0.730   1.244  0.0849 -0.7034  0.0289
  749TMC3    O211078   0.484   0.201   1.580 -0.3280  0.4713 -0.0451
  750MPD2     C11079   1.669   1.170  11.644 -0.6392  0.1826 -0.2528
  750MPD2    C111080   1.576   1.068  11.647  0.2799  0.4573 -0.7823
  750MPD2    C211081   1.575   0.969  11.549  0.4496 -0.2370  0.2077
  750MPD2    C311082   1.659   0.982  11.440 -0.3867 -0.8119 -0.4502
  750MPD2    C411083   1.742   1.092  11.431 -0.3410 -0.3831  0.1928
  750MPD2    C511084   1.751   1.187  11.533 -0.8391 -0.0891  0.3235
  750MPD2     H11085   1.502   0.889  11.542 -0.8440  0.9945 -0.3836
  750MPD2    H111086   1.805   1.103  11.344 -1.1151 -0.2236 -0.3417
  750MPD2    H211087   1.687   1.229  11.733 -0.9852  1.5842 -1.1070
  750MPD2    H311088   1.820   1.269  11.521 -3.5477  2.0027 -0.9429
  750MPD2     N11089   1.660   0.907  11.321  0.4116  0.4985 -0.2829
  750MPD2    H511090   1.741   0.928  11.263 -1.1401  2.0246 -1.8984
  750MPD2    N111091   1.469   1.073  11.746 -0.2692 -0.2945  0.6098
  750MPD2    H711092   1.467   1.150  11.812 -0.3451 -0.3269  0.6453
  751TMC3    C111093   1.635   0.728  11.180  0.0121 -0.6952  0.0335
  751TMC3    C211094   1.623   0.592  11.182 -0.2996 -0.3430  0.1196
  751TMC3    C311095   1.712   0.519  11.111 -0.0878 -0.0427  0.1065
  751TMC3    C411096   1.728   0.789  11.105 -0.8031  0.2848 -0.2443
  751TMC3    C511097   1.817   0.707  11.033 -0.0976 -0.3064 -0.0058
  751TMC3    C611098   1.819   0.572  11.046  0.0005  0.0800 -0.1454
  751TMC3     C11099   1.578   0.795  11.295 -0.1294  0.0886 -0.0223
  751TMC3     O11100   1.516   0.730  11.374 -0.1415  0.4389 -0.4424
  751TMC3     H11101   1.542   0.546  11.238 -1.9523  1.1281 -1.0484
  751TMC3    H111102   1.716   0.892  11.076  2.1754  0.8337  0.5599
  751TMC3    H211103   1.903   0.513  11.013 -1.6657 -2.5486  0.3667
  751TMC3    C711104   1.834   0.750  10.896 -0.0620  0.1190 -0.0922
  751TMC3    C811105   1.651   0.410  11.029 -0.2844  0.5048  0.4014
  751TMC3    O111106   1.802   0.862  10.854  0.1838  0.2366 -0.1697
  751TMC3    O211107   1.733   0.359  10.958  0.2811  0.0945 -0.0932
  752TMC3    C111108   0.520   1.393  16.401 -0.7152 -0.8409 -0.2812
  752TMC3    C211109   0.451   1.279  16.438  0.6307  0.8626 -0.4112
  752TMC3    C311110   0.443   1.256  16.570 -0.4364  0.0228 -0.3808
  752TMC3    C411111   0.603   1.464  16.484 -0.8136  1.2136  0.2837
  752TMC3    C511112   0.588   1.435  16.612 -0.0891 -0.1243 -0.0321
  752TMC3    C611113   0.509   1.333  16.663  1.0599 -0.1734 -0.1501
  752TMC3     C11114   0.467   1.484  16.299 -0.4771  0.4428 -0.0608
  752TMC3     O11115   0.506   1.596  16.277  0.2309  0.3075  0.6752
  752TMC3     H11116   0.397   1.214  16.370 -1.0104 -0.2336  1.9326
  752TMC3    H111117   0.656   1.550  16.445  2.7268 -1.2710 -0.3565
  752TMC3    H211118   0.506   1.319  16.771  0.6704 -0.1104 -0.1557
  752TMC3    C711119   0.675   1.497  16.709 -0.0200  0.3643 -0.1981
  752TMC3    C811120   0.314   1.200  16.609  1.0157 -0.3406  0.4783
  752TMC3    O111121   0.694   1.438  16.816  0.3339 -0.1565  0.0583
  752TMC3    O211122   0.234   1.177  16.517 -0.2412 -0.4593 -0.2946
  753TMC3    C111123   2.462   2.137  13.388 -0.4876  0.3876 -0.1389
  753TMC3    C211124   2.569   2.174  13.473  0.4001  0.3952  0.0335
  753TMC3    C311125   2.659   2.069  13.498 -0.2830 -0.3270  0.4437
  753TMC3    C411126   2.461   2.019  13.322 -0.8859  0.2436  0.3211
  753TMC3    C511127   2.550   1.922  13.358  0.0075 -0.0994 -0.7668
  753TMC3    C611128   2.652   1.945  13.449 -0.0395  0.8076 -0.0006
  753TMC3     C11129   2.357   2.227  13.342  0.1362 -0.3201 -0.5251
  753TMC3     O11130   2.264   2.177  13.278  0.3779 -0.1005 -0.0258
  753TMC3     H11131   2.577   2.276  13.508  0.9373 -0.8942  3.6466
  753TMC3    H111132   2.388   2.007  13.244  1.1983 -1.6093 -1.3444
  753TMC3    H211133   2.727   1.868  13.464 -1.2415 -0.6594 -1.5445
  753TMC3    C711134   2.535   1.791  13.308  0.6897  0.0863 -0.0625
  753TMC3    C811135   2.776   2.099  13.578 -0.2204  0.2140 -0.1100
  753TMC3    O111136   2.629   1.716  13.342  0.1342  0.1190  0.2213
  753TMC3    O211137   2.874   2.029  13.544 -0.1907 -0.1414  0.4716
  754MPD2     C11138   1.317   0.823  12.643 -0.2887 -0.8934  0.2911
  754MPD2    C111139   1.249   0.707  12.665  0.4685 -0.5297 -0.0960
  754MPD2    C211140   1.119   0.705  12.709 -0.2447 -0.2962  0.0219
  754MPD2    C311141   1.053   0.829  12.740 -0.4535 -0.2400  0.1068
  754MPD2    C411142   1.124   0.948  12.715  0.0239 -0.5432 -0.4638
  754MPD2    C511143   1.255   0.946  12.661 -0.7598  0.1779  0.1148
  754MPD2     H11144   1.068   0.609  12.710  0.0113 -0.4310  0.5872
  754MPD2    H111145   1.067   1.039  12.726 -0.0830 -0.7456  0.6037
  754MPD2    H211146   1.412   0.821  12.591  0.2717  2.2102  1.1883
  754MPD2    H311147   1.303   1.042  12.648  2.5830 -1.3627  1.0136
  754MPD2     N11148   0.925   0.831  12.801  0.0691 -0.0736  0.0293
  754MPD2    H511149   0.885   0.923  12.815 -0.9541 -0.3533 -0.9696
  754MPD2    N111150   1.325   0.591  12.650  0.8055 -0.4495 -1.1593
  754MPD2    H711151   1.416   0.605  12.607  1.4486 -1.6501 -0.1873
  755MPD2     C11152   0.461   1.546  12.883  0.1615  1.1529  0.1898
  755MPD2    C111153   0.426   1.478  12.991 -0.1502 -0.4284  0.4356
  755MPD2    C211154   0.449   1.342  12.994  0.0514 -0.1074  0.0221
  755MPD2    C311155   0.530   1.278  12.905 -0.1905  0.2446 -0.1654
  755MPD2    C411156   0.584   1.354  12.806 -0.1793 -0.4386 -0.2783
  755MPD2    C511157   0.546   1.489  12.799  0.0249 -0.7237  0.1660
  755MPD2     H11158   0.403   1.284  13.073 -1.5346 -0.6940 -1.3408
  755MPD2    H111159   0.656   1.310  12.738  1.6637 -0.1517  1.5016
  755MPD2    H211160   0.444   1.652  12.865  1.1418  1.2137 -0.3585
  755MPD2    H311161   0.592   1.555  12.726 -1.8819 -0.2546 -0.6204
  755MPD2     N11162   0.559   1.142  12.901  0.3136  0.2290 -0.1021
  755MPD2    H511163   0.629   1.109  12.835 -0.6516 -2.5760  0.2821
  755MPD2    N111164   0.379   1.539  13.107 -0.4358 -0.3310 -0.0341
  755MPD2    H711165   0.343   1.478  13.180 -1.0102 -1.6171 -1.3980
  756MPD2     C11166   1.024   1.628   9.842 -0.0801 -0.0609 -0.0634
  756MPD2    C111167   0.990   1.639   9.983  0.1416 -0.5860  0.6055
  756MPD2    C211168   0.860   1.616  10.022  0.3033 -0.4393 -0.4361
  756MPD2    C311169   0.760   1.592   9.929 -0.3041 -0.7620 -0.5972
  756MPD2    C411170   0.792   1.584   9.794  0.2243  0.6119  0.4012
  756MPD2    C511171   0.924   1.599   9.754  0.4604 -0.3167 -0.6971
  756MPD2     H11172   0.826   1.624  10.124  0.3724  0.5513 -0.4926
  756MPD2    H111173   0.715   1.564   9.720  0.5995 -2.2217  0.7663
  756MPD2    H211174   1.120   1.631   9.792  0.6927 -0.6899  1.3758
  756MPD2    H311175   0.942   1.592   9.647  1.0766 -0.1664 -0.6060
  756MPD2     N11176   0.622   1.579   9.978 -0.9154  0.1883 -0.2743
  756MPD2    H511177   0.608   1.588  10.078  0.2057  1.2653 -0.2104
  756MPD2    N111178   1.086   1.669  10.085 -0.0836  0.0783  0.1484
  756MPD2    H711179   1.051   1.705  10.173 -0.9515 -0.9711  0.2336
  757MPD2     C11180   0.582   0.729  10.011 -0.4592  0.2424 -0.4182
  757MPD2    C111181   0.668   0.826   9.974  0.7271 -0.0064  0.1763
  757MPD2    C211182   0.626   0.960   9.961  0.0706 -0.0274  0.0003
  757MPD2    C311183   0.491   0.992   9.989  0.8273 -0.0063  0.0198
  757MPD2    C411184   0.407   0.892  10.032  0.4699  0.4635  0.4934
  757MPD2    C511185   0.452   0.760  10.046 -0.1662  0.0336 -0.4230
  757MPD2     H11186   0.694   1.040   9.935  1.9216 -1.5646  0.1070
  757MPD2    H111187   0.306   0.916  10.063  0.6813  1.9161  0.0571
  757MPD2    H211188   0.620   0.629  10.028  0.5185  0.9874  1.7892
  757MPD2    H311189   0.377   0.684  10.062 -0.6420  0.3978 -0.9486
  757MPD2     N11190   0.441   1.119   9.965 -0.2518 -0.0080 -0.0726
  757MPD2    H511191   0.505   1.188   9.925  0.9183 -0.5316  0.8911
  757MPD2    N111192   0.793   0.789   9.956 -0.9202  0.3021  0.4480
  757MPD2    H711193   0.810   0.690   9.946 -1.0616  0.0943  2.2532
  758MPD2     C11194   1.466   0.383  15.610  0.2256  0.4229  0.3692
  758MPD2    C111195   1.527   0.319  15.720 -0.2765  0.4548  0.0285
  758MPD2    C211196   1.475   0.336  15.838 -0.2429  0.2716 -0.5401
  758MPD2    C311197   1.380   0.434  15.860  0.5195 -0.1958  0.5847
  758MPD2    C411198   1.317   0.495  15.754  0.0477  0.4393  0.0740
  758MPD2    C511199   1.355   0.457  15.631 -0.6048 -0.4920 -0.4627
  758MPD2     H11200   1.517   0.280  15.921  1.1567  0.5479 -1.0680
  758MPD2    H111201   1.233   0.562  15.772 -0.6243 -0.2476 -0.5097
  758MPD2    H211202   1.488   0.364  15.506  3.1315  1.5593  0.7756
  758MPD2    H311203   1.299   0.496  15.547 -0.6067  0.4906 -0.0032
  758MPD2     N11204   1.347   0.475  15.988  0.0324 -0.1153 -0.7361
  758MPD2    H511205   1.284   0.555  15.992 -0.1191 -0.4137  2.8485
  758MPD2    N111206   1.634   0.238  15.679  0.6044  0.4114 -0.5313
  758MPD2    H711207   1.674   0.258  15.588  1.0651 -0.8923 -0.6193
  759MPD2     C11208   0.506   3.274   9.519 -0.6451  0.6068  0.1963
  759MPD2    C111209   0.399   3.363   9.508  0.1333  0.2142 -0.2338
  759MPD2    C211210   0.399   3.451   9.406 -0.3704  0.2829  0.0651
  759MPD2    C311211   0.506   3.457   9.319 -0.0756  0.7321 -0.6740
  759MPD2    C411212   0.611   3.368   9.326  0.2755  0.5224 -0.1600
  759MPD2    C511213   0.615   3.282   9.432  0.0032  0.1356  0.3394
  759MPD2     H11214   0.319   3.524   9.398  0.0016  0.7304  0.4328
  759MPD2    H111215   0.689   3.366   9.251 -1.7045  1.4841 -2.2378
  759MPD2    H211216   0.505   3.188   9.584 -0.7454  0.2718 -0.2471
  759MPD2    H311217   0.698   3.212   9.433  0.2527  0.4440  1.0746
  759MPD2     N11218   0.489   3.543   9.208 -0.8464 -0.0447 -0.1390
  759MPD2    H511219   0.393   3.573   9.199 -0.3622  0.7054 -2.8393
  759MPD2    N111220   0.281   3.361   9.586 -0.3745 -0.1386  0.5595
  759MPD2    H711221   0.203   3.423   9.570  0.0840  0.4769  0.7142
  760MPD2     C11222   4.269   1.327  11.754  0.3486  0.4313  0.3494
  760MPD2    C111223   4.403   1.306  11.738  0.1922 -1.4915  0.7046
  760MPD2    C211224   4.464   1.189  11.772  0.4582  0.0531  0.7708
  760MPD2    C311225   4.389   1.079  11.804  0.0247 -0.8481 -0.0429
  760MPD2    C411226   4.256   1.090  11.804 -0.1871 -0.1614  0.5076
  760MPD2    C511227   4.201   1.212  11.786  0.2013 -0.6568  0.3268
  760MPD2     H11228   4.572   1.185  11.772  0.4621  0.2638 -0.0762
  760MPD2    H111229   4.192   1.003  11.813 -0.0292 -0.5442 -1.9959
  760MPD2    H211230   4.225   1.422  11.726  0.5475  0.7586  1.1420
  760MPD2    H311231   4.093   1.223  11.778  0.2930 -1.9858 -2.8653
  760MPD2     N11232   4.444   0.958  11.851 -0.4681  0.3284  0.2429
  760MPD2    H511233   4.382   0.882  11.875 -2.2102  1.5395 -0.4105
  760MPD2    N111234   4.487   1.415  11.700  0.2122 -0.2127 -0.3328
  760MPD2    H711235   4.585   1.401  11.725 -0.0035 -0.0667  0.5950
  761MPD2     C11236   1.232   0.153  10.852  0.0457 -0.4078  0.4570
  761MPD2    C111237   1.362   0.164  10.797  0.5405 -0.7476 -0.0471
  761MPD2    C211238   1.458   0.236  10.866 -0.3248 -0.4776 -0.6880
  761MPD2    C311239   1.422   0.306  10.982 -0.3541 -0.3914  0.1509
  761MPD2    C411240   1.292   0.303  11.021 -0.5808  0.9397 -0.6079
  761MPD2    C511241   1.199   0.223  10.966 -0.3252 -0.3847  0.4752
  761MPD2     H11242   1.562   0.239  10.838 -0.4020  0.7484 -0.8403
  761MPD2    H111243   1.262   0.357  11.110  0.0420  0.7224 -0.2709
  761MPD2    H211244   1.153   0.099  10.803  1.6744 -1.4728 -1.0047
  761MPD2    H311245   1.099   0.220  11.009 -0.7111 -1.9519 -0.5358
  761MPD2     N11246   1.510   0.397  11.045  0.0527 -0.1705  0.0757
  761MPD2    H511247   1.474   0.461  11.115  2.6732  0.3752  0.9407
  761MPD2    N111248   1.396   0.080  10.678 -0.2409  0.3963  0.1646
  761MPD2    H711249   1.329   0.012  10.643 -0.4517 -0.5633  2.4238
  762MPD2     C11250   1.905   0.248  10.096  0.4365  0.4700 -0.4866
  762MPD2    C111251   1.887   0.114  10.129 -1.2801 -0.7372 -0.6225
  762MPD2    C211252   1.996   0.033  10.120  0.0190 -0.3664 -0.0634
  762MPD2    C311253   2.122   0.076  10.080 -0.8351  0.2381  0.4902
  762MPD2    C411254   2.136   0.210  10.052  0.7106  0.2646  0.2643
  762MPD2    C511255   2.027   0.295  10.070  0.1873  0.8022 -0.2703
  762MPD2     H11256   1.977   4.654  10.150 -0.7835 -0.7579 -1.9208
  762MPD2    H111257   2.234   0.251  10.030 -1.0317  2.9829 -2.4808
  762MPD2    H211258   1.817   0.312  10.106  0.8754  0.9976  0.0188
  762MPD2    H311259   2.038   0.401  10.052 -0.2665  1.3243  2.5641
  762MPD2     N11260   2.240   4.716  10.070 -0.1151 -0.7179 -0.2053
  762MPD2    H511261   2.330   0.035  10.052  0.4715 -1.7173  0.3463
  762MPD2    N111262   1.759   0.080  10.182  0.6063  0.0690  0.5220
  762MPD2    H711263   1.699   0.156  10.212 -1.7031 -1.6456  0.2909
  763MPD2     C11264   2.840   0.518  16.615  0.3316  0.1626 -0.0414
  763MPD2    C111265   2.833   0.601  16.507 -0.3514  0.5518  0.7714
  763MPD2    C211266   2.831   0.738  16.534  0.3362  0.4908  0.1644
  763MPD2    C311267   2.819   0.786  16.664  0.1456  0.1402  0.4418
  763MPD2    C411268   2.819   0.694  16.774 -0.8269 -0.0289 -0.3264
  763MPD2    C511269   2.823   0.563  16.742 -0.2663  0.7627  0.0740
  763MPD2     H11270   2.841   0.800  16.445  1.2010  0.2885  0.1286
  763MPD2    H111271   2.819   0.724  16.878  0.7201 -1.2961  0.0322
  763MPD2    H211272   2.843   0.410  16.609  1.7579  0.2143 -0.2135
  763MPD2    H311273   2.815   0.486  16.818 -1.3532  0.7071 -0.0965
  763MPD2     N11274   2.827   0.928  16.681 -0.2082 -0.6898 -0.3056
  763MPD2    H511275   2.832   0.976  16.592 -0.4778 -1.7711 -0.9006
  763MPD2    N111276   2.854   0.559  16.378  0.1565 -0.5662  0.0931
  763MPD2    H711277   2.853   0.625  16.301 -2.6906 -1.5774 -0.7549
  764MPD2     C11278   0.696   2.305  16.390  0.7939 -0.6814 -0.5483
  764MPD2    C111279   0.652   2.179  16.358 -0.6740  0.4920  0.0996
  764MPD2    C211280   0.597   2.098  16.458  1.0443  0.4899 -0.0593
  764MPD2    C311281   0.592   2.145  16.584  0.0630  0.5184 -0.2623
  764MPD2    C411282   0.664   2.264  16.618 -0.3538  0.0218  0.5634
  764MPD2    C511283   0.709   2.346  16.517  0.1228  0.1748  0.2478
  764MPD2     H11284   0.548   2.006  16.430  0.0044  0.7971  0.7343
  764MPD2    H111285   0.669   2.292  16.723  2.2146 -0.5858  0.5903
  764MPD2    H211286   0.730   2.382  16.322 -0.3136  1.6459  1.5273
  764MPD2    H311287   0.756   2.443  16.533 -0.4556  0.3386  0.9856
  764MPD2     N11288   0.519   2.064  16.675 -0.0350  0.1163 -0.1860
  764MPD2    H511289   0.477   1.980  16.638 -0.0069 -0.3472  0.8329
  764MPD2    N111290   0.642   2.124  16.230 -0.3602 -0.2116  0.4995
  764MPD2    H711291   0.606   2.030  16.230 -1.4947  0.2312  0.2411
  765MPD2     C11292   0.949   0.371  16.059  0.0427  0.0237  0.5577
  765MPD2    C111293   0.881   0.353  15.943  0.0073  0.8895 -0.3891
  765MPD2    C211294   0.935   0.271  15.843 -0.2897 -0.2692 -0.2228
  765MPD2    C311295   1.054   0.205  15.867  0.1890  0.2234  0.5567
  765MPD2    C411296   1.118   0.226  15.983 -0.0165  0.5650 -0.3566
  765MPD2    C511297   1.069   0.313  16.077  0.3455 -0.5320 -0.6452
  765MPD2     H11298   0.887   0.251  15.748 -1.0422  2.6412 -0.4369
  765MPD2    H111299   1.218   0.187  15.999 -0.3889 -0.1835  0.1395
  765MPD2    H211300   0.916   0.435  16.139  0.4820  0.7108  0.1897
  765MPD2    H311301   1.129   0.340  16.163 -0.2502  0.3899 -0.5237
  765MPD2     N11302   1.114   0.140  15.753 -0.2069 -0.3942  0.4686
  765MPD2    H511303   1.074   0.153  15.661 -0.9125 -0.6934  0.7322
  765MPD2    N111304   0.756   0.411  15.937  0.6569 -0.1606  0.4598
  765MPD2    H711305   0.729   0.469  16.015 -0.9282  0.3863 -0.4861
  766MPD2     C11306   0.286   0.303  15.335 -0.2090  0.0460 -0.1332
  766MPD2    C111307   0.390   0.383  15.362 -0.1054  0.0208 -0.2150
  766MPD2    C211308   0.488   0.398  15.267 -0.3423  0.4735 -0.0308
  766MPD2    C311309   0.476   0.332  15.140 -0.7111  0.3313  0.4048
  766MPD2    C411310   0.364   0.253  15.119 -0.0496  0.0602  0.8009
  766MPD2    C511311   0.276   0.237  15.217 -0.0801 -0.5351  0.2744
  766MPD2     H11312   0.581   0.450  15.288 -1.2102  1.9711  0.1515
  766MPD2    H111313   0.342   0.225  15.016 -0.8238  0.4980  0.8390
  766MPD2    H211314   0.199   0.294  15.399  0.2306 -2.0310  0.1765
  766MPD2    H311315   0.185   0.185  15.191 -0.0193 -0.6607  0.3119
  766MPD2     N11316   0.564   0.348  15.029  0.8689  0.2316 -0.2980
  766MPD2    H511317   0.537   0.294  14.947  0.6119  0.9002 -0.6508
  766MPD2    N111318   0.398   0.464  15.482  0.1558  0.0826  0.2429
  766MPD2    H711319   0.472   0.533  15.473 -0.4130  0.4069 -1.8383
  767MPD2     C11320   0.070   0.462  14.976 -0.2931 -0.3917  0.1974
  767MPD2    C111321   0.176   0.533  14.923 -0.4280  0.4076  0.0799
  767MPD2    C211322   0.240   0.490  14.807  0.0589  0.0262  0.2040
  767MPD2    C311323   0.203   0.374  14.748 -0.1865  0.4635  0.5621
  767MPD2    C411324   0.103   0.300  14.807  0.5716 -0.2722 -0.4466
  767MPD2    C511325   0.032   0.348  14.916 -0.2622  0.2560 -0.6132
  767MPD2     H11326   0.323   0.540  14.757 -3.2463  3.5491 -1.7385
  767MPD2    H111327   0.070   0.202  14.775 -1.9103  1.4096 -2.9773
  767MPD2    H211328   0.022   0.500  15.065  0.7655 -0.9849  1.0057
  767MPD2    H311329   4.673   0.290  14.957  0.7056  0.4781  1.6841
  767MPD2     N11330   0.272   0.326  14.638  0.2496  0.0444 -0.2275
  767MPD2    H511331   0.356   0.374  14.606 -0.3274 -0.1391 -1.9975
  767MPD2    N111332   0.226   0.639  15.005 -0.2101 -0.8653  0.3476
  767MPD2    H711333   0.196   0.630  15.102  2.0722  1.6504  1.2867
  768MPD2     C11334   1.712   3.206  10.389  0.1483  0.3209 -0.2401
  768MPD2    C111335   1.675   3.155  10.509  0.7535  0.1016 -0.3610
  768MPD2    C211336   1.775   3.143  10.603  0.7716  0.0481 -0.4241
  768MPD2    C311337   1.899   3.189  10.582  0.0985  0.1905  0.6375
  768MPD2    C411338   1.932   3.259  10.463 -0.2540  0.0084  0.0233
  768MPD2    C511339   1.842   3.248  10.360 -0.5812  0.2332  0.5372
  768MPD2     H11340   1.751   3.107  10.702 -0.3424 -0.7857 -0.9995
  768MPD2    H111341   2.023   3.315  10.446 -1.2186  1.1780 -1.2603
  768MPD2    H211342   1.636   3.222  10.314 -0.8540  0.8304  0.8853
  768MPD2    H311343   1.854   3.306  10.270  0.3920  0.6980  0.9622
  768MPD2     N11344   2.004   3.195  10.680  0.1634 -0.0860  0.3521
  768MPD2    H511345   2.083   3.257  10.664  0.2693  0.3031  2.3429
  768MPD2    N111346   1.545   3.115  10.540  0.1428 -0.0653  0.5357
  768MPD2    H711347   1.533   3.057  10.623 -1.6798  0.1630  0.4488
  769MPD2     C11348   1.858   1.708  14.308 -0.0672 -0.2083  0.7438
  769MPD2    C111349   1.858   1.771  14.427  0.2595 -0.0343 -0.8649
  769MPD2    C211350   1.970   1.750  14.514 -0.5768  0.0507 -0.3063
  769MPD2    C311351   2.066   1.662  14.482  0.5773 -0.1704  0.1804
  769MPD2    C411352   2.061   1.609  14.354  0.3482  0.0799  0.4312
  769MPD2    C511353   1.956   1.625  14.275 -0.1483 -0.1719 -0.0020
  769MPD2     H11354   1.975   1.794  14.613 -5.8989  0.3741 -0.1986
  769MPD2    H111355   2.137   1.540  14.318  0.4911 -0.9352  2.6625
  769MPD2    H211356   1.771   1.704  14.244  0.4764 -0.4811  0.0295
  769MPD2    H311357   1.955   1.568  14.183  2.3303  1.3082 -0.9392
  769MPD2     N11358   2.175   1.641  14.572  0.4278  0.0722  0.5058
  769MPD2    H511359   2.185   1.706  14.649  1.3908  0.7991 -0.2367
  769MPD2    N111360   1.739   1.838  14.451 -0.0614  0.2038 -0.2062
  769MPD2    H711361   1.678   1.845  14.369 -0.2674 -0.8855 -0.1435
  770MPD2     C11362   1.135   1.431  15.111 -0.7092  0.1338  0.1267
  770MPD2    C111363   1.255   1.392  15.050 -0.6158 -0.4888 -0.0865
  770MPD2    C211364   1.323   1.480  14.958  0.0173 -0.3210  0.3910
  770MPD2    C311365   1.254   1.593  14.914 -0.4809 -0.2910  0.6550
  770MPD2    C411366   1.126   1.624  14.970 -0.1434  0.1970  0.2579
  770MPD2    C511367   1.077   1.546  15.071  0.6515 -0.1359  0.4698
  770MPD2     H11368   1.411   1.454  14.902 -0.3580 -1.1315  0.1751
  770MPD2    H111369   1.065   1.712  14.952 -0.6820 -0.3125 -0.4116
  770MPD2    H211370   1.085   1.378  15.191  0.2893 -1.3883 -0.2665
  770MPD2    H311371   0.989   1.588  15.117  0.0940 -0.5123 -0.2480
  770MPD2     N11372   1.329   1.668  14.821  0.7427  0.2316  0.0137
  770MPD2    H511373   1.428   1.659  14.804  0.7840 -0.5356  0.6611
  770MPD2    N111374   1.331   1.276  15.107  0.3336 -0.6303 -0.4591
  770MPD2    H711375   1.286   1.234  15.188  1.3412  0.9243  0.9182
  771MPD2     C11376   2.457   4.317  13.869  0.6136 -0.1533 -0.0840
  771MPD2    C111377   2.569   4.392  13.822  0.7350 -0.1727  0.1244
  771MPD2    C211378   2.624   4.355  13.699  0.3856 -0.3605  0.2046
  771MPD2    C311379   2.567   4.255  13.626  0.1872  0.2174  0.6391
  771MPD2    C411380   2.463   4.181  13.679 -0.2950  0.4924  1.0179
  771MPD2    C511381   2.412   4.207  13.805 -0.1398 -0.2361  0.8186
  771MPD2     H11382   2.710   4.409  13.659  0.9047 -1.2958  0.0698
  771MPD2    H111383   2.428   4.094  13.624  2.0969  0.1812 -0.0434
  771MPD2    H211384   2.410   4.346  13.962  1.1322  0.5124 -0.0296
  771MPD2    H311385   2.340   4.136  13.843 -1.0521  0.0523 -0.3996
  771MPD2     N11386   2.620   4.247  13.496  0.2834 -0.2772 -0.0783
  771MPD2    H511387   2.692   4.314  13.470 -0.0314 -0.0728 -0.4297
  771MPD2    N111388   2.625   4.498  13.900 -0.1185 -0.0310  0.3010
  771MPD2    H711389   2.715   4.534  13.870 -0.7354  1.2051 -0.0429
  772MPD2     C11390   2.455   0.567  13.853  0.1486  0.5202  0.3568
  772MPD2    C111391   2.403   0.440  13.840 -0.2937  0.6904 -0.1019
  772MPD2    C211392   2.278   0.421  13.784  0.4413 -0.0999 -0.0518
  772MPD2    C311393   2.203   0.528  13.740 -0.0366  0.6242 -0.0256
  772MPD2    C411394   2.267   0.649  13.732  0.1785  0.3389  0.0778
  772MPD2    C511395   2.391   0.675  13.792  0.5031  0.2401 -0.4795
  772MPD2     H11396   2.229   0.326  13.805  2.1112 -0.3214  2.8093
  772MPD2    H111397   2.211   0.731  13.689  0.7122 -0.2050 -1.6519
  772MPD2    H211398   2.550   0.586  13.903 -0.5139 -1.1300  2.2432
  772MPD2    H311399   2.441   0.770  13.776  0.6755  0.5372  1.9086
  772MPD2     N11400   2.066   0.522  13.703  0.0982 -0.5382 -0.7397
  772MPD2    H511401   2.026   0.614  13.686  1.7071  0.0856 -1.1948
  772MPD2    N111402   2.473   0.327  13.889 -0.1679  0.1854 -0.5748
  772MPD2    H711403   2.430   0.235  13.891  0.5030 -0.1058  0.3837
  773MPD2     C11404   1.466   1.695  17.677 -0.6810  0.0232  0.2467
  773MPD2    C111405   1.486   1.559  17.644  0.1794  0.1295 -0.2258
  773MPD2    C211406   1.578   1.495   0.032  0.2487  0.1293 -0.0029
  773MPD2    C311407   1.635   1.551   0.142 -0.1020 -0.0928 -0.1509
  773MPD2    C411408   1.617   1.686   0.163  0.1483 -0.1770 -0.2360
  773MPD2    C511409   1.530   1.750   0.084 -0.5821 -0.4815  0.6664
  773MPD2     H11410   1.589   1.388   0.025  2.3424  0.3690 -0.2328
  773MPD2    H111411   1.670   1.737   0.243 -0.6252  1.1053 -0.5450
  773MPD2    H211412   1.398   1.758  17.619 -1.5628 -0.5024  0.7087
  773MPD2    H311413   1.520   1.857   0.096  0.3262 -0.1899 -1.2908
  773MPD2     N11414   1.720   1.480   0.229 -0.2207  0.2075 -0.0761
  773MPD2    H511415   1.737   1.385   0.198  1.2881  0.4887 -0.1027
  773MPD2    N111416   1.418   1.488  17.536  0.7415 -0.4828  0.1414
  773MPD2    H711417   1.447   1.391  17.523  1.8262 -0.0965 -0.2713
  774MPD2     C11418   0.690   4.549  13.166 -0.3065  0.8205 -0.2099
  774MPD2    C111419   0.798   4.579  13.244 -0.4472 -0.1003  0.3162
  774MPD2    C211420   0.893   4.677  13.197  0.0116  0.4127  0.0168
  774MPD2    C311421   0.882   0.008  13.071  0.0636 -0.2593 -0.1537
  774MPD2    C411422   0.770   4.703  13.002  0.4662  0.2672 -0.0271
  774MPD2    C511423   0.672   4.622  13.050  0.3893 -0.1782  0.8721
  774MPD2     H11424   0.979   4.683  13.263  0.2257  0.4291 -0.2680
  774MPD2    H111425   0.752   0.033  12.909  0.0060 -0.2923 -0.2635
  774MPD2    H211426   0.604   4.491  13.196 -0.2349 -0.5298 -2.6404
  774MPD2    H311427   0.574   4.625  13.004  1.1606 -0.6883 -0.8284
  774MPD2     N11428   0.988   0.095  13.037  0.3053  0.2272 -0.5924
  774MPD2    H511429   1.063   0.110  13.105  0.3034 -0.4109 -0.4465
  774MPD2    N111430   0.827   4.526  13.373 -0.0937  0.0383 -0.3211
  774MPD2    H711431   0.901   4.574  13.423 -1.0783  1.3062 -0.0624
  775MPD2     C11432   2.086   1.292  15.586 -0.7534  0.4729  0.3688
  775MPD2    C111433   2.059   1.407  15.654 -0.4631 -0.3993  0.0319
  775MPD2    C211434   2.129   1.519  15.622 -0.0926  0.2575 -0.2047
  775MPD2    C311435   2.221   1.523  15.515 -0.2106  0.0729 -0.3152
  775MPD2    C411436   2.247   1.402  15.454  0.2004  0.5564 -0.5411
  775MPD2    C511437   2.170   1.292  15.482 -0.3113  0.6415  0.7158
  775MPD2     H11438   2.115   1.609  15.681 -1.4852 -0.2323  0.2123
  775MPD2    H111439   2.307   1.386  15.365 -0.9697  1.4648 -1.4938
  775MPD2    H211440   2.045   1.199  15.623 -2.0263  1.7370  2.1337
  775MPD2    H311441   2.189   1.200  15.427  0.8575  0.8197  0.8384
  775MPD2     N11442   2.280   1.643  15.482  0.1847  0.0550  0.2752
  775MPD2    H511443   2.261   1.723  15.542  1.0767 -0.6005  1.4274
  775MPD2    N111444   1.973   1.401  15.770 -0.3243  0.1363  0.2033
  775MPD2    H711445   1.938   1.308  15.789  1.3186 -0.4867  0.0889
  776MPD2     C11446   0.830   1.553  11.786 -0.6437 -0.0686 -0.8103
  776MPD2    C111447   0.964   1.534  11.826  0.6307 -0.5243 -0.8797
  776MPD2    C211448   1.056   1.624  11.791  0.1056 -0.4310 -0.8533
  776MPD2    C311449   1.025   1.739  11.724  0.2348  0.7400  0.2885
  776MPD2    C411450   0.898   1.752  11.679  0.4265  0.0626 -0.6410
  776MPD2    C511451   0.802   1.659  11.701  0.1890 -0.7117  0.2983
  776MPD2     H11452   1.159   1.607  11.823  0.0165 -0.5767 -0.6430
  776MPD2    H111453   0.865   1.841  11.627  1.0992  0.5211 -0.2885
  776MPD2    H211454   0.751   1.488  11.820  0.1496 -0.0657  1.0644
  776MPD2    H311455   0.703   1.685  11.665  0.4851  1.0466  0.7650
  776MPD2     N11456   1.113   1.843  11.694  0.5824  0.2762 -0.3338
  776MPD2    H511457   1.086   1.916  11.629 -0.7494  1.0048  1.0536
  776MPD2    N111458   0.995   1.407  11.886  0.3735 -0.6832 -0.1290
  776MPD2    H711459   0.925   1.335  11.876 -0.3553 -0.2568  1.9293
  777MPD2     C11460   1.622   4.061   1.028 -0.2816  0.6663 -0.0761
  777MPD2    C111461   1.487   4.089   1.043 -0.3072  0.1534  0.1391
  777MPD2    C211462   1.394   4.039   0.959 -0.6218  0.1431  0.9634
  777MPD2    C311463   1.435   3.956   0.857 -0.4065  0.1990 -0.8171
  777MPD2    C411464   1.571   3.924   0.847  0.3013  0.1081  0.0889
  777MPD2    C511465   1.666   3.983   0.922 -0.2571 -0.1056 -0.3506
  777MPD2     H11466   1.300   4.091   0.948 -0.1950  0.6486 -0.2627
  777MPD2    H111467   1.615   3.863   0.769  0.3123 -1.9186  1.6865
  777MPD2    H211468   1.699   4.113   1.084 -1.0443  0.7929  0.8689
  777MPD2    H311469   1.774   3.976   0.909 -0.2555 -0.8133  0.0311
  777MPD2     N11470   1.343   3.914   0.753  0.3430  0.4534 -0.4828
  777MPD2    H511471   1.245   3.936   0.770  0.3684  0.9485 -0.9828
  777MPD2    N111472   1.461   4.188   1.148 -0.0950  0.2410  0.2026
  777MPD2    H711473   1.537   4.220   1.208  0.0222  0.4487 -0.0550
  778MPD2     C11474   2.799   0.014  15.091  0.6567 -0.4032 -0.0195
  778MPD2    C111475   2.790   4.648  14.985  0.6417  0.6624  0.5982
  778MPD2    C211476   2.866   4.665  14.867 -0.4749  0.4303  0.3712
  778MPD2    C311477   2.943   0.055  14.854 -0.1844  0.9212 -0.5725
  778MPD2    C411478   2.949   0.145  14.960  0.3644 -1.0688 -0.1370
  778MPD2    C511479   2.878   0.128  15.075 -0.0065  0.2928 -0.1272
  778MPD2     H11480   2.856   4.593  14.786 -5.0859  1.3176  0.1166
  778MPD2    H111481   3.017   0.229  14.949 -1.3361  0.4875  1.3253
  778MPD2    H211482   2.759   4.710  15.188 -0.2227 -1.7078 -0.7679
  778MPD2    H311483   2.878   0.197  15.158  0.8191  0.5716 -0.3575
  778MPD2     N11484   3.024   0.063  14.742  0.0014  0.6324 -0.4771
  778MPD2    H511485   3.029   4.704  14.683  1.0952  1.7212 -1.9008
  778MPD2    N111486   2.729   4.526  14.993  0.3453 -0.3438 -0.1967
  778MPD2    H711487   2.729   4.469  14.909  0.2671 -1.5615  0.6221
  779MPD2     C11488   2.273   2.942  14.332  0.4821 -0.5481 -0.3691
  779MPD2    C111489   2.394   2.950  14.264  0.1932 -0.4694  0.1888
  779MPD2    C211490   2.410   3.052  14.181 -0.0751  0.6681 -0.2560
  779MPD2    C311491   2.318   3.159  14.169  0.4491  0.4900 -0.0796
  779MPD2    C411492   2.198   3.146  14.233 -0.5152  0.2253  0.0275
  779MPD2    C511493   2.174   3.037  14.317  0.7341  0.3293  0.0300
  779MPD2     H11494   2.505   3.057  14.130 -0.9091  2.3623 -1.6318
  779MPD2    H111495   2.120   3.220  14.247 -1.1024 -0.0532 -1.8277
  779MPD2    H211496   2.248   2.855  14.391  0.6382  1.1136  2.1393
  779MPD2    H311497   2.085   3.032  14.378  0.6778  1.4008  0.0452
  779MPD2     N11498   2.364   3.279  14.105 -0.5838 -1.0481  0.2174
  779MPD2    H511499   2.463   3.275  14.083 -0.6272 -1.1439  0.0364
  779MPD2    N111500   2.488   2.842  14.269 -0.0491 -0.1989 -0.8619
  779MPD2    H711501   2.563   2.848  14.201  1.0625  0.6253  0.4272
  780MPD2     C11502   0.971   3.375   0.193  0.2081 -0.5885  0.2679
  780MPD2    C111503   1.030   3.307   0.299  0.3237  0.4658  0.1952
  780MPD2    C211504   1.166   3.325   0.320  0.0674  0.9833 -0.0279
  780MPD2    C311505   1.245   3.397   0.232 -0.0645 -0.5692 -0.1355
  780MPD2    C411506   1.181   3.458   0.128  0.5127  0.3825  0.2474
  780MPD2    C511507   1.045   3.442   0.098 -0.0228 -0.3248  0.6781
  780MPD2     H11508   1.213   3.279   0.407  0.5060 -2.5036 -2.0985
  780MPD2    H111509   1.243   3.492   0.046  0.9356 -0.4423  0.2252
  780MPD2    H211510   0.868   3.359   0.164  0.7574  1.4183 -2.7897
  780MPD2    H311511   0.990   3.486   0.016  0.4191 -2.0748 -0.5654
  780MPD2     N11512   1.391   3.400   0.242  0.6313 -0.2977  0.0945
  780MPD2    H511513   1.435   3.327   0.298 -1.5081 -0.4601  1.5522
  780MPD2    N111514   0.952   3.232   0.384  0.2983  0.6219  0.1080
  780MPD2    H711515   0.851   3.242   0.379  0.1744 -0.3800  0.7195
  781MPD2     C11516   3.959   0.116  12.067 -1.4862 -0.5064  0.1310
  781MPD2    C111517   3.973   0.020  12.166  0.2799  0.0710  0.0094
  781MPD2    C211518   4.043   4.625  12.146  0.6113  0.1779  0.0622
  781MPD2    C311519   4.105   4.603  12.024 -0.1823 -0.1254  0.0270
  781MPD2    C411520   4.103   4.708  11.930  0.1116  0.1473 -0.4688
  781MPD2    C511521   4.035   0.103  11.950 -0.4148  0.1589 -0.4586
  781MPD2     H11522   4.055   4.549  12.222 -2.6724 -0.4054  0.0002
  781MPD2    H111523   4.153   4.702  11.834 -2.7741  0.1308 -1.9748
  781MPD2    H211524   3.906   0.209  12.083 -1.3009 -0.0755 -1.7858
  781MPD2    H311525   4.017   0.177  11.872  0.3056 -0.0200 -0.7919
  781MPD2     N11526   4.167   4.476  11.992 -0.8238 -0.6021  0.2872
  781MPD2    H511527   4.213   4.465  11.902  0.4661  0.0887  0.8626
  781MPD2    N111528   3.928   0.034  12.300  0.4954  0.0613  0.1951
  781MPD2    H711529   3.917   4.677  12.361 -0.2487 -0.7048 -0.9488
  782MPD2     C11530   1.367   1.381  10.470  0.0712 -0.9438  0.2119
  782MPD2    C111531   1.500   1.363  10.439  0.3244  0.3102 -0.5841
  782MPD2    C211532   1.596   1.417  10.524 -0.2570 -0.3635  0.7925
  782MPD2    C311533   1.558   1.477  10.640 -0.2761 -0.5982  0.3082
  782MPD2    C411534   1.426   1.471  10.677  0.4411 -0.4622  0.5866
  782MPD2    C511535   1.333   1.424  10.590 -0.0136 -0.0241 -0.4873
  782MPD2     H11536   1.700   1.408  10.496  0.0175 -0.6145  1.8876
  782MPD2    H111537   1.380   1.510  10.767 -1.2338 -0.1380 -0.4072
  782MPD2    H211538   1.283   1.358  10.405 -1.3428 -0.7509  1.9777
  782MPD2    H311539   1.227   1.435  10.612 -0.2516 -4.2772  0.4240
  782MPD2     N11540   1.664   1.533  10.723 -0.6569 -0.0881 -0.2293
  782MPD2    H511541   1.757   1.537  10.683 -0.3681  0.7959  0.5230
  782MPD2    N111542   1.549   1.310  10.322  0.3099 -0.2493  0.1429
  782MPD2    H711543   1.644   1.336  10.302  0.6339 -0.3294  1.6238
  783MPD2     C11544   1.790   0.496  10.630  0.2054  0.0429  0.2133
  783MPD2    C111545   1.799   0.622  10.687 -0.2524  0.5662 -0.3967
  783MPD2    C211546   1.771   0.731  10.597 -0.2145 -0.5057  0.1383
  783MPD2    C311547   1.716   0.716  10.473  0.3287 -0.4327 -0.3592
  783MPD2    C411548   1.688   0.593  10.433  0.9538  0.3633 -0.3808
  783MPD2    C511549   1.735   0.483  10.506  0.7555  0.1783 -0.2355
  783MPD2     H11550   1.792   0.835  10.621 -0.8684 -0.2612 -0.3534
  783MPD2    H111551   1.650   0.566  10.335 -1.8681 -0.6968  1.0229
  783MPD2    H211552   1.818   0.408  10.686 -0.1889 -1.3743 -1.8486
  783MPD2    H311553   1.727   0.381  10.471 -3.2220  0.5677 -0.4726
  783MPD2     N11554   1.688   0.827  10.386  0.1222 -0.1299  0.6420
  783MPD2    H511555   1.728   0.917  10.413 -1.9701  1.1508 -0.4687
  783MPD2    N111556   1.837   0.635  10.819 -0.0490  0.8257 -0.2058
  783MPD2    H711557   1.844   0.544  10.864  0.7102 -0.3692 -2.6972
  784MPD2     C11558   4.647   1.763   0.434  0.6930  0.1561  0.5257
  784MPD2    C111559   4.588   1.730   0.552 -0.0771  0.2643 -0.0595
  784MPD2    C211560   4.450   1.751   0.567  0.0370  0.0546  0.2209
  784MPD2    C311561   4.368   1.792   0.466  0.7348  0.6709  0.0066
  784MPD2    C411562   4.426   1.810   0.346 -0.0688 -0.1825  0.2105
  784MPD2    C511563   4.561   1.796   0.331 -0.5128 -0.1065 -0.4097
  784MPD2     H11564   4.398   1.733   0.660 -2.8804  0.4783 -1.3396
  784MPD2    H111565   4.365   1.834   0.260  1.7708  2.3018 -0.3873
  784MPD2    H211566   0.031   1.757   0.418  0.8377  1.1926  1.0941
  784MPD2    H311567   4.608   1.814   0.235 -1.8659 -0.2425 -1.0954
  784MPD2     N11568   4.235   1.824   0.497  0.7749 -0.5076  0.6286
  784MPD2    H511569   4.197   1.814   0.590 -1.0986 -0.7446 -0.1597
  784MPD2    N111570   4.664   1.696   0.665 -0.2642 -0.0791 -1.7340
  784MPD2    H711571   4.610   1.682   0.750  2.3241 -0.9155 -0.2119
  785MPD2     C11572   0.332   3.831  10.762  0.6725 -0.2920 -0.1826
  785MPD2    C111573   0.201   3.862  10.743  0.5060 -0.3239 -0.1956
  785MPD2    C211574   0.133   3.797  10.638  0.1254  0.3456  0.8396
  785MPD2    C311575   0.196   3.704  10.557 -0.3998  0.3447 -0.2699
  785MPD2    C411576   0.330   3.676  10.581 -0.0628  0.7501  0.0664
  785MPD2    C511577   0.394   3.746  10.677  0.3756  0.6328 -0.5405
  785MPD2     H11578   0.032   3.822  10.605  1.1497  3.0148 -0.2921
  785MPD2    H111579   0.382   3.604  10.519 -1.3894  0.4105 -0.6660
  785MPD2    H211580   0.395   3.883  10.833  1.2852  0.2314 -1.1082
  785MPD2    H311581   0.499   3.728  10.695 -0.0155  0.1348  1.2866
  785MPD2     N11582   0.122   3.646  10.451  0.3700  0.1064  0.4255
  785MPD2    H511583   0.023   3.668  10.441  0.8547  1.6354 -1.1665
  785MPD2    N111584   0.129   3.965  10.807 -0.2707  0.0427  0.1185
  785MPD2    H711585   0.030   3.973  10.789 -0.3754  3.0740  2.0178
  786MPD2     C11586   3.625   2.813  14.981  0.0734  0.3005 -0.0963
  786MPD2    C111587   3.621   2.676  14.992 -0.3725 -0.0766 -0.4599
  786MPD2    C211588   3.667   2.613  15.106 -0.4316  0.0708 -0.0956
  786MPD2    C311589   3.737   2.677  15.202 -0.3665  0.4531 -1.2638
  786MPD2    C411590   3.741   2.814  15.191  0.2879  0.1459  0.6594
  786MPD2    C511591   3.689   2.878  15.081  0.4058 -0.3066  0.1873
  786MPD2     H11592   3.670   2.504  15.106  0.7721  0.1034 -0.3832
  786MPD2    H111593   3.790   2.874  15.268 -1.6364 -0.3847  2.2971
  786MPD2    H211594   3.593   2.871  14.895  1.1946  0.7774 -0.1894
  786MPD2    H311595   3.707   2.983  15.061 -0.7650 -0.1423 -0.0027
  786MPD2     N11596   3.781   2.612  15.323 -0.6480  0.3282 -0.0148
  786MPD2    H511597   3.823   2.672  15.394  1.0365 -0.5831 -0.2514
  786MPD2    N111598   3.555   2.607  14.886  0.1956  0.1758  0.2164
  786MPD2    H711599   3.546   2.507  14.900 -2.0004  0.2894 -0.4768
  787MPD2     C11600   3.230   2.105  15.066 -0.5731 -0.1084  0.2829
  787MPD2    C111601   3.280   2.090  14.938  0.3075  0.3140  0.7781
  787MPD2    C211602   3.326   1.962  14.903  0.2900 -0.5285  0.5656
  787MPD2    C311603   3.323   1.856  14.987 -0.0494  0.1700 -0.7844
  787MPD2    C411604   3.288   1.878  15.117  0.4859  1.0267  0.6947
  787MPD2    C511605   3.240   1.998  15.153 -0.4397 -0.3803  0.7113
  787MPD2     H11606   3.381   1.945  14.810  0.3418 -0.4381  0.5801
  787MPD2    H111607   3.288   1.792  15.183  0.4074  0.6202  0.1647
  787MPD2    H211608   3.190   2.194  15.112  0.2155  0.2310  0.3101
  787MPD2    H311609   3.192   2.015  15.248 -0.8785  0.4420  0.3478
  787MPD2     N11610   3.371   1.733  14.940  0.1094 -0.5524  0.2468
  787MPD2    H511611   3.391   1.720  14.841  0.7636 -1.1843  0.4544
  787MPD2    N111612   3.278   2.201  14.848  0.3032 -0.2583  0.3184
  787MPD2    H711613   3.243   2.286  14.892 -0.6634 -0.6592  0.3258
  788MPD2     C11614   0.370   0.770   0.729 -0.3589  0.4015  0.2529
  788MPD2    C111615   0.434   0.735   0.616  0.3766 -0.1487 -0.2966
  788MPD2    C211616   0.475   0.834   0.526 -0.5593  1.0148  0.1754
  788MPD2    C311617   0.452   0.965   0.550  0.3969 -0.9332 -0.1627
  788MPD2    C411618   0.385   0.999   0.664  0.6740 -0.2396  0.4432
  788MPD2    C511619   0.349   0.904   0.748  0.0208  0.3437  0.0985
  788MPD2     H11620   0.536   0.802   0.441  1.1784  1.4410  1.2671
  788MPD2    H111621   0.352   1.100   0.684 -0.7819 -1.0552  2.1473
  788MPD2    H211622   0.355   0.703   0.813 -0.6288  0.1504  0.0059
  788MPD2    H311623   0.318   0.923   0.850  1.3861 -0.3491  0.6421
  788MPD2     N11624   0.485   1.072   0.455  0.0365  0.2977 -0.2155
  788MPD2    H511625   0.467   1.170   0.472 -2.0881  0.0364 -1.0066
  788MPD2    N111626   0.467   0.601   0.609 -0.2619  0.8401 -0.6183
  788MPD2    H711627   0.424   0.531   0.669 -1.2646  0.3297 -1.9356
  789MPD2     C11628   0.763   0.388  16.735  0.7299  0.7754 -0.3786
  789MPD2    C111629   0.713   0.427  16.618  0.1060 -0.0797  0.2187
  789MPD2    C211630   0.600   0.513  16.617 -0.6553 -0.1995  0.1623
  789MPD2    C311631   0.556   0.574  16.733 -0.1392 -0.2490  0.7036
  789MPD2    C411632   0.607   0.531  16.854 -0.3468 -0.1159 -0.3870
  789MPD2    C511633   0.716   0.449  16.851  0.0183  0.0942 -0.8445
  789MPD2     H11634   0.538   0.531  16.530 -1.2475 -0.8002  0.4553
  789MPD2    H111635   0.570   0.583  16.942  0.0557 -0.1878 -0.1748
  789MPD2    H211636   0.844   0.316  16.743  0.5416  0.7163  0.9851
  789MPD2    H311637   0.769   0.415  16.939 -0.1177 -1.2139 -1.2581
  789MPD2     N11638   0.442   0.658  16.740 -0.0886  0.1679  0.6753
  789MPD2    H511639   0.404   0.684  16.831  0.5317  3.4331  0.0027
  789MPD2    N111640   0.753   0.367  16.496 -0.2605  0.7518 -0.8578
  789MPD2    H711641   0.703   0.386  16.410 -3.1724  1.1221  0.9364
  790MPD2     C11642   1.487   2.685  13.257  0.1381 -1.1025  1.1622
  790MPD2    C111643   1.586   2.583  13.253  0.1897 -0.0745  0.0436
  790MPD2    C211644   1.586   2.485  13.152 -0.5444  0.1399  0.2934
  790MPD2    C311645   1.504   2.500  13.042 -0.0174  0.3172  0.1914
  790MPD2    C411646   1.418   2.609  13.039  0.5665  0.1624  0.0705
  790MPD2    C511647   1.405   2.695  13.147 -0.1263 -0.4189 -0.3011
  790MPD2     H11648   1.648   2.396  13.155  0.1179  0.5478 -1.0185
  790MPD2    H111649   1.349   2.631  12.959 -1.4722  3.6180  2.7450
  790MPD2    H211650   1.469   2.758  13.335 -1.2940 -0.8688  0.5987
  790MPD2    H311651   1.327   2.768  13.132 -0.6338 -0.9445 -0.2364
  790MPD2     N11652   1.505   2.397  12.939 -1.0858 -0.3840  0.0449
  790MPD2    H511653   1.574   2.327  12.961 -0.9306 -0.7038 -1.4595
  790MPD2    N111654   1.681   2.592  13.353  0.3053 -0.0809  0.0142
  790MPD2    H711655   1.668   2.660  13.427  1.6723  0.2145 -0.0142
  791MPD2     C11656   0.924   2.198  12.379  0.3024 -0.0419 -0.7261
  791MPD2    C111657   0.982   2.101  12.462  0.1954 -0.2464  0.6760
  791MPD2    C211658   0.908   1.985  12.484  0.3707 -0.5575 -0.4799
  791MPD2    C311659   0.789   1.971  12.432  0.7940 -0.1010 -0.0360
  791MPD2    C411660   0.728   2.072  12.349 -0.5839  0.4856  0.4308
  791MPD2    C511661   0.798   2.182  12.322 -0.4541  0.3140 -0.0491
  791MPD2     H11662   0.931   1.912  12.561 -0.6769 -0.4623 -0.0750
  791MPD2    H111663   0.626   2.058  12.314 -0.4512  0.6900 -0.0283
  791MPD2    H211664   0.972   2.294  12.366 -1.5136  1.2590  2.4096
  791MPD2    H311665   0.756   2.265  12.267 -2.1853  0.1643  1.0499
  791MPD2     N11666   0.726   1.843  12.442 -0.1670 -0.4516 -0.2917
  791MPD2    H511667   0.770   1.778  12.507  0.7948 -0.3999 -0.8968
  791MPD2    N111668   1.119   2.116  12.511 -0.3821  0.2707  0.1869
  791MPD2    H711669   1.164   2.204  12.487 -1.6394  0.2524 -2.2027
  792MPD2     C11670   2.292   1.787  11.302  0.1556 -0.2979 -1.0799
  792MPD2    C111671   2.209   1.855  11.218  0.4898  0.1768 -0.1959
  792MPD2    C211672   2.073   1.824  11.223  0.2453  0.4802  0.7768
  792MPD2    C311673   2.020   1.736  11.317 -0.0550  1.0532 -0.2462
  792MPD2    C411674   2.110   1.665  11.395  0.6059 -0.0091 -0.5358
  792MPD2    C511675   2.242   1.693  11.383  0.0302  0.3055  0.6276
  792MPD2     H11676   2.005   1.888  11.166  0.3845  1.1450  1.3508
  792MPD2    H111677   2.076   1.579  11.451 -1.1107 -1.5138 -3.8627
  792MPD2    H211678   2.399   1.797  11.315 -0.0805  1.5861 -0.5629
  792MPD2    H311679   2.315   1.639  11.443  1.0892  0.4166 -0.5499
  792MPD2     N11680   1.881   1.714  11.336  0.2567  1.0433 -0.1891
  792MPD2    H511681   1.850   1.661  11.417  0.6596  1.9986  0.6083
  792MPD2    N111682   2.265   1.956  11.135 -0.2871  0.1280 -0.0937
  792MPD2    H711683   2.361   1.986  11.148 -0.6422  1.1890  0.0728
  793MPD2     C11684   1.111   1.868  10.772 -0.3859  0.2902 -1.2615
  793MPD2    C111685   1.249   1.838  10.763 -0.2883  1.0231  0.2564
  793MPD2    C211686   1.332   1.845  10.877  0.1033 -0.8591 -0.5558
  793MPD2    C311687   1.276   1.872  11.004 -0.2889 -1.1119 -0.2016
  793MPD2    C411688   1.138   1.892  11.011  0.2330  0.4356  1.0494
  793MPD2    C511689   1.060   1.888  10.897  0.2557  0.2090  0.8053
  793MPD2     H11690   1.438   1.825  10.870  0.5995  2.0888 -1.1228
  793MPD2    H111691   1.100   1.921  11.108 -4.4687 -0.3798 -0.5242
  793MPD2    H211692   1.037   1.871  10.692 -1.1792  1.4416 -0.4850
  793MPD2    H311693   0.955   1.910  10.916 -0.1120  0.0816 -1.0765
  793MPD2     N11694   1.362   1.853  11.119  0.0517 -0.3199  0.8548
  793MPD2    H511695   1.463   1.842  11.107  0.2066  2.3751 -0.5424
  793MPD2    N111696   1.310   1.806  10.645 -0.2531 -0.0657  0.6767
  793MPD2    H711697   1.411   1.802  10.653 -0.3735 -0.3013  2.0544
  794MPD2     C11698   1.141   1.617  16.716 -0.0835  0.3229  0.4130
  794MPD2    C111699   1.164   1.486  16.758 -0.0921 -0.4056 -0.4832
  794MPD2    C211700   1.139   1.384  16.669 -0.9185 -0.2865  0.2005
  794MPD2    C311701   1.083   1.409  16.545 -0.0578  1.0215 -0.2892
  794MPD2    C411702   1.044   1.533  16.521  0.1841  0.2777  0.2542
  794MPD2    C511703   1.075   1.636  16.607  0.4634  0.7819 -0.4852
  794MPD2     H11704   1.167   1.284  16.700  1.6165 -0.3234 -2.1563
  794MPD2    H111705   0.989   1.570  16.435 -1.0901 -1.3095  0.3960
  794MPD2    H211706   1.175   1.704  16.771 -1.5801  1.8135 -1.0206
  794MPD2    H311707   1.042   1.736  16.578 -0.3137  0.2310 -1.5161
  794MPD2     N11708   1.050   1.305  16.452  0.4834  0.2736  0.2881
  794MPD2    H511709   1.010   1.334  16.363  1.6564 -0.4773 -0.4799
  794MPD2    N111710   1.213   1.451  16.884  0.2532 -0.2016 -1.0411
  794MPD2    H711711   1.230   1.353  16.906  0.5958  0.4007  1.4172
  795MPD2     C11712   3.466   3.789  14.027  0.6855  0.2697 -0.3077
  795MPD2    C111713   3.446   3.670  13.957 -0.5017  0.4555 -0.1020
  795MPD2    C211714   3.520   3.559  13.998  0.4076 -0.1010 -0.6642
  795MPD2    C311715   3.606   3.559  14.105 -0.3561 -0.1157  1.0872
  795MPD2    C411716   3.617   3.675  14.182 -0.6011  0.1135 -0.4718
  795MPD2    C511717   3.546   3.788  14.143  0.4373  0.2915  0.4044
  795MPD2     H11718   3.505   3.465  13.946 -1.6701  0.5380 -1.2473
  795MPD2    H111719   3.678   3.693  14.270 -0.1450 -0.4338 -0.6841
  795MPD2    H211720   3.440   3.887  13.989  1.0952 -0.3431 -2.1826
  795MPD2    H311721   3.556   3.882  14.197 -0.0192 -0.2905  1.4978
  795MPD2     N11722   3.692   3.447  14.126 -0.4807  0.5768 -0.0693
  795MPD2    H511723   3.700   3.377  14.053  1.3871  2.0810 -1.2867
  795MPD2    N111724   3.350   3.655  13.848  0.2977  0.1186 -0.3664
  795MPD2    H711725   3.340   3.573  13.789  2.3306 -1.3651  1.3316
  796MPD2     C11726   3.232   0.259  16.156  0.2664 -0.3269 -0.0452
  796MPD2    C111727   3.320   0.281  16.260 -0.4969 -0.4576  0.8256
  796MPD2    C211728   3.337   0.420  16.286  0.8157  0.3694 -0.3117
  796MPD2    C311729   3.281   0.518  16.213 -0.0549 -0.4637  0.0216
  796MPD2    C411730   3.197   0.491  16.116  0.5738  1.4379  0.4621
  796MPD2    C511731   3.174   0.363  16.085  0.1942  0.1229 -0.0092
  796MPD2     H11732   3.417   0.452  16.352 -2.0301  1.8105  2.4537
  796MPD2    H111733   3.140   0.562  16.057  0.1313  0.8170  0.1337
  796MPD2    H211734   3.210   0.157  16.125  0.3681  0.6720 -3.3726
  796MPD2    H311735   3.117   0.342  15.995 -1.7209 -1.4594  1.5856
  796MPD2     N11736   3.320   0.646  16.251  0.2014 -0.8071  0.1730
  796MPD2    H511737   3.376   0.657  16.334 -2.2604 -0.4911  1.7886
  796MPD2    N111738   3.373   0.170  16.332 -0.1753 -0.1196 -0.7561
  796MPD2    H711739   3.358   0.078  16.291  0.0351 -0.4108 -0.1829
  797MPD2     C11740   4.377   4.384   0.210 -0.9186  0.1055  0.7540
  797MPD2    C111741   4.393   4.511   0.154 -0.1430 -0.3660  0.6945
  797MPD2    C211742   4.279   4.588   0.142  0.7026  0.2705  0.1433
  797MPD2    C311743   4.148   4.539   0.162 -0.8253 -0.6712 -0.0374
  797MPD2    C411744   4.138   4.417   0.217 -0.3016  0.1590  0.4019
  797MPD2    C511745   4.247   4.342   0.244  0.0416  0.1256  0.4497
  797MPD2     H11746   4.298   4.688   0.103 -0.9511  0.0543 -1.2285
  797MPD2    H111747   4.040   4.385   0.249  0.2595 -1.7597  0.1773
  797MPD2    H211748   4.464   4.324   0.230 -0.5788 -0.4485 -2.4829
  797MPD2    H311749   4.234   4.241   0.281 -0.8721 -0.1304 -0.5407
  797MPD2     N11750   4.032   4.609   0.119 -0.0800 -0.3810 -0.1669
  797MPD2    H511751   3.942   4.567   0.142 -0.4739 -0.3949 -1.7316
  797MPD2    N111752   4.519   4.564   0.115  0.4423  0.6158  0.2175
  797MPD2    H711753   4.510   4.663   0.096 -0.7092  0.2573 -1.0346
  798MPD2     C11754   4.253   0.331  17.314  0.3019  0.8469 -0.0979
  798MPD2    C111755   4.238   0.283  17.443 -0.1986 -0.0887 -0.7885
  798MPD2    C211756   4.336   0.247  17.517  0.0356 -0.3912  0.8425
  798MPD2    C311757   4.463   0.245  17.470 -0.3459  0.7293  0.7639
  798MPD2    C411758   4.482   0.288  17.339  0.6806  0.3032 -0.2494
  798MPD2    C511759   4.381   0.336  17.266  0.1763 -0.1539 -0.0687
  798MPD2     H11760   4.318   0.201  17.614  0.7905 -1.7168  0.3547
  798MPD2    H111761   4.580   0.288  17.293  0.2264 -1.4682 -1.2144
  798MPD2    H211762   4.172   0.362  17.248  0.0399 -1.0936 -0.6898
  798MPD2    H311763   4.396   0.371  17.165  0.6331 -0.3149 -0.0548
  798MPD2     N11764   4.561   0.188  17.543  0.4625 -0.0228 -0.6942
  798MPD2    H511765   4.536   0.145  17.632  0.6774 -0.0503 -0.6455
  798MPD2    N111766   4.112   0.250  17.502  0.6758  0.0317 -0.2585
  798MPD2    H711767   4.104   0.202  17.591 -0.1278  2.2257  0.8567
  799MPD2     C11768   3.130   1.321  14.818  0.4181 -0.2279 -1.0902
  799MPD2    C111769   3.116   1.246  14.703  0.6751  0.2403 -0.2190
  799MPD2    C211770   3.096   1.312  14.589 -0.3352  0.5215 -0.5889
  799MPD2    C311771   3.092   1.448  14.573 -0.1098  0.0157 -0.6116
  799MPD2    C411772   3.108   1.522  14.687 -0.5520  0.1406 -0.3955
  799MPD2    C511773   3.123   1.457  14.812 -0.8748  0.0489 -0.2116
  799MPD2     H11774   3.083   1.245  14.505 -0.2354 -0.1822 -0.0513
  799MPD2    H111775   3.105   1.630  14.686  0.3589  0.1961  1.8927
  799MPD2    H211776   3.135   1.277  14.916 -0.4165 -0.3047 -1.0828
  799MPD2    H311777   3.126   1.511  14.906 -0.2764 -1.0602  0.4047
  799MPD2     N11778   3.070   1.515  14.451  0.4849 -0.8234  0.1829
  799MPD2    H511779   3.082   1.615  14.452 -1.8066 -0.5528  1.4286
  799MPD2    N111780   3.117   1.102  14.705 -0.4148 -0.1387 -0.0279
  799MPD2    H711781   3.113   1.059  14.613 -0.5331 -0.7993  0.2837
  800MPD2     C11782   3.789   2.294  13.665 -0.4586  0.7283 -0.6530
  800MPD2    C111783   3.816   2.417  13.714 -0.1148 -1.0364  0.0663
  800MPD2    C211784   3.775   2.524  13.634  0.2584  0.4906  0.0788
  800MPD2    C311785   3.713   2.513  13.509 -0.1161  0.1473  0.8568
  800MPD2    C411786   3.687   2.386  13.464 -1.0279 -0.3252  0.4360
  800MPD2    C511787   3.724   2.280  13.546 -0.1724  0.7340 -0.1479
  800MPD2     H11788   3.791   2.625  13.668 -0.7693  0.2840  1.2021
  800MPD2    H111789   3.629   2.360  13.376 -0.2101  2.3116 -0.8871
  800MPD2    H211790   3.812   2.197  13.708 -1.8825 -0.5706 -2.7840
  800MPD2    H311791   3.668   2.192  13.517  3.0145 -1.0346 -0.9912
  800MPD2     N11792   3.683   2.632  13.436 -0.3030 -0.1052 -0.2132
  800MPD2    H511793   3.691   2.716  13.492  0.0864 -0.2066 -0.1104
  800MPD2    N111794   3.864   2.435  13.844  0.5493 -0.1948  0.1362
  800MPD2    H711795   3.861   2.532  13.872 -1.8274 -0.1256 -0.3511
  801MPD2     C11796   3.668   2.968  14.172 -0.2298  0.0577 -0.6711
  801MPD2    C111797   3.718   2.907  14.288 -1.0080 -0.0475  0.3620
  801MPD2    C211798   3.679   2.965  14.409 -0.1978  0.7069 -1.0655
  801MPD2    C311799   3.602   3.080  14.413  0.1080  0.2437  0.3607
  801MPD2    C411800   3.552   3.132  14.296  0.4924  0.3452  0.0628
  801MPD2    C511801   3.586   3.079  14.179 -0.0048 -0.4835 -0.0112
  801MPD2     H11802   3.709   2.925  14.505  0.9892  1.9526 -0.9095
  801MPD2    H111803   3.486   3.218  14.300  0.6360  0.4065  1.1093
  801MPD2    H211804   3.696   2.940  14.072 -1.0587  0.8970 -1.1436
  801MPD2    H311805   3.555   3.136  14.092 -2.2644 -0.4941  0.7655
  801MPD2     N11806   3.547   3.140  14.523 -0.6416 -0.3236 -0.2004
  801MPD2    H511807   3.466   3.200  14.508 -1.7615 -2.0472 -1.0024
  801MPD2    N111808   3.788   2.786  14.289 -0.8408  0.0527 -0.5923
  801MPD2    H711809   3.836   2.753  14.372  0.2613  0.2444 -1.1538
  802MPD2     C11810   3.259   3.356   0.263 -0.4898 -0.1562 -0.5530
  802MPD2    C111811   3.260   3.495   0.233 -0.1111 -0.8874  0.0603
  802MPD2    C211812   3.384   3.554   0.209  0.3798 -0.2922  0.1643
  802MPD2    C311813   3.501   3.478   0.196 -0.6203  0.1495 -0.6944
  802MPD2    C411814   3.495   3.343   0.220  0.4018 -0.6385 -0.1264
  802MPD2    C511815   3.377   3.282   0.259 -0.3682  0.4073  0.2687
  802MPD2     H11816   3.404   3.659   0.190 -0.1575 -0.7174 -2.6994
  802MPD2    H111817   3.584   3.283   0.209 -0.0818 -1.5035  0.6710
  802MPD2    H211818   3.172   3.293   0.272 -0.0139 -0.8155 -0.5585
  802MPD2    H311819   3.376   3.173   0.258 -1.1358  0.3785  2.9175
  802MPD2     N11820   3.617   3.538   0.150 -0.0542  0.0251 -0.4050
  802MPD2    H511821   3.605   3.639   0.142 -0.9065 -0.0831 -0.5031
  802MPD2    N111822   3.145   3.578   0.222 -0.5664 -0.2056 -0.4320
  802MPD2    H711823   3.157   3.667   0.175 -0.9342 -0.3764 -0.8537
  803MPD2     C11824   4.213   1.745  11.817 -0.4616  0.7139 -0.1040
  803MPD2    C111825   4.302   1.759  11.921 -0.0954 -0.8466 -0.0843
  803MPD2    C211826   4.295   1.677  12.033  0.1435 -0.6997 -0.1511
  803MPD2    C311827   4.187   1.591  12.051  0.4013 -0.0342 -0.7293
  803MPD2    C411828   4.082   1.586  11.962 -0.6571  0.9026  0.3453
  803MPD2    C511829   4.107   1.659  11.841  0.3994  0.1609  0.0319
  803MPD2     H11830   4.356   1.697  12.120  0.0362 -0.2010 -0.1925
  803MPD2    H111831   3.993   1.525  11.962  0.9975 -1.4717 -1.8772
  803MPD2    H211832   4.218   1.797  11.722 -0.4784 -0.3418 -0.6771
  803MPD2    H311833   4.026   1.662  11.769 -0.1949 -0.9752  0.6495
  803MPD2     N11834   4.167   1.505  12.167  0.0936  0.2453 -0.4381
  803MPD2    H511835   4.080   1.455  12.181  0.5618 -0.4283  0.0351
  803MPD2    N111836   4.413   1.855  11.924  0.8138  0.2966  0.2920
  803MPD2    H711837   4.467   1.859  12.010 -0.4207  1.9629  0.9902
  804MPD2     C11838   4.346   3.524  16.629 -0.1703  0.2577  0.2336
  804MPD2    C111839   4.322   3.536  16.760 -0.7765 -0.6351  0.0281
  804MPD2    C211840   4.356   3.658  16.824  0.2323  0.4703  0.4275
  804MPD2    C311841   4.413   3.763  16.756 -0.1893  0.5157 -0.1343
  804MPD2    C411842   4.447   3.735  16.622 -0.6842 -0.0757  0.5151
  804MPD2    C511843   4.411   3.619  16.564 -0.1181 -0.1595  0.1168
  804MPD2     H11844   4.351   3.677  16.930 -1.6565 -0.0735  0.4374
  804MPD2    H111845   4.507   3.801  16.561 -0.7000  0.0554  0.6428
  804MPD2    H211846   4.334   3.429  16.578 -2.2776  1.1164 -0.8770
  804MPD2    H311847   4.434   3.604  16.459  2.4038  1.4610  0.4549
  804MPD2     N11848   4.437   3.889  16.811  0.3204  0.0599 -0.0582
  804MPD2    H511849   4.385   3.908  16.897 -0.2871  0.3769 -0.4970
  804MPD2    N111850   4.264   3.435  16.842 -0.1848  0.1998  0.2181
  804MPD2    H711851   4.272   3.455  16.941 -0.5296  0.8655  0.1070
  805MPD2     C11852   3.036   1.755  15.364  0.2418  0.5327  1.0335
  805MPD2    C111853   3.099   1.632  15.326 -0.2641  1.0479 -0.3425
  805MPD2    C211854   3.214   1.598  15.394  0.1351  0.1769 -0.2900
  805MPD2    C311855   3.272   1.678  15.487  0.0137 -0.2322 -0.2380
  805MPD2    C411856   3.220   1.800  15.513 -0.1661  0.2624 -0.2573
  805MPD2    C511857   3.107   1.840  15.445  0.1345 -0.3499  0.5014
  805MPD2     H11858   3.256   1.504  15.362  0.8894 -0.1519  1.6814
  805MPD2    H111859   3.274   1.875  15.569  1.0501 -0.0462 -1.0185
  805MPD2    H211860   2.945   1.794  15.319  0.9595 -1.5512 -2.2511
  805MPD2    H311861   3.077   1.943  15.441 -1.0182 -0.6615  1.3179
  805MPD2     N11862   3.383   1.631  15.566  0.3237  0.3930  0.5681
  805MPD2    H511863   3.430   1.551  15.526 -2.4355 -0.4548 -0.9721
  805MPD2    N111864   3.047   1.550  15.225  0.6985  0.2259  0.5072
  805MPD2    H711865   3.111   1.475  15.202  1.4507  0.4281  1.9155
  806MPD2     C11866   3.652   1.756   0.637  0.0929  0.1471  0.2384
  806MPD2    C111867   3.697   1.628   0.642  0.1508 -0.9292  0.1630
  806MPD2    C211868   3.700   1.557   0.521  1.0396  0.5309  0.8535
  806MPD2    C311869   3.679   1.619   0.401 -0.1869  0.7978  0.5884
  806MPD2    C411870   3.642   1.752   0.401  1.1727  0.0755 -0.1218
  806MPD2    C511871   3.641   1.820   0.518 -0.7467  0.1649 -0.1363
  806MPD2     H11872   3.702   1.448   0.518 -0.0081  0.4921  1.9557
  806MPD2    H111873   3.619   1.802   0.308 -1.0267  0.8735  0.8599
  806MPD2    H211874   3.627   1.811   0.727 -0.3074  2.3972 -1.2611
  806MPD2    H311875   3.594   1.917   0.524  1.7990  1.3941 -0.0813
  806MPD2     N11876   3.684   1.547   0.280  0.3622 -0.0441 -0.0194
  806MPD2    H511877   3.720   1.452   0.275  0.1605  0.0022 -2.3215
  806MPD2    N111878   3.715   1.566   0.769  0.0307 -0.4028 -0.5311
  806MPD2    H711879   3.679   1.618   0.848 -0.3099 -1.0973 -0.2251
  807MPD2     C11880   3.108   1.448   1.206  0.2591 -0.1176  0.1200
  807MPD2    C111881   3.193   1.345   1.240 -0.2401  0.1044  0.5254
  807MPD2    C211882   3.154   1.228   1.289 -0.6027  0.0638  0.7792
  807MPD2    C311883   3.021   1.218   1.333 -0.0181  0.0920  0.8422
  807MPD2    C411884   2.935   1.328   1.312 -0.1786  0.2664  0.5853
  807MPD2    C511885   2.976   1.444   1.248 -0.2907 -0.0349 -0.6208
  807MPD2     H11886   3.221   1.147   1.315 -2.7864 -1.3112  2.1620
  807MPD2    H111887   2.832   1.327   1.346 -0.3877  1.1151  0.0020
  807MPD2    H211888   3.143   1.536   1.153 -0.9906 -0.6724 -1.6408
  807MPD2    H311889   2.902   1.519   1.220  0.7603  0.3995 -2.2494
  807MPD2     N11890   2.984   1.109   1.406 -0.8506 -0.3063  0.1057
  807MPD2    H511891   3.054   1.036   1.416  2.8677  2.8392 -3.0298
  807MPD2    N111892   3.330   1.353   1.201 -0.0462 -0.1530 -0.2018
  807MPD2    H711893   3.389   1.273   1.222 -1.7490 -1.7981 -1.6740
  808MPD2     C11894   3.528   2.576   9.177 -0.6792 -0.0824  0.4272
  808MPD2    C111895   3.620   2.612   9.275  1.3156 -0.1605  0.2912
  808MPD2    C211896   3.692   2.726   9.262 -0.5499 -0.2726  0.0995
  808MPD2    C311897   3.678   2.812   9.155  0.0243  0.2093  0.1522
  808MPD2    C411898   3.586   2.778   9.063 -0.1584  1.1533  1.3883
  808MPD2    C511899   3.510   2.666   9.075  0.2307  0.3540 -0.2488
  808MPD2     H11900   3.767   2.751   9.336 -0.4438  0.6712 -0.3268
  808MPD2    H111901   3.552   2.854   8.994  2.5349  0.4714 -0.6761
  808MPD2    H211902   3.462   2.490   9.186 -1.0728  0.3073  1.3444
  808MPD2    H311903   3.422   2.667   9.012  0.5514  0.4245 -0.6999
  808MPD2     N11904   3.748   2.937   9.144  0.8438  0.0827 -0.8924
  808MPD2    H511905   3.718   2.999   9.069  1.4448  1.0067 -0.3746
  808MPD2    N111906   3.657   2.530   9.387  0.2859 -0.3324 -0.6234
  808MPD2    H711907   3.728   2.569   9.448 -1.2146  2.8515 -0.9298
  809MPD2     C11908   4.464   3.130   8.636 -0.2619  0.1696 -0.0764
  809MPD2    C111909   4.483   3.191   8.754 -0.4148  0.1591 -0.1659
  809MPD2    C211910   4.380   3.201   8.845 -0.5436 -1.3059 -0.3248
  809MPD2    C311911   4.251   3.148   8.811 -0.3893 -0.4895 -0.0578
  809MPD2    C411912   4.241   3.087   8.688  0.2225 -0.2039 -0.4799
  809MPD2    C511913   4.347   3.069   8.603 -0.0952 -0.5714  0.4073
  809MPD2     H11914   4.398   3.248   8.941  1.1604 -2.8741  0.1117
  809MPD2    H111915   4.145   3.055   8.649  0.7247 -0.7201 -1.2747
  809MPD2    H211916   4.544   3.126   8.562 -1.0495 -0.5104 -0.9015
  809MPD2    H311917   4.340   3.027   8.504  1.0007  0.4716 -0.1153
  809MPD2     N11918   4.133   3.164   8.888  0.1251  0.0837  0.2133
  809MPD2    H511919   4.052   3.113   8.855  0.3492 -0.4250  0.4427
  809MPD2    N111920   4.605   3.241   8.801 -0.1634 -0.4587 -0.0814
  809MPD2    H711921   4.607   3.269   8.898  0.6861 -0.8957  0.0233
  810MPD2     C11922   3.659   2.187  10.141  0.0200  0.5811  0.0567
  810MPD2    C111923   3.561   2.101  10.186  0.6476  0.0710  0.0721
  810MPD2    C211924   3.559   2.063  10.318 -0.1658  0.1462 -0.3288
  810MPD2    C311925   3.652   2.111  10.410 -0.3456  0.5283  0.2621
  810MPD2    C411926   3.751   2.199  10.362 -0.1275 -0.1805  0.3669
  810MPD2    C511927   3.760   2.228  10.226  0.3353 -0.3538 -0.0136
  810MPD2     H11928   3.492   1.985  10.354 -0.1147 -0.3033 -1.2019
  810MPD2    H111929   3.834   2.227  10.425  1.2790 -3.1631 -0.1891
  810MPD2    H211930   3.658   2.220  10.038  1.0518 -1.0144 -0.4716
  810MPD2    H311931   3.842   2.287  10.186 -0.5317  0.6334 -0.3313
  810MPD2     N11932   3.656   2.075  10.543 -0.7321  0.1244  0.2724
  810MPD2    H511933   3.727   2.115  10.605 -0.4939 -0.4724  0.3864
  810MPD2    N111934   3.477   2.057  10.082 -0.5934 -0.3392 -0.1094
  810MPD2    H711935   3.496   2.089   9.988 -1.9417  1.2166  0.1460
  811MPD2     C11936   2.776   2.282   9.694 -0.0345 -0.4266 -0.0036
  811MPD2    C111937   2.904   2.240   9.677 -0.2264 -0.4864 -1.1559
  811MPD2    C211938   2.983   2.308   9.587  0.2283  0.5139  0.4524
  811MPD2    C311939   2.933   2.423   9.525 -0.6210  0.4169  0.3118
  811MPD2    C411940   2.803   2.463   9.540 -0.3008  1.0242  0.9258
  811MPD2    C511941   2.724   2.389   9.630 -0.0837  0.1114  0.1192
  811MPD2     H11942   3.084   2.280   9.559 -0.0445  0.0895 -0.0935
  811MPD2    H111943   2.757   2.544   9.486 -0.5250  0.3356  0.0882
  811MPD2    H211944   2.726   2.247   9.784 -1.3659 -1.8107 -1.2831
  811MPD2    H311945   2.623   2.419   9.653  0.4648  1.0339  1.3043
  811MPD2     N11946   3.020   2.485   9.432  0.1652  0.1443 -0.0893
  811MPD2    H511947   3.109   2.448   9.402  0.4017  0.5465  0.1082
  811MPD2    N111948   2.947   2.134   9.763 -0.4187 -0.5012  0.6769
  811MPD2    H711949   2.889   2.111   9.843 -0.0674  2.8146  1.8856
  812MPD2     C11950   2.435   1.588  12.343 -0.5475 -0.2624  0.2040
  812MPD2    C111951   2.464   1.721  12.373  0.1113  0.2257 -0.0342
  812MPD2    C211952   2.497   1.756  12.500 -0.1647  0.4583  0.3469
  812MPD2    C311953   2.529   1.659  12.599 -0.2857  0.1677  0.4548
  812MPD2    C411954   2.518   1.525  12.560  0.6284  0.2852  0.3409
  812MPD2    C511955   2.471   1.494  12.438 -0.3053 -0.3522  0.3047
  812MPD2     H11956   2.504   1.862  12.523  0.2826  1.1021 -2.8265
  812MPD2    H111957   2.547   1.438  12.618  0.9893  1.0569  1.3216
  812MPD2    H211958   2.408   1.555  12.244  0.3422  3.2749 -1.2456
  812MPD2    H311959   2.458   1.393  12.400 -1.9705 -0.3212  0.7665
  812MPD2     N11960   2.573   1.695  12.729 -0.5555  0.2686 -0.2615
  812MPD2    H511961   2.563   1.793  12.753 -2.0896  0.0576 -0.0259
  812MPD2    N111962   2.437   1.817  12.270  0.3958 -0.1788 -0.3963
  812MPD2    H711963   2.409   1.784  12.178  1.4054  0.6619 -1.0027
  813MPD2     C11964   2.071   3.809  13.033 -0.0435 -0.5144 -0.4970
  813MPD2    C111965   2.041   3.947  13.035  0.7426  0.0397  0.3591
  813MPD2    C211966   1.910   3.998  13.036  0.2392  0.1060  0.0277
  813MPD2    C311967   1.811   3.907  13.047 -0.3084 -0.5534 -0.3460
  813MPD2    C411968   1.841   3.771  13.038 -0.8390  0.0449  1.0901
  813MPD2    C511969   1.969   3.714  13.028  0.1724  0.3956 -0.7067
  813MPD2     H11970   1.884   4.103  13.047 -1.8925 -0.1038 -2.9659
  813MPD2    H111971   1.764   3.696  13.051 -1.1979 -0.1274 -2.1134
  813MPD2    H211972   2.176   3.783  13.044 -0.4511 -1.2830  1.5452
  813MPD2    H311973   1.984   3.607  13.024 -0.5924  0.1928  1.8418
  813MPD2     N11974   1.679   3.956  13.064 -0.2967 -0.3200 -0.0519
  813MPD2    H511975   1.667   4.056  13.055 -0.0319 -0.2998 -0.1817
  813MPD2    N111976   2.150   4.027  13.059 -0.1717  0.3073 -0.0899
  813MPD2    H711977   2.237   3.982  13.087 -0.3148  0.4549  0.5704
  814MPD2     C11978   1.910   0.298  12.009  0.2538  0.4079 -0.0487
  814MPD2    C111979   1.961   0.323  11.880  0.4314 -0.4593 -1.0894
  814MPD2    C211980   2.069   0.409  11.871  1.2016 -0.5744  0.7034
  814MPD2    C311981   2.123   0.463  11.990  0.2845 -0.3434 -0.1459
  814MPD2    C411982   2.075   0.423  12.110 -1.0992  0.7299 -0.9038
  814MPD2    C511983   1.976   0.336  12.122  0.0058 -0.6973  0.4448
  814MPD2     H11984   2.114   0.427  11.774 -0.3977  0.8339  0.2388
  814MPD2    H111985   2.121   0.462  12.200 -1.4537  0.6234 -0.6768
  814MPD2    H211986   1.828   0.234  12.039 -0.7625  2.2448  1.1079
  814MPD2    H311987   1.940   0.296  12.217 -3.9073 -1.7728 -1.4922
  814MPD2     N11988   2.229   0.557  11.989  0.7048 -0.2031  0.0728
  814MPD2    H511989   2.262   0.598  12.077  2.1513  1.4567 -1.2451
  814MPD2    N111990   1.905   0.269  11.761 -0.6073  0.4590 -0.2814
  814MPD2    H711991   1.965   0.282  11.680  0.2803 -0.4443  0.2223
  815MPD2     C11992   3.130   3.340  11.998 -0.1558  0.4331 -0.1216
  815MPD2    C111993   3.061   3.359  11.885 -0.4944 -0.2590  0.2508
  815MPD2    C211994   2.932   3.329  11.879 -0.0636 -0.2086 -1.1020
  815MPD2    C311995   2.867   3.280  11.989  0.2929 -0.5811 -0.4909
  815MPD2    C411996   2.943   3.250  12.100 -0.3809  0.0496 -0.0919
  815MPD2    C511997   3.070   3.282  12.105  0.4090  0.2349  0.8771
  815MPD2     H11998   2.878   3.354  11.789 -0.3229  2.9904 -0.0674
  815MPD2    H111999   2.899   3.218  12.193  1.5014  0.9645  1.1295
  815MPD2    H212000   3.235   3.363  12.012 -0.0563 -0.8122  1.2675
  815MPD2    H312001   3.123   3.245  12.192 -1.3906 -0.0551  1.8579
  815MPD2     N12002   2.732   3.234  11.980 -1.0285 -0.0494 -0.0430
  815MPD2    H512003   2.702   3.228  11.883  1.7347 -0.8575 -0.8507
  815MPD2    N112004   3.139   3.390  11.776 -1.1127  0.4961 -0.1783
  815MPD2    H712005   3.237   3.367  11.787 -1.5052 -1.0970  0.0087
  816MPD2     C12006   2.091   2.620  17.240  0.0283 -0.2884 -0.6868
  816MPD2    C112007   2.131   2.743  17.275  0.4088  0.9279  0.5240
  816MPD2    C212008   2.266   2.765  17.276 -0.3473  0.0722 -0.4835
  816MPD2    C312009   2.351   2.656  17.250 -0.0104  0.2105  0.2577
  816MPD2    C412010   2.300   2.523  17.214  0.8868  0.4180 -0.1793
  816MPD2    C512011   2.172   2.514  17.212  0.0625  0.0743 -0.7456
  816MPD2     H12012   2.306   2.865  17.288 -0.6403  0.4089 -2.3209
  816MPD2    H112013   2.362   2.434  17.207 -0.2262 -0.4120  0.5985
  816MPD2    H212014   1.986   2.599  17.224 -0.2689  0.5684  0.1251
  816MPD2    H312015   2.120   2.421  17.192 -0.5751 -0.0129  1.2645
  816MPD2     N12016   2.494   2.688  17.255  0.5813 -0.9113 -0.1967
  816MPD2    H512017   2.514   2.787  17.269  1.7785 -1.5949  2.8200
  816MPD2    N112018   2.047   2.858  17.289  0.0695  0.1862 -0.5761
  816MPD2    H712019   1.953   2.851  17.250  0.2250 -1.1033 -0.7152
  817MPD2     C12020   2.588   4.716   9.898  0.2145  0.2832  0.0734
  817MPD2    C112021   2.504   4.670   9.797  0.8972 -0.1931  0.6638
  817MPD2    C212022   2.407   0.029   9.748 -0.9506  0.3874  0.5672
  817MPD2    C312023   2.396   0.163   9.794  0.5979  0.0747  0.1312
  817MPD2    C412024   2.480   0.206   9.897  0.0459  0.6099 -1.3088
  817MPD2    C512025   2.577   0.117   9.947  0.0797 -0.3984 -0.3591
  817MPD2     H12026   2.346   4.722   9.663  1.5764 -1.8090 -0.4354
  817MPD2    H112027   2.485   0.305   9.940 -0.3966 -0.0365  0.2600
  817MPD2    H212028   2.672   4.661   9.939 -1.3820 -0.8958  1.7726
  817MPD2    H312029   2.648   0.152  10.021 -0.0064  2.0248 -1.4271
  817MPD2     N12030   2.294   0.241   9.742 -0.0848  0.0370 -0.7375
  817MPD2    H512031   2.236   0.194   9.674  0.0144 -0.4323 -0.4958
  817MPD2    N112032   2.510   4.536   9.752  0.1497  0.2945  0.0290
  817MPD2    H712033   2.447   4.507   9.678 -0.2476  1.0252  0.0773
  818MPD2     C12034   0.896   4.334   9.807 -1.0674 -0.0592  0.1187
  818MPD2    C112035   0.858   4.223   9.880 -0.6675 -0.0634 -0.3530
  818MPD2    C212036   0.820   4.118   9.800  0.1344  0.0730 -0.3215
  818MPD2    C312037   0.828   4.116   9.662 -0.4959 -0.2841  0.4584
  818MPD2    C412038   0.864   4.234   9.596 -0.0994  0.1569  0.4860
  818MPD2    C512039   0.904   4.342   9.671  0.3182  0.1022 -0.2243
  818MPD2     H12040   0.786   4.031   9.856 -0.4124  0.9354  0.6850
  818MPD2    H112041   0.880   4.242   9.489 -0.4399 -1.9056  0.2969
  818MPD2    H212042   0.923   4.418   9.870  0.3875 -0.4979  0.0782
  818MPD2    H312043   0.928   4.439   9.629 -0.7808  0.7731  0.7201
  818MPD2     N12044   0.804   4.007   9.576 -0.2410  0.3045  0.4388
  818MPD2    H512045   0.811   4.024   9.476  1.8993  1.3941  0.7681
  818MPD2    N112046   0.865   4.209  10.021  0.0391 -0.7235  0.0873
  818MPD2    H712047   0.826   4.125  10.063 -0.0735 -0.0123  1.4328
  819MPD2     C12048   3.419   1.143  15.808 -0.1887  0.0872 -0.0071
  819MPD2    C112049   3.458   1.012  15.809 -0.2635  0.0606  0.6033
  819MPD2    C212050   3.593   0.989  15.812  0.0689  0.0013  0.1433
  819MPD2    C312051   3.684   1.093  15.830  0.1490  0.5539 -0.7506
  819MPD2    C412052   3.645   1.223  15.836 -0.4423 -0.1346  0.1124
  819MPD2    C512053   3.514   1.245  15.816 -0.1928  0.2549 -0.4738
  819MPD2     H12054   3.626   0.886  15.815  1.1761  0.3317 -0.6411
  819MPD2    H112055   3.713   1.307  15.847  1.0949 -1.2619 -0.7102
  819MPD2    H212056   3.316   1.174  15.795 -0.0072  1.3694  1.5781
  819MPD2    H312057   3.482   1.349  15.819  3.0118  1.2491 -1.7061
  819MPD2     N12058   3.821   1.054  15.844 -0.5414 -0.0089 -0.3518
  819MPD2    H512059   3.841   0.955  15.831 -0.1421  0.1700 -1.1004
  819MPD2    N112060   3.365   0.908  15.800  0.3086 -0.1137 -0.1071
  819MPD2    H712061   3.266   0.929  15.798  0.4945  0.6940 -0.6241
  820MPD2     C12062   2.855   0.743  14.987 -0.2651  0.2199 -0.1382
  820MPD2    C112063   2.881   0.843  15.078 -0.9715  0.1051 -0.1455
  820MPD2    C212064   2.922   0.809  15.205  0.4968  0.1179 -0.0177
  820MPD2    C312065   2.945   0.680  15.248  0.5191 -0.0475  0.2441
  820MPD2    C412066   2.917   0.579  15.157 -0.3479  0.4256  0.3389
  820MPD2    C512067   2.869   0.615  15.028  0.3498  0.2840  0.0563
  820MPD2     H12068   2.947   0.887  15.276 -0.8436  0.2176  0.3401
  820MPD2    H112069   2.923   0.475  15.187  2.7017  0.4704 -0.1389
  820MPD2    H212070   2.821   0.775  14.889 -1.3497 -1.6953 -0.3912
  820MPD2    H312071   2.835   0.529  14.972 -1.0398  0.5840  0.4301
  820MPD2     N12072   2.998   0.646  15.378 -0.3395 -0.7424 -0.5348
  820MPD2    H512073   3.009   0.547  15.400 -0.7038 -0.4936  0.7138
  820MPD2    N112074   2.873   0.979  15.034 -0.2385  0.1603  0.4059
  820MPD2    H712075   2.856   1.003  14.936 -0.7445 -1.7559  0.0336
  821MPD2     C12076   3.646   3.049  12.676 -0.1319  0.1177  0.0318
  821MPD2    C112077   3.722   3.069  12.791  0.1676 -0.3289  0.1270
  821MPD2    C212078   3.847   3.130  12.788 -0.7150 -0.6626  0.1923
  821MPD2    C312079   3.904   3.172  12.665 -0.2354  0.3731 -0.6419
  821MPD2    C412080   3.827   3.158  12.553  0.7640 -0.4681 -0.3477
  821MPD2    C512081   3.700   3.102  12.559  0.1293 -0.2455 -0.0591
  821MPD2     H12082   3.900   3.131  12.882  1.8761  1.2990 -1.2690
  821MPD2    H112083   3.863   3.180  12.454 -0.1627  0.2282 -0.5257
  821MPD2    H212084   3.551   2.998  12.669 -1.0444  1.9016 -0.6968
  821MPD2    H312085   3.643   3.091  12.467 -1.4317  1.2014  0.7389
  821MPD2     N12086   4.038   3.225  12.647 -0.1322  0.2042  0.1351
  821MPD2    H512087   4.063   3.250  12.552  1.4703 -0.1457  0.4676
  821MPD2    N112088   3.685   3.013  12.920  0.3405  0.2451  0.1357
  821MPD2    H712089   3.747   3.033  12.998  3.9760  0.0242 -2.6925
  822MPD2     C12090   4.310   2.617  15.626  0.3258 -0.3727 -0.7904
  822MPD2    C112091   4.340   2.571  15.753 -0.2466  0.0087  0.5536
  822MPD2    C212092   4.341   2.667  15.852  0.2461 -0.7987  0.7816
  822MPD2    C312093   4.315   2.805  15.830 -0.2289 -0.8204  0.4010
  822MPD2    C412094   4.284   2.849  15.703 -0.5667 -0.9261 -0.8114
  822MPD2    C512095   4.290   2.753  15.604  0.7718 -0.1286  0.2951
  822MPD2     H12096   4.373   2.638  15.951 -0.3026 -1.5022  0.7523
  822MPD2    H112097   4.249   2.949  15.681 -2.5809 -0.9525  2.2127
  822MPD2    H212098   4.290   2.552  15.542  0.0857  2.6404 -3.0486
  822MPD2    H312099   4.252   2.782  15.507  1.8731 -2.0717 -0.7358
  822MPD2     N12100   4.313   2.891  15.945 -0.5269  0.4649  0.1232
  822MPD2    H512101   4.303   2.849  16.037 -0.5588 -0.1303 -0.1476
  822MPD2    N112102   4.363   2.432  15.785 -0.0525 -0.2131 -0.0116
  822MPD2    H712103   4.391   2.414  15.881  1.2148 -0.7888 -0.4847
  823MPD2     C12104   4.330   2.973  16.751  0.0256 -0.8064 -0.1889
  823MPD2    C112105   4.273   2.917  16.636  0.3568  0.8412 -0.1613
  823MPD2    C212106   4.241   2.781  16.639  0.6161  0.0041 -0.2484
  823MPD2    C312107   4.242   2.711  16.763 -0.3880  0.4163 -0.2835
  823MPD2    C412108   4.285   2.782  16.879 -0.3484 -0.4714 -0.4877
  823MPD2    C512109   4.329   2.907  16.874  0.4217  0.1047 -0.0242
  823MPD2     H12110   4.209   2.735  16.546 -0.6454  0.4465 -0.0316
  823MPD2    H112111   4.287   2.731  16.975  0.2506  0.7832  0.1693
  823MPD2    H212112   4.356   3.078  16.752  0.5989 -0.9860  2.7722
  823MPD2    H312113   4.359   2.964  16.961  0.8047  2.9421 -2.0007
  823MPD2     N12114   4.204   2.576  16.782  0.2588  0.3112  0.0276
  823MPD2    H512115   4.206   2.541  16.878 -0.3814 -2.6697 -1.0600
  823MPD2    N112116   4.275   3.000  16.526 -0.2348 -0.1655  0.0815
  823MPD2    H712117   4.313   3.094  16.531 -0.9810  0.0582  1.5693
  824MPD2     C12118   4.716   1.850  15.325  0.0213 -0.2053 -0.9314
  824MPD2    C112119   0.044   1.915  15.436  0.7285  0.4684 -0.4661
  824MPD2    C212120   0.185   1.912  15.450  0.6172 -0.6234  0.6405
  824MPD2    C312121   0.262   1.837  15.374  0.8750 -0.0734 -0.0258
  824MPD2    C412122   0.206   1.764  15.271  0.1132 -0.4540  0.3658
  824MPD2    C512123   0.074   1.785  15.240 -0.0208  0.0631  0.7589
  824MPD2     H12124   0.234   1.970  15.527 -2.4437  0.0441  2.0894
  824MPD2    H112125   0.258   1.687  15.214 -0.2587 -1.1184  0.9265
  824MPD2    H212126   4.610   1.853  15.305  0.0830 -2.1809 -1.5804
  824MPD2    H312127   0.042   1.735  15.150 -3.2424 -0.8221  2.3863
  824MPD2     N12128   0.392   1.822  15.428 -0.1082 -0.6919 -0.0111
  824MPD2    H512129   0.423   1.883  15.503 -0.9113 -0.8348  0.4427
  824MPD2    N112130   4.685   1.970  15.535  0.3854  1.0243 -0.6665
  824MPD2    H712131   4.585   1.967  15.517  0.2305 -0.8674  0.5496
  825MPD2     C12132   1.225   1.914  15.493 -0.1695 -0.4791  0.6628
  825MPD2    C112133   1.102   1.956  15.460 -0.1239  0.2979  0.0759
  825MPD2    C212134   1.085   2.056  15.363 -0.3680  0.2621 -0.0385
  825MPD2    C312135   1.202   2.101  15.305 -0.4283  0.0329  0.6388
  825MPD2    C412136   1.329   2.047  15.339 -0.5737  0.3476 -0.1438
  825MPD2    C512137   1.336   1.946  15.427  0.1031 -0.0857 -0.3822
  825MPD2     H12138   0.983   2.085  15.337 -1.0982 -1.9791  0.2986
  825MPD2    H112139   1.420   2.094  15.304 -0.1810 -0.0318  0.3845
  825MPD2    H212140   1.236   1.842  15.574 -0.5816 -0.9036  0.3412
  825MPD2    H312141   1.432   1.905  15.453  0.2665  1.8559  2.0579
  825MPD2     N12142   1.212   2.217  15.214  0.1683  0.2421 -0.7565
  825MPD2    H512143   1.305   2.254  15.195  1.0967 -2.5443 -1.6999
  825MPD2    N112144   0.997   1.912  15.542  0.0110  0.0827 -0.0424
  825MPD2    H712145   1.027   1.845  15.612 -1.6529 -0.8696 -0.2488
  826MPD2     C12146   0.597   1.540  13.474 -0.0635  0.0128  0.6768
  826MPD2    C112147   0.634   1.626  13.376 -0.0636 -0.2730 -0.8174
  826MPD2    C212148   0.637   1.763  13.396  0.0957 -0.4577 -0.3188
  826MPD2    C312149   0.589   1.814  13.518  0.6719 -0.5713 -0.2573
  826MPD2    C412150   0.540   1.727  13.615 -0.0206  0.1417 -0.0639
  826MPD2    C512151   0.547   1.595  13.589  0.1154  0.4349  0.3570
  826MPD2     H12152   0.677   1.831  13.322 -1.9747  1.1667  0.0310
  826MPD2    H112153   0.499   1.759  13.711  0.6141  2.8702 -0.6953
  826MPD2    H212154   0.605   1.432  13.472  0.7581  0.0440  1.9445
  826MPD2    H312155   0.510   1.528  13.666 -1.8567 -0.8621 -1.6844
  826MPD2     N12156   0.596   1.952  13.561 -0.3469 -0.0488  0.1277
  826MPD2    H512157   0.576   1.980  13.657 -0.5027 -0.6107  0.2588
  826MPD2    N112158   0.681   1.571  13.254  0.6971 -0.3366  0.2115
  826MPD2    H712159   0.691   1.470  13.252  0.3386 -0.4166  2.5772
  827MPD2     C12160   1.679   2.775   9.943 -0.8771 -0.5900 -0.8055
  827MPD2    C112161   1.630   2.715  10.058  0.2441 -0.4118  0.0356
  827MPD2    C212162   1.496   2.683  10.070 -0.2499  0.1735 -0.1569
  827MPD2    C312163   1.414   2.717   9.967  0.4078 -0.0634 -0.1260
  827MPD2    C412164   1.460   2.783   9.857  0.2330  0.3011 -0.3324
  827MPD2    C512165   1.591   2.816   9.849  0.9582 -0.1263  0.0700
  827MPD2     H12166   1.460   2.631  10.157 -1.7629 -0.1098 -0.9571
  827MPD2    H112167   1.399   2.806   9.770 -1.2549 -1.3422  0.2534
  827MPD2    H212168   1.784   2.798   9.930 -1.1149  1.1025  0.2155
  827MPD2    H312169   1.634   2.874   9.769  0.1150 -1.2799 -1.2289
  827MPD2     N12170   1.273   2.677   9.970  0.4741 -1.0709  0.1265
  827MPD2    H512171   1.234   2.631  10.052 -0.7154  1.5561  1.0221
  827MPD2    N112172   1.720   2.722  10.174 -0.3486  0.3533 -0.1898
  827MPD2    H712173   1.810   2.764  10.152 -0.7279  1.1502 -0.2151
  828MPD2     C12174   4.235   2.796  12.803 -0.1666  0.7212 -0.2152
  828MPD2    C112175   4.295   2.767  12.677  0.0397 -0.1602 -0.8615
  828MPD2    C212176   4.423   2.712  12.675 -0.2281  0.1522 -0.2134
  828MPD2    C312177   4.483   2.687  12.795  0.7779  0.0974 -0.1044
  828MPD2    C412178   4.416   2.703  12.914  1.1046  0.1478 -0.3002
  828MPD2    C512179   4.292   2.754  12.916 -0.4096 -0.3571 -0.0579
  828MPD2     H12180   4.466   2.682  12.581 -1.5194  0.5581 -0.9350
  828MPD2    H112181   4.459   2.670  13.008 -1.3551 -0.3985  0.6372
  828MPD2    H212182   4.139   2.844  12.815  0.8871  2.2930  1.8530
  828MPD2    H312183   4.241   2.762  13.011 -0.8509 -3.1504 -0.0519
  828MPD2     N12184   4.608   2.627  12.810 -0.0511 -0.1928  0.1931
  828MPD2    H512185   4.645   2.607  12.902 -1.1767  0.3442  0.7609
  828MPD2    N112186   4.243   2.797  12.544 -0.5015 -0.0322  0.6543
  828MPD2    H712187   4.310   2.798  12.468 -0.8611 -2.9391  0.3104
  829MPD2     C12188   4.660   2.930  11.836  0.1738  0.3343 -0.0057
  829MPD2    C112189   4.531   2.954  11.797 -0.0199  0.1448 -0.6493
  829MPD2    C212190   4.436   2.972  11.896 -0.1150 -0.1668 -0.3018
  829MPD2    C312191   4.476   2.969  12.029 -0.7228 -0.2924 -0.0827
  829MPD2    C412192   4.609   2.948  12.066 -0.0948  0.4669 -0.4977
  829MPD2    C512193   4.696   2.922  11.963 -0.7068 -0.1684  0.1106
  829MPD2     H12194   4.339   3.008  11.866 -1.0913 -2.4952  0.0740
  829MPD2    H112195   4.645   2.957  12.169 -1.4465  1.8757 -0.1389
  829MPD2    H212196   0.014   2.904  11.764  2.0270  1.1133  1.6999
  829MPD2    H312197   0.080   2.918  11.975 -0.9541 -1.6518  1.8900
  829MPD2     N12198   4.379   2.982  12.135  0.3377 -0.8592  0.0236
  829MPD2    H512199   4.407   2.951  12.227 -1.6060 -2.3011  0.1329
  829MPD2    N112200   4.502   2.944  11.655  0.0182 -0.2698 -0.2400
  829MPD2    H712201   4.574   2.955  11.584  1.4085  0.6609  1.3521
  830MPD2     C12202   4.430   0.553  15.609 -0.5957 -0.5706 -0.1703
  830MPD2    C112203   4.342   0.647  15.564  0.6939  0.0453 -0.7255
  830MPD2    C212204   4.292   0.638  15.434  0.3347  0.5962 -0.0885
  830MPD2    C312205   4.319   0.528  15.356 -0.2444  0.2706 -0.1383
  830MPD2    C412206   4.399   0.431  15.409  0.1778  0.5275 -0.3497
  830MPD2    C512207   4.465   0.450  15.527  0.7135 -0.6600 -0.8608
  830MPD2     H12208   4.228   0.710  15.385 -0.6505 -0.2354 -0.0277
  830MPD2    H112209   4.417   0.338  15.356  1.0347  0.6775 -0.3138
  830MPD2    H212210   4.472   0.543  15.708 -0.4963  2.2483  0.0728
  830MPD2    H312211   4.527   0.367  15.558  1.3350 -0.4585 -1.5744
  830MPD2     N12212   4.278   0.510  15.218  0.5106 -0.6809 -0.0097
  830MPD2    H512213   4.311   0.430  15.165  2.1474 -0.6382  0.9512
  830MPD2    N112214   4.313   0.757  15.646  0.6457  0.1675  0.1355
  830MPD2    H712215   4.352   0.749  15.739  0.5016 -0.0278  0.1808
  831MPD2     C12216   4.699   2.822  16.308 -0.1183 -0.3216  0.7695
  831MPD2    C112217   4.693   2.723  16.217  0.4846  0.3578  0.0052
  831MPD2    C212218   4.585   2.635  16.222 -0.5569  0.3116  0.0212
  831MPD2    C312219   4.481   2.653  16.304  0.7519  0.2411 -0.3357
  831MPD2    C412220   4.486   2.755  16.398  0.2483  0.1521 -0.0761
  831MPD2    C512221   4.595   2.837  16.397  0.7906  0.5181 -0.7609
  831MPD2     H12222   4.577   2.550  16.155  0.0118  1.0316 -0.9618
  831MPD2    H112223   4.402   2.778  16.463  1.0532  3.3565 -0.1787
  831MPD2    H212224   0.060   2.889  16.317 -1.2062  1.1057  0.3471
  831MPD2    H312225   4.599   2.922  16.464 -0.8541 -0.4179  0.5465
  831MPD2     N12226   4.367   2.565  16.311 -0.6034  0.5939  0.7987
  831MPD2    H512227   4.300   2.577  16.386  0.9597  1.3480  2.0780
  831MPD2    N112228   0.063   2.734  16.116 -0.5492 -0.5158 -0.7757
  831MPD2    H712229   0.121   2.817  16.112  0.6118 -1.3292 -1.0024
  832MPD2     C12230   2.807   4.451  17.234  0.2579  0.0248  0.7372
  832MPD2    C112231   2.756   4.336  17.294  0.0446  0.3848  0.1174
  832MPD2    C212232   2.663   4.255  17.219  0.3177 -0.2361 -0.0493
  832MPD2    C312233   2.631   4.294  17.084 -0.3081  0.4362  0.7995
  832MPD2    C412234   2.688   4.409  17.034 -0.4135  0.1073  0.0538
  832MPD2    C512235   2.778   4.482  17.103  0.5996 -1.0822 -0.0495
  832MPD2     H12236   2.647   4.152  17.248  1.6851 -0.4395 -0.0130
  832MPD2    H112237   2.661   4.446  16.936 -0.7618  0.8413  0.4260
  832MPD2    H212238   2.880   4.507  17.291  2.5056 -1.8060 -0.3494
  832MPD2    H312239   2.817   4.576  17.065  0.1166 -0.9421 -0.2009
  832MPD2     N12240   2.534   4.229  17.003  0.2171 -0.1102 -0.1219
  832MPD2    H512241   2.521   4.263  16.908 -0.2536 -0.0552 -0.0383
  832MPD2    N112242   2.818   4.297  17.415 -0.2454 -0.3478 -0.0945
  832MPD2    H712243   2.900   4.353  17.436  0.9848 -1.3787 -2.2006
  833MPD2     C12244   0.349   0.614  12.704  0.4611 -0.3045 -0.5353
  833MPD2    C112245   0.399   0.714  12.621  0.4759 -0.5002  0.5176
  833MPD2    C212246   0.495   0.694  12.521  0.5846  0.2398  0.0685
  833MPD2    C312247   0.531   0.560  12.500 -0.0576 -0.4570  0.4822
  833MPD2    C412248   0.478   0.456  12.581  0.8905 -0.0358  0.1735
  833MPD2    C512249   0.391   0.487  12.686  0.6601 -0.5588  0.2571
  833MPD2     H12250   0.537   0.771  12.457  2.1622 -1.8136 -1.3400
  833MPD2    H112251   0.497   0.350  12.567  0.7541 -0.0606  0.1805
  833MPD2    H212252   0.276   0.634  12.782  2.5417 -1.5888  1.7361
  833MPD2    H312253   0.337   0.409  12.738 -2.4422  2.6821  1.9082
  833MPD2     N12254   0.600   0.513  12.381 -0.8856 -0.1506  0.1353
  833MPD2    H512255   0.623   0.414  12.376  0.9089  0.2551  0.2866
  833MPD2    N112256   0.324   0.831  12.619  0.2805  0.1729 -0.3365
  833MPD2    H712257   0.233   0.820  12.664  0.2523 -3.5910 -1.3497
  834MPD2     C12258   0.144   4.688  11.709  0.3042 -0.2910  1.0352
  834MPD2    C112259   0.263   4.709  11.637 -0.5046  0.0849 -0.4590
  834MPD2    C212260   0.355   0.069  11.690  0.5222  0.3484  0.2984
  834MPD2    C312261   0.315   0.151  11.800  0.2731 -0.1969  0.5937
  834MPD2    C412262   0.196   0.125  11.866 -0.0881  0.4845 -0.2184
  834MPD2    C512263   0.107   0.038  11.818 -0.4612  0.3918  0.2357
  834MPD2     H12264   0.453   0.085  11.646 -1.0396 -0.5590 -3.4573
  834MPD2    H112265   0.159   0.184  11.948 -0.3465  1.8945 -1.3539
  834MPD2    H212266   0.066   4.621  11.674  0.6828  0.0375 -0.4794
  834MPD2    H312267   0.014   0.024  11.872 -0.3950  2.1144  0.7709
  834MPD2     N12268   0.403   0.247  11.844  0.1705  0.3653 -0.3662
  834MPD2    H512269   0.487   0.264  11.789  0.8214  0.6261  0.7022
  834MPD2    N112270   0.282   4.623  11.528  0.0620 -0.7911 -0.7215
  834MPD2    H712271   0.209   4.557  11.501 -0.2220 -0.3435 -1.0417
  835MPD2     C12272   0.916   2.925  10.956  0.7799 -0.1674  0.5153
  835MPD2    C112273   0.786   2.961  10.918 -0.3517 -0.0892  0.5585
  835MPD2    C212274   0.692   2.957  11.017 -0.0740 -0.3745 -0.1963
  835MPD2    C312275   0.713   2.912  11.148 -1.4401 -0.3633 -0.6712
  835MPD2    C412276   0.842   2.880  11.183 -0.0909  0.0002  0.1108
  835MPD2    C512277   0.941   2.882  11.084  0.4409 -0.1229  0.0816
  835MPD2     H12278   0.590   2.988  10.996 -0.6176 -1.4374  0.8496
  835MPD2    H112279   0.864   2.851  11.285 -0.1577  1.9050  0.6580
  835MPD2    H212280   0.986   2.927  10.873  0.2105  1.4941  0.0714
  835MPD2    H312281   1.040   2.847  11.113  0.1839 -0.5294  0.4652
  835MPD2     N12282   0.608   2.901  11.245 -0.1310 -0.9240 -0.4381
  835MPD2    H512283   0.635   2.845  11.325  2.0492 -0.6668 -1.0003
  835MPD2    N112284   0.740   2.987  10.788 -0.0867  0.5626  0.4916
  835MPD2    H712285   0.645   3.021  10.783 -0.0776  0.5178 -0.0324
  836MPD2     C12286   4.570   2.991  11.065  0.5890 -0.2774 -0.3262
  836MPD2    C112287   4.600   3.013  11.198  0.3350  0.1541 -0.1065
  836MPD2    C212288   4.515   3.086  11.281  0.2064  0.0527  0.0455
  836MPD2    C312289   4.409   3.147  11.223 -0.4517 -0.3049 -0.0831
  836MPD2    C412290   4.374   3.125  11.094 -0.3635 -0.7121  0.2301
  836MPD2    C512291   4.459   3.043  11.016  0.4828 -0.3366  0.7033
  836MPD2     H12292   4.543   3.097  11.385  1.9846  0.0128 -0.4315
  836MPD2    H112293   4.288   3.166  11.042  0.2105  2.2899  1.7071
  836MPD2    H212294   4.631   2.925  11.004  0.2468 -0.2019 -0.7451
  836MPD2    H312295   4.439   3.025  10.911 -0.5770 -0.3567  0.9069
  836MPD2     N12296   4.333   3.233  11.305 -0.6059 -0.4627 -0.2519
  836MPD2    H512297   4.251   3.268  11.258 -1.7339  0.5723  2.5079
  836MPD2    N112298   4.719   2.946  11.236  0.4310  0.4584  0.4311
  836MPD2    H712299   0.048   2.904  11.160 -0.4199  2.9216 -1.5166
  837MPD2     C12300   3.514   2.582   9.819  0.1741 -0.3266  0.5438
  837MPD2    C112301   3.479   2.695   9.754 -0.5471  0.0639  0.3526
  837MPD2    C212302   3.497   2.815   9.810  0.1520  0.6818  0.1663
  837MPD2    C312303   3.539   2.825   9.946 -0.2199 -0.4190  0.1598
  837MPD2    C412304   3.560   2.708  10.014  0.8771  0.8586 -0.0300
  837MPD2    C512305   3.552   2.585   9.952 -0.7671  0.1948  0.6801
  837MPD2     H12306   3.449   2.900   9.763 -0.6564  0.4710  0.6252
  837MPD2    H112307   3.564   2.700  10.122 -0.2025  0.7526  0.0034
  837MPD2    H212308   3.495   2.486   9.773  1.3232 -1.0179  1.5028
  837MPD2    H312309   3.566   2.495  10.011 -0.2390 -0.9358 -1.1653
  837MPD2     N12310   3.528   2.950  10.005  0.6193 -0.3864  0.7654
  837MPD2    H512311   3.516   3.025   9.937  2.6903  0.2502  1.0946
  837MPD2    N112312   3.418   2.686   9.627 -0.1180 -0.0858 -0.1956
  837MPD2    H712313   3.384   2.595   9.597 -0.8361  0.3775 -0.7858
  838MPD2     C12314   1.954   0.731  12.168 -0.1559  0.7839 -0.2710
  838MPD2    C112315   1.853   0.698  12.084  0.1701 -0.0951  0.0304
  838MPD2    C212316   1.751   0.611  12.125  0.1981 -0.6575 -0.4577
  838MPD2    C312317   1.757   0.550  12.249  0.5029 -0.0085 -0.9932
  838MPD2    C412318   1.862   0.587  12.333  0.7517  0.2803 -0.5328
  838MPD2    C512319   1.957   0.681  12.298 -0.4734  0.0290 -0.1204
  838MPD2     H12320   1.673   0.584  12.054  0.5131  0.9112 -1.3951
  838MPD2    H112321   1.862   0.546  12.434  0.2628 -1.1868 -1.1235
  838MPD2    H212322   2.044   0.785  12.141  0.2124  0.2812 -0.0604
  838MPD2    H312323   2.030   0.708  12.373 -0.3872 -0.2109 -0.1203
  838MPD2     N12324   1.664   0.450  12.271 -0.3780 -0.4652 -0.2622
  838MPD2    H512325   1.587   0.439  12.206  1.7077  0.6988 -2.9231
  838MPD2    N112326   1.859   0.725  11.944 -0.3352 -0.3583 -0.5028
  838MPD2    H712327   1.783   0.692  11.886 -1.4076  0.3725  0.4768
  839MPD2     C12328   1.416   0.237  11.552  0.2586  1.0563 -0.1095
  839MPD2    C112329   1.487   0.264  11.438  0.6828 -0.4587 -0.3658
  839MPD2    C212330   1.589   0.360  11.440  1.0026  0.0153 -0.8505
  839MPD2    C312331   1.609   0.439  11.554 -0.4881  0.4894 -0.2575
  839MPD2    C412332   1.522   0.422  11.661  0.8308 -0.7129  0.1899
  839MPD2    C512333   1.434   0.314  11.664  0.1134 -0.2676  0.6318
  839MPD2     H12334   1.655   0.370  11.355  1.3903  2.4347 -0.2815
  839MPD2    H112335   1.538   0.474  11.755 -0.1086 -2.2490  1.2121
  839MPD2    H212336   1.353   0.149  11.556 -1.2532  2.0371 -2.4140
  839MPD2    H312337   1.388   0.281  11.756 -0.8947 -1.1786 -0.1922
  839MPD2     N12338   1.706   0.533  11.572 -0.1230 -0.3034  0.5758
  839MPD2    H512339   1.682   0.597  11.648 -0.4039 -1.5624  1.5401
  839MPD2    N112340   1.471   0.201  11.319 -0.3816  0.5009  0.4092
  839MPD2    H712341   1.542   0.206  11.246 -1.4655  0.0785 -0.6875
  840MPD2     C12342   2.195   3.066  10.108  0.1211  0.0788 -0.3747
  840MPD2    C112343   2.195   3.059  10.243 -0.5448  0.0927  0.2994
  840MPD2    C212344   2.278   3.145  10.310 -1.1641 -0.1143 -0.3961
  840MPD2    C312345   2.359   3.230  10.243  0.3487 -0.0457 -0.1308
  840MPD2    C412346   2.358   3.234  10.101 -1.0411  0.8204  0.3659
  840MPD2    C512347   2.275   3.146  10.034  0.1595  0.4885  0.4466
  840MPD2     H12348   2.278   3.134  10.418 -2.4393  2.2921 -0.1385
  840MPD2    H112349   2.416   3.298  10.036 -1.0024  1.3234  0.8914
  840MPD2    H212350   2.125   2.998  10.060  0.1167 -0.9867  1.1590
  840MPD2    H312351   2.270   3.135   9.926  0.2869 -1.5769  0.6509
  840MPD2     N12352   2.436   3.321  10.319 -0.6652  0.8270  0.4048
  840MPD2    H512353   2.444   3.302  10.419  0.2971  0.6764  0.2987
  840MPD2    N112354   2.098   2.979  10.304 -0.6466 -0.3449  0.0108
  840MPD2    H712355   2.026   2.940  10.245  0.5168 -0.8725 -1.0571
  841MPD2     C12356   1.525   3.151  15.082  0.7425 -0.6161 -0.2568
  841MPD2    C112357   1.554   3.091  14.964 -0.1609 -0.5861 -0.9462
  841MPD2    C212358   1.590   3.164  14.852 -0.0022  0.2282 -0.3136
  841MPD2    C312359   1.601   3.302  14.856  0.0903  0.6565 -0.0517
  841MPD2    C412360   1.593   3.363  14.979 -0.9660 -0.0054 -0.2196
  841MPD2    C512361   1.544   3.291  15.087  0.6115 -0.5216  0.3348
  841MPD2     H12362   1.607   3.109  14.760 -0.4049 -2.4606  1.2220
  841MPD2    H112363   1.614   3.466  15.008  2.0567 -0.3597 -1.1227
  841MPD2    H212364   1.495   3.099  15.172 -3.5477  1.1976 -0.6090
  841MPD2    H312365   1.545   3.332  15.187  2.4345  0.5667 -0.1198
  841MPD2     N12366   1.647   3.378  14.739 -0.4092  0.2056 -0.6860
  841MPD2    H512367   1.673   3.320  14.660 -0.1852 -0.3514 -0.2128
  841MPD2    N112368   1.553   2.947  14.947  0.2944  0.1393 -0.0770
  841MPD2    H712369   1.590   2.906  14.862  1.8185  1.1668  0.0901
  842MPD2     C12370   2.335   4.588  16.964 -0.1651 -0.4380 -0.4618
  842MPD2    C112371   2.234   4.493  16.981  0.4216 -0.0667 -0.4825
  842MPD2    C212372   2.223   4.417  17.104  0.2750 -0.0556  0.7850
  842MPD2    C312373   2.320   4.442  17.195 -0.0199 -0.6717 -0.2172
  842MPD2    C412374   2.423   4.534  17.174  0.1102 -0.7300 -0.3615
  842MPD2    C512375   2.429   4.608  17.060  0.3995  0.3440 -0.6420
  842MPD2     H12376   2.132   4.361  17.123 -0.8391  1.2141 -0.8077
  842MPD2    H112377   2.494   4.546  17.254 -1.0829 -0.3401  0.6358
  842MPD2    H212378   2.353   4.640  16.870  0.6681 -0.7205 -0.4643
  842MPD2    H312379   2.505   4.684  17.052  0.6792  0.1808  0.4627
  842MPD2     N12380   2.320   4.379  17.318  0.6433  0.5325 -0.3387
  842MPD2    H512381   2.384   4.417  17.386  1.1307 -0.9055  0.0057
  842MPD2    N112382   2.143   4.477  16.874  0.6126 -0.1056  0.3540
  842MPD2    H712383   2.169   4.536  16.796  1.9556 -1.3217 -0.1150
  843MPD2     C12384   4.038   0.086   0.392  0.3678 -0.7792 -0.0998
  843MPD2    C112385   4.162   0.035   0.407 -0.4053  0.0420  0.2066
  843MPD2    C212386   4.269   0.096   0.349  0.0230  0.3363 -0.1261
  843MPD2    C312387   4.254   0.223   0.288 -0.4263 -0.0689  0.8795
  843MPD2    C412388   4.129   0.278   0.280 -0.0920 -0.2569  0.3231
  843MPD2    C512389   4.018   0.202   0.316  0.0735 -0.1257  0.3312
  843MPD2     H12390   4.370   0.057   0.353  0.3676  1.2914  0.4437
  843MPD2    H112391   4.114   0.375   0.234 -0.5595 -0.2484  0.4885
  843MPD2    H212392   3.949   0.030   0.419  0.3603  0.6292  2.7820
  843MPD2    H312393   3.918   0.242   0.298  0.1547 -0.8085 -1.5899
  843MPD2     N12394   4.353   0.299   0.229  0.1246 -0.0179  0.2820
  843MPD2    H512395   4.328   0.391   0.195  1.1961 -0.1411 -0.8442
  843MPD2    N112396   4.175   4.640   0.482  0.2660  0.3385 -0.2154
  843MPD2    H712397   4.089   4.618   0.530  0.4435  0.9652  0.3859
  844MPD2     C12398   2.994   4.240  16.975 -0.5052 -0.3239  0.1483
  844MPD2    C112399   3.006   4.172  17.095  0.3004  0.6804 -0.3682
  844MPD2    C212400   3.085   4.226  17.193  0.3212  0.8050 -0.0085
  844MPD2    C312401   3.154   4.348  17.174  0.4673 -0.1129  0.5405
  844MPD2    C412402   3.154   4.409  17.043 -0.0672  0.0336  0.1529
  844MPD2    C512403   3.075   4.351  16.947 -0.2317 -0.0987 -0.3069
  844MPD2     H12404   3.088   4.177  17.290  0.2650  0.5670 -0.1275
  844MPD2    H112405   3.215   4.497  17.029  0.1115  0.7938  5.4222
  844MPD2    H212406   2.936   4.201  16.892  0.7437  0.7608 -1.2458
  844MPD2    H312407   3.078   4.389  16.846  2.8835 -0.1898 -0.2515
  844MPD2     N12408   3.223   4.398  17.283 -0.2442 -0.5095  1.0029
  844MPD2    H512409   3.233   4.336  17.364 -0.1823  0.2481  1.5744
  844MPD2    N112410   2.929   4.054  17.119 -0.3293 -0.2613 -0.0698
  844MPD2    H712411   2.947   4.004  17.206 -1.0129 -1.5139 -0.6405
  845MPD2     C12412   2.966   0.446   0.084 -0.1390  0.0031 -1.1006
  845MPD2    C112413   2.944   0.399  17.656 -0.2034 -0.3025  0.6475
  845MPD2    C212414   3.028   0.302  17.605  0.5917  0.1106 -0.1195
  845MPD2    C312415   3.143   0.255  17.668 -0.8771  0.5614 -0.4845
  845MPD2    C412416   3.165   0.309   0.090  0.2003  0.3464 -0.3523
  845MPD2    C512417   3.080   0.403   0.145 -0.0819  0.3669  0.0442
  845MPD2     H12418   3.001   0.253  17.511  1.8447 -0.0124 -0.4139
  845MPD2    H112419   3.236   0.278   0.165 -1.2415 -1.7133  0.1764
  845MPD2    H212420   2.900   0.524   0.120 -1.8125 -1.4028 -1.0918
  845MPD2    H312421   3.104   0.430   0.247  1.5351 -2.2635  0.3751
  845MPD2     N12422   3.218   0.151  17.616 -0.0665 -0.0701  0.6822
  845MPD2    H512423   3.201   0.133  17.517 -0.0012  2.5500  0.1965
  845MPD2    N112424   2.826   0.434  17.593 -0.4708 -0.0919  0.3024
  845MPD2    H712425   2.758   0.488  17.646 -1.4461  0.1867 -1.2281
  846MPD2     C12426   4.404   4.703  13.931  0.1650 -0.8894 -0.7058
  846MPD2    C112427   4.285   0.040  13.929 -0.0044 -0.3097 -0.3093
  846MPD2    C212428   4.193   0.020  14.036  0.2461 -0.1903 -0.3898
  846MPD2    C312429   4.226   4.665  14.143 -0.5340 -0.0568 -0.4073
  846MPD2    C412430   4.355   4.611  14.138 -0.3312  0.0188 -0.3915
  846MPD2    C512431   4.443   4.640  14.041 -0.3314 -0.6674  0.9835
  846MPD2     H12432   4.098   0.072  14.034  0.4268  0.1208 -1.3385
  846MPD2    H112433   4.391   4.557  14.225 -0.5008  0.0990 -0.2700
  846MPD2    H212434   4.479   4.715  13.853  1.0182 -1.7907 -0.0316
  846MPD2    H312435   4.548   4.614  14.053 -0.3314 -0.8799  0.5165
  846MPD2     N12436   4.142   4.648  14.256 -0.1387  0.2175  0.2283
  846MPD2    H512437   4.067   4.715  14.271 -0.5081  0.5103 -3.0029
  846MPD2    N112438   4.251   0.135  13.837 -0.0474 -0.2186 -0.2201
  846MPD2    H712439   4.181   0.206  13.853 -3.1104 -3.6136  1.3549
  847MPD2     C12440   4.587   1.402  13.993 -0.5438  0.9072  0.0176
  847MPD2    C112441   4.561   1.423  14.123  0.3008 -1.0640  0.2684
  847MPD2    C212442   4.609   1.329  14.216 -0.1094  0.0508  0.5149
  847MPD2    C312443   4.684   1.222  14.177 -0.0974  0.0700 -0.5048
  847MPD2    C412444   4.715   1.208  14.049 -0.1924 -0.9290 -0.1917
  847MPD2    C512445   4.662   1.295  13.958  0.2386 -0.6952 -0.1935
  847MPD2     H12446   4.568   1.330  14.317  0.1313 -0.9968  0.6245
  847MPD2    H112447   0.049   1.124  14.011  0.4395 -0.4800 -0.2237
  847MPD2    H212448   4.552   1.466  13.913  0.1156  2.6318  1.1082
  847MPD2    H312449   4.698   1.275  13.858 -2.6065 -0.2146 -1.3041
  847MPD2     N12450   4.699   1.115  14.269  0.2622 -0.1794 -0.3562
  847MPD2    H512451   4.680   1.137  14.367  0.3723 -0.9343 -0.1696
  847MPD2    N112452   4.473   1.531  14.151 -0.5828  0.1745 -0.2849
  847MPD2    H712453   4.443   1.587  14.072 -0.6163  1.5253  0.6808
  848MPD2     C12454   2.259   4.240  16.346 -0.0915  0.5121 -0.1373
  848MPD2    C112455   2.319   4.305  16.454  0.2431  0.5404  0.2284
  848MPD2    C212456   2.408   4.406  16.436 -0.4959 -0.2838 -0.6644
  848MPD2    C312457   2.434   4.457  16.309 -0.2577 -0.0836 -0.6789
  848MPD2    C412458   2.369   4.400  16.205 -0.0576  0.2255 -0.5234
  848MPD2    C512459   2.279   4.294  16.219  0.2168 -0.0612 -1.1395
  848MPD2     H12460   2.453   4.456  16.520 -1.3261  1.7694 -1.4471
  848MPD2    H112461   2.400   4.426  16.104  2.2847 -1.1159 -0.1320
  848MPD2    H212462   2.202   4.148  16.345  2.8503 -1.3234  2.4706
  848MPD2    H312463   2.230   4.251  16.132 -0.6439 -1.7670  0.2166
  848MPD2     N12464   2.517   4.569  16.279  0.5353 -0.6718 -0.0461
  848MPD2    H512465   2.510   4.597  16.181  0.7814 -1.0222 -0.1668
  848MPD2    N112466   2.305   4.251  16.582  0.3124  0.3596  0.0278
  848MPD2    H712467   2.364   4.282  16.659 -0.6186 -2.2622  1.7786
  849MPD2     C12468   1.133   4.031  14.046  0.1327  0.1514  0.7401
  849MPD2    C112469   1.263   4.060  14.011 -0.4367 -0.1281  0.7089
  849MPD2    C212470   1.360   3.960  14.011 -0.5645  0.7993 -0.2773
  849MPD2    C312471   1.326   3.825  14.049 -0.2002 -0.2375  0.4796
  849MPD2    C412472   1.189   3.798  14.061  0.2941 -0.2230 -0.7349
  849MPD2    C512473   1.095   3.902  14.062  1.0043 -0.0250  0.6583
  849MPD2     H12474   1.461   3.989  13.986 -1.2985  0.7745 -3.2568
  849MPD2    H112475   1.137   3.703  14.075  0.9821 -0.5913 -0.6787
  849MPD2    H212476   1.057   4.108  14.054  0.8671  0.9251  0.2804
  849MPD2    H312477   0.995   3.875  14.094  0.4635  1.6270  0.3285
  849MPD2     N12478   1.424   3.726  14.065 -0.2291 -0.2178  0.0444
  849MPD2    H512479   1.517   3.752  14.036  0.5146 -2.1764  0.6336
  849MPD2    N112480   1.314   4.182  13.988  0.0394  0.0393  0.1033
  849MPD2    H712481   1.415   4.191  13.979 -0.1048  1.2195 -0.3078
  850MPD2     C12482   4.531   2.106  14.968 -0.0992 -0.1504  0.3066
  850MPD2    C112483   4.592   1.977  14.968  0.6508  0.1402  0.2173
  850MPD2    C212484   0.008   1.971  14.981  0.1488  0.0377  0.5480
  850MPD2    C312485   0.079   2.089  15.004 -0.2022 -0.6584  0.5492
  850MPD2    C412486   0.022   2.216  15.003 -0.0588 -0.2166  0.9534
  850MPD2    C512487   4.612   2.216  14.984  0.1229  0.3717  0.0628
  850MPD2     H12488   0.062   1.877  14.982 -0.2600 -0.2178 -0.5755
  850MPD2    H112489   0.080   2.306  15.017  0.4333 -0.3798 -0.0420
  850MPD2    H212490   4.425   2.128  14.962 -0.4319 -1.6862  0.7266
  850MPD2    H312491   4.567   2.315  14.974  0.7002  0.5743 -0.5016
  850MPD2     N12492   0.221   2.093  15.015 -0.2799  0.5633 -0.1958
  850MPD2    H512493   0.267   2.183  15.028  0.4965  0.2787 -0.9215
  850MPD2    N112494   4.511   1.864  14.970  0.2522 -0.1045 -0.3708
  850MPD2    H712495   4.413   1.882  14.986  1.0314  3.2310  0.7798
  851MPD2     C12496   0.055   1.097  14.878  0.0935 -0.5895  0.3713
  851MPD2    C112497   4.655   1.117  14.941 -0.1703  0.4755 -0.3379
  851MPD2    C212498   4.570   1.012  14.952  0.4025 -0.0005 -0.5343
  851MPD2    C312499   4.602   0.886  14.883  0.0474 -0.6803 -0.1248
  851MPD2    C412500   0.004   0.868  14.821  0.4398 -0.1017  0.1004
  851MPD2    C512501   0.094   0.974  14.825 -1.2714 -0.1326  0.2524
  851MPD2     H12502   4.480   1.014  15.012  1.3823 -0.5118  0.9543
  851MPD2    H112503   0.038   0.771  14.786  0.2720  0.2635 -1.0585
  851MPD2    H212504   0.131   1.171  14.856 -0.8847  0.5534  0.8236
  851MPD2    H312505   0.192   0.964  14.779 -0.1493  2.1037  2.1344
  851MPD2     N12506   4.503   0.788  14.885  0.2761 -0.4805 -0.0451
  851MPD2    H512507   4.412   0.806  14.926  0.3345  1.5035 -0.7835
  851MPD2    N112508   4.626   1.245  14.990  0.0521  0.3517 -0.3505
  851MPD2    H712509   4.674   1.324  14.948 -0.8488  1.5006  0.7823
  852MPD2     C12510   4.717   3.945   9.730 -0.2008  0.4233 -0.4505
  852MPD2    C112511   0.038   3.968   9.857 -0.8659 -0.2996  0.0053
  852MPD2    C212512   0.089   4.096   9.891 -0.6828 -0.7292 -0.5230
  852MPD2    C312513   0.115   4.191   9.795 -0.2896 -0.1615  0.1758
  852MPD2    C412514   0.076   4.159   9.670  0.3713  0.2236 -0.3068
  852MPD2    C512515   0.020   4.039   9.636 -0.4935 -0.2701  0.0007
  852MPD2     H12516   0.101   4.123   9.995 -1.0363  0.7727 -0.8748
  852MPD2    H112517   0.077   4.231   9.589  2.9093  0.4671 -0.0571
  852MPD2    H212518   4.657   3.863   9.693  0.9606 -0.3412 -0.6071
  852MPD2    H312519   4.710   4.020   9.535 -0.8403 -0.4390  0.1454
  852MPD2     N12520   0.162   4.320   9.837 -0.1481 -0.2640 -0.2954
  852MPD2    H512521   0.173   4.326   9.937 -0.1833  1.4861 -0.3796
  852MPD2    N112522   0.026   3.870   9.960 -0.2153 -0.4817 -0.1979
  852MPD2    H712523   0.079   3.892  10.044  0.5690 -2.0519 -0.2843
  853MPD2     C12524   1.664   4.371  11.909 -0.3304  0.8576  0.3431
  853MPD2    C112525   1.543   4.305  11.878 -0.1196 -0.9460 -0.1342
  853MPD2    C212526   1.542   4.245  11.754 -0.6205 -0.6661 -0.9818
  853MPD2    C312527   1.647   4.250  11.662  0.4742 -0.4653  0.2355
  853MPD2    C412528   1.761   4.321  11.688  0.0056  0.5086  0.3267
  853MPD2    C512529   1.768   4.383  11.814 -0.0044  0.5175 -0.3753
  853MPD2     H12530   1.446   4.205  11.724 -1.0704 -1.4512  1.5393
  853MPD2    H112531   1.844   4.337  11.620  0.3140  2.3207  1.1049
  853MPD2    H212532   1.674   4.424  12.003  0.9563  0.1427  0.5919
  853MPD2    H312533   1.849   4.453  11.830  0.6025 -0.0508 -0.9376
  853MPD2     N12534   1.651   4.173  11.544  0.0704  0.3390 -0.2997
  853MPD2    H512535   1.735   4.178  11.488 -0.1765  1.5176 -0.5726
  853MPD2    N112536   1.441   4.313  11.970 -0.3107 -0.3029 -0.2224
  853MPD2    H712537   1.467   4.363  12.055 -0.4362  0.4864 -0.6470
  854MPD2     C12538   3.034   0.070  13.182  0.0615 -0.3670  0.4485
  854MPD2    C112539   3.031   4.714  13.068 -0.0200  0.7623  0.2447
  854MPD2    C212540   3.081   4.583  13.057 -0.0368  0.2929  0.1367
  854MPD2    C312541   3.142   4.544  13.174 -0.7309 -0.2737 -0.2806
  854MPD2    C412542   3.157   4.624  13.287  0.0538  0.9240  0.6754
  854MPD2    C512543   3.102   0.024  13.288 -0.0422  0.0555 -0.9607
  854MPD2     H12544   3.089   4.517  12.972 -0.8031 -1.5278  1.4886
  854MPD2    H112545   3.212   4.599  13.377 -0.3483 -1.2146  0.3303
  854MPD2    H212546   2.993   0.170  13.178  0.1739 -0.3606 -0.6626
  854MPD2    H312547   3.108   0.088  13.375 -0.8192 -0.8494 -0.2381
  854MPD2     N12548   3.221   4.425  13.180 -0.0702  0.3372  0.6010
  854MPD2    H512549   3.281   4.424  13.262  0.5068  1.2581  0.1939
  854MPD2    N112550   2.968   0.057  12.963  0.8703  0.1328 -0.0812
  854MPD2    H712551   2.926   0.145  12.994  1.4405  1.4537 -3.0819
  855MPD2     C12552   3.253   4.354  13.939 -0.5906  0.8102  0.5484
  855MPD2    C112553   3.275   4.216  13.917  0.3655 -0.2340 -0.2157
  855MPD2    C212554   3.305   4.173  13.789  0.5396  0.3563 -0.0954
  855MPD2    C312555   3.317   4.264  13.685  0.6767 -0.6330 -0.3046
  855MPD2    C412556   3.323   4.403  13.715  0.0146 -0.2395  0.0691
  855MPD2    C512557   3.291   4.441  13.841  0.6359 -0.1298  0.2343
  855MPD2     H12558   3.302   4.065  13.775  0.3150  0.3816 -0.2310
  855MPD2    H112559   3.342   4.479  13.640 -1.0583  1.1928  1.2234
  855MPD2    H212560   3.227   4.393  14.036  0.9983  3.6326 -0.1617
  855MPD2    H312561   3.266   4.544  13.862 -0.9309 -0.4633  0.0196
  855MPD2     N12562   3.336   4.220  13.552  0.1355 -0.2116 -0.1392
  855MPD2    H512563   3.357   4.297  13.488  0.6698 -1.3545 -1.3324
  855MPD2    N112564   3.256   4.119  14.010 -0.1680  0.1212  0.7894
  855MPD2    H712565   3.255   4.021  13.982  0.6792  1.1081 -2.6632
  856MPD2     C12566   0.503   0.508  13.429  0.3528  0.1399 -0.2521
  856MPD2    C112567   0.556   0.605  13.506  0.7489 -0.0425 -0.3205
  856MPD2    C212568   0.480   0.721  13.528 -0.3449  0.1805 -0.0050
  856MPD2    C312569   0.346   0.733  13.497 -0.0749 -0.3185  0.7736
  856MPD2    C412570   0.295   0.628  13.421  0.5122 -0.5243 -0.0363
  856MPD2    C512571   0.370   0.522  13.386  0.6754 -0.2873  0.1860
  856MPD2     H12572   0.530   0.803  13.578  0.2186 -1.7212  2.5232
  856MPD2    H112573   0.189   0.632  13.398  0.4443  2.2824  0.7400
  856MPD2    H212574   0.561   0.420  13.402  1.0992  0.3746  0.5922
  856MPD2    H312575   0.327   0.444  13.324  1.1082 -1.7385  1.7414
  856MPD2     N12576   0.262   0.851  13.512  0.1866 -0.3472 -0.1555
  856MPD2    H512577   0.177   0.846  13.457  0.8385 -2.3944 -0.9900
  856MPD2    N112578   0.690   0.612  13.556 -0.0971 -0.3782 -0.4472
  856MPD2    H712579   0.710   0.676  13.633  1.1703 -0.3916 -0.7739
  857MPD2     C12580   2.081   2.641  12.588  0.5383  0.5328 -0.0549
  857MPD2    C112581   2.206   2.653  12.641 -0.5040  0.0516  0.3059
  857MPD2    C212582   2.238   2.740  12.741 -0.5524  0.5912  0.1504
  857MPD2    C312583   2.142   2.833  12.785 -0.0467  0.1627  0.8581
  857MPD2    C412584   2.014   2.831  12.730  0.0535  0.3278 -0.4853
  857MPD2    C512585   1.987   2.735  12.638 -0.0607 -0.0007 -0.5173
  857MPD2     H12586   2.337   2.731  12.785 -2.0846  1.4096  3.7307
  857MPD2    H112587   1.934   2.892  12.768 -0.6130 -0.2416 -0.9824
  857MPD2    H212588   2.060   2.573  12.507  0.6153  0.0486  0.3331
  857MPD2    H312589   1.892   2.745  12.588 -0.7989  2.0095  1.2413
  857MPD2     N12590   2.181   2.918  12.891 -0.0992 -0.1951 -0.1442
  857MPD2    H512591   2.282   2.925  12.897  0.1022 -2.2962 -1.0560
  857MPD2    N112592   2.295   2.557  12.596  0.0597  0.5385  0.2776
  857MPD2    H712593   2.252   2.483  12.543  2.1136 -0.2184 -0.3330
  858MPD2     C12594   2.636   1.577  17.138 -0.1755  0.4579 -0.0795
  858MPD2    C112595   2.772   1.538  17.141 -0.1554  0.2937  0.1666
  858MPD2    C212596   2.858   1.606  17.227 -0.8279 -0.2835  0.2197
  858MPD2    C312597   2.805   1.716  17.310  1.5453  0.2487  0.0977
  858MPD2    C412598   2.668   1.744  17.306  0.1147  0.5365  0.3255
  858MPD2    C512599   2.588   1.678  17.220  0.1214 -0.9957 -0.7983
  858MPD2     H12600   2.960   1.570  17.226  0.2754  2.8811  1.1547
  858MPD2    H112601   2.626   1.825  17.364  0.8822  0.6039  0.7842
  858MPD2    H212602   2.570   1.530  17.066  0.1278 -0.6690  0.3808
  858MPD2    H312603   2.484   1.706  17.216  0.7161  1.1468 -1.2638
  858MPD2     N12604   2.883   1.797  17.393 -0.0800 -0.6094 -0.6348
  858MPD2    H512605   2.841   1.880  17.433 -1.3498 -1.2921 -0.5165
  858MPD2    N112606   2.805   1.439  17.046 -0.2045  0.8435 -0.1760
  858MPD2    H712607   2.724   1.408  16.993 -1.7368  0.6582  2.2139
  859MPD2     C12608   1.797   3.219  15.724 -0.2887  0.4949 -0.3745
  859MPD2    C112609   1.802   3.253  15.592 -0.4403 -0.2330 -0.0239
  859MPD2    C212610   1.789   3.148  15.502 -0.4066  0.2277 -0.4618
  859MPD2    C312611   1.799   3.015  15.547 -0.4605  0.4551  1.1401
  859MPD2    C412612   1.805   2.987  15.683  0.4734  0.3312 -0.0061
  859MPD2    C512613   1.792   3.090  15.767 -0.1186  0.8981 -0.0750
  859MPD2     H12614   1.786   3.176  15.398  1.0838  0.5771 -0.4117
  859MPD2    H112615   1.809   2.886  15.721  0.9583  0.9629  1.6402
  859MPD2    H212616   1.803   3.296  15.800 -0.4226 -0.1715  0.3152
  859MPD2    H312617   1.798   3.085  15.875  1.9931  2.4486 -0.1349
  859MPD2     N12618   1.808   2.902  15.457  0.5521  0.1265 -0.3353
  859MPD2    H512619   1.815   2.812  15.506 -0.5663 -0.2691 -0.9019
  859MPD2    N112620   1.811   3.381  15.538 -0.0303 -0.0322 -0.1792
  859MPD2    H712621   1.804   3.378  15.437  1.6971 -0.9597 -0.2801
  860MPD2     C12622   4.224   3.779  11.675  0.4035 -0.0186 -0.0199
  860MPD2    C112623   4.256   3.750  11.805 -0.1057  0.4453  0.0056
  860MPD2    C212624   4.153   3.761  11.898 -0.8759 -0.2929 -0.0749
  860MPD2    C312625   4.028   3.812  11.865  1.0199 -0.1394  0.0813
  860MPD2    C412626   4.003   3.845  11.732 -1.4970  0.6861  0.2804
  860MPD2    C512627   4.098   3.821  11.633  0.0588 -0.4235 -0.1037
  860MPD2     H12628   4.178   3.748  12.002  0.0639 -0.3194 -0.3025
  860MPD2    H112629   3.903   3.870  11.698 -1.2701  1.5520  0.2543
  860MPD2    H212630   4.298   3.776  11.595 -0.9184  2.4206 -1.3264
  860MPD2    H312631   4.080   3.834  11.527 -2.4648 -1.4502  0.1820
  860MPD2     N12632   3.938   3.834  11.968  0.1044 -0.1484 -0.5498
  860MPD2    H512633   3.968   3.814  12.063 -2.4294 -0.1595  0.2600
  860MPD2    N112634   4.384   3.711  11.855 -0.5614 -0.0381  0.1124
  860MPD2    H712635   4.401   3.716  11.955 -2.5613 -0.9147  0.4787
  861MPD2     C12636   3.143   2.333  10.600  0.1878 -1.3409  0.3098
  861MPD2    C112637   3.095   2.412  10.703 -0.2098  0.0137  0.6063
  861MPD2    C212638   3.020   2.519  10.674  0.0243 -0.2086 -0.1769
  861MPD2    C312639   3.000   2.563  10.544  0.4029  0.5196 -0.2589
  861MPD2    C412640   3.054   2.487  10.444 -0.2965  0.0074 -0.1721
  861MPD2    C512641   3.120   2.371  10.471  0.6968  0.4457 -0.6284
  861MPD2     H12642   2.967   2.564  10.757 -1.4157 -2.5544  0.1766
  861MPD2    H112643   3.034   2.507  10.339 -0.2336  0.8263 -0.0273
  861MPD2    H212644   3.195   2.240  10.620 -1.0987 -2.1524 -0.0819
  861MPD2    H312645   3.152   2.305  10.392  1.0039  1.6648 -1.5215
  861MPD2     N12646   2.936   2.688  10.508  0.5047  0.0132  0.2129
  861MPD2    H512647   2.939   2.723  10.413 -2.6034 -0.9408 -0.2354
  861MPD2    N112648   3.118   2.392  10.840 -0.1979 -0.0142  0.4019
  861MPD2    H712649   3.074   2.462  10.899 -0.9592  1.1640 -1.5654
  862MPD2     C12650   2.570   2.950   9.947  0.0903 -0.0761 -0.2177
  862MPD2    C112651   2.630   2.860  10.035 -0.8787 -0.0203 -0.4299
  862MPD2    C212652   2.604   2.725  10.018 -0.0129 -0.1976 -0.1763
  862MPD2    C312653   2.527   2.685   9.907 -0.0627 -0.1741 -0.4421
  862MPD2    C412654   2.476   2.771   9.818  0.1925  0.4273 -0.2557
  862MPD2    C512655   2.492   2.906   9.842  0.0250  0.2725 -0.3914
  862MPD2     H12656   2.636   2.654  10.094 -2.0132  2.0211  2.7242
  862MPD2    H112657   2.423   2.728   9.734  2.0284 -2.4571  0.0601
  862MPD2    H212658   2.585   3.056   9.962  0.0691 -0.2685  1.1679
  862MPD2    H312659   2.425   2.968   9.782 -0.2722  2.2450  1.9614
  862MPD2     N12660   2.481   2.556   9.887  0.3444 -0.2182 -0.4840
  862MPD2    H512661   2.428   2.534   9.803 -0.8219 -0.6278  0.3501
  862MPD2    N112662   2.701   2.896  10.150  0.2824  0.5091 -0.0005
  862MPD2    H712663   2.750   2.822  10.199  1.1719 -0.4277 -2.2860
  863MPD2     C12664   1.457   0.809  16.830 -0.2084 -0.2901 -0.0778
  863MPD2    C112665   1.494   0.689  16.771  0.0689  0.3604 -0.2528
  863MPD2    C212666   1.586   0.606  16.839 -0.4265 -0.0452  0.5699
  863MPD2    C312667   1.638   0.644  16.964 -0.8231 -0.4493  0.2928
  863MPD2    C412668   1.593   0.766  17.013  0.9107 -0.3216 -0.4951
  863MPD2    C512669   1.507   0.848  16.949 -0.6552  0.2285  0.2236
  863MPD2     H12670   1.618   0.510  16.799  0.5917  0.1804  0.8420
  863MPD2    H112671   1.641   0.792  17.106  1.2623 -0.2914 -0.6842
  863MPD2    H212672   1.397   0.885  16.781  0.3539 -0.5262 -1.1124
  863MPD2    H312673   1.489   0.948  16.988 -0.4662  0.7831 -1.1037
  863MPD2     N12674   1.735   0.576  17.041 -0.3138 -0.2925  0.1444
  863MPD2    H512675   1.771   0.628  17.121  3.2162  1.9685 -2.9153
  863MPD2    N112676   1.446   0.670  16.642  0.1023 -0.2785 -0.5782
  863MPD2    H712677   1.390   0.750  16.612 -0.5762 -0.8927 -0.9612
  864MPD2     C12678   1.701   1.806  17.467  0.2174  0.2098 -1.1904
  864MPD2    C112679   1.723   1.764  17.341  0.2468 -0.2315  0.1064
  864MPD2    C212680   1.748   1.861  17.246  0.3433  0.0984  0.3227
  864MPD2    C312681   1.763   1.996  17.284  0.0897  0.5804  0.4749
  864MPD2    C412682   1.761   2.031  17.412 -0.4829  0.0660 -0.3049
  864MPD2    C512683   1.722   1.935  17.499 -0.2393 -0.5103 -0.6140
  864MPD2     H12684   1.765   1.834  17.143  0.2569 -1.5732  0.7479
  864MPD2    H112685   1.781   2.133  17.443 -1.7465  0.1438  0.2249
  864MPD2    H212686   1.667   1.737  17.543  1.4622 -0.9058 -1.6490
  864MPD2    H312687   1.705   1.961  17.603 -2.0585  1.1845 -1.3280
  864MPD2     N12688   1.804   2.100  17.189 -0.9450 -0.1759  0.4259
  864MPD2    H512689   1.831   2.186  17.237  0.2855 -0.5997  0.4973
  864MPD2    N112690   1.733   1.624  17.317 -0.4186 -0.4389 -0.3707
  864MPD2    H712691   1.721   1.564  17.398  3.0027 -2.7392 -1.5527
  865MPD2     C12692   1.525   1.892  16.347  0.1443  0.2455  0.4649
  865MPD2    C112693   1.663   1.873  16.352  0.2442 -0.6794  0.0117
  865MPD2    C212694   1.729   1.947  16.442  1.0821  0.0826 -0.2096
  865MPD2    C312695   1.680   2.049  16.512  0.3450 -0.4335 -0.2517
  865MPD2    C412696   1.543   2.066  16.503  0.1916 -0.3554  0.1611
  865MPD2    C512697   1.462   1.991  16.421  0.3798 -0.1307  0.4771
  865MPD2     H12698   1.836   1.932  16.442  1.2495  1.2753 -0.3180
  865MPD2    H112699   1.487   2.138  16.562  0.6472 -0.4598  0.7221
  865MPD2    H212700   1.460   1.830  16.286  1.3002 -1.6330  1.1312
  865MPD2    H312701   1.358   2.016  16.405  0.6402 -0.6020 -1.9411
  865MPD2     N12702   1.750   2.138  16.598 -0.0630  0.1703 -0.4052
  865MPD2    H512703   1.686   2.185  16.661  0.4025 -1.8389  1.5864
  865MPD2    N112704   1.728   1.778  16.268  0.0896 -0.1307 -0.3247
  865MPD2    H712705   1.822   1.756  16.300 -0.0729  1.7973  1.4828
  866MPD2     C12706   3.790   2.629  11.389 -0.1198  0.5918  0.4356
  866MPD2    C112707   3.802   2.610  11.256 -0.5330 -0.1354  0.2892
  866MPD2    C212708   3.702   2.662  11.174 -0.4645 -0.0805 -0.2396
  866MPD2    C312709   3.592   2.733  11.229 -0.1327  0.2599  0.0439
  866MPD2    C412710   3.573   2.726  11.364  0.4643 -0.4734 -0.9949
  866MPD2    C512711   3.672   2.675  11.443 -0.3060  0.6001 -0.2147
  866MPD2     H12712   3.708   2.659  11.066 -1.9990 -2.0294 -0.2854
  866MPD2    H112713   3.481   2.759  11.410  0.1601 -2.7191 -0.0339
  866MPD2    H212714   3.864   2.588  11.457  1.1244  5.3805  1.9108
  866MPD2    H312715   3.653   2.673  11.550 -3.5941 -3.0716 -0.8440
  866MPD2     N12716   3.486   2.790  11.153 -0.1484 -0.4867  0.0008
  866MPD2    H512717   3.426   2.848  11.210  0.0504  0.2021 -0.4883
  866MPD2    N112718   3.904   2.530  11.207  0.0913 -0.3695 -0.0428
  866MPD2    H712719   3.970   2.483  11.268  0.6684  0.3758 -0.0798
  867MPD2     C12720   0.494   1.238  15.894  0.2227 -0.0693 -0.2207
  867MPD2    C112721   0.604   1.284  15.966 -0.2204  0.1418 -0.4715
  867MPD2    C212722   0.619   1.421  15.971  0.0955 -0.6482 -0.3183
  867MPD2    C312723   0.531   1.513  15.906 -0.5698 -0.1649  0.6523
  867MPD2    C412724   0.426   1.464  15.831  0.1262  0.2734  0.2446
  867MPD2    C512725   0.408   1.331  15.834  0.0871 -0.6381  0.0539
  867MPD2     H12726   0.704   1.464  16.023 -0.1420  1.1493 -1.4149
  867MPD2    H112727   0.354   1.524  15.776 -1.3271  0.5982  2.5261
  867MPD2    H212728   0.474   1.131  15.891  2.6210 -0.5144 -0.5027
  867MPD2    H312729   0.317   1.287  15.792 -0.1176  1.1242 -1.3292
  867MPD2     N12730   0.547   1.653  15.899 -0.0640  1.5776 -0.1050
  867MPD2    H512731   0.478   1.699  15.840 -0.2203 -0.6666 -1.6732
  867MPD2    N112732   0.686   1.192  16.035  0.6428 -0.1925  0.0010
  867MPD2    H712733   0.670   1.092  16.026 -1.9531  0.1117  1.1889
  868MPD2     C12734   2.517   0.748  12.881  0.1242  0.3610 -0.1748
  868MPD2    C112735   2.574   0.761  12.999  0.4998  0.4134  0.0994
  868MPD2    C212736   2.523   0.864  13.079 -0.5560  0.7374 -0.1303
  868MPD2    C312737   2.401   0.932  13.056  0.6432 -0.0947 -0.7091
  868MPD2    C412738   2.345   0.908  12.932  0.2452 -0.2933  0.1840
  868MPD2    C512739   2.402   0.815  12.848 -0.7955  0.2992  0.3360
  868MPD2     H12740   2.567   0.874  13.178 -2.3247 -0.0228  0.7430
  868MPD2    H112741   2.256   0.956  12.893  1.4232 -0.6434 -2.9081
  868MPD2    H212742   2.558   0.677  12.809  0.6209  1.6338 -1.1479
  868MPD2    H312743   2.362   0.800  12.748 -0.5895 -1.2933  0.5027
  868MPD2     N12744   2.355   1.029  13.150  0.7208  0.2825 -0.0518
  868MPD2    H512745   2.407   1.030  13.237  1.0832 -2.4253 -0.2430
  868MPD2    N112746   2.684   0.670  13.023 -0.1510 -0.0693 -0.2596
  868MPD2    H712747   2.695   0.591  12.960  1.2460 -1.7545  2.0919
  869MPD2     C12748   2.890   3.517   0.687 -0.2682 -0.0804 -0.4641
  869MPD2    C112749   2.854   3.599   0.792 -0.4520 -0.2739 -0.0621
  869MPD2    C212750   2.912   3.727   0.799 -0.2954  0.0118  0.1196
  869MPD2    C312751   3.016   3.760   0.713 -0.1097 -0.4470  0.4132
  869MPD2    C412752   3.059   3.673   0.619 -0.3715  0.9030 -0.3506
  869MPD2    C512753   2.984   3.562   0.597 -0.5215 -0.0089 -0.1478
  869MPD2     H12754   2.891   3.790   0.884 -3.6941 -1.5585  0.4450
  869MPD2    H112755   3.147   3.696   0.559  0.7741 -1.1925  0.5041
  869MPD2    H212756   2.850   3.420   0.660  0.0140  0.3551 -2.4647
  869MPD2    H312757   3.012   3.499   0.513  1.4905 -1.6219  1.7656
  869MPD2     N12758   3.082   3.884   0.718  0.1464 -0.0160 -0.2793
  869MPD2    H512759   3.167   3.882   0.663 -0.3048  0.6359 -1.0002
  869MPD2    N112760   2.750   3.549   0.885 -1.1186 -0.8863 -0.0938
  869MPD2    H712761   2.731   3.450   0.871 -2.4961 -0.5831 -0.3589
  870MPD2     C12762   3.156   3.153   1.604  0.1305 -0.4399  0.0604
  870MPD2    C112763   3.290   3.118   1.596 -0.4212  0.5832 -0.5042
  870MPD2    C212764   3.373   3.184   1.510 -0.1981  0.3496 -0.8386
  870MPD2    C312765   3.327   3.291   1.441  0.2210 -0.3573 -0.6854
  870MPD2    C412766   3.198   3.322   1.443 -0.1158 -0.2034  0.3172
  870MPD2    C512767   3.111   3.261   1.537 -0.3264  0.3413 -0.1820
  870MPD2     H12768   3.476   3.151   1.500 -0.1197  0.2367  0.4170
  870MPD2    H112769   3.155   3.411   1.399 -1.1099 -1.1677 -0.6611
  870MPD2    H212770   3.084   3.100   1.664  0.4784 -0.7141  0.2378
  870MPD2    H312771   3.005   3.283   1.534 -0.2760  0.5514 -0.4392
  870MPD2     N12772   3.419   3.374   1.362 -0.3769 -0.1762  0.1006
  870MPD2    H512773   3.511   3.332   1.357 -0.5542 -0.6637  0.9383
  870MPD2    N112774   3.320   3.011   1.685 -0.2432  0.9587  0.5365
  870MPD2    H712775   3.250   2.977   1.750 -0.8832  2.2780  0.5377
  871MPD2     C12776   3.813   2.049  16.335 -0.4381  0.1909 -0.1948
  871MPD2    C112777   3.902   2.006  16.422 -0.3003 -0.0659  0.2379
  871MPD2    C212778   3.980   1.899  16.393 -0.2230  0.0670 -0.4557
  871MPD2    C312779   3.988   1.848  16.268 -0.1589 -0.2095 -0.7999
  871MPD2    C412780   3.904   1.891  16.171 -0.6359 -0.1313  0.5133
  871MPD2    C512781   3.811   1.985  16.211 -0.1663 -0.1654 -0.3287
  871MPD2     H12782   4.046   1.849  16.464  0.3487 -0.7304 -1.5520
  871MPD2    H112783   3.900   1.839  16.076  0.1753 -2.2610  1.6513
  871MPD2    H212784   3.752   2.135  16.362  0.4953  0.4500  1.0813
  871MPD2    H312785   3.732   2.023  16.147  0.6118 -0.4670 -1.4636
  871MPD2     N12786   4.065   1.731  16.249  0.1626 -0.3564  0.1736
  871MPD2    H512787   4.117   1.689  16.325  0.5760 -1.3060 -0.6308
  871MPD2    N112788   3.902   2.083  16.540  0.0020  0.2081  0.0392
  871MPD2    H712789   3.825   2.149  16.549  0.9671  1.7379 -2.9017
  872MPD2     C12790   0.428   0.039  13.904  0.0472 -0.0744  0.4599
  872MPD2    C112791   0.442   4.626  13.912 -1.2132 -0.2404  0.5975
  872MPD2    C212792   0.338   4.548  13.954 -0.2679  0.1517  0.8613
  872MPD2    C312793   0.224   4.614  14.006 -0.0907  0.4659 -0.1221
  872MPD2    C412794   0.217   0.021  14.012 -0.3553 -0.4481 -0.0158
  872MPD2    C512795   0.322   0.098  13.966 -0.1326  0.0051 -0.4262
  872MPD2     H12796   0.354   4.441  13.958 -0.4478  0.1626  1.9295
  872MPD2    H112797   0.125   0.070  14.042  1.1118  1.4639  1.3983
  872MPD2    H212798   0.503   0.092  13.847  1.2214 -2.8551 -0.6021
  872MPD2    H312799   0.309   0.205  13.956  1.0713  0.4489  2.5110
  872MPD2     N12800   0.117   4.540  14.065 -0.0940 -0.3382 -0.6762
  872MPD2    H512801   0.064   4.595  14.132  0.0958 -1.0075  0.0216
  872MPD2    N112802   0.555   4.569  13.851  0.0406 -0.1970  0.0090
  872MPD2    H712803   0.557   4.468  13.841  1.0475 -0.0608 -1.1311
  873MPD2     C12804   2.129   4.206   1.355  0.2645  0.6693 -0.0839
  873MPD2    C112805   1.994   4.209   1.343  0.2319 -0.5142 -0.4562
  873MPD2    C212806   1.924   4.093   1.329 -0.2317  0.6902 -0.1122
  873MPD2    C312807   1.995   3.976   1.307  0.5457  0.1333 -0.5468
  873MPD2    C412808   2.132   3.978   1.311 -0.3051 -0.4357  0.9100
  873MPD2    C512809   2.194   4.087   1.353 -0.7263 -0.3404  0.3659
  873MPD2     H12810   1.818   4.091   1.308  0.4867 -3.7642 -3.2677
  873MPD2    H112811   2.193   3.890   1.293 -0.5982 -0.6666  1.0456
  873MPD2    H212812   2.185   4.296   1.380  3.4407 -1.5118  0.6345
  873MPD2    H312813   2.296   4.074   1.386 -0.3524  3.5718  0.7325
  873MPD2     N12814   1.931   3.855   1.263  0.1323  0.5018  0.6512
  873MPD2    H512815   1.990   3.788   1.213 -1.1378 -0.5494  0.5653
  873MPD2    N112816   1.932   4.335   1.342 -0.1128  0.1698 -0.4494
  873MPD2    H712817   1.994   4.414   1.358 -2.9596  1.9045  1.9258
  874MPD2     C12818   2.052   4.549  16.046  0.0691 -0.0290 -0.3267
  874MPD2    C112819   2.075   4.601  16.174  0.2531  0.4863 -0.1897
  874MPD2    C212820   2.166   4.706  16.185 -0.0790 -0.4469  0.1026
  874MPD2    C312821   2.237   0.024  16.074 -0.1689  0.0978 -0.3872
  874MPD2    C412822   2.218   4.690  15.957  0.5823  0.1116 -0.3275
  874MPD2    C512823   2.126   4.591  15.939 -0.4807  0.8082  0.2222
  874MPD2     H12824   2.183   0.033  16.280  1.2002 -0.9613  0.1471
  874MPD2    H112825   2.275   4.716  15.869  0.3623 -1.1405 -0.8500
  874MPD2    H212826   1.970   4.480  16.026  2.3775 -2.3911 -1.5905
  874MPD2    H312827   2.099   4.569  15.837 -3.0070 -1.3451  1.3585
  874MPD2     N12828   2.336   0.118  16.098  0.1590  0.6265 -0.6653
  874MPD2    H512829   2.321   0.154  16.191  0.7742  1.1426 -0.7642
  874MPD2    N112830   2.007   4.541  16.280  0.2529  0.3476 -0.1448
  874MPD2    H712831   1.936   4.473  16.255  0.3883  0.1938 -0.1067
  875MPD2     C12832   3.120   2.773  14.752  0.4178  0.1303  0.4576
  875MPD2    C112833   2.984   2.778  14.758  0.1649  1.2906  0.3100
  875MPD2    C212834   2.922   2.817  14.882  0.1857  0.1965  1.1048
  875MPD2    C312835   2.998   2.840  14.998 -0.0402 -0.5076 -0.9282
  875MPD2    C412836   3.135   2.832  14.981 -0.4832 -0.1015  0.4203
  875MPD2    C512837   3.193   2.810  14.860 -0.1773 -0.6777  0.5289
  875MPD2     H12838   2.814   2.819  14.882  0.2097  1.6785  0.8544
  875MPD2    H112839   3.192   2.862  15.068  0.7617  1.3605 -0.9184
  875MPD2    H212840   3.171   2.743  14.661 -0.1287  0.0686  0.1755
  875MPD2    H312841   3.301   2.801  14.857 -0.0329  1.8163 -1.5408
  875MPD2     N12842   2.950   2.880  15.128 -0.2262 -0.0372 -0.2571
  875MPD2    H512843   3.020   2.887  15.201  0.0114  0.8640 -0.5749
  875MPD2    N112844   2.899   2.748  14.644 -0.3734 -0.0035  0.1105
  875MPD2    H712845   2.798   2.746  14.655 -0.2546 -1.0248  0.9611
  876MPD2     C12846   2.564   3.693  16.132  0.2060 -0.1834 -0.2014
  876MPD2    C112847   2.446   3.697  16.068 -0.1362 -0.3175  0.0592
  876MPD2    C212848   2.369   3.586  16.063 -0.7963 -0.2517 -0.1939
  876MPD2    C312849   2.405   3.464  16.117  0.4823  0.6797 -0.5259
  876MPD2    C412850   2.524   3.461  16.182 -0.2491  0.4275 -0.5432
  876MPD2    C512851   2.604   3.570  16.185  0.4825 -0.3783  0.0359
  876MPD2     H12852   2.273   3.596  16.013 -0.5308  0.2349 -0.6097
  876MPD2    H112853   2.562   3.370  16.227 -0.0618  0.3043 -0.9514
  876MPD2    H212854   2.635   3.775  16.131  0.1016 -0.1017 -1.3469
  876MPD2    H312855   2.696   3.559  16.241  0.4162 -0.3823  0.1438
  876MPD2     N12856   2.323   3.355  16.098 -0.4069 -0.0102 -0.6735
  876MPD2    H512857   2.245   3.360  16.034 -1.4110  1.3442  0.6608
  876MPD2    N112858   2.413   3.810  15.997  0.0112 -0.1065  0.3824
  876MPD2    H712859   2.491   3.875  15.988  0.7718 -0.8556  1.6109
  877MPD2     C12860   1.787   4.387  15.780  0.2924 -0.5443 -0.1731
  877MPD2    C112861   1.846   4.300  15.690 -0.4981  0.3499 -0.4999
  877MPD2    C212862   1.803   4.299  15.561  0.5720 -0.7445  0.0613
  877MPD2    C312863   1.711   4.387  15.513  0.9270  0.2160 -0.2274
  877MPD2    C412864   1.665   4.485  15.592  0.3683 -0.2089  0.3043
  877MPD2    C512865   1.696   4.479  15.729  0.7573 -0.5961 -0.0804
  877MPD2     H12866   1.845   4.219  15.502  0.1817 -0.3443 -0.7494
  877MPD2    H112867   1.590   4.557  15.559  0.0557 -0.2080  1.0117
  877MPD2    H212868   1.795   4.375  15.887  0.1928 -0.8631 -0.2023
  877MPD2    H312869   1.648   4.549  15.796 -2.2721 -2.1107 -0.6577
  877MPD2     N12870   1.671   4.385  15.379  0.3889  0.0069  0.1536
  877MPD2    H512871   1.618   4.463  15.342 -0.0915 -0.1124  0.5907
  877MPD2    N112872   1.961   4.222  15.735  0.2848  0.1985 -0.0872
  877MPD2    H712873   2.002   4.165  15.663  0.6855  1.8783 -1.1941
  878MPD2     C12874   1.825   4.099  13.412 -0.0857 -0.0227 -0.8861
  878MPD2    C112875   1.898   4.199  13.468 -0.1087 -0.2364  0.4567
  878MPD2    C212876   1.832   4.295  13.543  0.2922 -0.0135  0.4436
  878MPD2    C312877   1.697   4.293  13.564  0.2017 -0.1042 -0.3292
  878MPD2    C412878   1.627   4.199  13.488 -0.1155 -0.3045  0.5771
  878MPD2    C512879   1.687   4.101  13.415  0.2086  0.8568  0.2663
  878MPD2     H12880   1.891   4.375  13.588  1.6440 -0.0639 -1.2535
  878MPD2    H112881   1.522   4.208  13.465 -0.1094  1.3581  1.2044
  878MPD2    H212882   1.875   4.020  13.356  0.5258 -1.3751  1.5854
  878MPD2    H312883   1.620   4.033  13.363 -0.7905  1.2541  1.0357
  878MPD2     N12884   1.634   4.404  13.639 -0.0562 -0.2194  0.3420
  878MPD2    H512885   1.687   4.484  13.671 -1.2725  0.4441  0.7036
  878MPD2    N112886   2.039   4.195  13.435 -0.4873 -0.0096  0.2159
  878MPD2    H712887   2.076   4.111  13.392 -0.2502  0.7758 -1.1306
  879MPD2     C12888   2.201   0.941  17.141 -0.1885  0.0821  0.3344
  879MPD2    C112889   2.273   0.828  17.166 -0.0709 -0.0825 -0.3750
  879MPD2    C212890   2.249   0.712  17.097  0.5841  0.0011 -0.8495
  879MPD2    C312891   2.158   0.713  16.992 -0.2830  0.5505  0.1125
  879MPD2    C412892   2.080   0.826  16.975 -1.1818  0.2916  0.4039
  879MPD2    C512893   2.105   0.937  17.045  0.3650  0.0157 -0.3720
  879MPD2     H12894   2.302   0.621  17.121 -1.9828 -1.1474  0.4572
  879MPD2    H112895   2.004   0.826  16.898 -1.2300  1.2471  0.4546
  879MPD2    H212896   2.214   1.032  17.198  1.5836 -1.2205  2.0104
  879MPD2    H312897   2.041   1.024  17.031  0.7962  0.0939 -1.7803
  879MPD2     N12898   2.139   0.607  16.903 -0.3227 -0.8283  0.6160
  879MPD2    H512899   2.068   0.622  16.832  0.8722  1.3836 -0.1470
  879MPD2    N112900   2.353   0.834  17.285 -0.1084 -0.3250 -0.1828
  879MPD2    H712901   2.337   0.907  17.353 -0.8621 -0.8206  0.1712
  880MPD2     C12902   3.679   2.569   0.055 -0.4740 -0.5419 -0.8058
  880MPD2    C112903   3.731   2.585   0.182 -0.0556 -0.2738  0.2363
  880MPD2    C212904   3.752   2.478   0.264  0.1315  0.2542  0.1408
  880MPD2    C312905   3.727   2.348   0.220 -0.0334  0.1964  0.1845
  880MPD2    C412906   3.684   2.332   0.094 -0.3050 -0.0309 -0.2219
  880MPD2    C512907   3.660   2.441   0.012  0.1166  0.5262 -0.0277
  880MPD2     H12908   3.784   2.495   0.366 -0.9735  0.2201  0.5040
  880MPD2    H112909   3.658   2.239   0.046 -1.4463  1.4639 -2.4968
  880MPD2    H212910   3.663   2.647  17.679  0.3349  1.3879  1.1164
  880MPD2    H312911   3.635   2.415  17.607  3.9269 -2.2726 -0.2779
  880MPD2     N12912   3.751   2.250   0.315 -0.3051 -0.2275 -0.4609
  880MPD2    H512913   3.782   2.273   0.409  0.8307  0.5811 -1.0261
  880MPD2    N112914   3.764   2.720   0.221 -0.1378  0.2899 -0.3428
  880MPD2    H712915   3.751   2.788   0.147  2.3703 -0.0657 -1.1153
  881MPD2     C12916   4.249   3.456  17.466  0.0553 -0.1610  0.5134
  881MPD2    C112917   4.148   3.372  17.436  0.9655 -0.3607  1.3990
  881MPD2    C212918   4.102   3.295  17.539 -0.0874 -0.3095 -0.1742
  881MPD2    C312919   4.134   3.324  17.671  0.3010  0.1625  0.8054
  881MPD2    C412920   4.221   3.426   0.003 -0.5859 -0.5648 -0.0175
  881MPD2    C512921   4.273   3.491  17.592 -0.8469 -0.1300 -0.6758
  881MPD2     H12922   4.039   3.211  17.510 -3.2596  2.5901 -1.5934
  881MPD2    H112923   4.232   3.473   0.101 -1.0737  1.7971 -1.0880
  881MPD2    H212924   4.298   3.511  17.387 -0.9737 -0.1148 -0.0782
  881MPD2    H312925   4.335   3.580  17.600 -1.0082 -0.2092  1.5843
  881MPD2     N12926   4.085   3.252   0.090  0.2231 -0.0000  0.1988
  881MPD2    H512927   4.133   3.275   0.176 -0.1394  0.1827  0.3537
  881MPD2    N112928   4.141   3.333  17.301 -0.3262  0.7025 -0.1016
  881MPD2    H712929   4.211   3.364  17.234 -0.2093 -0.5357 -0.5421
  882MPD2     C12930   1.469   0.075  14.907  0.1657  0.2713  0.3397
  882MPD2    C112931   1.464   4.675  14.848 -0.6166  0.0103  0.1195
  882MPD2    C212932   1.434   4.664  14.714  0.1045 -0.1854 -0.5806
  882MPD2    C312933   1.416   0.048  14.628 -0.1600  0.4783 -0.0108
  882MPD2    C412934   1.432   0.171  14.686 -0.4459 -0.1855  0.1327
  882MPD2    C512935   1.456   0.183  14.820 -0.1015  0.3400 -0.4566
  882MPD2     H12936   1.418   4.570  14.663  1.4016 -0.1171 -1.1322
  882MPD2    H112937   1.425   0.261  14.625  1.9100  1.1520  1.8275
  882MPD2    H212938   1.490   0.088  15.013 -3.3059  0.7283  0.9909
  882MPD2    H312939   1.475   0.282  14.859 -1.5408  0.4266  0.0141
  882MPD2     N12940   1.383   0.040  14.493 -0.2721 -0.2480 -0.1150
  882MPD2    H512941   1.370   0.124  14.438  0.8795 -1.0844 -1.6463
  882MPD2    N112942   1.482   4.559  14.918  0.2119  0.1668 -0.3655
  882MPD2    H712943   1.517   4.567  15.014  2.3671 -2.3010 -0.9189
  883MPD2     C12944   3.803   0.222  16.135  0.1798 -0.0817 -0.7535
  883MPD2    C112945   3.900   0.169  16.054  0.2942  0.4025 -0.8879
  883MPD2    C212946   4.032   0.165  16.107 -0.5584  0.5769 -0.2215
  883MPD2    C312947   4.054   0.210  16.236 -0.2923  0.5587  0.2005
  883MPD2    C412948   3.942   0.262  16.312  0.0849  0.1989  0.2436
  883MPD2    C512949   3.823   0.277  16.260  0.3451  0.5046 -0.1613
  883MPD2     H12950   4.112   0.116  16.052 -0.3323  0.8265 -0.1186
  883MPD2    H112951   3.961   0.299  16.412 -4.3054 -1.1099  1.5825
  883MPD2    H212952   3.701   0.236  16.103  0.3870  1.6765 -0.6825
  883MPD2    H312953   3.741   0.317  16.320  0.4020  1.1560 -0.5162
  883MPD2     N12954   4.190   0.191  16.278 -0.0183  0.2397 -0.4162
  883MPD2    H512955   4.250   0.137  16.217  1.3703 -0.8160  1.8644
  883MPD2    N112956   3.875   0.096  15.936 -0.4091 -0.1824 -0.7742
  883MPD2    H712957   3.948   0.054  15.880 -1.2469 -1.3579 -1.0012
  884MPD2     C12958   1.098   0.701  15.473 -0.1967  0.2413  0.1645
  884MPD2    C112959   1.090   0.824  15.411 -0.7737 -0.5971 -0.4548
  884MPD2    C212960   0.959   0.871  15.382 -0.2578 -0.9301 -0.0315
  884MPD2    C312961   0.844   0.792  15.411  0.5414  0.0933  0.2832
  884MPD2    C412962   0.858   0.661  15.449 -0.0191  0.2642  0.1384
  884MPD2    C512963   0.984   0.618  15.491 -0.2172 -0.0186  0.7622
  884MPD2     H12964   0.949   0.971  15.341  0.6976 -0.5173  0.7241
  884MPD2    H112965   0.780   0.586  15.458 -0.2941  0.4193 -0.9321
  884MPD2    H212966   1.196   0.671  15.508 -0.0318  1.9120  1.1731
  884MPD2    H312967   0.992   0.517  15.529 -1.9909 -0.8899 -1.1308
  884MPD2     N12968   0.719   0.847  15.376  0.6914 -0.4854 -0.5983
  884MPD2    H512969   0.729   0.941  15.341 -1.7878  0.4819  1.3070
  884MPD2    N112970   1.203   0.899  15.372 -0.3437 -0.4098  0.4704
  884MPD2    H712971   1.196   0.996  15.343  1.6074 -0.7484 -1.2144
  885MPD2     C12972   4.167   1.022   0.393 -0.4640  0.2165  0.0653
  885MPD2    C112973   4.204   0.897   0.344  0.3151  0.4662  0.1297
  885MPD2    C212974   4.214   0.879   0.207  0.1907  0.5772 -0.4300
  885MPD2    C312975   4.176   0.988   0.122  0.3419  0.5386 -0.0642
  885MPD2    C412976   4.155   1.117   0.175 -0.2684 -0.2829  0.0979
  885MPD2    C512977   4.147   1.126   0.311  0.4487 -0.0116 -0.2260
  885MPD2     H12978   4.251   0.788   0.160 -0.8178  0.3497 -0.7760
  885MPD2    H112979   4.141   1.200   0.107 -0.7944 -1.2563 -0.9932
  885MPD2    H212980   4.156   1.032   0.501  1.9424 -1.0670  0.4268
  885MPD2    H312981   4.121   1.220   0.358  0.3958 -0.3306  0.3797
  885MPD2     N12982   4.164   0.972  17.673 -0.4863  0.2865 -0.5499
  885MPD2    H512983   4.211   0.893  17.630 -1.0539 -0.1877 -0.3074
  885MPD2    N112984   4.209   0.789   0.434 -0.7357  0.4951 -0.1682
  885MPD2    H712985   4.189   0.813   0.531  0.5817 -0.3640  0.3209
  886MPD2     C12986   1.004   3.744  14.906 -0.4100 -0.2176  0.5183
  886MPD2    C112987   1.035   3.768  15.038  0.1115  0.1275 -0.8667
  886MPD2    C212988   0.995   3.884  15.097 -0.1013 -0.3636 -0.1867
  886MPD2    C312989   0.911   3.972  15.032  0.8357  0.2823 -0.2616
  886MPD2    C412990   0.880   3.945  14.899 -0.0433  0.2749  0.2003
  886MPD2    C512991   0.932   3.835  14.835  0.0218  0.2859 -0.3881
  886MPD2     H12992   1.031   3.903  15.198  0.8291 -0.7236 -0.4569
  886MPD2    H112993   0.812   4.009  14.843  3.3262  2.7828 -0.9695
  886MPD2    H212994   1.021   3.646  14.864 -0.7091 -0.0811  0.0746
  886MPD2    H312995   0.888   3.797  14.744  0.4198 -1.6129  0.2174
  886MPD2     N12996   0.860   4.093  15.093  0.4469 -0.5074  0.7656
  886MPD2    H512997   0.826   4.161  15.026 -0.7340 -0.9776  0.8972
  886MPD2    N112998   1.112   3.677  15.116  0.4061  0.5817 -0.2133
  886MPD2    H712999   1.122   3.695  15.215 -0.7937 -2.0682  0.3897
  887MPD2     C13000   1.516   3.868  15.627 -0.1896  0.1811  0.4500
  887MPD2    C113001   1.411   3.880  15.537 -0.0009  0.4089 -0.4171
  887MPD2    C213002   1.356   4.005  15.508 -0.4480 -0.0913 -0.3752
  887MPD2    C313003   1.405   4.116  15.581  0.0004  0.6935  0.5584
  887MPD2    C413004   1.508   4.100  15.675  0.1462  0.1032  0.0093
  887MPD2    C513005   1.566   3.977  15.694 -0.1849 -0.0722  0.5411
  887MPD2     H13006   1.269   4.018  15.443 -0.9998 -2.4631 -0.1044
  887MPD2    H113007   1.561   4.182  15.721 -0.1511 -0.0568  0.6334
  887MPD2    H213008   1.572   3.778  15.649  1.8681  1.1079 -0.8704
  887MPD2    H313009   1.653   3.967  15.759  0.2036 -0.1467  0.0119
  887MPD2     N13010   1.346   4.240  15.548 -0.1914 -0.1486 -0.1574
  887MPD2    H513011   1.311   4.244  15.453  0.7007  0.2322 -0.4704
  887MPD2    N113012   1.364   3.767  15.459 -0.2060 -0.0895 -0.2615
  887MPD2    H713013   1.311   3.793  15.377 -1.3779 -0.8865  0.2490
  888MPD2     C13014   2.777   3.813  15.148  0.2273  0.0622  0.2782
  888MPD2    C113015   2.815   3.877  15.263 -0.6472 -0.2458  0.2334
  888MPD2    C213016   2.877   4.006  15.253 -0.4688 -0.1024  0.6400
  888MPD2    C313017   2.898   4.069  15.135 -0.4073 -0.6036 -0.0091
  888MPD2    C413018   2.870   3.992  15.019  0.1052  0.2458  0.2913
  888MPD2    C513019   2.799   3.872  15.025 -0.1547  0.4677 -0.6280
  888MPD2     H13020   2.898   4.059  15.345  0.7130 -3.9237  2.5642
  888MPD2    H113021   2.879   4.042  14.924 -1.4478  1.1358  0.6031
  888MPD2    H213022   2.722   3.720  15.146  1.5563 -0.7660  2.4197
  888MPD2    H313023   2.771   3.823  14.933  0.5998  2.3330 -1.8338
  888MPD2     N13024   2.944   4.202  15.145 -0.7215 -0.3052  0.2636
  888MPD2    H513025   2.933   4.245  15.237 -0.9019  1.2120 -0.4562
  888MPD2    N113026   2.801   3.821  15.390 -0.3629  0.1201 -0.0431
  888MPD2    H713027   2.804   3.887  15.467  0.7613 -0.5515  0.4960
  889MPD2     C13028   2.266   3.703  12.750  0.0665 -0.0601  0.1463
  889MPD2    C113029   2.342   3.665  12.865 -0.1550  0.8967 -0.5913
  889MPD2    C213030   2.447   3.743  12.909 -0.1961  0.1167 -0.6001
  889MPD2    C313031   2.454   3.878  12.870  0.6222 -0.7859 -0.7385
  889MPD2    C413032   2.371   3.924  12.773  0.3354  0.0439 -0.3960
  889MPD2    C513033   2.280   3.839  12.709  0.1325 -0.4649  0.6747
  889MPD2     H13034   2.512   3.708  12.988  1.3375  1.0202 -1.4556
  889MPD2    H113035   2.376   4.023  12.729  1.6230  0.6886  1.2310
  889MPD2    H213036   2.187   3.638  12.713 -0.7199  0.4744  0.8747
  889MPD2    H313037   2.215   3.876  12.630  0.3575 -1.5619 -0.0295
  889MPD2     N13038   2.536   3.969  12.938  0.5997 -0.0070 -0.3168
  889MPD2    H513039   2.596   3.921  13.005 -0.3460 -1.4921 -0.5337
  889MPD2    N113040   2.346   3.533  12.907  0.0538  0.1657 -0.3236
  889MPD2    H713041   2.419   3.519  12.977 -0.9324 -0.9509  0.4790
  890MPD2     C13042   2.179   1.108  14.672  0.1187 -0.3335  0.4995
  890MPD2    C113043   2.085   1.116  14.572  0.0187  0.2605  0.0618
  890MPD2    C213044   1.955   1.075  14.599 -0.0787 -0.0003 -0.1220
  890MPD2    C313045   1.926   1.024  14.727  0.4230  0.5659  1.2542
  890MPD2    C413046   2.022   1.016  14.823 -0.1460  0.8496  0.1578
  890MPD2    C513047   2.145   1.057  14.794 -0.3621 -0.2772 -0.0175
  890MPD2     H13048   1.879   1.070  14.523 -0.3646  0.3116  0.1444
  890MPD2    H113049   2.000   0.972  14.920 -1.2455  0.8563 -0.0924
  890MPD2    H213050   2.281   1.144  14.660 -0.3662  1.2644  1.1763
  890MPD2    H313051   2.223   1.055  14.870  1.8315  0.0325 -2.2647
  890MPD2     N13052   1.803   0.948  14.755 -0.1468 -0.0770 -0.8502
  890MPD2    H513053   1.804   0.903  14.846 -2.2012  2.5763  0.4534
  890MPD2    N113054   2.135   1.163  14.453  0.1982  0.2143 -0.7068
  890MPD2    H713055   2.223   1.212  14.466  1.2948 -1.9591  0.0545
  891MPD2     C13056   0.371   4.130  16.057 -0.3460 -0.1576  0.1679
  891MPD2    C113057   0.315   4.142  16.186  0.5496  0.4224 -0.1340
  891MPD2    C213058   0.408   4.129  16.288 -0.5082  0.6038 -0.4716
  891MPD2    C313059   0.546   4.127  16.264  0.3151 -0.3294  0.4235
  891MPD2    C413060   0.587   4.122  16.138 -0.0362 -0.5028  0.9204
  891MPD2    C513061   0.502   4.114  16.038 -0.2535  0.5054  0.3232
  891MPD2     H13062   0.375   4.128  16.392 -1.8469 -0.6639 -0.9166
  891MPD2    H113063   0.694   4.126  16.121 -0.2264 -0.4752 -0.3260
  891MPD2    H213064   0.305   4.124  15.971 -0.3203 -0.7935  0.1894
  891MPD2    H313065   0.540   4.102  15.937 -1.0032  0.6263  0.0216
  891MPD2     N13066   0.634   4.135  16.382  0.1683 -0.4816  0.4452
  891MPD2    H513067   0.585   4.148  16.470 -3.2848 -0.0957 -1.5408
  891MPD2    N113068   0.170   4.141  16.196 -0.7056  0.8027 -0.1643
  891MPD2    H713069   0.120   4.131  16.108 -2.0420  1.5166  0.5220
  892MPD2     C13070   1.322   0.563  14.596 -0.2171 -0.3556  0.0877
  892MPD2    C113071   1.209   0.509  14.537 -0.5747 -0.2249 -0.4128
  892MPD2    C213072   1.227   0.436  14.420  0.3400 -0.2059 -0.3837
  892MPD2    C313073   1.353   0.408  14.367  0.8718 -0.1628 -0.3246
  892MPD2    C413074   1.458   0.477  14.428  0.1387 -0.2757 -0.0790
  892MPD2    C513075   1.448   0.555  14.534  0.0488  0.0771  0.0427
  892MPD2     H13076   1.138   0.395  14.374  0.3412 -1.7084  0.9495
  892MPD2    H113077   1.557   0.481  14.383 -0.6740 -0.4404 -1.8702
  892MPD2    H213078   1.312   0.617  14.689 -1.9702  0.5825 -0.6429
  892MPD2    H313079   1.532   0.602  14.583 -0.2519 -1.3529  1.9202
  892MPD2     N13080   1.370   0.315  14.258 -0.0525 -0.1152 -0.3143
  892MPD2    H513081   1.462   0.300  14.218 -0.8437 -1.3105 -1.6774
  892MPD2    N113082   1.076   0.503  14.596  0.2803  0.2936  0.0883
  892MPD2    H713083   0.996   0.474  14.540  1.0046 -0.9114 -0.3341
  893MPD2     C13084   3.338   2.947   2.223 -0.2968  0.3806 -0.1148
  893MPD2    C113085   3.434   3.017   2.150 -0.7726 -0.6058 -0.5966
  893MPD2    C213086   3.564   2.996   2.177  0.6281 -0.8433  0.2908
  893MPD2    C313087   3.596   2.905   2.279 -0.8924 -0.6794 -0.0870
  893MPD2    C413088   3.499   2.832   2.351 -0.2877  0.3725 -0.0329
  893MPD2    C513089   3.371   2.862   2.323  0.2573 -0.7653  0.7686
  893MPD2     H13090   3.640   3.043   2.115 -1.0778 -0.1922 -1.2726
  893MPD2    H113091   3.525   2.759   2.426  0.2958 -2.8269 -3.3715
  893MPD2    H213092   3.233   2.957   2.198 -0.5176  1.4442  1.2597
  893MPD2    H313093   3.291   2.807   2.371 -1.8312  0.7959 -0.9432
  893MPD2     N13094   3.735   2.877   2.301  0.3309 -0.1173 -0.0210
  893MPD2    H513095   3.745   2.816   2.381 -2.0233  0.0719  0.4353
  893MPD2    N113096   3.373   3.116   2.059 -0.1971  0.0524 -0.5183
  893MPD2    H713097   3.274   3.128   2.043  0.0598  2.1286 -0.6086
  894MPD2     C13098   0.955   1.298   0.241  0.2012 -0.2119  0.3024
  894MPD2    C113099   0.877   1.293   0.355  0.0337 -0.0611  0.6933
  894MPD2    C213100   0.811   1.401   0.397 -0.8015  0.0476  0.1941
  894MPD2    C313101   0.786   1.505   0.301  0.0253  0.5677  0.2235
  894MPD2    C413102   0.849   1.502   0.179  0.3231 -0.2903  0.0156
  894MPD2    C513103   0.949   1.408   0.152  0.8685 -0.0221 -0.0007
  894MPD2     H13104   0.769   1.403   0.497 -1.9327 -3.2834 -0.2385
  894MPD2    H113105   0.842   1.586   0.111 -0.7728  0.2439  0.7779
  894MPD2    H213106   1.023   1.220   0.211  0.5913 -0.0884  0.8839
  894MPD2    H313107   1.007   1.418   0.062  0.3968 -0.5331 -0.3618
  894MPD2     N13108   0.699   1.610   0.340 -0.1253  0.0802 -0.1250
  894MPD2    H513109   0.668   1.601   0.437 -0.2929 -0.6280 -0.2420
  894MPD2    N113110   0.873   1.180   0.439 -0.1946  0.3589  0.1629
  894MPD2    H713111   0.835   1.192   0.532 -0.3282 -3.4191  0.5974
  895MPD2     C13112   0.649   2.731  13.963  0.6657  0.4984 -0.0306
  895MPD2    C113113   0.537   2.799  13.910 -0.4363 -0.0690  0.0707
  895MPD2    C213114   0.415   2.753  13.941 -0.2936 -0.7810 -0.3015
  895MPD2    C313115   0.388   2.640  14.017 -0.0558 -0.2446 -0.2317
  895MPD2    C413116   0.499   2.585  14.071 -0.4868  0.4574 -0.5431
  895MPD2    C513117   0.630   2.623  14.042  0.0469  0.3247  0.0244
  895MPD2     H13118   0.333   2.821  13.921  0.5855  0.0591 -1.1031
  895MPD2    H113119   0.493   2.497  14.134  1.7007 -0.9061 -2.2265
  895MPD2    H213120   0.751   2.764  13.953  1.2375 -1.4391 -0.7021
  895MPD2    H313121   0.718   2.586  14.094  0.4640 -0.0432 -0.9519
  895MPD2     N13122   0.263   2.582  14.047 -0.3334  0.4801  0.1927
  895MPD2    H513123   0.270   2.503  14.109 -0.5332 -0.0087 -0.4017
  895MPD2    N113124   0.555   2.924  13.855  0.2332  0.1587  0.7322
  895MPD2    H713125   0.470   2.978  13.839 -0.7344 -1.3400  0.7987
  896MPD2     C13126   2.202   2.459   1.668  0.1295 -0.3067 -0.0895
  896MPD2    C113127   2.222   2.404   1.540  0.0322  0.6733 -0.2148
  896MPD2    C213128   2.110   2.365   1.467  0.4945 -0.1762 -0.1152
  896MPD2    C313129   1.991   2.379   1.526 -0.5273 -0.5708 -0.3562
  896MPD2    C413130   1.974   2.433   1.653 -0.4090  0.6233  0.5003
  896MPD2    C513131   2.083   2.472   1.724  0.0107 -0.0690 -0.7994
  896MPD2     H13132   2.114   2.315   1.371 -2.2345 -0.5592 -0.0392
  896MPD2    H113133   1.882   2.425   1.710  0.0683  3.1885  1.6242
  896MPD2    H213134   2.293   2.490   1.719 -0.5396  0.9700  0.3279
  896MPD2    H313135   2.071   2.512   1.824 -0.8046 -0.2134 -0.8397
  896MPD2     N13136   1.874   2.329   1.455  0.5611  0.5566  0.6759
  896MPD2    H513137   1.887   2.272   1.372 -0.5302  2.2530 -0.6406
  896MPD2    N113138   2.355   2.401   1.489  0.0144  0.0870  0.4970
  896MPD2    H713139   2.429   2.422   1.556  0.6684  0.6529 -0.4086
  897MPD2     C13140   4.129   3.144  10.471 -0.2107  0.7402  0.1166
  897MPD2    C113141   4.058   3.256  10.487  0.1553 -0.2571  0.1720
  897MPD2    C213142   3.920   3.249  10.499 -0.4811 -0.2859 -0.0380
  897MPD2    C313143   3.863   3.126  10.523  0.0612  0.1348  0.5690
  897MPD2    C413144   3.939   3.015  10.506  0.0258  0.2859  0.6109
  897MPD2    C513145   4.070   3.019  10.480 -0.1578 -0.8626  0.2550
  897MPD2     H13146   3.869   3.341  10.525  0.1030  0.4773 -1.5893
  897MPD2    H113147   3.891   2.919  10.522 -1.1764  1.2461  2.6944
  897MPD2    H213148   4.237   3.139  10.464 -0.3535  0.4825 -1.9634
  897MPD2    H313149   4.124   2.925  10.470  0.0253 -0.3763 -3.6152
  897MPD2     N13150   3.730   3.118  10.567 -0.0360  0.4766 -0.2538
  897MPD2    H513151   3.672   3.201  10.558 -0.5720  0.0098 -1.0739
  897MPD2    N113152   4.109   3.387  10.492  0.4694 -0.5769 -0.0459
  897MPD2    H713153   4.045   3.465  10.486  1.9927  0.7315  0.7837
  898MPD2     C13154   1.482   4.628  17.409 -0.0026  0.4112 -0.2429
  898MPD2    C113155   1.398   4.555  17.494 -0.2773 -0.9215 -0.0333
  898MPD2    C213156   1.263   4.537  17.452  0.2060  0.6141  0.5193
  898MPD2    C313157   1.216   4.613  17.346  0.7717  0.9253  0.2013
  898MPD2    C413158   1.307   4.677  17.267  0.0419  0.1535  0.0600
  898MPD2    C513159   1.444   4.676  17.290 -0.1496 -1.1522  0.4068
  898MPD2     H13160   1.196   4.482  17.518  0.6643 -0.9993 -0.3441
  898MPD2    H113161   1.287   0.001  17.172 -0.1431  0.6386  0.3442
  898MPD2    H213162   1.581   4.660  17.439 -0.9253  2.5019  0.5383
  898MPD2    H313163   1.505   0.017  17.229 -0.2748  0.5875  2.1338
  898MPD2     N13164   1.083   4.617  17.304 -0.5880 -0.1487 -0.1233
  898MPD2    H513165   1.053   4.682  17.232 -1.5767  0.1501  0.5653
  898MPD2    N113166   1.424   4.509  17.626  0.7610 -0.2236  0.0527
  898MPD2    H713167   1.346   4.481  17.686 -0.1970  2.5379  0.0999
  899MPD2     C13168   1.924   0.082   0.050  0.0294 -0.4653  0.0524
  899MPD2    C113169   1.837   0.107  17.645  0.2203 -0.5009  0.3875
  899MPD2    C213170   1.703   0.132  17.675  0.2836  0.1891 -0.3726
  899MPD2    C313171   1.651   0.126   0.113  0.2096 -0.0662 -0.1687
  899MPD2    C413172   1.749   0.102   0.212  0.1530 -0.1789  0.8034
  899MPD2    C513173   1.881   0.079   0.179  0.1544  0.3809 -0.1750
  899MPD2     H13174   1.629   0.140  17.595 -2.4476  1.7881  2.3172
  899MPD2    H113175   1.714   0.080   0.312 -1.0475 -0.3655  0.3413
  899MPD2    H213176   2.024   0.049   0.022  0.0357 -1.0301  0.7396
  899MPD2    H313177   1.953   0.051   0.254  0.8023  1.4010 -0.4116
  899MPD2     N13178   1.516   0.173   0.144 -0.4485  0.1484  0.6276
  899MPD2    H513179   1.455   0.170   0.062 -1.4922  0.6682  1.3756
  899MPD2    N113180   1.882   0.142  17.515 -0.2371 -0.0470 -0.3372
  899MPD2    H713181   1.983   0.149  17.509 -0.1777  0.0444  0.9286
  900MPD2     C13182   1.567   1.983  12.293 -0.3701  0.4548  0.1306
  900MPD2    C113183   1.491   1.879  12.319 -0.5642 -0.0180  0.8697
  900MPD2    C213184   1.364   1.876  12.271  0.4434  0.3319  0.2384
  900MPD2    C313185   1.313   1.975  12.189 -0.1695 -1.0289  0.3542
  900MPD2    C413186   1.391   2.084  12.159 -0.4962  0.0886 -0.0883
  900MPD2    C513187   1.520   2.087  12.213  0.4333 -0.5761  0.8056
  900MPD2     H13188   1.300   1.796  12.308  0.2436  0.7956  0.9059
  900MPD2    H113189   1.357   2.160  12.089 -0.6702 -1.9041 -2.1841
  900MPD2    H213190   1.674   1.984  12.313 -0.5170  2.7168  0.8327
  900MPD2    H313191   1.587   2.157  12.164 -0.4934 -1.1738 -1.3171
  900MPD2     N13192   1.181   1.953  12.145  0.3968  0.1007  0.5384
  900MPD2    H513193   1.128   1.877  12.186  0.6574  0.0532  0.7909
  900MPD2    N113194   1.553   1.777  12.394 -0.6669  0.2600 -0.1905
  900MPD2    H713195   1.645   1.791  12.434  0.1054  0.0934 -1.8904
  901MPD2     C13196   1.378   0.969  13.033  0.5685  0.3587 -0.2551
  901MPD2    C113197   1.514   0.954  13.018  0.1258 -0.3614  1.0151
  901MPD2    C213198   1.587   1.033  12.922 -0.0639  0.2099 -0.6915
  901MPD2    C313199   1.520   1.127  12.848  0.5020 -0.1332  0.1877
  901MPD2    C413200   1.384   1.148  12.873 -0.5115  0.5812 -0.0011
  901MPD2    C513201   1.316   1.076  12.968 -0.5427  0.2941 -0.6112
  901MPD2     H13202   1.690   1.009  12.898  0.1736  2.3409 -1.7604
  901MPD2    H113203   1.320   1.210  12.812 -1.8233  1.0393  1.8544
  901MPD2    H213204   1.327   0.910  13.108 -0.0112  1.2802  0.0797
  901MPD2    H313205   1.211   1.100  12.979 -0.4435  0.5831 -0.2863
  901MPD2     N13206   1.595   1.205  12.755 -0.1097  0.2729  0.1804
  901MPD2    H513207   1.691   1.179  12.734  0.9670  3.0618  1.5943
  901MPD2    N113208   1.579   0.852  13.106 -0.4203 -0.9233 -0.5133
  901MPD2    H713209   1.514   0.797  13.162 -0.3422 -0.9500 -0.4495
  902MPD2     C13210   4.498   4.657  12.336 -0.4168  0.0703  0.0212
  902MPD2    C113211   4.606   4.617  12.410  0.3236  0.5783  0.8205
  902MPD2    C213212   4.721   4.567  12.356  0.7723  0.1771  0.8616
  902MPD2    C313213   4.721   4.557  12.220 -0.3639  1.6034  0.5154
  902MPD2    C413214   4.617   4.603  12.140 -0.0664 -0.7372 -0.2858
  902MPD2    C513215   4.504   4.652  12.199  0.3990 -0.3169 -0.3263
  902MPD2     H13216   0.077   4.529  12.418  1.6836  0.0492 -0.3952
  902MPD2    H113217   4.623   4.592  12.032  1.6093 -0.8985 -0.1880
  902MPD2    H213218   4.412   4.709  12.376 -0.6999  0.6471 -1.3387
  902MPD2    H313219   4.434   4.704  12.134  0.2484 -0.3604 -0.1995
  902MPD2     N13220   0.106   4.500  12.151 -0.2449 -0.1989 -0.3351
  902MPD2    H513221   0.087   4.476  12.055 -2.1798  2.1685 -0.5360
  902MPD2    N113222   4.593   4.633  12.553  0.3651 -0.2172 -0.4508
  902MPD2    H713223   4.503   4.675  12.575 -0.3742 -1.7850 -0.4912
  903MPD2     C13224   0.537   4.109  11.584  1.0305 -0.4119 -0.3488
  903MPD2    C113225   0.431   4.158  11.646  0.0669 -0.7726  0.1188
  903MPD2    C213226   0.331   4.072  11.697  0.0949  0.0860  0.8221
  903MPD2    C313227   0.338   3.938  11.684  0.0109  0.7228 -0.4646
  903MPD2    C413228   0.454   3.892  11.627  0.2710  0.0492 -0.1802
  903MPD2    C513229   0.553   3.976  11.576 -1.4423 -0.0839  0.1340
  903MPD2     H13230   0.241   4.110  11.746 -1.3201 -0.8262 -1.0511
  903MPD2    H113231   0.482   3.788  11.612 -0.5463  0.0685 -1.8869
  903MPD2    H213232   0.618   4.172  11.548 -0.2878  2.0077  0.9582
  903MPD2    H313233   0.634   3.929  11.520 -0.6458 -0.1897  1.3560
  903MPD2     N13234   0.231   3.852  11.727 -0.5187 -0.3316 -0.3703
  903MPD2    H513235   0.141   3.898  11.735  0.4051  1.0841  2.0213
  903MPD2    N113236   0.434   4.298  11.674  0.0822  0.2226  0.2151
  903MPD2    H713237   0.519   4.349  11.650 -0.7714  1.4448 -0.2080
  904MPD2     C13238   0.225   3.279  14.413  0.2962  0.1051  0.1934
  904MPD2    C113239   0.193   3.334  14.288  0.0437 -0.2305  0.2169
  904MPD2    C213240   0.291   3.397  14.220  0.5206  0.4207  0.0424
  904MPD2    C313241   0.418   3.418  14.271 -0.5883  0.1640  0.0761
  904MPD2    C413242   0.452   3.358  14.394  0.3781  0.8100 -0.2477
  904MPD2    C513243   0.346   3.313  14.468 -0.1377  0.1094 -0.1776
  904MPD2     H13244   0.276   3.445  14.124  2.1852 -1.5157 -1.1782
  904MPD2    H113245   0.550   3.364  14.439  1.0091 -0.3188 -1.4555
  904MPD2    H213246   0.147   3.231  14.470  1.1152 -1.4546  0.0148
  904MPD2    H313247   0.369   3.288  14.570  1.9289 -1.1059 -0.9538
  904MPD2     N13248   0.515   3.460  14.180  0.3982 -0.6125  0.2915
  904MPD2    H513249   0.488   3.493  14.088  0.9454 -0.4369  0.1902
  904MPD2    N113250   0.067   3.324  14.233 -0.5507  0.3998  0.3775
  904MPD2    H713251   0.060   3.346  14.134 -1.2797 -3.4337 -0.4414
  905MPD2     C13252   4.345   2.962  13.660  0.4007 -0.6661  0.4329
  905MPD2    C113253   4.360   2.966  13.796 -0.2909 -0.3915  0.4104
  905MPD2    C213254   4.390   2.849  13.858 -1.0424 -0.1265  0.6961
  905MPD2    C313255   4.408   2.728  13.792 -0.0040 -0.6727 -0.2287
  905MPD2    C413256   4.391   2.723  13.657  0.5228 -0.1003  0.0014
  905MPD2    C513257   4.352   2.841  13.592  0.3219  0.4256 -0.5778
  905MPD2     H13258   4.406   2.861  13.964 -0.7199  0.5068  0.5756
  905MPD2    H113259   4.395   2.629  13.602 -0.4883 -0.8356  1.1708
  905MPD2    H213260   4.331   3.059  13.613  2.9361 -0.0349  0.9961
  905MPD2    H313261   4.326   2.849  13.487 -0.1479  0.4326 -0.4620
  905MPD2     N13262   4.420   2.603  13.858 -0.3643 -0.1736  0.3777
  905MPD2    H513263   4.457   2.530  13.798  0.8154 -0.1057  1.0139
  905MPD2    N113264   4.350   3.090  13.866 -0.3228 -0.4040 -0.6454
  905MPD2    H713265   4.359   3.176  13.813  0.5818  0.0729  0.2775
  906MPD2     C13266   2.566   3.600  10.988  0.9320 -0.0141  0.3453
  906MPD2    C113267   2.578   3.499  10.898 -0.1004 -0.0398 -0.1979
  906MPD2    C213268   2.621   3.374  10.952 -0.6278 -0.3001  0.7814
  906MPD2    C313269   2.640   3.348  11.086 -0.5135  0.2246  1.2247
  906MPD2    C413270   2.627   3.460  11.170  0.0558  0.0178 -0.5412
  906MPD2    C513271   2.600   3.582  11.118 -0.5866  0.2807 -0.7346
  906MPD2     H13272   2.650   3.297  10.882 -2.2289  1.6493 -2.0079
  906MPD2    H113273   2.628   3.452  11.279 -3.1538  1.9538 -0.3769
  906MPD2    H213274   2.555   3.703  10.954 -0.4903  0.5167  2.4155
  906MPD2    H313275   2.606   3.673  11.176  1.5274 -0.7921  0.7016
  906MPD2     N13276   2.655   3.223  11.148 -0.2312 -0.1470  0.6714
  906MPD2    H513277   2.654   3.218  11.249  3.0816 -2.5008  0.5893
  906MPD2    N113278   2.557   3.511  10.757  0.3197 -0.1421  0.0651
  906MPD2    H713279   2.571   3.432  10.696 -0.6141  0.6487 -1.1646
  907MPD2     C13280   1.286   2.839  15.532  0.1337  0.4849  0.1866
  907MPD2    C113281   1.360   2.727  15.487 -0.1315 -0.2642 -0.2268
  907MPD2    C213282   1.467   2.676  15.569  0.0271 -0.3470  0.1513
  907MPD2    C313283   1.492   2.735  15.695  0.0822 -0.0699  0.6467
  907MPD2    C413284   1.418   2.851  15.729  0.1511  0.2720  0.9117
  907MPD2    C513285   1.314   2.895  15.650 -0.5590  0.2614 -0.3886
  907MPD2     H13286   1.515   2.583  15.544  2.0801  0.4244  1.1885
  907MPD2    H113287   1.435   2.917  15.813 -0.6717  0.5776  0.8325
  907MPD2    H213288   1.202   2.886  15.483  0.9199  0.4263 -1.2289
  907MPD2    H313289   1.260   2.985  15.678  1.6394  0.9733  1.6551
  907MPD2     N13290   1.598   2.699  15.779  0.0101  0.5109 -0.0511
  907MPD2    H513291   1.649   2.616  15.750 -2.0407  0.1529 -2.5974
  907MPD2    N113292   1.326   2.666  15.363  0.2764 -0.0029  0.3102
  907MPD2    H713293   1.383   2.586  15.341  0.9470 -0.0940  2.3197
  908MPD2     C13294   3.691   4.031  10.144 -0.2812 -0.0520  0.2981
  908MPD2    C113295   3.698   3.899  10.107 -0.2520 -0.6043 -0.1148
  908MPD2    C213296   3.794   3.823  10.180  0.2063  0.3760 -0.0184
  908MPD2    C313297   3.884   3.883  10.270 -0.0779  0.2542  0.2616
  908MPD2    C413298   3.877   4.020  10.291 -0.4710  0.4666 -0.2375
  908MPD2    C513299   3.779   4.087  10.231  0.4118  0.3151 -0.2183
  908MPD2     H13300   3.781   3.715  10.173  1.6125  0.2819 -1.3532
  908MPD2    H113301   3.943   4.065  10.365 -0.1426  1.1094 -0.9156
  908MPD2    H213302   3.615   4.101  10.110  0.7031  1.5805  1.4416
  908MPD2    H313303   3.762   4.194  10.243  1.2023  0.6693 -2.2668
  908MPD2     N13304   3.970   3.797  10.349  0.0325  1.0995 -0.3145
  908MPD2    H513305   3.955   3.699  10.327  2.5417  0.7490 -0.4823
  908MPD2    N113306   3.613   3.835  10.016 -0.0315  0.1718 -0.7570
  908MPD2    H713307   3.621   3.735  10.002 -1.2175 -0.0960  0.3876
  909MPD2     C13308   3.888   1.404  11.706 -0.4541 -0.1896  0.0457
  909MPD2    C113309   3.852   1.528  11.650  0.3010  0.8675 -0.3975
  909MPD2    C213310   3.757   1.603  11.715  0.0712 -0.2982  0.1139
  909MPD2    C313311   3.680   1.551  11.825  0.2418  0.4608  0.0045
  909MPD2    C413312   3.727   1.437  11.886 -0.9930  0.2838 -0.1764
  909MPD2    C513313   3.825   1.366  11.824  0.0198  0.4766  0.0397
  909MPD2     H13314   3.735   1.701  11.673 -0.8128 -0.7615 -0.4885
  909MPD2    H113315   3.685   1.408  11.981 -2.0676 -0.3810 -0.8539
  909MPD2    H213316   3.966   1.343  11.661  0.6165 -0.0757  1.7165
  909MPD2    H313317   3.877   1.287  11.877 -1.1173  0.3101  0.9099
  909MPD2     N13318   3.589   1.631  11.896 -0.3612  0.7431 -0.1813
  909MPD2    H513319   3.571   1.719  11.847  0.1514  0.8182 -0.2292
  909MPD2    N113320   3.910   1.578  11.531  0.5082 -0.0613  0.3776
  909MPD2    H713321   3.882   1.675  11.515  1.2325 -0.0023 -0.4798
  910MPD2     C13322   0.262   3.096  15.757  0.1371  0.2825  0.8079
  910MPD2    C113323   0.383   3.097  15.688  0.9296 -0.2306 -0.0603
  910MPD2    C213324   0.393   3.177  15.575 -0.7532  0.6467 -0.8279
  910MPD2    C313325   0.275   3.250  15.537  0.8482  0.0782 -0.0612
  910MPD2    C413326   0.157   3.238  15.601 -0.2831 -0.6461 -0.2032
  910MPD2    C513327   0.153   3.163  15.712  0.0442  0.3299  0.2073
  910MPD2     H13328   0.479   3.179  15.508  0.3271 -1.5522  0.5017
  910MPD2    H113329   0.064   3.278  15.563 -0.1459  1.1020  1.2685
  910MPD2    H213330   0.249   3.023  15.836  2.3237  1.0395  1.8634
  910MPD2    H313331   0.055   3.147  15.756 -0.9677 -0.9383 -2.4977
  910MPD2     N13332   0.269   3.339  15.432 -0.1972 -0.1286  0.0912
  910MPD2    H513333   0.176   3.379  15.428 -0.0300  0.3779  1.1546
  910MPD2    N113334   0.499   3.025  15.734  0.5572 -0.1231  0.4580
  910MPD2    H713335   0.561   2.993  15.660 -0.5424 -0.0832 -0.4904
  911MPD2     C13336   3.177   3.881  16.694  0.5422  1.1048  0.0517
  911MPD2    C113337   3.265   3.976  16.634  0.3731  0.4670  0.5041
  911MPD2    C213338   3.223   4.106  16.600  0.0573  0.1142  0.3894
  911MPD2    C313339   3.093   4.144  16.633 -0.0692  0.1803  0.3628
  911MPD2    C413340   3.002   4.055  16.691  0.2972  1.5635 -0.1166
  911MPD2    C513341   3.049   3.929  16.727  0.3676 -0.1053  0.7063
  911MPD2     H13342   3.292   4.173  16.551 -2.0270  1.2395 -1.0196
  911MPD2    H113343   2.898   4.081  16.705 -0.6836 -2.0861 -0.6407
  911MPD2    H213344   3.205   3.780  16.721 -0.0611  0.1645 -2.8239
  911MPD2    H313345   2.987   3.855  16.776 -0.4811 -1.1650 -1.9676
  911MPD2     N13346   3.035   4.274  16.592 -0.3846 -0.0776  0.3972
  911MPD2    H513347   2.934   4.274  16.588 -0.3214 -0.6389 -0.9456
  911MPD2    N113348   3.394   3.928  16.604  0.0372 -0.2953 -0.3399
  911MPD2    H713349   3.405   3.828  16.619 -1.4901 -0.6198 -1.3710
  912MPD2     C13350   2.537   3.937  16.359 -0.3334  0.5371 -0.1484
  912MPD2    C113351   2.614   4.027  16.439  0.1958 -0.0807  0.4464
  912MPD2    C213352   2.635   3.993  16.576 -0.3229 -0.1818 -0.5259
  912MPD2    C313353   2.597   3.868  16.623  0.0284 -0.2610 -1.0196
  912MPD2    C413354   2.514   3.790  16.541 -0.8600 -0.5434 -0.1913
  912MPD2    C513355   2.477   3.832  16.417  0.1566  0.0303 -0.7029
  912MPD2     H13356   2.680   4.060  16.648 -0.8006 -0.3096 -0.1048
  912MPD2    H113357   2.483   3.689  16.567 -1.5800  0.1867  1.8319
  912MPD2    H213358   2.506   3.968  16.260  0.8632 -1.3613 -1.1176
  912MPD2    H313359   2.407   3.772  16.361 -2.4983  2.1412  0.3778
  912MPD2     N13360   2.631   3.840  16.755  0.5232 -0.3706  0.1545
  912MPD2    H513361   2.676   3.909  16.814  1.4818 -2.9640  2.4665
  912MPD2    N113362   2.654   4.142  16.377 -0.7834  0.6171  0.2486
  912MPD2    H713363   2.628   4.159  16.280 -0.8378  0.2247  0.1932
  913MPD2     C13364   3.206   0.189  10.515  0.0914 -1.2431  0.1534
  913MPD2    C113365   3.271   0.297  10.558  0.4553  0.4181  0.0459
  913MPD2    C213366   3.248   0.423  10.492  0.0907  0.2679 -0.8071
  913MPD2    C313367   3.161   0.423  10.387  0.2460  0.1762 -0.2860
  913MPD2    C413368   3.089   0.315  10.359  0.6820 -0.8940  0.2223
  913MPD2    C513369   3.114   0.195  10.417 -0.3994  0.1168 -0.3740
  913MPD2     H13370   3.323   0.500  10.510 -0.7000  0.2894  2.3274
  913MPD2    H113371   3.023   0.318  10.273  1.8484  1.2608 -0.6025
  913MPD2    H213372   3.196   0.095  10.569 -2.4641 -1.8319 -1.3131
  913MPD2    H313373   3.057   0.107  10.391 -0.8098 -0.0929  1.2388
  913MPD2     N13374   3.145   0.538  10.310  0.8932 -0.2829  0.2986
  913MPD2    H513375   3.065   0.536  10.246  1.7195 -0.1540 -0.7403
  913MPD2    N113376   3.360   0.267  10.665  0.7722 -0.3435 -0.6018
  913MPD2    H713377   3.368   0.173  10.701 -0.3036  0.0087  0.5291
  914MPD2     C13378   1.533   4.652  12.866 -0.0981  0.0349  0.1462
  914MPD2    C113379   1.491   0.056  12.831 -0.0894  0.2299  0.2180
  914MPD2    C213380   1.501   0.154  12.927  0.3342 -0.2625 -0.5691
  914MPD2    C313381   1.587   0.143  13.033 -0.4765 -0.0292  0.1022
  914MPD2    C413382   1.641   0.015  13.058  0.3904 -0.1498  0.7813
  914MPD2    C513383   1.612   4.636  12.979  0.2764  0.2681 -0.6084
  914MPD2     H13384   1.474   0.256  12.900  0.4922 -0.2601 -0.7155
  914MPD2    H113385   1.698   0.010  13.150  0.3019  2.1702  0.9496
  914MPD2    H213386   1.515   4.565  12.804  0.5157 -0.9939  1.4302
  914MPD2    H313387   1.639   4.534  13.004 -0.6964  0.1085 -0.1859
  914MPD2     N13388   1.622   0.244  13.118 -0.3329  0.5795 -0.0111
  914MPD2    H513389   1.685   0.229  13.196  0.1784  1.6909 -0.2104
  914MPD2    N113390   1.448   0.089  12.698  0.3342  0.3861  0.3731
  914MPD2    H713391   1.418   0.184  12.680 -0.3245  0.5613  2.3534
  915MPD2     C13392   4.315   0.342  15.860 -0.5446 -0.1666  0.8024
  915MPD2    C113393   4.210   0.415  15.833  0.4135 -0.1821 -0.4427
  915MPD2    C213394   4.151   0.506  15.933  0.1128  0.4354  0.2802
  915MPD2    C313395   4.215   0.517  16.053 -0.1799  0.2094  0.7609
  915MPD2    C413396   4.325   0.433  16.074  0.0053 -0.0537 -0.3672
  915MPD2    C513397   4.370   0.353  15.977 -0.8018 -0.8267 -0.3469
  915MPD2     H13398   4.066   0.570  15.908 -1.1530 -0.5268  2.1874
  915MPD2    H113399   4.368   0.432  16.173  0.5561  0.8222 -0.6007
  915MPD2    H213400   4.355   0.273  15.787 -0.1440  0.4877  0.4058
  915MPD2    H313401   4.440   0.274  15.999 -0.5448  0.1017  2.1263
  915MPD2     N13402   4.163   0.602  16.153  0.7389  0.3246  0.0710
  915MPD2    H513403   4.075   0.651  16.143  0.5045 -0.4652 -1.5700
  915MPD2    N113404   4.149   0.399  15.704  0.1569 -0.2562 -0.7888
  915MPD2    H713405   4.191   0.326  15.646  0.6712 -2.6448  2.5648
  916MPD2     C13406   2.152   3.200  15.529 -0.4842 -0.5809 -0.2167
  916MPD2    C113407   2.156   3.088  15.610 -0.0930  0.3848  0.4295
  916MPD2    C213408   2.166   2.970  15.543  0.1595 -0.6599  0.1838
  916MPD2    C313409   2.181   2.964  15.409 -0.9045  0.6316 -0.2980
  916MPD2    C413410   2.164   3.078  15.340 -0.4375  0.6338 -0.2432
  916MPD2    C513411   2.152   3.197  15.396 -0.0446 -0.8533 -0.0018
  916MPD2     H13412   2.175   2.879  15.600  1.2136 -0.9600 -0.4672
  916MPD2    H113413   2.174   3.071  15.232 -0.4680  1.7456 -0.3150
  916MPD2    H213414   2.110   3.292  15.568 -0.0859  0.0070 -1.1660
  916MPD2    H313415   2.136   3.287  15.338 -1.1296 -1.9644 -1.4390
  916MPD2     N13416   2.218   2.840  15.344 -1.3817  0.4349  0.3835
  916MPD2    H513417   2.224   2.755  15.399  1.4687  1.7776  2.1105
  916MPD2    N113418   2.146   3.100  15.752  0.1271 -0.7830 -0.8528
  916MPD2    H713419   2.156   3.195  15.787  0.6751 -0.6942 -1.2347
  917MPD2     C13420   2.316   1.122  10.780  0.4116 -0.8859  0.1530
  917MPD2    C113421   2.384   1.150  10.889 -0.3179 -0.1270  0.1096
  917MPD2    C213422   2.423   1.281  10.911  0.2877  0.0865  0.5609
  917MPD2    C313423   2.390   1.388  10.832  0.2697  0.3560 -0.0404
  917MPD2    C413424   2.312   1.363  10.724 -0.0863  0.2790  1.1104
  917MPD2    C513425   2.284   1.228  10.698 -1.1284  0.8479  0.3302
  917MPD2     H13426   2.466   1.312  11.006  2.7483  1.5970 -1.0496
  917MPD2    H113427   2.271   1.432  10.652  0.3652 -2.0366 -1.3611
  917MPD2    H213428   2.291   1.021  10.748  1.2905 -0.4516 -1.9358
  917MPD2    H313429   2.227   1.207  10.609  1.9015 -0.0174 -1.3865
  917MPD2     N13430   2.421   1.524  10.864 -0.3297  0.2784 -0.1142
  917MPD2    H513431   2.372   1.595  10.810 -0.6888  1.1439  1.3485
  917MPD2    N113432   2.406   1.045  10.981  0.6867  0.0673  0.9014
  917MPD2    H713433   2.350   0.961  10.974  1.0565 -0.2212  1.3507
  918MPD2     C13434   2.794   0.952  12.002  0.5735  0.1653  0.5895
  918MPD2    C113435   2.830   0.835  11.940 -0.0581  0.5738 -0.8786
  918MPD2    C213436   2.772   0.813  11.818  0.4227  0.0682 -0.3315
  918MPD2    C313437   2.681   0.899  11.761  0.2765 -0.2318 -0.6503
  918MPD2    C413438   2.651   1.015  11.823 -0.4144 -0.3355  0.0561
  918MPD2    C513439   2.704   1.040  11.944  0.5495  0.7554 -0.4151
  918MPD2     H13440   2.801   0.721  11.767  0.0117  0.1576 -0.7241
  918MPD2    H113441   2.567   1.080  11.798 -0.9990 -1.3459 -0.6134
  918MPD2    H213442   2.826   0.979  12.102  1.2829  1.1747  0.0912
  918MPD2    H313443   2.674   1.126  12.003  0.9839  1.2439 -0.9033
  918MPD2     N13444   2.629   0.860  11.634 -0.5285 -1.0092 -0.3327
  918MPD2    H513445   2.659   0.769  11.601 -1.4020 -1.1660 -0.6851
  918MPD2    N113446   2.926   0.746  11.992  0.0035 -0.1455 -0.0014
  918MPD2    H713447   2.957   0.665  11.939 -0.0851 -1.0702  1.3516
  919MPD2     C13448   3.484   4.702  12.217  0.1011 -0.0693 -0.1546
  919MPD2    C113449   3.414   4.606  12.155 -0.0794  0.6894 -0.3169
  919MPD2    C213450   3.436   4.592  12.018 -0.0462  0.1397  0.5055
  919MPD2    C313451   3.543   4.661  11.955  0.1690  0.4272 -0.4805
  919MPD2    C413452   3.614   0.029  12.023 -0.2210 -0.1022  0.4708
  919MPD2    C513453   3.569   0.054  12.150 -0.5028 -0.5079  0.5751
  919MPD2     H13454   3.364   4.533  11.962  1.9587 -0.7428 -1.1427
  919MPD2    H113455   3.695   0.086  11.978 -1.7561  1.3172 -0.4644
  919MPD2    H213456   3.468   0.006  12.321  0.5699  1.4305 -0.4944
  919MPD2    H313457   3.632   0.118  12.210  1.3160 -1.2079 -0.6134
  919MPD2     N13458   3.570   4.629  11.816  0.1235  0.1190 -0.1030
  919MPD2    H513459   3.630   4.694  11.766 -0.5100  2.0087  1.5633
  919MPD2    N113460   3.326   4.512  12.217  0.7262  0.1556 -0.3869
  919MPD2    H713461   3.297   4.433  12.161  0.2008 -0.0595  0.1874
  920MPD2     C13462   3.322   0.521  11.184  0.4100 -0.0521  0.2551
  920MPD2    C113463   3.265   0.412  11.120 -0.4237  0.3329  0.3506
  920MPD2    C213464   3.301   0.287  11.165 -0.3762 -0.1660  0.8655
  920MPD2    C313465   3.389   0.271  11.267  0.4365  0.2236 -0.1088
  920MPD2    C413466   3.437   0.381  11.338 -0.3452 -0.2785  0.0894
  920MPD2    C513467   3.405   0.502  11.286  0.2338  0.2780  0.0731
  920MPD2     H13468   3.252   0.203  11.117 -2.1117  0.5842  1.2975
  920MPD2    H113469   3.495   0.367  11.429  0.3202 -0.2057 -0.3291
  920MPD2    H213470   3.302   0.623  11.151  1.5334 -1.4705 -4.7919
  920MPD2    H313471   3.446   0.590  11.333  0.0660  0.7976 -0.7647
  920MPD2     N13472   3.432   0.137  11.289  0.3487 -0.1545 -0.0950
  920MPD2    H513473   3.381   0.062  11.243 -1.2635  1.0741 -0.3141
  920MPD2    N113474   3.172   0.426  11.006 -0.2360  0.0163 -0.2739
  920MPD2    H713475   3.139   0.335  10.977 -1.6588  0.6241 -0.5333
  921MPD2     C13476   4.321   4.282  16.734  0.0596  0.4549 -0.0094
  921MPD2    C113477   4.299   4.180  16.643 -0.1602 -0.3471 -0.8394
  921MPD2    C213478   4.195   4.097  16.665 -0.2340 -0.1293 -0.1638
  921MPD2    C313479   4.095   4.129  16.758 -0.1773  0.0265  0.4238
  921MPD2    C413480   4.122   4.236  16.842 -0.7609 -0.4718  0.0585
  921MPD2    C513481   4.238   4.308  16.841  0.2810  0.1723  0.1879
  921MPD2     H13482   4.175   4.014  16.598 -0.2639 -0.1933 -0.0761
  921MPD2    H113483   4.042   4.274  16.904  1.6502  0.2346  2.7403
  921MPD2    H213484   4.404   4.349  16.719  0.3054  0.2373  0.3798
  921MPD2    H313485   4.247   4.399  16.899  1.9196  1.0559 -1.4681
  921MPD2     N13486   3.970   4.052  16.762 -0.8807 -0.2680 -0.1280
  921MPD2    H513487   3.889   4.086  16.812 -2.0851 -2.5646 -0.5391
  921MPD2    N113488   4.384   4.163  16.533 -0.1959  0.3595 -0.2731
  921MPD2    H713489   4.474   4.209  16.537  0.7161 -1.5535  1.2089
  922MPD2     C13490   0.249   1.529  16.831 -0.8328 -0.2642 -0.7375
  922MPD2    C113491   0.136   1.484  16.768  0.2742 -0.1948  0.2170
  922MPD2    C213492   0.039   1.421  16.838 -0.7593  0.0724  0.5435
  922MPD2    C313493   0.049   1.395  16.972  0.0705  0.3839 -0.3256
  922MPD2    C413494   0.172   1.422  17.033 -0.0572  0.5630  0.2999
  922MPD2    C513495   0.263   1.498  16.965 -0.1943 -0.8276  0.4097
  922MPD2     H13496   4.676   1.383  16.785  0.7862  0.6993 -2.4487
  922MPD2    H113497   0.195   1.390  17.134  0.0919  1.9720  0.7190
  922MPD2    H213498   0.328   1.583  16.779  0.1635  0.9693  2.0565
  922MPD2    H313499   0.351   1.521  17.025  0.1601 -0.0116 -0.4198
  922MPD2     N13500   4.659   1.335  17.036 -0.0951  0.1370 -0.1273
  922MPD2    H513501   4.574   1.317  16.983  0.6011 -1.0215 -0.8269
  922MPD2    N113502   0.103   1.517  16.634 -0.1201 -0.2362 -0.3431
  922MPD2    H713503   0.005   1.521  16.608 -1.1606 -0.6047  3.4586
  923MPD2     C13504   1.692   3.664   8.886 -0.6563  0.7419  0.1756
  923MPD2    C113505   1.726   3.781   8.961  0.5830 -0.1282  0.2375
  923MPD2    C213506   1.812   3.765   9.069 -0.3899 -0.3156 -0.7802
  923MPD2    C313507   1.886   3.649   9.082 -0.1150  0.4408  0.1115
  923MPD2    C413508   1.861   3.544   8.999 -0.8967 -0.2518 -0.0648
  923MPD2    C513509   1.762   3.550   8.905 -0.4938 -0.2613  0.4651
  923MPD2     H13510   1.826   3.839   9.147 -1.0948 -1.0693  0.0630
  923MPD2    H113511   1.919   3.453   8.997  2.2254  1.7059  0.1994
  923MPD2    H213512   1.625   3.661   8.801  1.3180  1.0321 -1.3848
  923MPD2    H313513   1.735   3.458   8.854  1.2760 -0.8963  0.6579
  923MPD2     N13514   1.969   3.632   9.193  0.0171  0.3325  0.0065
  923MPD2    H513515   2.001   3.536   9.206  1.0593  0.7194  0.3066
  923MPD2    N113516   1.651   3.892   8.931 -0.4992 -0.0716  0.4307
  923MPD2    H713517   1.576   3.883   8.864  0.0484  0.1756 -0.2141
  924MPD2     C13518   2.056   1.905  15.966  0.3520  0.8490 -0.9673
  924MPD2    C113519   1.956   1.966  15.901  0.5796 -0.7802 -0.6017
  924MPD2    C213520   1.947   2.103  15.888  0.5080 -0.2640  0.1047
  924MPD2    C313521   2.047   2.175  15.941 -0.4635 -0.3458 -0.1540
  924MPD2    C413522   2.143   2.109  16.016 -0.2299 -0.7203 -0.4048
  924MPD2    C513523   2.154   1.976  16.027 -0.4317 -0.5790  0.2354
  924MPD2     H13524   1.865   2.155  15.840  0.1867  0.6441  1.6391
  924MPD2    H113525   2.215   2.180  16.054  0.6002 -0.9802 -1.4904
  924MPD2    H213526   2.062   1.798  15.984  0.7220  1.3602  2.0339
  924MPD2    H313527   2.235   1.928  16.082  1.3903 -1.5613 -3.3273
  924MPD2     N13528   2.046   2.323  15.934 -0.0892 -0.0096  0.0853
  924MPD2    H513529   2.124   2.367  15.981  1.1638 -0.9999 -1.0401
  924MPD2    N113530   1.868   1.878  15.839  0.3943 -0.4928 -0.1899
  924MPD2    H713531   1.905   1.785  15.820 -2.0100 -1.2151 -1.2982
  925MPD2     C13532   4.444   4.524  14.692 -0.4684  0.5525  0.2313
  925MPD2    C113533   4.508   4.401  14.672 -0.0124  0.4292 -0.6662
  925MPD2    C213534   4.535   4.315  14.781  0.0303  0.2558 -0.3675
  925MPD2    C313535   4.497   4.361  14.912  0.4750  0.0027  0.4241
  925MPD2    C413536   4.434   4.485  14.930 -0.5225  0.8439  1.0346
  925MPD2    C513537   4.413   4.564  14.817 -0.0762  0.0452 -0.2143
  925MPD2     H13538   4.579   4.217  14.764  0.1680  0.0945  0.9362
  925MPD2    H113539   4.400   4.517  15.028 -0.2347  0.1680  1.3558
  925MPD2    H213540   4.423   4.589  14.608 -2.0239  0.5231  0.6033
  925MPD2    H313541   4.368   4.662  14.829 -2.9410 -0.9764 -2.5912
  925MPD2     N13542   4.523   4.299  15.036 -0.4160  0.6118 -0.1132
  925MPD2    H513543   4.488   4.354  15.114 -1.5340 -2.0956  1.3058
  925MPD2    N113544   4.541   4.351  14.545  0.1105 -0.0703  0.0995
  925MPD2    H713545   4.579   4.257  14.544  0.8571  0.2327  0.4123
  926MPD2     C13546   3.459   3.052  13.822  0.2815  0.4213 -0.7249
  926MPD2    C113547   3.360   3.131  13.771  0.6941  0.1008 -0.0523
  926MPD2    C213548   3.399   3.251  13.714 -0.0214  0.0639 -0.3918
  926MPD2    C313549   3.538   3.290  13.712  0.5466 -0.0659 -0.9849
  926MPD2    C413550   3.630   3.221  13.784 -0.5403  0.2345  1.0176
  926MPD2    C513551   3.586   3.099  13.827 -0.1242 -0.6960 -0.3729
  926MPD2     H13552   3.332   3.316  13.660 -1.6452  1.8196  3.7485
  926MPD2    H113553   3.735   3.249  13.781 -0.6787  0.5185 -1.8350
  926MPD2    H213554   3.450   2.946  13.846 -3.9733  1.3552  1.7364
  926MPD2    H313555   3.664   3.028  13.852  1.4836  1.5536  1.0986
  926MPD2     N13556   3.592   3.406  13.651  0.0971 -0.4098 -0.2322
  926MPD2    H513557   3.692   3.425  13.657  0.1592 -1.4104  1.8127
  926MPD2    N113558   3.227   3.091  13.765  0.2291  0.6491 -0.0862
  926MPD2    H713559   3.168   3.155  13.713 -0.9874 -0.6453 -0.2911
  927MPD2     C13560   2.888   0.805   0.352 -0.5716 -0.6371  1.3637
  927MPD2    C113561   3.015   0.834   0.391  0.2065 -0.1116  0.5866
  927MPD2    C213562   3.096   0.730   0.437 -0.0525 -0.3981  0.2521
  927MPD2    C313563   3.052   0.600   0.442 -0.8611 -1.0188 -0.0570
  927MPD2    C413564   2.927   0.565   0.389  0.0791 -0.0947  0.4392
  927MPD2    C513565   2.853   0.671   0.345  0.1222 -0.2445 -0.2493
  927MPD2     H13566   3.192   0.755   0.480  0.0779 -2.1132  0.9769
  927MPD2    H113567   2.888   0.467   0.365  2.1449 -0.7698 -0.1647
  927MPD2    H213568   2.809   0.873   0.324  0.4092  0.2793  0.8524
  927MPD2    H313569   2.758   0.642   0.303  0.0518 -3.4309  2.1403
  927MPD2     N13570   3.140   0.511   0.503  0.0204  0.5890 -0.1217
  927MPD2    H513571   3.232   0.542   0.532 -0.2745  0.4713  0.9676
  927MPD2    N113572   3.052   0.972   0.403 -0.1116 -0.8818  0.7865
  927MPD2    H713573   2.970   1.033   0.403 -0.3641 -1.2485 -2.6687
  928MPD2     C13574   0.444   4.141   0.460 -0.2923 -0.1927 -0.2388
  928MPD2    C113575   0.480   4.056   0.560 -0.5881  0.4996 -0.6986
  928MPD2    C213576   0.618   4.033   0.584  0.3824 -0.4647 -0.3649
  928MPD2    C313577   0.707   4.078   0.491  0.0973 -0.3445 -0.8186
  928MPD2    C413578   0.660   4.149   0.383 -0.0701 -0.0422 -0.2054
  928MPD2    C513579   0.528   4.182   0.364  0.0332 -0.0968 -0.0683
  928MPD2     H13580   0.663   3.992   0.674  1.4456  0.4764 -0.4684
  928MPD2    H113581   0.725   4.179   0.301 -1.1675 -1.4363 -1.5760
  928MPD2    H213582   0.341   4.175   0.451  0.0463 -0.1451 -3.7911
  928MPD2    H313583   0.484   4.235   0.280  0.1361  0.8484  0.4768
  928MPD2     N13584   0.849   4.063   0.494  0.3393  0.6641  0.0482
  928MPD2    H513585   0.910   4.103   0.423  0.9001 -0.1383  0.0777
  928MPD2    N113586   0.383   4.009   0.654 -0.4533 -0.2397 -0.6925
  928MPD2    H713587   0.293   4.056   0.649  0.3168  1.1143 -1.7007
  929MPD2     C13588   1.494   3.597   9.723  0.0077  0.1523 -0.0796
  929MPD2    C113589   1.417   3.491   9.722 -0.0453 -1.1241  0.1937
  929MPD2    C213590   1.304   3.487   9.642  0.5510  0.0211 -0.3827
  929MPD2    C313591   1.279   3.598   9.560  0.7680  0.5280  0.1022
  929MPD2    C413592   1.372   3.701   9.554  0.1178  0.2214  0.7624
  929MPD2    C513593   1.483   3.700   9.634 -0.5008  0.3360  0.6683
  929MPD2     H13594   1.228   3.412   9.662  1.7781 -1.3485 -0.7888
  929MPD2    H113595   1.352   3.791   9.495 -1.0845 -0.0286  0.7908
  929MPD2    H213596   1.571   3.615   9.798  0.8687 -0.3199 -0.8501
  929MPD2    H313597   1.553   3.782   9.631  0.4837 -0.5673 -0.3697
  929MPD2     N13598   1.162   3.591   9.489 -0.1211  0.0402  0.0120
  929MPD2    H513599   1.100   3.519   9.523 -0.6658  0.8808  0.8198
  929MPD2    N113600   1.465   3.378   9.793  0.5865  0.3150  0.1836
  929MPD2    H713601   1.555   3.396   9.837  1.1773  1.9334 -1.6633
  930MPD2     C13602   3.463   0.990  14.566 -0.0836 -0.0505  0.2514
  930MPD2    C113603   3.405   1.026  14.451  0.2929  0.1061 -0.8020
  930MPD2    C213604   3.339   0.929  14.378  0.0709 -0.1852 -0.4148
  930MPD2    C313605   3.310   0.804  14.431 -0.0006 -0.1231 -0.4713
  930MPD2    C413606   3.367   0.772  14.550 -0.0825  0.1091 -0.0122
  930MPD2    C513607   3.441   0.869  14.613 -0.0535  0.3485  0.5756
  930MPD2     H13608   3.298   0.964  14.284 -1.3163 -2.4467 -0.6524
  930MPD2    H113609   3.356   0.678  14.603 -1.1044  0.0499 -0.3295
  930MPD2    H213610   3.526   1.060  14.620 -0.0064  0.4741 -0.5125
  930MPD2    H313611   3.481   0.849  14.711 -0.4369 -0.9663  0.4628
  930MPD2     N13612   3.232   0.703  14.361  0.1956 -0.1165 -0.1705
  930MPD2    H513613   3.245   0.607  14.391  2.0667  0.6875  1.5608
  930MPD2    N113614   3.416   1.162  14.402  0.2454  0.0254  0.4137
  930MPD2    H713615   3.486   1.216  14.453 -0.2026  2.0442 -1.1172
  931MPD2     C13616   3.297   0.924   1.077 -0.6391 -0.5877 -0.6198
  931MPD2    C113617   3.175   0.951   1.019 -0.1787  0.0603  0.1536
  931MPD2    C213618   3.069   0.864   1.047  0.0888 -0.1880 -0.2841
  931MPD2    C313619   3.097   0.744   1.124  0.4579  0.7995 -0.2366
  931MPD2    C413620   3.218   0.729   1.181  0.0733  0.1711 -0.6082
  931MPD2    C513621   3.318   0.818   1.159 -0.2447  0.4705  0.1448
  931MPD2     H13622   2.977   0.872   0.990 -0.7203 -3.0937  0.6123
  931MPD2    H113623   3.247   0.650   1.248 -0.9440  1.1616  1.0090
  931MPD2    H213624   3.384   0.984   1.053 -1.3105 -0.7803 -3.5006
  931MPD2    H313625   3.412   0.811   1.213 -0.9149 -1.6134  1.0109
  931MPD2     N13626   3.005   0.637   1.144 -0.4959  0.0230 -0.0133
  931MPD2    H513627   3.041   0.557   1.195 -1.0016 -0.7453 -0.8671
  931MPD2    N113628   3.172   1.052   0.926 -0.9362  0.0389  0.5213
  931MPD2    H713629   3.265   1.079   0.896 -0.7919 -0.9548  0.0785
  932MPD2     C13630   0.224   3.905  11.353 -0.3825  0.0858  0.9178
  932MPD2    C113631   0.331   3.956  11.283  0.3060 -0.3006 -0.0607
  932MPD2    C213632   0.438   3.872  11.259 -0.3377  0.3366  0.0667
  932MPD2    C313633   0.431   3.745  11.318  0.9149  0.2956  0.1252
  932MPD2    C413634   0.319   3.700  11.371 -0.4195  0.2388  0.2846
  932MPD2    C513635   0.209   3.777  11.390  0.2910  0.5834 -0.3925
  932MPD2     H13636   0.530   3.902  11.209 -0.2383  0.3014  0.2293
  932MPD2    H113637   0.316   3.605  11.422  1.3348  0.8051  1.4532
  932MPD2    H213638   0.146   3.970  11.391  0.2912  1.7726 -0.5554
  932MPD2    H313639   0.131   3.736  11.451  0.0288 -3.0014 -3.1412
  932MPD2     N13640   0.547   3.671  11.341 -0.0287  0.5537 -0.0476
  932MPD2    H513641   0.545   3.613  11.425  1.3014 -1.2489 -1.2525
  932MPD2    N113642   0.339   4.095  11.242 -0.9001  0.1606  0.6347
  932MPD2    H713643   0.431   4.122  11.208 -1.3804 -0.0286 -0.7807
  933MPD2     C13644   4.392   4.213   0.975  0.3519 -0.1326  0.8997
  933MPD2    C113645   4.530   4.242   0.978 -0.0363 -0.7723  0.0415
  933MPD2    C213646   4.572   4.371   1.003 -0.0622  0.1790 -0.1897
  933MPD2    C313647   4.484   4.469   1.019 -0.3570  0.0922 -0.1048
  933MPD2    C413648   4.343   4.441   1.026 -0.3091 -0.4545  0.7840
  933MPD2    C513649   4.303   4.314   1.012  0.7703  0.0228  0.7442
  933MPD2     H13650   4.675   4.403   1.000  0.0250 -0.2753 -1.7511
  933MPD2    H113651   4.272   4.521   1.041 -0.4924 -0.7827  1.6468
  933MPD2    H213652   4.356   4.115   0.945  0.3179  0.5570 -1.3477
  933MPD2    H313653   4.195   4.304   1.020  0.6103  2.7261  1.9628
  933MPD2     N13654   4.535   4.603   1.022 -0.8765 -0.3356  0.5552
  933MPD2    H513655   4.634   4.605   1.001 -1.4809 -0.3120 -2.3065
  933MPD2    N113656   4.618   4.132   0.962  0.1037 -0.0054  0.5781
  933MPD2    H713657   4.569   4.043   0.956  0.1342 -0.0783  1.4267
  934MPD2     C13658   1.169   2.213   1.762  0.1689  0.1643  0.7084
  934MPD2    C113659   1.276   2.145   1.708  0.3689 -0.3858  0.0548
  934MPD2    C213660   1.252   2.062   1.593  0.6054  0.0819  1.1198
  934MPD2    C313661   1.128   2.052   1.539  0.5758  0.0749 -0.2271
  934MPD2    C413662   1.026   2.129   1.595 -0.4998  0.0896 -0.0348
  934MPD2    C513663   1.049   2.210   1.706  0.6782 -0.3163 -0.1188
  934MPD2     H13664   1.331   2.000   1.553  1.8946  0.9134  2.4011
  934MPD2    H113665   0.929   2.124   1.546 -1.3532 -2.0633  1.8856
  934MPD2    H213666   1.185   2.269   1.854  2.5665  2.7425 -1.2929
  934MPD2    H313667   0.965   2.255   1.757  0.6100 -1.5187  0.8300
  934MPD2     N13668   1.097   1.967   1.430 -0.2377  0.4954 -0.0693
  934MPD2    H513669   1.001   1.968   1.396 -0.3421  0.8365  0.2389
  934MPD2    N113670   1.396   2.158   1.779 -0.6124 -0.1939  0.1130
  934MPD2    H713671   1.394   2.208   1.867 -1.2404 -1.7410  0.9732
  935MPD2     C13672   0.909   0.911   1.385 -0.2878  0.5094  0.4593
  935MPD2    C113673   1.032   0.964   1.368  1.1143  0.2404  0.4264
  935MPD2    C213674   1.056   1.089   1.331  0.2384  0.1779  0.4359
  935MPD2    C313675   0.954   1.183   1.338  0.6793 -0.0649 -0.2703
  935MPD2    C413676   0.825   1.137   1.361  0.2171 -0.4793 -0.0417
  935MPD2    C513677   0.800   1.001   1.370 -0.2575 -0.3794 -0.4576
  935MPD2     H13678   1.156   1.123   1.303 -0.0303 -0.2563 -1.0303
  935MPD2    H113679   0.747   1.212   1.355  1.1005  0.4339 -0.0462
  935MPD2    H213680   0.890   0.805   1.400  0.8620 -0.1456 -2.7168
  935MPD2    H313681   0.702   0.956   1.382 -1.2718  1.4961 -1.8845
  935MPD2     N13682   0.959   1.320   1.317  0.4041  0.0988  0.0998
  935MPD2    H513683   0.872   1.366   1.342 -0.6230 -1.2784 -0.9163
  935MPD2    N113684   1.153   0.883   1.365  0.2999  0.3812 -0.6276
  935MPD2    H713685   1.235   0.932   1.328  1.4589 -1.6211 -0.7203
  936MPD2     C13686   0.875   2.992  12.196 -0.2465  0.4945  0.2542
  936MPD2    C113687   0.915   3.003  12.323 -0.0603 -0.3236 -0.2018
  936MPD2    C213688   1.026   3.066  12.350 -0.8176 -0.5858 -0.3855
  936MPD2    C313689   1.117   3.109  12.260 -0.3468  0.6412  0.3363
  936MPD2    C413690   1.088   3.088  12.130  0.4648  0.0645 -0.2770
  936MPD2    C513691   0.961   3.038  12.101 -0.0042  0.0344 -0.1925
  936MPD2     H13692   1.055   3.063  12.455 -0.6238 -1.5722 -0.4737
  936MPD2    H113693   1.150   3.111  12.045  1.6220 -1.6593  0.1232
  936MPD2    H213694   0.777   2.954  12.169 -1.3771  2.9629  0.9501
  936MPD2    H313695   0.936   3.027  11.996  1.6491 -2.8092 -0.2983
  936MPD2     N13696   1.230   3.176  12.309 -0.1325  0.1388  0.5819
  936MPD2    H513697   1.226   3.183  12.410  0.6684 -0.2242  0.6330
  936MPD2    N113698   0.836   2.949  12.427  0.2231  0.0779 -0.0229
  936MPD2    H713699   0.873   2.982  12.516 -1.3063 -0.3225  0.7501
  937MPD2     C13700   3.290   3.818  12.185  0.1656 -0.7944  0.3165
  937MPD2    C113701   3.262   3.937  12.120 -0.3296  0.1515  0.6198
  937MPD2    C213702   3.324   3.957  12.001 -0.5561  0.1722  0.1043
  937MPD2    C313703   3.394   3.857  11.935  0.2979  0.3453 -0.5516
  937MPD2    C413704   3.405   3.733  11.994 -0.9642 -0.1102 -0.6323
  937MPD2    C513705   3.355   3.718  12.122  0.4019 -0.8367 -0.6874
  937MPD2     H13706   3.320   4.052  11.948 -1.5484 -0.1886 -0.4775
  937MPD2    H113707   3.458   3.654  11.943 -2.2337 -2.2477  1.3761
  937MPD2    H213708   3.250   3.791  12.282 -2.3682 -2.9066 -1.3406
  937MPD2    H313709   3.365   3.623  12.174  0.9252 -0.8503 -0.8125
  937MPD2     N13710   3.444   3.884  11.806  0.1515  0.0567 -0.0577
  937MPD2    H513711   3.419   3.976  11.772  1.2572  1.3049  2.4862
  937MPD2    N113712   3.222   4.058  12.189  0.1978  0.8328  0.6208
  937MPD2    H713713   3.236   4.142  12.135  0.1961  1.4015  1.5096
  938MPD2     C13714   1.078   0.741   0.989 -0.1195 -0.0464  0.3409
  938MPD2    C113715   0.974   0.817   1.032 -0.9209  0.0201 -0.4012
  938MPD2    C213716   0.860   0.765   1.093 -0.1669  0.3181 -0.5915
  938MPD2    C313717   0.849   0.624   1.105 -0.1186  0.0210  0.1571
  938MPD2    C413718   0.955   0.544   1.060 -0.1102 -0.2352 -0.2836
  938MPD2    C513719   1.065   0.603   1.003 -0.0984 -0.0510 -0.0273
  938MPD2     H13720   0.785   0.830   1.138  1.1260  1.5823 -0.2737
  938MPD2    H113721   0.945   0.436   1.057 -2.5459  0.0657 -2.6940
  938MPD2    H213722   1.168   0.792   0.959 -0.7983  0.7284 -0.3830
  938MPD2    H313723   1.139   0.542   0.950 -0.7996  0.9090 -2.1128
  938MPD2     N13724   0.742   0.549   1.172 -0.0629  0.1010  0.7063
  938MPD2    H513725   0.739   0.448   1.180 -1.7909  0.1197  0.3302
  938MPD2    N113726   0.977   0.955   1.008  0.1619 -0.5848 -0.3149
  938MPD2    H713727   0.887   0.999   1.019  0.4798  0.5817 -2.3796
  939MPD2     C13728   2.016   2.676   1.275 -0.1301 -0.7909  0.1181
  939MPD2    C113729   1.914   2.595   1.217 -0.3032  0.1610  0.1683
  939MPD2    C213730   1.946   2.500   1.123 -0.2142  0.5458 -0.0966
  939MPD2    C313731   2.080   2.487   1.085 -0.1293  0.1320 -0.9401
  939MPD2    C413732   2.180   2.565   1.151 -0.5107  0.1240  0.4380
  939MPD2    C513733   2.153   2.660   1.242  0.1539  0.0997 -0.5308
  939MPD2     H13734   1.866   2.458   1.063 -1.8817 -1.0228  3.2697
  939MPD2    H113735   2.284   2.558   1.121 -1.1217 -0.6284 -1.5231
  939MPD2    H213736   2.000   2.761   1.341 -0.0855  0.1368 -1.0747
  939MPD2    H313737   2.237   2.709   1.290 -1.7674  0.9966  1.9501
  939MPD2     N13738   2.119   2.395   0.983 -0.2340 -0.4459  0.1771
  939MPD2    H513739   2.037   2.347   0.945  0.7787 -0.4396 -2.0008
  939MPD2    N113740   1.781   2.625   1.259  0.4009 -0.4422 -0.2389
  939MPD2    H713741   1.780   2.697   1.330 -2.1232 -1.1690  0.4610
  940MPD2     C13742   1.438   2.247  13.360  0.1265 -0.2741 -0.3559
  940MPD2    C113743   1.333   2.310  13.423  0.0987  0.4378  0.0821
  940MPD2    C213744   1.210   2.344  13.362  0.4484 -0.1989  0.5561
  940MPD2    C313745   1.199   2.299  13.227  0.8269  0.1681  0.6859
  940MPD2    C413746   1.308   2.249  13.161  0.4692  0.4328  0.6133
  940MPD2    C513747   1.424   2.225  13.232  0.3644  0.4180  0.4133
  940MPD2     H13748   1.138   2.389  13.429 -2.4171 -0.2811 -2.4860
  940MPD2    H113749   1.297   2.224  13.056 -1.6104  1.7356  0.5155
  940MPD2    H213750   1.532   2.228  13.410 -1.0087 -0.6862  1.6242
  940MPD2    H313751   1.496   2.184  13.162  0.7610  0.5729  0.7362
  940MPD2     N13752   1.090   2.315  13.146  0.2500 -0.2510 -0.3911
  940MPD2    H513753   1.091   2.267  13.057  0.2808 -1.5084  0.2837
  940MPD2    N113754   1.339   2.345  13.563 -0.4058 -0.6948 -0.2835
  940MPD2    H713755   1.253   2.377  13.606 -0.4394 -1.3482  0.1255
  941MPD2     C13756   0.170   1.970  10.042  0.2670 -0.6577  0.3643
  941MPD2    C113757   0.272   1.889  10.095  0.4461  0.5692 -0.7255
  941MPD2    C213758   0.230   1.773  10.168 -0.0964  0.7142  0.3525
  941MPD2    C313759   0.100   1.729  10.172  0.4962  0.0367  0.3854
  941MPD2    C413760   0.006   1.815  10.119  0.5119  0.3854 -0.3585
  941MPD2    C513761   0.041   1.938  10.067  0.4223 -0.2936  0.0244
  941MPD2     H13762   0.305   1.705  10.205 -1.7089  0.1104  2.4523
  941MPD2    H113763   4.625   1.794  10.138  0.6834  0.6084  0.8373
  941MPD2    H213764   0.189   2.068   9.999 -0.4372 -0.8766 -0.4457
  941MPD2    H313765   4.684   2.007  10.044  2.2696  1.8246 -0.1035
  941MPD2     N13766   0.060   1.596  10.208  0.0451  0.2476  0.7300
  941MPD2    H513767   4.682   1.586  10.204  0.1153 -1.0274  2.0976
  941MPD2    N113768   0.413   1.930  10.100 -0.8402  0.3612 -0.0791
  941MPD2    H713769   0.473   1.861  10.144 -1.1560  1.8787  2.7369
  942MPD2     C13770   0.895   3.082   9.320  0.0150  0.5416  0.0011
  942MPD2    C113771   0.912   3.139   9.195 -0.8267  0.8663  0.8162
  942MPD2    C213772   1.022   3.221   9.175  0.1020  0.1892 -0.5388
  942MPD2    C313773   1.108   3.249   9.282  0.1432 -0.3918 -0.0838
  942MPD2    C413774   1.084   3.198   9.406  0.1140 -0.0415 -0.3592
  942MPD2    C513775   0.987   3.104   9.417  0.7341  0.2643 -0.4105
  942MPD2     H13776   1.038   3.267   9.078  2.0924  2.0868  0.6986
  942MPD2    H113777   1.154   3.214   9.487  0.6801  0.7356 -1.0002
  942MPD2    H213778   0.811   3.019   9.349 -0.0658  0.9874  0.7234
  942MPD2    H313779   0.968   3.063   9.516  1.4613 -1.2764 -0.9182
  942MPD2     N13780   1.223   3.333   9.277  0.0214 -0.7039  0.2335
  942MPD2    H513781   1.277   3.345   9.363  1.0791  0.4976 -0.5997
  942MPD2    N113782   0.820   3.128   9.088  0.1406  0.1041 -0.1527
  942MPD2    H713783   0.824   3.197   9.015  1.4843  0.4253  0.2223
  943MPD2     C13784   3.998   2.040   9.482  0.2711  0.5703  0.2154
  943MPD2    C113785   4.011   1.945   9.586  0.4156  0.1404 -0.0242
  943MPD2    C213786   4.107   1.965   9.684  1.1128 -0.5881  0.4946
  943MPD2    C313787   4.190   2.074   9.678 -0.4587 -0.1235  0.3873
  943MPD2    C413788   4.167   2.173   9.585  0.2788  0.2726  0.6283
  943MPD2    C513789   4.073   2.155   9.485 -0.2388 -0.1726 -0.4159
  943MPD2     H13790   4.123   1.883   9.754  2.7064 -1.0819 -0.4294
  943MPD2    H113791   4.219   2.268   9.584 -0.2848  0.6189  3.8687
  943MPD2    H213792   3.922   2.026   9.406  2.1177 -1.6949 -1.2055
  943MPD2    H313793   4.057   2.232   9.410  1.2277 -1.1956 -1.7691
  943MPD2     N13794   4.281   2.085   9.773  0.5320 -0.1042  0.6323
  943MPD2    H513795   4.292   2.011   9.842  3.1362 -0.3092 -0.0095
  943MPD2    N113796   3.925   1.837   9.573 -0.2970  0.1296  0.2244
  943MPD2    H713797   3.851   1.851   9.505 -1.2732 -2.1779  0.8311
  944MPD2     C13798   4.256   1.094  10.804 -0.3453 -0.0481  0.1780
  944MPD2    C113799   4.160   1.010  10.745 -0.2721  0.3675 -0.1923
  944MPD2    C213800   4.055   0.965  10.826  0.6347 -0.1055  0.1124
  944MPD2    C313801   4.051   1.001  10.958  0.4428 -0.4712  0.1562
  944MPD2    C413802   4.145   1.087  11.007  0.6773 -0.0691 -0.7302
  944MPD2    C513803   4.252   1.130  10.935 -0.1752  0.5618  0.7519
  944MPD2     H13804   3.972   0.907  10.787  0.1146  0.0030  1.0568
  944MPD2    H113805   4.126   1.124  11.107  1.3704 -0.8373 -0.3174
  944MPD2    H213806   4.333   1.135  10.739  0.5563 -0.3362  1.0617
  944MPD2    H313807   4.328   1.189  10.985  0.5981  0.0611  0.1669
  944MPD2     N13808   3.930   0.977  11.036 -0.3702 -0.4767  0.5843
  944MPD2    H513809   3.853   0.934  10.986  1.2774 -0.5664 -1.9115
  944MPD2    N113810   4.167   0.989  10.603  0.0119  0.5015 -0.6544
  944MPD2    H713811   4.233   1.039  10.545 -1.0219 -0.6616 -2.8292
    1TCq1    O113812   1.427   1.840  13.668  0.0002  0.3411  0.4242
    1TCq1    C113813   1.504   1.808  13.564  0.2284  0.1912  0.6261
    1TCq1    O213814   1.461   1.793  13.450 -0.3150  0.6398 -0.3130
    1TCq1    C213815   1.630   1.864  13.582 -0.1416 -0.0270  0.0223
    1TCq1    C313816   1.681   1.942  13.487  0.1375  0.1537  0.1052
    1TCq1    C413817   1.809   2.001  13.505 -0.0984  0.3755  0.0644
    1TCq1    C513818   1.873   1.978  13.624 -0.8736  0.3577  0.9248
    1TCq1    C613819   1.823   1.904  13.717  0.0228  0.0953  0.1908
    1TCq1    C713820   1.692   1.843  13.703 -0.7571  0.0582 -0.0700
    1TCq1    C813821   1.894   1.909  13.846 -0.0228  0.0932 -0.4332
    1TCq1    O413822   1.862   1.822  13.925 -0.4144 -0.0531 -0.0677
    1TCq1    C913823   1.857   2.090  13.409  0.4929 -0.2307  0.6509
    1TCq1    O513824   1.942   2.172  13.452  0.0980  0.2705 -0.2928
    1TCq1    O613825   1.812   2.091  13.291 -0.4503  0.0596  0.3786
    1TCq1    H113826   1.474   1.879  13.745 -0.4347 -0.0200  0.8699
    1TCq1    H213827   1.633   1.967  13.392 -1.7638 -1.1348  0.7173
    1TCq1    H313828   1.971   2.024  13.638 -1.1563  0.7286  1.6668
    1TCq1    H413829   1.658   1.772  13.777 -0.2570 -0.2340 -0.1182
    2MPD2     C13830   2.175   2.160  14.200 -0.0282 -0.0202 -0.9445
    2MPD2    C113831   2.133   2.248  14.104 -0.9798  0.4873  0.1200
    2MPD2    C213832   2.059   2.211  13.994 -0.5294  0.3656 -0.8241
    2MPD2    C313833   2.009   2.083  13.984 -0.2871 -0.7689 -0.4611
    2MPD2    C413834   2.041   1.998  14.091  0.1097 -0.2252 -0.0571
    2MPD2    C513835   2.127   2.030  14.191  0.9555 -0.2914 -0.4450
    2MPD2     H13836   2.018   2.284  13.924  1.2245  1.0140 -1.1732
    2MPD2    H113837   2.032   1.890  14.081  0.0819 -0.1961 -0.3525
    2MPD2    H213838   2.219   2.199  14.291  0.3444  2.0922 -2.0473
    2MPD2    H313839   2.149   1.952  14.264 -1.4696 -0.5681 -0.0174
    2MPD2     N13840   1.942   2.039  13.866  0.5447  0.4472 -0.2208
    2MPD2    H513841   1.918   2.113  13.800  0.3024  2.8235  2.5349
    2MPD2    N113842   2.162   2.383  14.122 -0.7763 -0.1606  0.7441
    2MPD2    H713843   2.224   2.413  14.196 -2.9643  1.3276  1.9732
    3TMC2    C113844   2.128   2.611  14.119 -0.2624 -0.0086  0.2289
    3TMC2    C213845   2.040   2.707  14.133  0.3135 -0.2199 -0.5154
    3TMC2    C313846   2.065   2.828  14.070 -0.4084  0.0982 -0.6971
    3TMC2    C413847   2.253   2.632  14.063  0.0543  0.0611 -0.9750
    3TMC2    C513848   2.268   2.753  14.002 -0.2296 -0.2804  0.4544
    3TMC2    C613849   2.180   2.856  14.000  0.0906  0.6447 -0.1012
    3TMC2     C13850   2.076   2.482  14.080  0.6520 -0.6287 -0.7328
    3TMC2     O13851   1.983   2.491  13.998  0.5132  0.6260  0.1527
    3TMC2     H13852   1.949   2.682  14.186 -0.2889 -1.7193 -2.2756
    3TMC2    H113853   2.323   2.550  14.049 -0.7836 -0.7663 -0.3776
    3TMC2    H213854   2.203   2.957  13.969 -0.5318  0.3417 -1.5154
    3TMC2    C713855   2.372   2.767  13.900  0.2949 -0.1134 -0.3119
    3TMC2    C813856   1.962   2.924  14.085 -0.3597  0.3320  0.3174
    3TMC2    O113857   2.466   2.691  13.900  0.6354 -0.1984  0.4425
    3TMC2    O213858   1.896   2.943  14.186  0.7773  0.2391 -0.2291
    3TMC2    O513859   1.958   2.993  13.964 -0.0499  0.0699 -0.0973
    3TMC2    H513860   1.999   2.936  13.897 -1.0853  1.4340 -1.8918
    4MPD2     C13861   1.520   3.685  13.490  0.7244  1.3381 -0.1146
    4MPD2    C113862   1.519   3.582  13.403 -0.9129  0.4551 -0.0653
    4MPD2    C213863   1.637   3.539  13.351  0.2035  0.1400  0.1402
    4MPD2    C313864   1.756   3.592  13.391  0.3931  0.3214  0.6264
    4MPD2    C413865   1.753   3.697  13.478  0.6176  0.0963 -0.4219
    4MPD2    C513866   1.640   3.742  13.531  0.1032  0.2129 -0.2008
    4MPD2     H13867   1.642   3.454  13.284 -2.0714  0.3758 -0.3099
    4MPD2    H113868   1.834   3.755  13.522  0.0518  0.2539  0.4024
    4MPD2    H213869   1.436   3.728  13.543  1.5691  0.7065  1.7478
    4MPD2    H313870   1.636   3.820  13.605  1.0529  2.4520 -2.4948
    4MPD2     N13871   1.873   3.535  13.339 -0.0160  0.0149 -0.7785
    4MPD2    H513872   1.868   3.453  13.280  2.4041 -0.2335 -0.6711
    4MPD2    N113873   1.398   3.530  13.368 -0.1361 -0.8591 -0.2571
    4MPD2    H713874   1.319   3.583  13.406 -0.3202 -1.0583 -0.3616
    5TCq2    C113875   1.994   3.586  13.373  0.2070  0.2214  0.9982
    5TCq2    O213876   2.024   3.696  13.411 -0.7423  0.1712 -0.4799
    5TCq2    C213877   2.108   3.509  13.329  0.0726 -0.4463 -0.0005
    5TCq2    C313878   2.216   3.577  13.299  0.4023 -0.2742 -0.1511
    5TCq2    C413879   2.332   3.512  13.275 -0.2674  0.7630 -0.1899
    5TCq2    C513880   2.331   3.376  13.295  0.0096 -0.8922 -0.6986
    5TCq2    C613881   2.219   3.309  13.346  0.0648 -0.1484  0.2141
    5TCq2    C713882   2.100   3.377  13.362 -0.2387  0.0509  0.1231
    5TCq2    C813883   2.230   3.187  13.425  0.2134 -0.1809  0.1630
    5TCq2    O413884   2.127   3.152  13.486 -0.0111  0.1461 -0.2974
    5TCq2    C913885   2.462   3.571  13.246  0.0886 -0.4478 -0.1541
    5TCq2    O513886   2.492   3.681  13.295 -0.6677  0.1845  0.1817
    5TCq2    O613887   2.537   3.504  13.173 -0.1613 -0.3791 -0.0379
    5TCq2    H213888   2.207   3.683  13.281 -1.4669 -0.6984 -1.7713
    5TCq2    H313889   2.429   3.329  13.291 -0.3531 -1.6322 -0.9500
    5TCq2    H413890   2.015   3.334  13.414 -2.7123  2.0986 -2.2796
    6MPD1     C13891   0.120   4.082  12.064  0.0074 -0.2392 -0.1571
    6MPD1    C113892   0.071   4.106  12.191 -0.2808 -0.5442  0.2257
    6MPD1    C213893   0.112   4.013  12.289  0.2771 -0.0221 -0.0940
    6MPD1    C313894   0.208   3.920  12.259 -0.1817  0.2614 -0.3359
    6MPD1    C413895   0.251   3.907  12.137 -0.0951 -0.1643 -0.3843
    6MPD1    C513896   0.208   3.988  12.040 -0.4284  0.6712  0.5127
    6MPD1     H13897   0.074   4.021  12.391 -1.7393 -0.2723 -0.8268
    6MPD1    H113898   0.316   3.826  12.107 -1.3355 -0.4156 -2.3877
    6MPD1    H213899   0.084   4.139  11.979 -0.1035 -0.5514 -0.3224
    6MPD1    H313900   0.246   3.980  11.939 -2.5574 -1.6372 -0.1049
    6MPD1     N13901   0.265   3.833  12.351 -0.2816 -0.8493 -0.0135
    6MPD1    H513902   0.338   3.772  12.315 -0.8471 -0.0239 -2.5338
    6MPD1    N113903   4.694   4.198  12.215 -0.5920  0.1327 -0.1119
    6MPD1    H613904   4.692   4.236  12.310  3.5830 -0.4934  0.2416
    6MPD1    H713905   4.692   4.271  12.144 -0.3930  1.7182  1.4943
    7MPD2     C13906   0.437   3.543  13.161  0.0214  0.4060 -0.4816
    7MPD2    C113907   0.530   3.568  13.057 -0.6866 -0.1652  0.3920
    7MPD2    C213908   0.661   3.584  13.089 -0.3288 -0.7780  0.2261
    7MPD2    C313909   0.708   3.580  13.216  0.4252 -0.2328  0.3116
    7MPD2    C413910   0.614   3.566  13.317  0.7282 -0.6851 -0.6843
    7MPD2    C513911   0.480   3.542  13.296 -0.2828 -0.4280 -0.4149
    7MPD2     H13912   0.734   3.600  13.010 -1.2549 -0.6175 -0.6018
    7MPD2    H113913   0.658   3.578  13.415 -0.3202  0.2895 -0.3358
    7MPD2    H213914   0.330   3.537  13.144  0.1118  0.8615 -1.2481
    7MPD2    H313915   0.416   3.524  13.382  0.6806 -1.4919  0.0937
    7MPD2     N13916   0.844   3.593  13.230  0.0993  0.0852  0.4697
    7MPD2    H513917   0.894   3.616  13.145  1.2164 -0.4799  0.9762
    7MPD2    N113918   0.494   3.575  12.917  0.0169 -0.3987 -0.4213
    7MPD2    H713919   0.576   3.593  12.860  1.2002 -0.4289  1.2763
    8TMC3    C113920   1.063   3.593  13.300 -0.7307  0.8916 -0.0996
    8TMC3    C213921   1.144   3.491  13.335  0.3695  0.3905 -1.0840
    8TMC3    C313922   1.226   3.439  13.236  0.0412  0.0712 -0.1469
    8TMC3    C413923   1.078   3.653  13.179 -0.2098 -0.0747  0.4719
    8TMC3    C513924   1.150   3.593  13.083  0.3867  0.3608  0.6077
    8TMC3    C613925   1.215   3.477  13.104  0.1831  0.1102 -0.0659
    8TMC3     C13926   0.922   3.572  13.342 -0.6328  0.7093  0.4265
    8TMC3     O13927   0.891   3.511  13.441 -0.4080  0.2621 -0.0911
    8TMC3     H13928   1.117   3.440  13.427  3.4170 -0.3999 -0.6198
    8TMC3    H113929   1.042   3.754  13.165  0.6337  0.0992 -0.4078
    8TMC3    H213930   1.278   3.428  13.030 -2.7769 -1.0606 -1.8495
    8TMC3    C713931   1.081   3.602  12.959  0.0601  0.0270 -0.1795
    8TMC3    C813932   1.368   3.429  13.279  0.6419  0.1083 -0.2862
    8TMC3    O113933   0.971   3.654  12.965  0.7087  0.1230 -0.0735
    8TMC3    O213934   1.448   3.358  13.218  0.3023 -0.2597 -0.1041
    9TMC3    C113935   0.321   3.717  12.542 -0.1960  0.8357  0.0772
    9TMC3    C213936   0.437   3.684  12.480 -0.0646  0.0918  0.2525
    9TMC3    C313937   0.525   3.599  12.546 -0.3242 -0.1624 -0.0961
    9TMC3    C413938   0.295   3.671  12.662 -0.1101  0.5864 -0.1028
    9TMC3    C513939   0.385   3.599  12.728  0.1510  0.5204  0.3963
    9TMC3    C613940   0.496   3.554  12.672 -0.2523 -0.2411 -0.2207
    9TMC3     C13941   0.226   3.808  12.479  0.3448 -0.0305 -0.3761
    9TMC3     O13942   0.137   3.856  12.548 -0.0093  0.0430  0.3710
    9TMC3     H13943   0.470   3.729  12.387  1.8226  0.6399  1.1991
    9TMC3    H113944   0.197   3.692  12.704 -1.5934 -2.3063 -2.1036
    9TMC3    H213945   0.560   3.475  12.708  0.1343 -1.4924 -3.5851
    9TMC3    C713946   0.368   3.591  12.866 -0.2634  0.2289  0.7880
    9TMC3    C813947   0.649   3.556  12.483  0.4195 -0.4057  0.2266
    9TMC3    O113948   0.252   3.595  12.912  0.3697  0.2857  0.5392
    9TMC3    O213949   0.658   3.532  12.365 -0.7865  0.0837  0.0710
   10MPD2     C13950   1.152   3.516  12.606 -0.0332  0.6856  0.1539
   10MPD2    C113951   1.079   3.535  12.723  0.1215  0.6156 -0.6319
   10MPD2    C213952   0.942   3.548  12.702  0.0432  0.2431 -0.6495
   10MPD2    C313953   0.879   3.530  12.580 -0.5266  0.6805 -0.8831
   10MPD2    C413954   0.950   3.493  12.468 -0.1450  0.6993  0.0271
   10MPD2    C513955   1.089   3.489  12.483  1.1671  0.0857 -0.1393
   10MPD2     H13956   0.881   3.563  12.790  0.4884  2.5443 -0.7225
   10MPD2    H113957   0.908   3.486  12.368 -1.8870 -2.0901  0.9697
   10MPD2    H213958   1.259   3.507  12.592 -0.1317 -1.0755  0.4853
   10MPD2    H313959   1.158   3.477  12.400  0.3344 -1.1411 -0.6557
   10MPD2     N13960   0.743   3.556  12.582  0.2761  0.2996 -0.0908
   10MPD2    H513961   0.706   3.587  12.671  1.5455  1.7541 -0.0585
   10MPD2    N113962   1.139   3.548  12.852  0.2649  0.6042 -0.0369
   10MPD2    H713963   1.236   3.521  12.854  0.4729  1.4564  1.3968
   11MPD2     C13964   2.520   2.827  13.628  0.6884 -0.1923 -0.3295
   11MPD2    C113965   2.400   2.874  13.669  0.0748 -0.0436  0.6884
   11MPD2    C213966   2.341   2.965  13.589 -0.0213 -0.3579  0.6389
   11MPD2    C313967   2.404   3.026  13.482 -0.4973 -0.6659 -0.3980
   11MPD2    C413968   2.530   2.986  13.451 -0.4782  0.8710 -0.6213
   11MPD2    C513969   2.583   2.882  13.520  0.3499  0.1563 -0.1924
   11MPD2     H13970   2.243   2.999  13.620  0.9976  3.3587 -0.2132
   11MPD2    H113971   2.583   3.028  13.367 -0.1157  0.1706 -0.7380
   11MPD2    H213972   2.573   2.775  13.706 -1.2086 -0.1225  1.0061
   11MPD2    H313973   2.688   2.863  13.505 -0.3121 -3.6986  0.1959
   11MPD2     N13974   2.355   3.129  13.402 -0.0627 -0.0738 -0.0662
   11MPD2    H513975   2.420   3.172  13.338  0.7008 -0.8712  0.1711
   11MPD2    N113976   2.338   2.857  13.797 -0.4839  0.0656  0.5423
   11MPD2    H713977   2.245   2.898  13.802  0.2816  1.9295 -0.2870
    1MPD1     C13978   0.771   4.721  16.754 -0.8649  0.2673  0.5822
    1MPD1    C113979   0.841   4.666  16.650 -0.1439 -0.5180  0.0862
    1MPD1    C213980   0.769   4.587  16.562 -0.3602 -0.2351  0.0906
    1MPD1    C313981   0.630   4.582  16.567  0.3064 -0.6961  0.1839
    1MPD1    C413982   0.564   4.639  16.676 -0.6662  1.1011 -0.4176
    1MPD1    C513983   0.637   4.713  16.765 -0.9140  1.1023 -0.4195
    1MPD1     H13984   0.822   4.553  16.473  0.3257  0.6219  0.1722
    1MPD1    H113985   0.457   4.632  16.688 -0.5420 -1.2276 -0.5272
    1MPD1    H213986   0.824   0.059  16.826 -0.3535  1.6062 -0.9440
    1MPD1    H313987   0.603   0.055  16.844  1.5593  1.0043  0.7211
    1MPD1     N13988   0.547   4.540  16.461 -0.0185  0.0986 -0.8759
    1MPD1    H513989   0.448   4.549  16.482  0.3161  0.3952  0.5188
    1MPD1    N113990   0.984   4.653  16.654  0.5653 -0.2509 -0.7493
    1MPD1    H613991   1.028   4.619  16.568 -0.1191  2.2474 -2.1022
    1MPD1    H713992   1.037   0.001  16.702  0.0192 -1.2459  1.3146
    2MPD1     C13993   0.672   4.237  15.500 -0.0023  0.4054 -0.0797
    2MPD1    C113994   0.717   4.192  15.620 -0.6508 -0.6051 -0.4897
    2MPD1    C213995   0.692   4.266  15.732 -0.2270  0.2993  0.3941
    2MPD1    C313996   0.591   4.362  15.735  0.2800 -0.5309  0.4317
    2MPD1    C413997   0.534   4.392  15.619 -0.0789 -0.3475  0.1136
    2MPD1    C513998   0.573   4.332  15.495 -0.2309  0.1661  0.5343
    2MPD1     H13999   0.735   4.228  15.825 -0.5986  0.4418  0.6257
    2MPD1    H114000   0.470   4.479  15.618  0.1533 -0.1645  1.0235
    2MPD1    H214001   0.702   4.195  15.405 -0.9301 -0.1853 -0.1160
    2MPD1    H314002   0.540   4.384  15.405  2.3750  1.4641  0.3414
    2MPD1     N14003   0.540   4.411  15.865  0.8127 -0.3724 -0.1914
    2MPD1    H514004   0.588   4.382  15.949 -1.0330  0.2396  1.0753
    2MPD1    N114005   0.833   4.116  15.618  0.3833  0.4703 -0.1034
    2MPD1    H614006   0.843   4.070  15.708 -3.0770 -0.0814 -0.0238
    2MPD1    H714007   0.852   4.054  15.539 -0.9562  0.9532 -0.8010
    3TMC3    C114008   0.401   4.507  16.020 -0.2531 -0.3959  0.2327
    3TMC3    C214009   0.268   4.496  16.061 -0.5214  0.1371  0.3876
    3TMC3    C314010   0.252   4.475  16.197 -0.6073  0.2425 -0.5638
    3TMC3    C414011   0.511   4.486  16.102  0.4650  0.1217  0.1876
    3TMC3    C514012   0.482   4.484  16.237  0.2146  0.3467  0.6807
    3TMC3    C614013   0.355   4.467  16.288 -0.8992 -0.0264 -0.7093
    3TMC3     C14014   0.427   4.494  15.880  0.2802 -0.2443  0.9845
    3TMC3     O14015   0.336   4.509  15.803  0.6353  0.1938  0.7974
    3TMC3     H14016   0.187   4.526  15.995 -1.1723  1.5678  1.8267
    3TMC3    H114017   0.608   4.504  16.056  1.2663  0.5279  2.0199
    3TMC3    H214018   0.337   4.441  16.392  0.0278 -1.8375 -0.9998
    3TMC3    C714019   0.589   4.490  16.340  0.7630  0.1651  0.7499
    3TMC3    C814020   0.119   4.484  16.249 -0.6256  0.5402 -0.3003
    3TMC3    O114021   0.701   4.461  16.305 -0.3823 -0.4933  0.6696
    3TMC3    O214022   0.104   4.463  16.366  0.2823 -0.2170 -0.0759
    4MPD1     C14023   4.342   4.569  16.236  0.6507 -0.1849 -0.9004
    4MPD1    C114024   4.401   4.620  16.124 -1.1831 -0.0292 -0.1557
    4MPD1    C214025   4.532   4.599  16.103  0.1856  0.4232  0.0096
    4MPD1    C314026   4.611   4.521  16.184  1.2846 -0.7459  0.2572
    4MPD1    C414027   4.548   4.454  16.290 -0.1345 -0.0815 -0.8140
    4MPD1    C514028   4.411   4.480  16.314  0.0218  0.5757  0.4414
    4MPD1     H14029   4.574   4.640  16.012 -1.1222  0.8514 -0.4022
    4MPD1    H114030   4.598   4.380  16.351  0.6915  1.9421  0.9650
    4MPD1    H214031   4.236   4.583  16.255  0.8537 -0.2861  0.3213
    4MPD1    H314032   4.357   4.430  16.394  2.0848 -2.8751 -0.3224
    4MPD1     N14033   0.023   4.517  16.156  0.8609 -0.1636 -0.2724
    4MPD1    H514034   0.044   4.521  16.057 -2.3522  1.6842 -0.8644
    4MPD1    N114035   4.329   4.711  16.041  0.2436  0.1200  0.1527
    4MPD1    H614036   4.234   4.685  16.016  0.5850 -1.3573  0.3885
    4MPD1    H714037   4.379   0.012  15.956 -0.5859  0.3130 -0.2715
    1TCq1    O114038   1.156   3.205  11.190 -0.2724 -0.2693 -0.5519
    1TCq1    C114039   1.073   3.155  11.281 -0.9804  0.3450 -0.0387
    1TCq1    O214040   1.107   3.068  11.364  0.3944  0.6197 -0.7933
    1TCq1    C214041   0.935   3.181  11.253  0.1027  0.0047  0.0394
    1TCq1    C314042   0.904   3.248  11.133  0.6421  0.2821 -0.7371
    1TCq1    C414043   0.776   3.293  11.110  0.6699 -0.1267  0.1141
    1TCq1    C514044   0.692   3.309  11.223  0.4634  0.2408 -0.0738
    1TCq1    C614045   0.732   3.245  11.343 -0.4442  0.0274 -0.7683
    1TCq1    C714046   0.856   3.188  11.358  0.6335 -0.1849 -0.2141
    1TCq1    C814047   0.637   3.222  11.444  0.1360  0.0302 -0.0738
    1TCq1    O414048   0.663   3.190  11.560  0.3349  0.8675  0.2530
    1TCq1    C914049   0.753   3.376  10.999  0.3808  0.6936 -0.0429
    1TCq1    O514050   0.638   3.426  10.992 -0.8395  0.3181 -0.6377
    1TCq1    O614051   0.851   3.419  10.929  0.0484  0.2219 -0.5425
    1TCq1    H114052   1.130   3.296  11.164 -1.3150 -0.2557  0.5119
    1TCq1    H214053   0.963   3.235  11.043  2.1724 -1.3352  0.4960
    1TCq1    H314054   0.598   3.358  11.198  0.0872 -1.9970 -3.1287
    1TCq1    H414055   0.896   3.147  11.450 -0.0773  0.3271  0.3182
    2MPD1     C14056   0.133   3.196  11.549  0.2508 -0.0608 -0.5045
    2MPD1    C114057   0.153   3.256  11.425  0.1123 -0.3212  1.0637
    2MPD1    C214058   0.278   3.269  11.375 -0.1682 -0.0507  0.7246
    2MPD1    C314059   0.389   3.229  11.447 -0.3838  0.1811  0.3052
    2MPD1    C414060   0.375   3.167  11.574  0.0313  0.1763 -0.9189
    2MPD1    C514061   0.244   3.162  11.622 -0.2572 -0.9090  0.6230
    2MPD1     H14062   0.291   3.310  11.275 -0.6147  0.6017  0.9327
    2MPD1    H114063   0.456   3.137  11.640  1.2977  2.2265 -1.5387
    2MPD1    H214064   0.034   3.188  11.591  0.3019  0.0294 -0.3673
    2MPD1    H314065   0.236   3.103  11.713 -1.3509 -0.4382  0.8283
    2MPD1     N14066   0.513   3.239  11.384 -0.7812  0.0456 -0.5956
    2MPD1    H514067   0.514   3.274  11.289  1.5819  2.4455  0.2977
    2MPD1    N114068   0.042   3.286  11.348  0.0746 -0.0383  0.2340
    2MPD1    H614069   4.679   3.245  11.383  0.3343  0.6922  1.7294
    2MPD1    H714070   0.054   3.272  11.248 -0.6435  1.6820 -0.0997
    1TCq1    O114071   4.248   4.449   1.856  0.3876  0.1086 -0.4437
    1TCq1    C114072   4.260   4.527   1.744 -0.2204 -0.5303 -0.4167
    1TCq1    O214073   4.180   4.544   1.650 -0.4331 -0.0925  0.1872
    1TCq1    C214074   4.352   4.630   1.791  0.3236  0.0848  0.2675
    1TCq1    C314075   4.482   4.596   1.824  0.0695  0.1123  0.1070
    1TCq1    C414076   4.579   4.690   1.844 -1.3528  0.1879  0.1792
    1TCq1    C514077   4.563   0.087   1.787 -0.3033  0.5694 -0.1163
    1TCq1    C614078   4.437   0.116   1.731  0.9873 -1.1954 -0.5542
    1TCq1    C714079   4.332   0.028   1.731 -0.0635  0.0982 -0.8450
    1TCq1    C814080   4.405   0.253   1.694 -0.0749  0.5602 -0.1674
    1TCq1    O414081   4.290   0.272   1.661 -0.2812 -0.5089 -0.3687
    1TCq1    C914082   4.710   4.643   1.864  0.0665  0.4790 -0.1366
    1TCq1    O514083   4.718   4.524   1.890 -0.3846 -0.0496  0.2261
    1TCq1    O614084   0.083   4.704   1.810  0.5353  0.3979 -0.0589
    1TCq1    H114085   4.308   4.483   1.925 -0.4722 -2.1014  1.3980
    1TCq1    H214086   4.490   4.501   1.876 -0.8164 -1.8681 -3.3464
    1TCq1    H314087   4.645   0.158   1.795  0.6960 -0.9141  2.7052
    1TCq1    H414088   4.236   0.046   1.684  0.6297 -0.3701 -2.4400
    2MPD1     C14089   4.482   0.748   1.600 -0.5661 -0.0699 -0.0764
    2MPD1    C114090   4.605   0.687   1.609 -0.2159  0.0206  0.9081
    2MPD1    C214091   4.619   0.552   1.644  0.0593  0.0774  0.3352
    2MPD1    C314092   4.506   0.479   1.666  0.0775  0.3460  0.4990
    2MPD1    C414093   4.382   0.541   1.656  0.1095 -0.1610 -0.1303
    2MPD1    C514094   4.374   0.672   1.628 -0.2566 -0.6171 -0.5120
    2MPD1     H14095   4.721   0.516   1.642  0.1092  0.1754  0.9555
    2MPD1    H114096   4.285   0.494   1.669 -0.8240  1.8318  0.0945
    2MPD1    H214097   4.465   0.852   1.572 -4.5835  0.1109  3.0721
    2MPD1    H314098   4.273   0.710   1.623  0.1817  0.2565 -2.4014
    2MPD1     N14099   4.517   0.342   1.700  0.0334  0.1861 -0.0397
    2MPD1    H514100   4.602   0.294   1.726  0.4886  1.2199  0.3703
    2MPD1    N114101   0.001   0.758   1.593  0.3350 -0.4102  0.1578
    2MPD1    H614102   0.088   0.706   1.584  0.4245 -0.1214 -0.6955
    2MPD1    H714103   0.005   0.853   1.557  1.5335 -1.2629 -1.9948
    1MPD1     C14104   1.978   3.257  11.361 -0.1978  0.1130  0.3768
    1MPD1    C114105   1.863   3.334  11.345  0.4850 -0.4365  0.0935
    1MPD1    C214106   1.836   3.445  11.427  0.1740 -0.1947  0.6896
    1MPD1    C314107   1.927   3.478  11.533 -0.4082  0.1052  0.2627
    1MPD1    C414108   2.048   3.407  11.542 -0.1068  0.2952 -0.1394
    1MPD1    C514109   2.068   3.299  11.449  0.3641  0.2176 -0.2058
    1MPD1     H14110   1.737   3.490  11.430  1.6719  3.0897  0.1023
    1MPD1    H114111   2.130   3.432  11.609  0.7032  0.4618 -1.1782
    1MPD1    H214112   2.008   3.191  11.280  0.8152  0.8394  0.1696
    1MPD1    H314113   2.167   3.255  11.441  1.2358  1.8388  1.5021
    1MPD1     N14114   1.890   3.587  11.620 -0.0660 -0.7387  1.0222
    1MPD1    H514115   1.801   3.630  11.596  0.1464 -0.0938  1.3959
    1MPD1    N114116   1.769   3.292  11.250 -0.0234  0.6307 -0.0097
    1MPD1    H614117   1.716   3.369  11.209  0.4872  0.0074 -1.8340
    1MPD1    H714118   1.797   3.216  11.189 -3.5039 -0.2753 -0.4757
    2MPD1     C14119   2.277   3.938  11.113  0.1802 -0.0473  0.4392
    2MPD1    C114120   2.338   3.882  11.005  0.0088 -0.3368  0.0695
    2MPD1    C214121   2.462   3.934  10.972 -0.0085 -0.1243  0.3898
    2MPD1    C314122   2.536   3.984  11.066 -0.0998  0.2666  0.2388
    2MPD1    C414123   2.482   4.010  11.191  0.0428 -0.1093 -0.0746
    2MPD1    C514124   2.347   4.010  11.210 -0.1585  0.0479  0.2111
    2MPD1     H14125   2.507   3.908  10.877 -0.1788 -0.9989  0.5502
    2MPD1    H114126   2.534   4.064  11.270 -1.2136  1.0046 -0.0093
    2MPD1    H214127   2.170   3.921  11.114  0.1771 -0.0674 -0.7761
    2MPD1    H314128   2.314   4.028  11.312  2.1680  1.2621  0.7584
    2MPD1     N14129   2.678   4.011  11.050 -0.3471 -0.5673  0.3352
    2MPD1    H514130   2.724   4.042  11.135 -2.4267  1.6426  0.6463
    2MPD1    N114131   2.263   3.813  10.904 -0.7403 -0.1804  0.1040
    2MPD1    H614132   2.322   3.757  10.843 -3.0231  0.4068 -2.6358
    2MPD1    H714133   2.193   3.752  10.946 -0.8635  2.6465  4.0779
    3MPD1     C14134   3.076   4.493  10.307  0.3106 -1.0237  0.3504
    3MPD1    C114135   3.006   4.377  10.307  0.1532 -0.2241 -0.0797
    3MPD1    C214136   3.002   4.292  10.423 -0.1551 -0.0000 -1.2917
    3MPD1    C314137   3.059   4.342  10.540 -0.0661 -0.4014 -0.0835
    3MPD1    C414138   3.127   4.465  10.543  0.5891  0.3009 -0.5792
    3MPD1    C514139   3.128   4.541  10.428 -0.1779 -0.1293  0.7447
    3MPD1     H14140   2.968   4.189  10.416 -1.5696  0.5145 -2.1767
    3MPD1    H114141   3.167   4.507  10.634  1.1013 -1.7603  0.1346
    3MPD1    H214142   3.104   4.544  10.215 -1.4401  0.1904  0.4884
    3MPD1    H314143   3.192   4.629  10.423  0.3069 -0.5566 -0.8779
    3MPD1     N14144   3.047   4.263  10.658 -0.1661 -0.2239 -0.3046
    3MPD1    H514145   2.997   4.176  10.642  0.8637 -0.8168 -0.2770
    3MPD1    N114146   2.967   4.324  10.181  0.2562  0.7317  0.1485
    3MPD1    H614147   2.893   4.254  10.180 -0.7303  1.7820 -1.9611
    3MPD1    H714148   2.940   4.390  10.108 -0.3797  0.5758  0.2383
    4MPD2     C14149   2.176   4.238  11.484 -0.2321  0.4363  0.4784
    4MPD2    C114150   2.180   4.200  11.619 -0.1144 -0.1460  0.1870
    4MPD2    C214151   2.278   4.250  11.707  0.0842 -0.2657  0.7873
    4MPD2    C314152   2.379   4.334  11.656 -0.6178  0.3272  0.0940
    4MPD2    C414153   2.374   4.363  11.523 -0.1040 -0.2243 -0.2863
    4MPD2    C514154   2.271   4.321  11.445  0.0552  0.2244  0.7357
    4MPD2     H14155   2.268   4.227  11.813  0.1446  0.5067  0.9576
    4MPD2    H114156   2.454   4.420  11.476 -2.4957  2.1632 -1.4934
    4MPD2    H214157   2.096   4.214  11.414  0.3302  0.0298 -0.0174
    4MPD2    H314158   2.280   4.352  11.342 -3.1296 -0.1439  0.3257
    4MPD2     N14159   2.490   4.385  11.726 -0.0890  0.0737 -0.2313
    4MPD2    H514160   2.555   4.451  11.683 -0.7680  0.5462 -0.5410
    4MPD2    N114161   2.072   4.135  11.687 -0.3462 -0.2184 -0.4249
    4MPD2    H714162   2.084   4.134  11.788  0.0873 -0.8750 -0.4856
    5TMC3    C114163   1.887   3.990  11.733 -0.0040  0.2078 -0.1267
    5TMC3    C214164   1.884   3.858  11.685  0.0687  0.2082 -0.6260
    5TMC3    C314165   1.923   3.757  11.772 -0.3974 -0.4743  0.4335
    5TMC3    C414166   1.912   4.017  11.861  0.4748  0.3976  0.4267
    5TMC3    C514167   1.978   3.919  11.937  0.4490 -0.1626 -0.0432
    5TMC3    C614168   1.973   3.789  11.897 -0.0205 -0.1126 -0.1330
    5TMC3     C14169   1.967   4.066  11.634  0.1591 -0.5065 -0.3257
    5TMC3     O14170   1.951   4.042  11.514 -0.1897  0.4448 -0.0435
    5TMC3     H14171   1.878   3.827  11.581 -5.8585 -0.2605 -0.1186
    5TMC3    H114172   1.912   4.120  11.897 -0.5829  0.2573  0.8326
    5TMC3    H214173   2.019   3.713  11.959  0.2673  0.4393  0.3214
    5TMC3    C714174   2.093   3.970  12.008 -0.2029 -0.1752  0.1875
    5TMC3    C814175   1.958   3.621  11.732  0.3691  0.1312  0.6038
    5TMC3    O114176   2.113   4.093  11.999 -0.1730  0.0739  0.1485
    5TMC3    O214177   2.039   3.560  11.798 -0.2610  0.7838  0.1403
    6TMC3    C114178   2.890   4.031  10.944 -0.4667  0.3944  0.2812
    6TMC3    C214179   2.932   4.121  10.854  0.0954 -0.2753 -0.7909
    6TMC3    C314180   3.046   4.191  10.884  0.2148 -0.1852  0.1772
    6TMC3    C414181   2.948   4.027  11.071  0.6679 -0.1821 -0.0800
    6TMC3    C514182   3.063   4.096  11.099  0.2800 -0.1203 -0.0610
    6TMC3    C614183   3.117   4.172  11.001 -0.1107 -0.0290 -0.6438
    6TMC3     C14184   2.745   4.005  10.928  0.3451  0.8465 -0.0778
    6TMC3     O14185   2.704   3.997  10.814 -0.2731  0.3550  0.0106
    6TMC3     H14186   2.876   4.153  10.766 -0.1411  2.7295  0.4477
    6TMC3    H114187   2.905   3.969  11.151  0.1712 -1.1961 -1.0895
    6TMC3    H214188   3.206   4.230  11.025 -1.5177  2.1983 -0.7655
    6TMC3    C714189   3.101   4.110  11.237  0.9139 -0.0155 -0.1325
    6TMC3    C814190   3.101   4.282  10.781 -0.5252  0.0903  0.0755
    6TMC3    O114191   3.103   4.226  11.283  0.5950 -0.2274  0.0006
    6TMC3    O214192   3.168   4.373  10.820 -0.0954  0.2734 -0.6410
    7MPD2     C14193   2.540   3.911  12.249 -0.2422 -0.5780 -0.7025
    7MPD2    C114194   2.502   4.003  12.161  0.8801  0.2694  0.2713
    7MPD2    C214195   2.372   3.998  12.107  0.4129 -0.5731  0.2711
    7MPD2    C314196   2.286   3.897  12.141  0.5579 -0.6528 -0.0825
    7MPD2    C414197   2.332   3.807  12.233 -0.5933  0.3313  0.1518
    7MPD2    C514198   2.460   3.811  12.287 -0.6938  0.2950  1.0505
    7MPD2     H14199   2.344   4.076  12.038  0.3490 -0.3060  0.5975
    7MPD2    H114200   2.267   3.722  12.250  0.3218 -0.8741 -2.3909
    7MPD2    H214201   2.642   3.918  12.285  0.5859  0.9011 -3.2608
    7MPD2    H314202   2.502   3.732  12.349  0.5681 -0.2637 -0.5079
    7MPD2     N14203   2.155   3.880  12.087 -0.1086 -0.5020  0.4648
    7MPD2    H514204   2.098   3.804  12.122  0.4702 -1.3646 -0.4750
    7MPD2    N114205   2.583   4.109  12.118 -0.0752 -0.3253  0.4885
    7MPD2    H714206   2.533   4.187  12.077  1.1471  0.2562  0.1040
    8TMC3    C114207   2.765   4.238  12.066  0.6403 -0.3588 -0.1530
    8TMC3    C214208   2.862   4.207  11.973 -0.1181  0.1868  0.6739
    8TMC3    C314209   2.868   4.263  11.849 -0.0812  0.1694 -0.9576
    8TMC3    C414210   2.665   4.329  12.027 -0.4433  0.8746 -0.1560
    8TMC3    C514211   2.655   4.363  11.890 -0.2335  0.0734  0.0780
    8TMC3    C614212   2.756   4.332  11.802 -0.2029 -0.2257  0.7583
    8TMC3     C14213   2.716   4.122  12.148  0.4511  0.0383  0.1278
    8TMC3     O14214   2.796   4.041  12.188 -0.3214  0.2246 -0.2240
    8TMC3     H14215   2.933   4.131  12.006 -0.7760 -0.9181 -0.4697
    8TMC3    H114216   2.589   4.364  12.096 -0.1015  1.3110  0.0033
    8TMC3    H214217   2.744   4.353  11.697 -2.7519 -1.5045  0.7841
    8TMC3    C714218   2.514   4.352  11.854  0.3017  0.1283  0.4835
    8TMC3    C814219   2.955   4.207  11.737 -0.1016 -0.2765 -0.3629
    8TMC3    O114220   2.442   4.303  11.941  0.2192  0.0867  0.3769
    8TMC3    O214221   2.960   4.282  11.638  0.1794  0.7877 -0.0415
    9MPD2     C14222   3.129   3.882  11.698 -0.1874 -0.3408  0.4386
    9MPD2    C114223   3.067   3.999  11.660 -0.2718  0.2493 -0.1495
    9MPD2    C214224   3.067   4.037  11.526  0.0811  0.3345 -0.2461
    9MPD2    C314225   3.135   3.961  11.431 -0.5214  0.0748 -0.3768
    9MPD2    C414226   3.193   3.837  11.464  0.5209 -0.2577  0.5914
    9MPD2    C514227   3.191   3.797  11.599  0.4695  0.3712 -0.2661
    9MPD2     H14228   3.007   4.121  11.493  2.0840  2.1206  0.6099
    9MPD2    H114229   3.248   3.782  11.388  0.7317  0.4920  0.1970
    9MPD2    H214230   3.128   3.854  11.802  1.2918 -1.0691  0.2425
    9MPD2    H314231   3.249   3.711  11.632  0.5330  0.1603 -0.9241
    9MPD2     N14232   3.129   3.990  11.294  0.2715  0.4320 -0.0828
    9MPD2    H514233   3.147   3.910  11.235 -0.3602 -0.7042  1.2697
    9MPD2    N114234   3.007   4.083  11.755 -0.8971 -0.3475 -0.6480
    9MPD2    H714235   2.992   4.053  11.851  2.7222  1.9186  0.6345
    1MPD1     C14236   2.876   2.806  16.729 -0.3038  0.5383  0.3051
    1MPD1    C114237   2.976   2.893  16.764  0.6703 -1.0907 -0.1263
    1MPD1    C214238   3.105   2.852  16.757 -0.8865  0.4172  0.1618
    1MPD1    C314239   3.143   2.719  16.735  0.4511 -0.1404  0.3210
    1MPD1    C414240   3.041   2.637  16.695  0.2978 -0.2162  0.4483
    1MPD1    C514241   2.907   2.680  16.702  0.1319  1.1163 -0.0580
    1MPD1     H14242   3.181   2.921  16.793  0.0572 -0.4972 -0.0667
    1MPD1    H114243   3.062   2.534  16.667 -1.8902 -0.4928 -0.1867
    1MPD1    H214244   2.772   2.829  16.747 -0.6467 -1.2482  0.5847
    1MPD1    H314245   2.828   2.610  16.676  0.0281  1.3061 -0.2670
    1MPD1     N14246   3.272   2.672  16.754 -0.5210  0.0893 -0.1478
    1MPD1    H514247   3.282   2.572  16.764  1.1766  0.3921  1.2005
    1MPD1    N114248   2.945   3.025  16.774 -0.1813 -0.2981  0.7160
    1MPD1    H614249   3.016   3.077  16.824  0.0332 -2.1325  2.3190
    1MPD1    H714250   2.852   3.041  16.813  0.3287  2.6375  0.7104
    2MPD1     C14251   4.053   2.885  17.299 -0.1795 -0.6947  0.2470
    2MPD1    C114252   3.920   2.899  17.324  0.6058 -0.6439 -0.0514
    2MPD1    C214253   3.845   2.818  17.243 -0.1355  0.1846 -0.3872
    2MPD1    C314254   3.888   2.742  17.135 -0.9732 -0.2042  0.2584
    2MPD1    C414255   4.022   2.737  17.110  0.4263 -0.6962  0.5507
    2MPD1    C514256   4.104   2.810  17.193  0.7791  0.0751 -0.0587
    2MPD1     H14257   3.739   2.823  17.264 -0.0709 -2.9306  0.6754
    2MPD1    H114258   4.064   2.682  17.026  0.8797  0.7372 -0.1617
    2MPD1    H214259   4.127   2.920  17.370  0.2039 -1.8088  0.4101
    2MPD1    H314260   4.212   2.812  17.178  0.3788 -0.1871 -2.9706
    2MPD1     N14261   3.792   2.676  17.055  0.3406 -0.2839 -0.5607
    2MPD1    H514262   3.697   2.709  17.070  0.9119  0.6955  0.8170
    2MPD1    N114263   3.866   2.940  17.445 -0.2887  0.4719 -0.6220
    2MPD1    H614264   3.775   2.984  17.444 -1.3374 -1.7409 -0.9992
    2MPD1    H714265   3.927   3.012  17.485 -2.5331  1.9382  0.1335
    3TCq2    C114266   3.823   2.591  16.947 -0.1112  0.1977 -0.1959
    3TCq2    O214267   3.925   2.527  16.941 -0.1905  0.0912  0.1188
    3TCq2    C214268   3.702   2.563  16.867  0.8463  1.2439  0.1872
    3TCq2    C314269   3.711   2.477  16.758 -0.0388 -1.0174  0.3856
    3TCq2    C414270   3.603   2.459  16.680 -0.0399 -0.2602 -0.2783
    3TCq2    C514271   3.499   2.549  16.685  0.1989 -0.6763 -0.3113
    3TCq2    C614272   3.508   2.652  16.774 -0.1297 -0.0953  0.9407
    3TCq2    C714273   3.598   2.654  16.874 -0.5923  0.4772  0.3588
    3TCq2    C814274   3.387   2.738  16.787 -0.4359  0.3107  0.4782
    3TCq2    O414275   3.399   2.853  16.835  0.0130 -0.3896 -0.8060
    3TCq2    C914276   3.613   2.367  16.575  0.7489  0.0780  0.8078
    3TCq2    O514277   3.507   2.347  16.511 -0.4122 -0.5945  0.3354
    3TCq2    O614278   3.717   2.296  16.575 -0.5046  0.0026 -0.0662
    3TCq2    H214279   3.793   2.406  16.755  1.3097  0.4648  2.0959
    3TCq2    H314280   3.416   2.536  16.617  0.0484  0.8045 -0.4084
    3TCq2    H414281   3.583   2.731  16.948  1.8975 -0.0802  1.4417
    1TCq1    O114282   4.647   1.858  13.155 -0.2633 -0.1354 -0.0277
    1TCq1    C114283   0.020   1.927  13.100  0.0998 -0.3014  0.1484
    1TCq1    O214284   0.092   1.992  13.173  0.0906 -0.3625  0.0057
    1TCq1    C214285   0.045   1.888  12.966  0.1378 -0.7172  0.2989
    1TCq1    C314286   4.664   1.841  12.888  0.2730 -0.3101  0.3450
    1TCq1    C414287   4.684   1.809  12.756  0.4107 -0.0043  0.6727
    1TCq1    C514288   0.084   1.828  12.707  0.2624  0.4232 -0.2853
    1TCq1    C614289   0.192   1.861  12.789  0.5622 -0.6490 -0.4405
    1TCq1    C714290   0.172   1.898  12.923  0.4644 -0.1598  0.0283
    1TCq1    C814291   0.316   1.907  12.726  0.2870  0.0119  0.7052
    1TCq1    O414292   0.302   1.943  12.610 -0.3740 -0.4624  0.1677
    1TCq1    C914293   4.570   1.765  12.674 -0.0835 -0.4357 -0.7923
    1TCq1    O514294   4.466   1.721  12.729  0.0691 -0.5718 -0.5923
    1TCq1    O614295   4.584   1.776  12.544 -0.2189 -0.7326  0.1904
    1TCq1    H114296   4.604   1.789  13.100 -0.8815 -0.2989  0.6540
    1TCq1    H214297   4.559   1.847  12.914  0.4615 -0.5592  1.1492
    1TCq1    H314298   0.086   1.823  12.599  2.4825 -0.0913 -0.2096
    1TCq1    H414299   0.251   1.929  12.990  2.3902 -1.4405 -1.6480
    2MPD2     C14300   0.566   2.067  12.693  0.1236  0.0455 -0.1729
    2MPD2    C114301   0.542   1.980  12.797  0.7294  0.3287  0.3925
    2MPD2    C214302   0.641   1.955  12.893 -0.3274 -0.6222 -0.3740
    2MPD2    C314303   0.753   2.030  12.896  0.9522 -0.1668  0.2820
    2MPD2    C414304   0.773   2.116  12.795  0.4523 -0.2093  0.5589
    2MPD2    C514305   0.679   2.140  12.698 -0.0916  0.5230  0.5623
    2MPD2     H14306   0.626   1.879  12.968 -1.1799 -1.2115 -1.1365
    2MPD2    H114307   0.862   2.174  12.777 -1.3204  2.8819  1.7029
    2MPD2    H214308   0.503   2.081  12.606  0.9979  0.1190 -0.7921
    2MPD2    H314309   0.698   2.209  12.617 -0.4491  0.5065  0.4629
    2MPD2     N14310   0.847   1.991  13.004  0.2706  0.4556  0.4076
    2MPD2    H514311   0.814   1.912  13.058 -1.0294  1.6434  1.3637
    2MPD2    N114312   0.421   1.910  12.818 -0.1540  0.0290 -0.5341
    2MPD2    H714313   0.409   1.861  12.907  0.2846 -1.3812 -1.2560
    3TCq1    O114314   1.500   1.812  13.186 -0.1539  0.0576  0.2802
    3TCq1    C114315   1.423   1.866  13.082  0.6437 -0.0046 -0.1811
    3TCq1    O214316   1.454   1.879  12.965  0.8997  0.1177 -0.3471
    3TCq1    C214317   1.280   1.874  13.121  0.5719  0.5623  0.1884
    3TCq1    C314318   1.234   1.795  13.220 -0.0507 -0.8163  0.3309
    3TCq1    C414319   1.105   1.813  13.258 -0.5559  0.1839 -0.7793
    3TCq1    C514320   1.021   1.893  13.184  0.3110 -0.6104 -0.7121
    3TCq1    C614321   1.073   1.964  13.082 -0.4241 -0.4653 -0.5115
    3TCq1    C714322   1.201   1.948  13.041  0.4900 -0.3420  0.8934
    3TCq1    C814323   0.980   2.036  12.994  0.6936 -0.1327 -0.1274
    3TCq1    O414324   1.039   2.122  12.927 -0.3937  0.3919  0.0782
    3TCq1    C914325   1.045   1.722  13.355  0.3273  0.1793  0.3808
    3TCq1    O514326   0.971   1.762  13.449 -0.3786  0.4693  0.1203
    3TCq1    O614327   1.093   1.605  13.346  0.2054  0.1384 -0.3326
    3TCq1    H114328   1.452   1.810  13.272  0.9134 -1.8967  0.8280
    3TCq1    H214329   1.295   1.716  13.263 -0.9407 -1.8382 -0.3207
    3TCq1    H314330   0.920   1.906  13.222  0.8450 -2.4729  1.3198
    3TCq1    H414331   1.231   1.991  12.946  0.6340 -2.5746 -0.0624
    1MPD2     C14332   0.479   3.272  14.781  0.4228 -0.1746  0.6243
    1MPD2    C114333   0.354   3.236  14.826 -0.3945  0.7581  0.4147
    1MPD2    C214334   0.336   3.102  14.856 -0.1829  0.6669  0.0369
    1MPD2    C314335   0.446   3.017  14.860  0.6680  0.3368  0.1438
    1MPD2    C414336   0.571   3.062  14.819 -0.1708 -0.1914  0.1264
    1MPD2    C514337   0.582   3.187  14.780 -0.0670 -0.0192 -0.7402
    1MPD2     H14338   0.246   3.069  14.908 -0.5171  2.9648  0.9463
    1MPD2    H114339   0.658   2.997  14.820  0.2761  0.3719 -1.7302
    1MPD2    H214340   0.503   3.370  14.741 -0.3194 -0.0334  0.5250
    1MPD2    H314341   0.673   3.220  14.731 -0.4376 -0.1776 -1.5280
    1MPD2     N14342   0.433   2.885  14.911  0.1115  0.2358 -0.3487
    1MPD2    H514343   0.518   2.837  14.939 -0.5701 -0.0307  1.2613
    1MPD2    N114344   0.250   3.328  14.820  0.4647  0.1285  0.4938
    1MPD2    H714345   0.278   3.419  14.785  1.7468 -1.5859 -2.9018
    2TMC3    C114346   0.024   3.410  14.816  0.1306 -0.6642  0.2687
    2TMC3    C214347   4.632   3.396  14.878  0.0201 -0.2990  0.0801
    2TMC3    C314348   4.516   3.400  14.804 -0.1340  0.4689  0.3723
    2TMC3    C414349   0.029   3.439  14.681 -0.0348 -1.1073  0.1212
    2TMC3    C514350   4.634   3.440  14.611 -0.1346 -0.4783  0.5919
    2TMC3    C614351   4.514   3.431  14.670 -0.1646  0.4978  0.9600
    2TMC3     C14352   0.113   3.303  14.849 -0.4742  0.9085  0.3421
    2TMC3     O14353   0.067   3.209  14.910  0.1237  0.2001  0.1687
    2TMC3     H14354   4.636   3.371  14.983 -2.4584 -1.5294 -0.1042
    2TMC3    H114355   0.127   3.430  14.637 -0.3082 -0.2608 -0.6541
    2TMC3    H214356   4.415   3.451  14.632  0.1624  0.6517  0.1980
    2TMC3    C714357   4.626   3.550  14.510 -0.5033 -0.1879  0.5065
    2TMC3    C814358   4.435   3.284  14.821  0.4956 -0.3240 -0.3133
    2TMC3    O114359   4.523   3.566  14.447 -0.5801 -0.1505  0.4667
    2TMC3    O214360   4.319   3.272  14.781 -0.0821  0.1218  0.5462
    3TCq1    O114361   0.827   4.217  14.704 -0.4193 -0.1004  0.8111
    3TCq1    C114362   0.755   4.169  14.598 -0.4046 -0.0098 -0.1813
    3TCq1    O214363   0.781   4.061  14.544  0.4268 -0.0389 -0.0390
    3TCq1    C214364   0.627   4.230  14.590  0.1117  0.3916  0.0782
    3TCq1    C314365   0.605   4.367  14.618  0.3116 -0.2907  0.2343
    3TCq1    C414366   0.476   4.415  14.602  0.1719  0.1152 -0.0570
    3TCq1    C514367   0.383   4.346  14.536 -0.8124 -0.4405 -0.1817
    3TCq1    C614368   0.406   4.220  14.495  0.8828 -0.3621 -0.0033
    3TCq1    C714369   0.530   4.162  14.524  0.0857 -0.0573  0.8566
    3TCq1    C814370   0.313   4.152  14.401 -0.1010  0.4304  0.9210
    3TCq1    O414371   0.252   4.222  14.324 -0.6528  0.1891 -0.4278
    3TCq1    C914372   0.445   4.550  14.650  0.2608 -0.5156  0.5458
    3TCq1    O514373   0.327   4.589  14.619 -0.2614 -0.1446  0.2013
    3TCq1    O614374   0.536   4.620  14.698  0.2976  0.1899 -0.4913
    3TCq1    H114375   0.788   4.295  14.748  2.7654  1.7048  0.4595
    3TCq1    H214376   0.686   4.427  14.659  1.3908 -0.3934 -1.7345
    3TCq1    H314377   0.289   4.390  14.507 -0.5658  2.1107  3.0010
    3TCq1    H414378   0.551   4.059  14.497 -0.3665 -0.3270  1.5327
    4MPD2     C14379   0.107   3.963  14.294 -0.8446 -0.1854 -0.4015
    4MPD2    C114380   0.187   3.938  14.409  0.8562 -0.8241 -0.4246
    4MPD2    C214381   0.160   3.818  14.478  0.2371 -0.3090  0.3251
    4MPD2    C314382   0.045   3.743  14.442  0.6086 -0.4251  0.0542
    4MPD2    C414383   4.693   3.776  14.332 -0.4938  0.9073  0.5358
    4MPD2    C514384   4.723   3.889  14.261 -0.4111 -1.0286 -0.0040
    4MPD2     H14385   0.229   3.804  14.561  0.5304  1.7392  0.4226
    4MPD2    H114386   4.611   3.713  14.301  2.1741 -2.1575 -0.2706
    4MPD2    H214387   0.113   4.048  14.227 -0.6248 -1.5111 -2.0746
    4MPD2    H314388   4.669   3.912  14.170 -0.5174 -0.3717  0.2241
    4MPD2     N14389   0.015   3.625  14.520  0.6035  0.4720  0.2153
    4MPD2    H514390   0.076   3.609  14.600 -1.4291 -2.7232  1.1100
    4MPD2    N114391   0.291   4.023  14.450  0.0877 -0.8741 -0.2466
    4MPD2    H714392   0.340   3.997  14.535  0.3308  1.1409  0.2207
    5TMC2    C114393   0.107   2.602  15.062 -0.5116 -0.0565  0.0426
    5TMC2    C214394   0.162   2.590  15.182 -0.1636 -0.2320 -0.2992
    5TMC2    C314395   0.297   2.619  15.196 -0.2838  0.1978 -0.2382
    5TMC2    C414396   0.181   2.632  14.950  0.5227  0.7350 -0.2217
    5TMC2    C514397   0.304   2.686  14.973  0.6145 -0.1898 -0.1448
    5TMC2    C614398   0.376   2.673  15.091  0.1608 -0.3270 -0.5663
    5TMC2     C14399   4.690   2.638  15.045 -0.0934 -0.2017 -0.2636
    5TMC2     O14400   4.608   2.597  15.125  0.4700 -0.2455 -0.3497
    5TMC2     H14401   0.100   2.560  15.266  0.5571 -1.6994 -0.2898
    5TMC2    H114402   0.135   2.638  14.852 -1.8568 -0.6280  0.8211
    5TMC2    H214403   0.478   2.708  15.103 -0.3563  1.3635 -1.0932
    5TMC2    C714404   0.316   2.813  14.911  0.4978 -0.1794 -0.2347
    5TMC2    C814405   0.346   2.634  15.332 -0.4308 -0.3589  0.2165
    5TMC2    O114406   0.207   2.853  14.867 -0.2581 -0.1199  0.1929
    5TMC2    O214407   0.448   2.694  15.357  0.2175 -0.4113 -0.9483
    5TMC2    O514408   0.292   2.541  15.415  0.3509 -0.5439  0.4450
    5TMC2    H514409   0.230   2.476  15.375 -1.4576  1.6152 -0.2579
    6MPD2     C14410   4.342   3.010  14.929 -0.4855 -0.3690  0.4631
    6MPD2    C114411   4.476   3.052  14.917  0.1349 -0.1924 -0.3299
    6MPD2    C214412   4.582   2.969  14.941  0.6349 -0.0570  0.4521
    6MPD2    C314413   4.560   2.842  14.977  0.4902 -0.0415 -0.6596
    6MPD2    C414414   4.428   2.797  14.996 -0.1582  0.4410 -0.5551
    6MPD2    C514415   4.319   2.886  14.987  0.3934 -0.3299 -0.0399
    6MPD2     H14416   4.683   3.007  14.938  0.2737  0.7045 -2.4518
    6MPD2    H114417   4.405   2.693  15.015  2.6188 -0.2019 -0.7398
    6MPD2    H214418   4.259   3.072  14.897 -0.0250 -1.3586 -2.7156
    6MPD2    H314419   4.215   2.854  14.992 -0.0605  0.9159 -1.5518
    6MPD2     N14420   4.676   2.760  14.987 -0.4649  0.3244  0.0197
    6MPD2    H514421   0.032   2.802  14.942  1.6212 -2.5369  1.0473
    6MPD2    N114422   4.514   3.187  14.874  0.3822 -0.1765 -0.1303
    6MPD2    H714423   4.614   3.197  14.892  0.4430  1.1854 -1.2356
  945NH3     N114424   2.618   1.006  15.325 -0.1198  0.4190 -0.1903
  945NH3     H214425   2.651   1.087  15.377  0.3950 -0.5753  1.0517
  945NH3     H314426   2.697   0.993  15.263 -0.5779  1.1547 -0.9190
  945NH3     H414427   2.549   1.051  15.267 -2.7887  0.3220  2.8691
  946SOD     NA14428   3.443   0.987  15.226  0.5423 -0.1089 -0.0840
  947SOD     NA14429   2.313   2.583  14.538 -0.0348  0.1264 -0.3298
  948SOD     NA14430   2.153   3.517   5.883 -0.1828 -0.4727  0.2988
  949SOD     NA14431   4.546   3.582  10.947 -0.0462 -0.2844  0.2367
  950SOD     NA14432   0.746   0.088   8.647  0.1713 -0.3889  0.4823
  951SOD     NA14433   1.654   0.317   1.639 -0.0961  0.4773  0.1343
  952SOD     NA14434   3.003   1.385  13.088 -1.0569 -0.5854  0.3639
  953SOD     NA14435   0.410   0.362   2.369  0.0490 -0.0156 -0.2929
  954SOD     NA14436   1.329   2.792  11.509  0.3363 -0.2088 -0.4123
  955SOD     NA14437   1.925   2.239  13.200 -0.5668  0.3051 -0.0224
  956SOD     NA14438   2.607   3.652   9.730 -0.3683  0.3064 -0.2030
  957SOD     NA14439   1.679   2.918  11.959 -0.2275 -0.2783  0.5020
  958SOD     NA14440   4.013   0.387  10.230  0.5209 -0.3718 -0.1107
  959SOD     NA14441   0.958   1.934  13.588  0.1701 -0.4585  0.3460
  960SOD     NA14442   0.412   1.841  11.510 -0.5648 -0.4563  0.2627
  961SOD     NA14443   0.662   0.938  12.141 -0.2229 -0.2068  0.4462
  962SOD     NA14444   2.981   1.237  11.749  0.5655 -0.2224 -0.5344
  963SOD     NA14445   1.041   3.513  10.954 -0.3019 -0.1231 -0.5385
  964SOD     NA14446   4.208   2.724   3.019 -1.0479  0.1871  0.2762
  965SOD     NA14447   4.595   0.103  10.659  0.3259 -0.3581  0.5483
  966SOD     NA14448   1.042   2.985  15.224  0.4128 -0.0254 -0.1148
  967SOD     NA14449   3.021   4.597   2.540  0.3859  0.0199 -0.0993
  968SOD     NA14450   0.687   4.257   4.421  0.6515  0.3756 -0.0959
  969SOD     NA14451   2.507   4.655   8.889  0.3021 -0.1802 -0.0733
  970SOD     NA14452   3.179   1.939  13.179 -0.0425  0.0504  0.6462
  971SOD     NA14453   1.218   1.561  12.285  0.3679  0.4382  0.1691
  972SOD     NA14454   3.578   2.456  12.686 -0.3651 -0.1287 -0.2092
  973SOD     NA14455   1.792   4.017  17.240  0.1508  0.1624 -0.2613
  974SOD     NA14456   0.440   2.233  11.710  0.0320  0.0516 -0.1428
  975SOD     NA14457   4.082   2.515  10.039 -0.0917 -0.0630 -0.1746
  976SOD     NA14458   3.301   1.616  13.057 -0.0649  0.5819 -0.0204
  977SOD     NA14459   1.651   2.692  11.683 -0.1262  0.1138 -0.4804
  978SOD     NA14460   0.360   4.468   1.559  0.3542  0.3543 -0.2480
  979SOD     NA14461   4.334   1.397  10.085  0.0089 -0.2668 -0.2503
  980SOD     NA14462   1.382   4.285  15.964 -0.4629  0.2870  0.1601
  981SOD     NA14463   0.779   1.825  17.649 -0.2560 -0.0362 -0.2395
  982SOD     NA14464   0.915   0.429   2.368 -0.5827 -0.2335  0.4525
  983SOD     NA14465   1.630   2.016   0.614 -0.0846 -0.0586  0.0799
  984SOD     NA14466   2.565   4.375   1.121  0.1600  0.1179 -0.4964
  985SOD     NA14467   0.263   2.376  10.213 -0.2713 -0.2749 -0.0250
  986SOD     NA14468   1.967   1.038   1.157  0.3992 -0.0704  0.4899
  987SOD     NA14469   1.598   2.317  15.433  0.3388  0.0041  0.1123
  988SOD     NA14470   1.106   0.324   6.014  0.0444 -0.4156 -0.3527
  989SOD     NA14471   3.104   0.848  11.068 -0.4766  0.0883 -0.5589
  990SOD     NA14472   2.479   3.300  15.210 -0.4326 -0.0307 -0.1542
  991SOD     NA14473   0.848   0.175  13.940  0.3694 -0.3149  0.1643
  992SOD     NA14474   3.963   3.487  14.727  0.6811 -0.2415  0.1438
  993SOD     NA14475   0.136   1.707  14.569  0.0274 -0.7059  0.2391
  994SOD     NA14476   1.632   1.201  14.485 -0.0796  0.1237  0.5572
  995SOD     NA14477   1.685   2.147  15.159  0.5972  0.1787  0.0519
  996SOD     NA14478   4.100   1.423  10.289  0.4270 -0.4679  0.0305
  997SOD     NA14479   1.287   4.662   2.252  0.1064 -0.1315  0.2871
  998SOD     NA14480   2.490   1.011   2.054 -0.6984  0.1771 -0.0997
  999SOD     NA14481   0.916   1.692  10.464  0.1531 -0.3870  0.0808
 1000SOD     NA14482   4.520   1.291   9.856  0.0812 -0.1645  0.3873
 1001SOD     NA14483   1.410   2.032   2.312 -0.3170 -0.2067  0.3682
 1002SOD     NA14484   1.647   3.735  12.561  0.2795  0.0104  0.0215
 1003SOD     NA14485   2.313   2.288  14.694 -0.5304  0.9025 -0.0150
 1004SOD     NA14486   3.783   2.737  10.795  0.4299 -0.3594  0.2102
 1005SOD     NA14487   0.340   1.951  12.188  0.3367 -0.1188 -0.4639
 1006SOD     NA14488   1.319   3.328  11.710 -0.0557 -0.1693 -0.6137
 1007SOD     NA14489   3.258   1.542  17.043 -0.2017  0.9909 -0.2170
 1008SOD     NA14490   2.006   3.128  13.662 -0.3669  0.3341 -0.3273
 1009SOD     NA14491   1.287   0.189  16.882  0.2502 -0.5517  0.3255
 1010SOD     NA14492   3.545   0.665   4.521 -0.5653 -0.1559  0.6583
 1011SOD     NA14493   2.061   2.116   4.436  0.4511  0.1731 -0.4774
 1012SOL     OW14494   3.594   2.904   4.799  0.5925 -0.0735  0.6967
 1012SOL    HW114495   3.568   2.993   4.776  0.9003 -0.3365 -0.6606
 1012SOL    HW214496   3.689   2.892   4.792  0.3711 -1.5282  0.1860
 1013SOL     OW14497   3.080   1.365   7.027  0.1964 -0.1848  0.0815
 1013SOL    HW114498   3.105   1.448   6.987  1.7466 -0.5850  0.2144
 1013SOL    HW214499   3.085   1.300   6.957  0.3459 -1.3465  1.1529
 1014SOL     OW14500   2.412   2.227   9.582  0.5026  0.0213 -0.2249
 1014SOL    HW114501   2.422   2.236   9.487 -1.5766 -1.9626 -0.6157
 1014SOL    HW214502   2.389   2.317   9.604  0.3669 -0.3093  0.9742
 1015SOL     OW14503   3.400   4.304   1.158 -0.1985 -0.2201  0.6577
 1015SOL    HW114504   3.398   4.323   1.252 -0.2222  0.0898  0.5942
 1015SOL    HW214505   3.492   4.281   1.151 -0.1329  0.1631  0.3247
 1016SOL     OW14506   3.220   2.903   7.933 -0.8100 -0.0330  0.6078
 1016SOL    HW114507   3.290   2.843   7.957  0.6104  0.8482 -1.3344
 1016SOL    HW214508   3.221   2.969   8.003 -0.7472 -0.9548  1.4713
 1017SOL     OW14509   4.078   3.654   2.312  0.1231  0.4590  0.0588
 1017SOL    HW114510   4.065   3.564   2.279  1.2267  0.1064  0.5922
 1017SOL    HW214511   3.990   3.671   2.346  0.9183  2.1284  1.2687
 1018SOL     OW14512   1.503   2.421   8.914 -0.0353  0.5205 -0.8168
 1018SOL    HW114513   1.420   2.415   8.961  2.2773  1.4290  3.4218
 1018SOL    HW214514   1.563   2.364   8.962 -0.9000  0.7057  0.4783
 1019SOL     OW14515   2.812   1.173  14.446 -0.4079 -0.2966 -0.3493
 1019SOL    HW114516   2.866   1.249  14.426  0.3751 -0.9985 -0.9072
 1019SOL    HW214517   2.874   1.114  14.403 -0.8469  1.0192 -2.7917
 1020SOL     OW14518   3.187   3.023  11.961 -0.2964  0.5871 -0.2063
 1020SOL    HW114519   3.270   3.038  11.915  0.1044  2.1888  1.0332
 1020SOL    HW214520   3.135   3.103  11.959  1.2257  1.6066  0.4984
 1021SOL     OW14521   2.346   2.660   8.807 -0.2512 -0.3433  0.0014
 1021SOL    HW114522   2.295   2.741   8.799 -0.3982 -0.5929 -1.5983
 1021SOL    HW214523   2.419   2.693   8.859  1.2015 -4.4049  0.5070
 1022SOL     OW14524   3.590   2.300   1.971 -0.5726 -0.4152 -0.2053
 1022SOL    HW114525   3.495   2.308   1.958 -0.7890 -0.0764  1.6820
 1022SOL    HW214526   3.588   2.247   2.051  1.3303  1.8847  1.3323
 1023SOL     OW14527   1.613   0.284   5.165 -0.3243 -0.5100 -0.6405
 1023SOL    HW114528   1.673   0.358   5.159  0.3670 -1.0348 -0.2318
 1023SOL    HW214529   1.563   0.294   5.084 -1.6155  0.9035  0.3231
 1024SOL     OW14530   1.523   0.377   6.776 -0.4932  0.9211  0.6954
 1024SOL    HW114531   1.601   0.425   6.747 -0.4761  1.0045  0.8807
 1024SOL    HW214532   1.487   0.445   6.833  2.2281  3.2816 -0.3746
 1025SOL     OW14533   2.188   1.871   2.151 -0.0504 -0.5937  0.1541
 1025SOL    HW114534   2.279   1.902   2.156 -0.7145  1.0364  2.1077
 1025SOL    HW214535   2.143   1.923   2.084 -1.9197 -0.8399  1.2306
 1026SOL     OW14536   0.726   2.991   6.304  0.2234 -0.5266 -0.0802
 1026SOL    HW114537   0.689   3.005   6.217  1.5174 -0.5610 -0.6272
 1026SOL    HW214538   0.811   3.032   6.290 -0.5072  0.3994 -1.8101
 1027SOL     OW14539   0.930   4.495   4.700 -0.0926 -0.1129  0.4874
 1027SOL    HW114540   0.837   4.478   4.718 -0.2659 -0.1415 -0.4499
 1027SOL    HW214541   0.963   4.425   4.644 -0.2556  0.4001 -0.2397
 1028SOL     OW14542   1.554   3.987   4.036  0.2892  0.2726 -0.2845
 1028SOL    HW114543   1.500   4.053   4.079 -0.2587  0.5822 -1.4688
 1028SOL    HW214544   1.550   3.918   4.103  0.4850  1.4089  0.8971
 1029SOL     OW14545   0.949   3.499   6.986  0.1601  0.0283 -0.7796
 1029SOL    HW114546   1.016   3.433   7.003  0.6546  0.7086 -0.1368
 1029SOL    HW214547   0.885   3.468   7.050  0.4371 -0.0267 -0.5306
 1030SOL     OW14548   2.008   1.744  16.322  0.1234  0.1584 -0.1883
 1030SOL    HW114549   2.038   1.833  16.339  0.1378  0.0865  0.1620
 1030SOL    HW214550   2.082   1.710  16.272  0.5643  1.0515 -0.1430
 1031SOL     OW14551   4.490   3.496  15.552  0.2389  0.2449  0.0164
 1031SOL    HW114552   4.489   3.567  15.488  0.0630  0.5765  0.3898
 1031SOL    HW214553   4.536   3.430  15.500 -1.2372  0.0276 -1.0103
 1032SOL     OW14554   2.439   0.792   3.054 -0.1677  0.5427 -0.3676
 1032SOL    HW114555   2.359   0.832   3.020  0.5295  0.0289 -2.6398
 1032SOL    HW214556   2.424   0.701   3.028  1.5540  0.0882  0.1747
 1033SOL     OW14557   1.757   4.680  14.182 -0.4274 -0.1661  0.5536
 1033SOL    HW114558   1.718   4.621  14.245 -1.1760 -2.6557 -2.2430
 1033SOL    HW214559   1.808   4.643  14.110 -1.6591  0.5427 -0.6925
 1034SOL     OW14560   2.781   3.546   8.996  0.1187  0.5980 -0.5237
 1034SOL    HW114561   2.778   3.451   9.012  0.0881  1.2482  3.2738
 1034SOL    HW214562   2.874   3.559   8.973  0.0393 -0.4695 -1.4852
 1035SOL     OW14563   4.036   2.422  11.792  0.5317  0.1285 -0.1251
 1035SOL    HW114564   4.124   2.413  11.827  0.7844 -0.8140 -0.9735
 1035SOL    HW214565   4.058   2.352  11.731  0.6543  0.7771 -0.8220
 1036SOL     OW14566   1.756   1.589   5.267 -0.1938  0.0426  0.4000
 1036SOL    HW114567   1.684   1.532   5.240  0.8657 -0.7746 -0.6939
 1036SOL    HW214568   1.736   1.665   5.213 -1.7239  0.5701  1.7020
 1037SOL     OW14569   1.060   1.457   5.808 -0.3654 -0.3179  0.0765
 1037SOL    HW114570   1.153   1.449   5.788 -0.4411 -2.4859  0.5382
 1037SOL    HW214571   1.064   1.425   5.899 -1.2196 -1.7858 -0.4022
 1038SOL     OW14572   0.249   0.678   5.397 -0.1745 -0.1433  0.6590
 1038SOL    HW114573   0.252   0.600   5.454  1.1594 -0.7773 -0.2984
 1038SOL    HW214574   0.316   0.721   5.450 -3.2006  1.0208  3.6034
 1039SOL     OW14575   1.025   4.055   4.994 -0.4628  0.6162 -0.2867
 1039SOL    HW114576   0.943   4.010   5.013 -0.6829  2.3221  2.8512
 1039SOL    HW214577   1.066   4.001   5.062  0.5580  2.0488  0.2441
 1040SOL     OW14578   2.783   2.113   6.140  0.1946  0.4818  0.0012
 1040SOL    HW114579   2.778   2.064   6.222  0.5654  2.0966  1.0030
 1040SOL    HW214580   2.695   2.109   6.102 -1.0067  1.5710  2.6661
 1041SOL     OW14581   0.753   0.436   3.373  0.0583  0.5009  0.3576
 1041SOL    HW114582   0.719   0.511   3.422  0.1141  1.4114 -1.0070
 1041SOL    HW214583   0.695   0.426   3.298  0.4121 -2.8554  0.5275
 1042SOL     OW14584   3.419   4.100   5.004 -0.1800  0.3714  0.5722
 1042SOL    HW114585   3.480   4.028   4.990  0.3541  1.2756 -1.7231
 1042SOL    HW214586   3.430   4.152   4.924 -0.1826  0.6255  0.7364
 1043SOL     OW14587   1.993   2.713  15.616 -0.2673  0.1837 -0.2463
 1043SOL    HW114588   2.026   2.623  15.626 -0.3723  0.0302 -1.2587
 1043SOL    HW214589   2.033   2.756  15.691  0.6481 -0.1634 -0.5272
 1044SOL     OW14590   0.318   2.957   7.844  0.2993  0.0740  0.7929
 1044SOL    HW114591   0.240   3.011   7.851 -0.6434 -1.0090 -1.4412
 1044SOL    HW214592   0.283   2.884   7.793 -2.4896  0.3418  2.3755
 1045SOL     OW14593   3.127   0.112   9.782  0.0034 -0.5428  0.6874
 1045SOL    HW114594   3.081   0.162   9.850 -1.4662 -1.4582  0.3673
 1045SOL    HW214595   3.166   0.039   9.830 -0.7450  0.1539  2.3540
 1046SOL     OW14596   3.368   4.417  16.067  0.0679 -0.2838  0.1834
 1046SOL    HW114597   3.413   4.408  16.151  0.4862  1.1569  0.1090
 1046SOL    HW214598   3.298   4.356  16.089 -0.0926 -0.4482 -0.7784
 1047SOL     OW14599   4.602   2.890   3.554  0.3160 -0.1170 -0.6935
 1047SOL    HW114600   4.678   2.874   3.610  0.3276  2.1285 -0.0757
 1047SOL    HW214601   4.632   2.912   3.466 -0.0692  0.9039 -0.5737
 1048SOL     OW14602   3.256   1.249   6.223 -0.3268  0.0375 -0.1022
 1048SOL    HW114603   3.219   1.219   6.140 -3.0176 -0.3729  1.2606
 1048SOL    HW214604   3.332   1.190   6.224 -0.1407  0.2739 -0.3991
 1049SOL     OW14605   1.711   3.530   3.849  0.3120 -0.0615 -0.4419
 1049SOL    HW114606   1.674   3.584   3.778  1.6173  1.0368 -0.2780
 1049SOL    HW214607   1.788   3.496   3.803 -1.1838 -0.5553 -2.5615
 1050SOL     OW14608   1.351   1.354   4.277  0.5172 -0.0612 -0.3470
 1050SOL    HW114609   1.436   1.369   4.234 -0.1845  0.9495 -1.3837
 1050SOL    HW214610   1.335   1.436   4.323  0.6705  0.9845 -2.1310
 1051SOL     OW14611   2.717   2.992   1.476 -0.0959  0.2767 -0.0273
 1051SOL    HW114612   2.665   3.005   1.396  0.2989 -2.6972 -0.7667
 1051SOL    HW214613   2.660   3.024   1.545 -1.8837 -0.3790 -1.1941
 1052SOL     OW14614   2.092   3.604  15.821  0.3074  0.2071  0.2378
 1052SOL    HW114615   2.104   3.679  15.879  1.1112  0.5014 -0.3082
 1052SOL    HW214616   1.997   3.596  15.816  0.5564 -1.8757 -1.1751
 1053SOL     OW14617   3.634   0.668  10.685  0.4072  0.8374  0.4160
 1053SOL    HW114618   3.643   0.715  10.603 -1.3406  1.6401  0.6737
 1053SOL    HW214619   3.556   0.613  10.674  1.2549  0.2088 -2.4773
 1054SOL     OW14620   1.441   3.772   8.672  0.5576  0.1828 -1.0854
 1054SOL    HW114621   1.412   3.682   8.660  1.5079 -0.0982 -1.2191
 1054SOL    HW214622   1.460   3.803   8.583  0.0561  0.9656 -0.9181
 1055SOL     OW14623   1.389   1.220   9.404  0.4329  0.2411 -0.1665
 1055SOL    HW114624   1.416   1.299   9.450 -1.3938  0.2536  0.8359
 1055SOL    HW214625   1.309   1.193   9.448  0.4732 -0.5566 -0.5629
 1056SOL     OW14626   1.963   3.605  15.172  0.0838  0.1437  0.6280
 1056SOL    HW114627   1.892   3.617  15.109  0.2968 -2.2457 -0.0269
 1056SOL    HW214628   2.031   3.609  15.105  1.1107 -0.8262  1.6184
 1057SOL     OW14629   3.111   2.521   3.266 -0.5838 -0.1587  0.0611
 1057SOL    HW114630   3.102   2.427   3.285  1.4164 -0.4341 -0.3961
 1057SOL    HW214631   3.049   2.532   3.194 -0.9880  1.0304  0.5943
 1058SOL     OW14632   1.803   2.019   8.322  0.2559 -0.0735  0.1736
 1058SOL    HW114633   1.715   2.045   8.349  0.1448  0.5846 -0.8607
 1058SOL    HW214634   1.829   2.082   8.255 -2.8382  0.5770 -0.3746
 1059SOL     OW14635   3.739   0.627   3.107 -0.4791  0.2417  0.5667
 1059SOL    HW114636   3.697   0.623   3.193  0.3453 -1.5645  0.8893
 1059SOL    HW214637   3.667   0.656   3.052 -0.1227 -0.6860 -0.3782
 1060SOL     OW14638   3.168   4.148   7.008 -0.2211 -0.3911 -0.1218
 1060SOL    HW114639   3.149   4.163   7.101  1.8513 -1.9473  0.5325
 1060SOL    HW214640   3.259   4.175   6.995 -0.2791 -0.9075 -1.6133
 1061SOL     OW14641   0.287   2.869   6.080 -0.1266 -0.2802 -0.4619
 1061SOL    HW114642   0.366   2.923   6.068  0.3829 -0.1566  3.3489
 1061SOL    HW214643   0.325   2.781   6.081 -2.1436 -1.1402  0.8836
 1062SOL     OW14644   2.103   1.776   5.972 -0.0494  0.1294  0.0581
 1062SOL    HW114645   2.136   1.698   6.017 -0.6597 -0.8212 -1.1457
 1062SOL    HW214646   2.163   1.794   5.900 -1.3364  1.2901 -0.7201
 1063SOL     OW14647   3.024   2.408   8.015 -0.3169 -0.3358 -0.4400
 1063SOL    HW114648   2.997   2.499   8.024 -1.4935 -0.6726 -0.6465
 1063SOL    HW214649   2.973   2.377   8.090  0.9348  1.2245  1.0877
 1064SOL     OW14650   1.321   4.128   5.177 -0.1871 -0.2925  0.4579
 1064SOL    HW114651   1.248   4.118   5.239 -1.5354  1.2499 -0.9027
 1064SOL    HW214652   1.337   4.037   5.153 -2.7255 -0.2547 -1.3875
 1065SOL     OW14653   4.090   2.319  10.283  0.3212  0.3367  0.3957
 1065SOL    HW114654   4.101   2.359  10.369 -2.2701  0.8838  0.4804
 1065SOL    HW214655   4.041   2.240  10.307 -2.0609  1.5547 -0.4789
 1066SOL     OW14656   0.373   1.744   2.560  0.1329 -0.9312 -0.0499
 1066SOL    HW114657   0.434   1.671   2.554  2.6285  1.0825  0.9449
 1066SOL    HW214658   0.424   1.809   2.512 -1.5737  0.5722  0.1839
 1067SOL     OW14659   1.828   4.239  14.352  0.2573 -0.0940  0.4179
 1067SOL    HW114660   1.801   4.247  14.443 -1.7426 -1.0532 -0.0996
 1067SOL    HW214661   1.893   4.172  14.375 -1.2458 -1.4205  0.7612
 1068SOL     OW14662   4.492   1.465   2.396 -0.4393 -0.5651 -0.1438
 1068SOL    HW114663   4.464   1.550   2.431 -0.7028 -0.7183  0.0140
 1068SOL    HW214664   4.490   1.407   2.472  3.4605 -0.8174 -0.2136
 1069SOL     OW14665   0.040   4.307  10.299  0.2827 -0.3027  0.3940
 1069SOL    HW114666   0.022   4.243  10.368 -1.1775 -1.6172 -1.2297
 1069SOL    HW214667   0.079   4.378  10.350 -1.1055  1.6379 -1.2686
 1070SOL     OW14668   0.425   1.287   2.108  0.2925 -0.4003 -0.9436
 1070SOL    HW114669   0.470   1.360   2.065 -0.5777  0.4552 -0.3990
 1070SOL    HW214670   0.376   1.245   2.037 -1.1204 -4.0975  2.2744
 1071SOL     OW14671   1.364   3.581  11.565  0.3044 -0.0227 -0.6233
 1071SOL    HW114672   1.313   3.564  11.485 -1.5076  0.4218  0.4440
 1071SOL    HW214673   1.305   3.649  11.597 -0.9864 -0.8725 -1.2212
 1072SOL     OW14674   0.928   0.759   1.730 -0.0668  0.1484  0.9750
 1072SOL    HW114675   0.962   0.847   1.711  0.8379 -0.1794  1.0980
 1072SOL    HW214676   1.007   0.710   1.710 -0.1714  0.6732 -0.7240
 1073SOL     OW14677   1.228   2.662   7.144 -0.1976  0.2459 -0.3573
 1073SOL    HW114678   1.188   2.580   7.171  0.2599 -0.5712 -2.1798
 1073SOL    HW214679   1.223   2.714   7.224  0.2028 -0.6348  0.2368
 1074SOL     OW14680   1.169   1.289  10.929 -0.1007  0.1158  0.4490
 1074SOL    HW114681   1.261   1.272  10.947 -0.0915 -0.2229  0.1005
 1074SOL    HW214682   1.166   1.384  10.941  0.3946  0.0546  1.0547
 1075SOL     OW14683   4.579   1.370   7.920  0.0121 -0.0660  0.7850
 1075SOL    HW114684   4.618   1.293   7.963  1.3415  0.4439  0.5107
 1075SOL    HW214685   4.654   1.399   7.868 -0.6722 -0.0418 -0.1769
 1076SOL     OW14686   1.251   3.673   4.731 -0.1548 -0.4369 -0.1611
 1076SOL    HW114687   1.176   3.665   4.791  0.7197  2.2466  1.2925
 1076SOL    HW214688   1.316   3.626   4.785 -0.1472  0.9995  1.0771
 1077SOL     OW14689   3.547   2.313  14.991 -0.3791 -0.0156  0.3446
 1077SOL    HW114690   3.564   2.220  15.000 -1.7649  0.0352  3.3899
 1077SOL    HW214691   3.479   2.311  15.058  0.5612  1.8929  1.3795
 1078SOL     OW14692   2.797   1.271   6.219 -0.3296  0.0302 -0.3508
 1078SOL    HW114693   2.712   1.298   6.254  1.7189  3.4489  1.9456
 1078SOL    HW214694   2.801   1.320   6.137 -1.5361  1.2284  0.3072
 1079SOL     OW14695   1.533   1.594   7.699 -0.3990  0.3652 -0.2074
 1079SOL    HW114696   1.469   1.527   7.723  0.3280 -0.7426 -1.3622
 1079SOL    HW214697   1.614   1.544   7.701  0.2008  1.2893 -1.2056
 1080SOL     OW14698   0.208   0.085  16.567 -0.3609  0.4128 -0.0476
 1080SOL    HW114699   0.201   0.005  16.619  2.7976 -0.3449 -0.8106
 1080SOL    HW214700   0.267   0.143  16.615 -0.9148 -0.1112  1.2808
 1081SOL     OW14701   0.244   2.321   0.199  0.2836 -0.0164 -0.5735
 1081SOL    HW114702   0.265   2.286   0.286 -2.8948 -1.1586 -0.2565
 1081SOL    HW214703   0.184   2.383   0.242  2.1292  0.0050  2.0025
 1082SOL     OW14704   4.003   1.111   8.450  0.1866  0.4719 -0.2612
 1082SOL    HW114705   4.053   1.189   8.476 -0.9287  1.1697 -0.2030
 1082SOL    HW214706   3.997   1.134   8.357 -2.7075 -1.2972 -0.5087
 1083SOL     OW14707   3.228   0.694   0.827 -0.0146 -0.0793 -0.5869
 1083SOL    HW114708   3.200   0.753   0.897 -0.0547  0.5746 -1.1626
 1083SOL    HW214709   3.320   0.678   0.849 -0.2745  1.5299  1.6533
 1084SOL     OW14710   0.760   1.159   8.019 -0.0727  0.3985  0.9376
 1084SOL    HW114711   0.718   1.239   8.050 -0.4116  1.2153 -1.5783
 1084SOL    HW214712   0.832   1.194   7.966 -1.6933  0.5584 -1.1733
 1085SOL     OW14713   1.259   3.193   4.688  0.0624 -0.2668 -0.6007
 1085SOL    HW114714   1.257   3.099   4.705  1.3715 -0.2612 -0.3830
 1085SOL    HW214715   1.354   3.205   4.688 -0.2775  2.4630 -3.2175
 1086SOL     OW14716   3.150   4.400   3.785 -0.1255 -0.0060  0.0900
 1086SOL    HW114717   3.086   4.393   3.715  2.5647 -0.0317 -2.3921
 1086SOL    HW214718   3.178   4.489   3.762 -0.5929 -0.0540 -0.6774
 1087SOL     OW14719   4.490   2.441   5.319  0.0693  0.3884 -0.1510
 1087SOL    HW114720   4.432   2.386   5.371 -1.3764  0.3042 -1.8591
 1087SOL    HW214721   4.530   2.383   5.255 -0.3945 -0.3377  0.2219
 1088SOL     OW14722   1.674   3.780   3.228  0.4279 -0.1125  0.0177
 1088SOL    HW114723   1.652   3.688   3.242  1.3672 -0.6540 -2.0405
 1088SOL    HW214724   1.751   3.792   3.283  0.3871  1.0102 -0.1672
 1089SOL     OW14725   3.301   1.825   6.101  0.7026  0.5309 -0.1064
 1089SOL    HW114726   3.308   1.816   6.196 -2.2294 -1.8728 -0.1044
 1089SOL    HW214727   3.375   1.783   6.056 -0.5893 -0.9234 -0.8814
 1090SOL     OW14728   1.673   2.724   7.709 -0.4652  0.6407 -0.2914
 1090SOL    HW114729   1.611   2.750   7.776 -0.4129 -1.7623  0.6757
 1090SOL    HW214730   1.687   2.811   7.670  1.1199  0.9280  0.9316
 1091SOL     OW14731   1.302   0.341   5.616  0.4372 -0.6126 -0.7306
 1091SOL    HW114732   1.326   0.288   5.692  0.3771  0.7000  0.2163
 1091SOL    HW214733   1.381   0.394   5.606 -0.3156  0.4731 -0.9648
 1092SOL     OW14734   1.386   1.244   4.525  0.0832 -0.3948 -0.1197
 1092SOL    HW114735   1.412   1.279   4.440 -1.5583  0.5043 -0.2611
 1092SOL    HW214736   1.396   1.151   4.504  0.8183 -0.0330 -1.3520
 1093SOL     OW14737   2.033   0.945  11.054  0.0347 -0.3974  0.0433
 1093SOL    HW114738   2.024   1.031  11.014  2.8856  0.2344  0.7805
 1093SOL    HW214739   2.050   0.970  11.145 -1.0040 -1.0461  0.4258
 1094SOL     OW14740   2.973   0.186   9.125  0.2256 -0.3937 -0.0176
 1094SOL    HW114741   3.028   0.189   9.203  0.4674  2.8720 -0.3155
 1094SOL    HW214742   2.958   0.281   9.117 -0.4236 -0.7279 -2.6594
 1095SOL     OW14743   2.822   0.542   4.550  0.0162  1.0105 -0.1015
 1095SOL    HW114744   2.853   0.475   4.489 -1.2306 -0.2733  0.6749
 1095SOL    HW214745   2.744   0.576   4.504 -0.6951  0.9745  1.0866
 1096SOL     OW14746   3.599   3.359   4.385 -0.2942  0.1074 -0.3075
 1096SOL    HW114747   3.623   3.448   4.410  0.1680 -0.2523  0.4976
 1096SOL    HW214748   3.507   3.378   4.365 -0.7779 -2.8938 -0.9710
 1097SOL     OW14749   3.871   1.361   3.385  0.1558 -0.4507  0.0820
 1097SOL    HW114750   3.891   1.336   3.295 -1.0602 -2.7396  0.4431
 1097SOL    HW214751   3.955   1.396   3.414 -0.4653  1.3959 -0.3131
 1098SOL     OW14752   2.336   0.204   8.425  0.6662  0.3493 -0.0174
 1098SOL    HW114753   2.338   0.296   8.451 -0.7566  0.2262  0.5087
 1098SOL    HW214754   2.248   0.173   8.445  0.1425  0.4990 -2.0383
 1099SOL     OW14755   3.992   4.127  16.053 -0.3243 -0.0610  0.1421
 1099SOL    HW114756   3.944   4.064  16.108  1.5770  0.6637  2.6318
 1099SOL    HW214757   3.977   4.087  15.967  0.5398 -0.5507  0.2198
 1100SOL     OW14758   1.054   3.474   6.492 -0.0250  0.9977  0.0980
 1100SOL    HW114759   0.980   3.530   6.516 -0.0429  1.0821 -0.1501
 1100SOL    HW214760   1.066   3.422   6.571  0.3735  1.5881  0.4189
 1101SOL     OW14761   3.611   1.048   2.719 -0.7142 -0.8565  0.1246
 1101SOL    HW114762   3.664   1.122   2.690 -0.5713 -1.0752 -0.1819
 1101SOL    HW214763   3.521   1.078   2.721 -0.8583 -1.2532 -0.2680
 1102SOL     OW14764   1.167   2.005  10.353  0.5528  0.1812 -0.0730
 1102SOL    HW114765   1.105   1.946  10.311  0.8912  0.3500 -0.8234
 1102SOL    HW214766   1.211   2.044  10.277  1.1322  0.0052  0.1731
 1103SOL     OW14767   1.306   3.865   5.015 -0.2852 -0.3650  0.0340
 1103SOL    HW114768   1.265   3.778   5.019  1.3410 -1.1341  0.0805
 1103SOL    HW214769   1.301   3.880   4.920 -1.7623 -0.5346  0.0945
 1104SOL     OW14770   3.365   1.333  13.332  0.2241  0.3490  0.0302
 1104SOL    HW114771   3.407   1.407  13.375  1.1643  0.6848 -1.4441
 1104SOL    HW214772   3.363   1.271  13.405 -0.2269 -0.1984 -0.4470
 1105SOL     OW14773   4.048   1.712   5.749 -0.1288  0.2485  0.1018
 1105SOL    HW114774   4.055   1.807   5.759  2.6038 -0.0808  1.5623
 1105SOL    HW214775   3.961   1.696   5.784 -0.1771 -1.5744 -0.8613
 1106SOL     OW14776   2.580   1.204   3.042  0.1420  0.6713 -0.3587
 1106SOL    HW114777   2.540   1.285   3.074  0.7026  0.6689  0.3632
 1106SOL    HW214778   2.641   1.186   3.114 -0.4672 -3.2467 -0.8289
 1107SOL     OW14779   0.460   0.084   9.181  0.1123 -0.5213  0.6530
 1107SOL    HW114780   0.539   0.137   9.174  1.6457 -2.7487  0.8940
 1107SOL    HW214781   0.426   0.104   9.268  0.9725 -2.3361  1.3941
 1108SOL     OW14782   2.829   2.386   6.093  0.1059  0.0939  1.3482
 1108SOL    HW114783   2.924   2.395   6.100  0.0642  2.1318 -0.8063
 1108SOL    HW214784   2.820   2.294   6.120 -0.9319  0.4323  2.1303
 1109SOL     OW14785   2.386   4.488   6.645 -0.3641  0.0638  0.3785
 1109SOL    HW114786   2.297   4.466   6.616  0.1092  0.7940 -1.6560
 1109SOL    HW214787   2.359   4.536   6.723 -2.0427  1.3313 -0.9872
 1110SOL     OW14788   2.923   3.169   4.029  0.1776  0.2648  0.1254
 1110SOL    HW114789   2.878   3.131   4.105 -1.4167 -0.3901 -1.1594
 1110SOL    HW214790   2.878   3.128   3.956  0.3217 -0.5197  0.4733
 1111SOL     OW14791   2.292   2.521   3.402  0.4143 -0.1985 -0.6567
 1111SOL    HW114792   2.354   2.594   3.410  1.4132 -1.0517 -0.5542
 1111SOL    HW214793   2.236   2.535   3.478 -1.8534 -0.3107 -2.3008
 1112SOL     OW14794   1.770   0.368  16.034  0.1496  0.0973 -0.0890
 1112SOL    HW114795   1.678   0.357  16.059  0.0252 -0.1271 -0.6278
 1112SOL    HW214796   1.806   0.284  16.004 -0.4195 -0.6626  1.3560
 1113SOL     OW14797   2.748   1.596   9.132  0.0140 -0.0042 -0.0540
 1113SOL    HW114798   2.724   1.504   9.122  0.3248  0.2366 -2.8871
 1113SOL    HW214799   2.706   1.618   9.215 -0.0368  1.0995 -0.3698
 1114SOL     OW14800   3.529   0.942   0.779  0.8637  0.4341  0.0264
 1114SOL    HW114801   3.544   0.954   0.685 -2.1034 -0.7612 -0.5919
 1114SOL    HW214802   3.486   0.857   0.788  0.2137  0.8350  0.6665
 1115SOL     OW14803   1.912   2.733   4.248  0.4380 -0.3832 -0.0944
 1115SOL    HW114804   1.908   2.750   4.154  0.4515 -1.2848 -0.2589
 1115SOL    HW214805   1.986   2.789   4.271  0.3775 -0.4463  0.2458
 1116SOL     OW14806   1.701   2.451  15.645 -0.2236  0.2774  0.0156
 1116SOL    HW114807   1.741   2.448  15.558 -0.4688  2.4637 -0.1691
 1116SOL    HW214808   1.773   2.420  15.701 -0.8305 -1.9548 -0.4550
 1117SOL     OW14809   2.572   1.341  15.265  0.5760  0.0427 -0.0681
 1117SOL    HW114810   2.507   1.325  15.196 -0.0614 -0.0164  0.5501
 1117SOL    HW214811   2.548   1.432  15.278 -0.3218 -0.1313 -0.4543
 1118SOL     OW14812   4.624   0.643   5.627 -0.1144 -0.4396  0.3483
 1118SOL    HW114813   4.593   0.729   5.655  1.9843  0.2866  0.4724
 1118SOL    HW214814   4.697   0.637   5.688  0.4764 -2.2791 -0.5220
 1119SOL     OW14815   3.960   0.168   9.759  0.3750 -0.1415  0.0184
 1119SOL    HW114816   3.889   0.147   9.821  0.0346 -0.6105 -0.5298
 1119SOL    HW214817   4.008   0.086   9.772 -0.0431 -0.1713  1.3794
 1120SOL     OW14818   2.461   0.810   5.424  0.0427  1.0885  0.3292
 1120SOL    HW114819   2.492   0.735   5.475 -0.5079  0.7206  0.1242
 1120SOL    HW214820   2.544   0.853   5.404  1.7349 -1.4803  1.8810
 1121SOL     OW14821   4.430   1.967  14.145  0.8251 -0.2226  0.0373
 1121SOL    HW114822   4.356   1.987  14.201  1.2660  0.1565  0.4873
 1121SOL    HW214823   4.439   2.047  14.092 -1.7194 -0.5390 -0.8880
 1122SOL     OW14824   3.791   2.779   2.989 -0.6287 -0.0922  0.3010
 1122SOL    HW114825   3.788   2.863   3.035 -0.6597  0.2718 -0.3720
 1122SOL    HW214826   3.807   2.801   2.898 -1.1910 -0.6501  0.0669
 1123SOL     OW14827   4.473   1.912  12.366  0.0958 -0.2499 -0.8818
 1123SOL    HW114828   4.509   1.852  12.430 -0.3262  2.6783  2.1109
 1123SOL    HW214829   4.521   1.991  12.392  0.7484 -1.3213  1.1284
 1124SOL     OW14830   0.630   1.638   4.528  0.0315  0.4576  0.1227
 1124SOL    HW114831   0.652   1.601   4.613  0.1490 -2.4449 -1.1761
 1124SOL    HW214832   0.704   1.697   4.516 -2.1004  2.6561 -2.4043
 1125SOL     OW14833   3.417   1.489   7.485  0.0208  0.2563 -0.2733
 1125SOL    HW114834   3.333   1.448   7.506  0.1851 -0.4341 -0.9833
 1125SOL    HW214835   3.384   1.576   7.510 -0.2613  0.4934 -1.4403
 1126SOL     OW14836   0.370   3.028  16.819  0.8358 -0.3593 -0.0317
 1126SOL    HW114837   0.299   2.965  16.804  2.2032 -1.8726 -0.1809
 1126SOL    HW214838   0.448   2.987  16.780  0.3216  0.0409 -1.4704
 1127SOL     OW14839   2.019   4.225   6.980 -0.0735  0.4897  0.8911
 1127SOL    HW114840   2.032   4.130   6.981 -2.4461  0.1547 -0.4459
 1127SOL    HW214841   2.102   4.263   7.008 -0.0321 -0.0911  1.5496
 1128SOL     OW14842   0.652   3.301  16.880 -0.3598 -0.6752 -0.4646
 1128SOL    HW114843   0.714   3.346  16.938 -2.2197  0.6131  0.5297
 1128SOL    HW214844   0.633   3.225  16.935 -1.6801  0.8524  1.2347
 1129SOL     OW14845   0.489   0.133   5.546  0.0252  0.3131  0.2990
 1129SOL    HW114846   0.432   0.151   5.471  1.2677 -0.7729 -0.9147
 1129SOL    HW214847   0.569   0.183   5.530  0.6422 -0.3847  1.2061
 1130SOL     OW14848   2.086   4.562   5.269  0.2733  0.7322 -0.1454
 1130SOL    HW114849   2.157   4.613   5.231  0.8321  2.0534  2.7512
 1130SOL    HW214850   2.137   4.494   5.312  1.3724  1.2695 -0.6182
 1131SOL     OW14851   4.194   3.717   5.611  0.1592  0.2330 -0.2437
 1131SOL    HW114852   4.249   3.779   5.563 -0.6689  1.3768  0.2570
 1131SOL    HW214853   4.136   3.770   5.666 -2.4265 -1.3365 -1.4666
 1132SOL     OW14854   3.627   0.621  14.636  0.1072  0.5537  0.1018
 1132SOL    HW114855   3.638   0.616  14.541 -2.4335  0.0210 -0.1536
 1132SOL    HW214856   3.651   0.713  14.646 -2.2305  1.1576  0.0917
 1133SOL     OW14857   0.415   0.085   6.366  0.0964 -0.6242  0.2662
 1133SOL    HW114858   0.367   0.074   6.284  1.5997 -0.1285 -0.6896
 1133SOL    HW214859   0.355   0.052   6.432  0.2972 -1.2592  0.1242
 1134SOL     OW14860   3.950   1.371   5.213 -0.2110  0.0535 -0.3818
 1134SOL    HW114861   3.985   1.370   5.124  1.4021  0.7878  0.2501
 1134SOL    HW214862   3.938   1.278   5.232 -1.7866  0.0568 -1.3932
 1135SOL     OW14863   1.920   1.723   1.567  0.1934 -0.4823  0.1791
 1135SOL    HW114864   1.881   1.745   1.652  1.5538  0.4813  0.5561
 1135SOL    HW214865   1.876   1.789   1.514  0.0585  0.3278  1.3082
 1136SOL     OW14866   1.552   4.434  12.215  0.3718 -0.4828 -0.2289
 1136SOL    HW114867   1.525   4.437  12.307 -0.4401  1.3694 -0.5290
 1136SOL    HW214868   1.644   4.459  12.227  1.8018 -4.8311 -1.8854
 1137SOL     OW14869   3.800   0.392  15.750 -0.3901  0.7471 -0.1879
 1137SOL    HW114870   3.752   0.386  15.833  4.1276  1.1568  2.4191
 1137SOL    HW214871   3.850   0.469  15.776  1.2535 -0.3661 -0.0816
 1138SOL     OW14872   3.072   3.829   3.652  0.5644  0.1706 -0.0704
 1138SOL    HW114873   3.120   3.907   3.681 -0.8500  0.1892  2.2320
 1138SOL    HW214874   3.110   3.811   3.566 -1.9743  0.6463 -1.2885
 1139SOL     OW14875   0.558   1.358   7.895 -0.2370  0.1716  0.0238
 1139SOL    HW114876   0.508   1.381   7.973 -0.0744  0.0072  0.1752
 1139SOL    HW214877   0.645   1.374   7.932 -0.6970  0.8929  0.7813
 1140SOL     OW14878   4.143   3.615  14.720 -0.2871 -0.2355 -0.2270
 1140SOL    HW114879   4.183   3.612  14.807 -2.8771 -0.2811  0.9649
 1140SOL    HW214880   4.211   3.648  14.661 -0.2807  0.9741  0.4573
 1141SOL     OW14881   1.905   3.589   1.833  0.3796 -0.6868 -0.4785
 1141SOL    HW114882   1.892   3.659   1.768 -1.8342  0.2923  1.0213
 1141SOL    HW214883   1.896   3.512   1.777  0.5361 -1.1481  0.1311
 1142SOL     OW14884   0.228   4.188   2.080  0.8322  0.1847  0.5022
 1142SOL    HW114885   0.171   4.211   2.152 -0.8419 -1.2285 -0.3727
 1142SOL    HW214886   0.184   4.219   2.001  0.8805 -1.4971 -0.1887
 1143SOL     OW14887   4.018   4.078   2.218 -0.6160 -0.4710  0.4634
 1143SOL    HW114888   4.000   4.017   2.147  0.9364  0.6600 -0.8901
 1143SOL    HW214889   4.066   4.146   2.171  0.3041 -0.4704  1.4020
 1144SOL     OW14890   4.567   2.019   8.444 -0.5903 -0.1282 -0.1588
 1144SOL    HW114891   4.532   2.079   8.510  1.6147  3.0417 -1.9365
 1144SOL    HW214892   4.661   2.027   8.457 -0.6045  0.1421 -0.2201
 1145SOL     OW14893   3.819   0.477  14.778 -0.2132 -0.0945  0.6629
 1145SOL    HW114894   3.779   0.497  14.693  0.0716 -0.3579  0.4687
 1145SOL    HW214895   3.753   0.512  14.838 -0.9963 -2.7255  1.3280
 1146SOL     OW14896   1.070   2.677   8.505  0.3364  0.5768  0.2804
 1146SOL    HW114897   1.016   2.616   8.555  1.7765  0.8944  2.2435
 1146SOL    HW214898   1.077   2.636   8.419  1.4811  2.1505 -0.3603
 1147SOL     OW14899   2.958   2.006   5.971  0.3354  0.1561 -0.2847
 1147SOL    HW114900   2.909   2.036   6.048  1.4219 -2.6769  1.4710
 1147SOL    HW214901   2.949   2.081   5.912 -1.1603  2.1312  2.4466
 1148SOL     OW14902   1.466   0.018  16.034  0.5619 -0.0908 -0.0246
 1148SOL    HW114903   1.396   0.010  15.969  0.3402  0.7179  0.1138
 1148SOL    HW214904   1.541   0.039  15.977  0.8950 -0.2989  0.3392
 1149SOL     OW14905   2.061   4.652   8.173 -0.0911  0.2530  0.4023
 1149SOL    HW114906   2.076   0.004   8.230 -2.5688 -0.6552  2.2795
 1149SOL    HW214907   2.093   4.699   8.096 -1.0787 -1.7664 -1.2341
 1150SOL     OW14908   3.428   4.523   2.655 -0.7057 -0.1437 -0.0669
 1150SOL    HW114909   3.477   4.449   2.689 -0.2301  0.5593  0.7702
 1150SOL    HW214910   3.498   4.574   2.613 -0.9281 -0.1978 -0.5024
 1151SOL     OW14911   3.234   3.045   3.004  0.0247 -0.1407 -0.0645
 1151SOL    HW114912   3.256   3.017   3.093 -0.1508  3.5163  1.1380
 1151SOL    HW214913   3.307   3.101   2.978 -0.7674  1.3580  0.9267
 1152SOL     OW14914   1.193   2.081  13.889  0.4950  0.3108 -0.4335
 1152SOL    HW114915   1.185   2.086  13.984  1.4752 -2.0945 -0.2293
 1152SOL    HW214916   1.101   2.094  13.864  0.2992 -1.0784 -0.4500
 1153SOL     OW14917   4.028   2.996   2.695 -0.3607  0.0431 -0.0576
 1153SOL    HW114918   4.096   2.992   2.627 -0.2163  1.3582  0.0047
 1153SOL    HW214919   4.076   3.038   2.767 -0.8620 -0.5592  0.6200
 1154SOL     OW14920   2.702   4.105   7.593 -0.0858 -0.2877 -0.2588
 1154SOL    HW114921   2.616   4.079   7.625  0.5459 -0.2439  1.4922
 1154SOL    HW214922   2.750   4.049   7.654 -0.9521  0.4425  1.0829
 1155SOL     OW14923   4.527   3.887   5.183  0.6883  0.2949  0.4230
 1155SOL    HW114924   4.435   3.864   5.169  1.2024 -1.5460  0.0559
 1155SOL    HW214925   4.514   3.980   5.202 -1.5258 -0.3026  1.8393
 1156SOL     OW14926   2.236   4.333   7.071  0.2035  0.0673 -0.7214
 1156SOL    HW114927   2.308   4.387   7.040  0.6431 -0.3514 -0.4372
 1156SOL    HW214928   2.218   4.379   7.153  1.6853  1.0420 -0.9482
 1157SOL     OW14929   3.373   3.474  16.321 -0.2785  0.2286  0.0761
 1157SOL    HW114930   3.357   3.399  16.264 -1.5249 -0.9657  1.9709
 1157SOL    HW214931   3.322   3.449  16.398 -0.3452  1.7124  0.5227
 1158SOL     OW14932   2.550   0.858   9.418 -0.3450  0.2083  0.4186
 1158SOL    HW114933   2.493   0.921   9.461  1.2485  2.4230 -0.7132
 1158SOL    HW214934   2.633   0.897   9.445  0.0909  1.5487 -2.8336
 1159SOL     OW14935   3.626   0.547  17.546 -0.5741  0.3334  0.1642
 1159SOL    HW114936   3.581   0.626  17.576 -0.8909 -0.6971  2.4035
 1159SOL    HW214937   3.552   0.517  17.493 -1.1698  0.7390  0.7713
 1160SOL     OW14938   4.546   4.376   6.491  0.4763 -0.1499  0.7309
 1160SOL    HW114939   4.524   4.286   6.466 -0.4611  0.1861  0.3257
 1160SOL    HW214940   4.555   4.367   6.586  1.2869  1.0771  0.7535
 1161SOL     OW14941   4.460   3.936   6.226 -0.0791 -0.1856  0.2489
 1161SOL    HW114942   4.475   3.985   6.307  1.9900 -1.0251  0.3582
 1161SOL    HW214943   4.443   3.852   6.267 -1.4150 -0.2349 -0.3947
 1162SOL     OW14944   3.283   4.380   5.436 -0.0384  0.3584 -0.1574
 1162SOL    HW114945   3.205   4.349   5.482 -0.1187  1.2608  0.3031
 1162SOL    HW214946   3.255   4.435   5.364  0.0176 -0.6040 -0.9168
 1163SOL     OW14947   2.997   1.870  11.502  0.3000  0.0174  0.1403
 1163SOL    HW114948   3.074   1.919  11.472 -0.1910  0.9406  0.3927
 1163SOL    HW214949   2.928   1.931  11.478  0.1216 -0.5098 -0.6767
 1164SOL     OW14950   3.475   0.492   2.017 -0.3607  0.4619 -0.3533
 1164SOL    HW114951   3.386   0.522   1.995  0.7420  2.4274 -2.1026
 1164SOL    HW214952   3.452   0.442   2.095  3.4547 -0.7418 -0.0196
 1165SOL     OW14953   0.847   1.204   3.142 -0.0101 -0.4523  0.1928
 1165SOL    HW114954   0.763   1.216   3.099  0.4747  2.4829  0.0630
 1165SOL    HW214955   0.873   1.288   3.180 -2.1577 -1.0601  2.9262
 1166SOL     OW14956   1.829   0.185  12.805 -0.1360  0.6772  0.0136
 1166SOL    HW114957   1.752   0.149  12.850 -0.1994 -0.7032 -1.1942
 1166SOL    HW214958   1.797   0.270  12.776 -0.7074  0.7602  0.8978
 1167SOL     OW14959   2.851   4.365   4.785  0.3472 -0.6736 -0.2280
 1167SOL    HW114960   2.869   4.329   4.698 -0.8919  1.2170 -1.2623
 1167SOL    HW214961   2.755   4.367   4.780  0.2755 -2.9249  0.4188
 1168SOL     OW14962   3.851   2.662   8.005 -0.1072 -0.1434  0.0925
 1168SOL    HW114963   3.824   2.752   7.986  0.1840  0.1746  1.1340
 1168SOL    HW214964   3.942   2.686   7.988 -0.0040 -2.0224 -1.9329
 1169SOL     OW14965   2.477   3.232  15.435  0.0610 -0.3147 -0.1302
 1169SOL    HW114966   2.504   3.256  15.523  1.3743 -1.7738 -0.1386
 1169SOL    HW214967   2.390   3.195  15.446 -0.0330  0.4857  1.7433
 1170SOL     OW14968   2.171   3.510   0.098  0.4823  0.4961 -0.2311
 1170SOL    HW114969   2.203   3.585   0.047  3.1190  0.0386  0.7486
 1170SOL    HW214970   2.123   3.459   0.033 -1.2612 -0.0905  1.5250
 1171SOL     OW14971   4.626   0.108   2.469  0.1206  0.4047 -0.0434
 1171SOL    HW114972   4.605   0.096   2.376  1.0822 -1.8861  0.0298
 1171SOL    HW214973   4.564   0.048   2.512  0.8220 -0.4738 -0.2656
 1172SOL     OW14974   2.099   3.600   4.529 -0.1397  0.5340 -0.1093
 1172SOL    HW114975   2.067   3.517   4.567  0.7747  0.3638  0.2944
 1172SOL    HW214976   2.052   3.581   4.448  0.0971 -0.0658 -0.1099
 1173SOL     OW14977   1.023   2.305  13.703 -0.3078  0.0824  0.4288
 1173SOL    HW114978   0.998   2.352  13.782 -1.0038 -1.8627  1.3544
 1173SOL    HW214979   0.988   2.219  13.728  1.1741 -0.5525  0.3088
 1174SOL     OW14980   3.936   2.584   3.795 -0.2333 -0.3707 -0.0107
 1174SOL    HW114981   3.843   2.572   3.776 -1.2842  2.5950  3.1609
 1174SOL    HW214982   3.933   2.666   3.846  1.0534 -1.2630  1.4905
 1175SOL     OW14983   3.955   3.856   8.719 -0.2868 -0.1677  0.2754
 1175SOL    HW114984   3.941   3.836   8.627 -0.2024  0.0568  0.2151
 1175SOL    HW214985   3.916   3.943   8.723 -1.7194 -0.7127 -1.8487
 1176SOL     OW14986   1.658   0.249   3.234 -0.3377 -1.1432 -0.1579
 1176SOL    HW114987   1.724   0.316   3.216 -1.4269 -0.3778 -1.3478
 1176SOL    HW214988   1.587   0.297   3.278 -0.4108 -0.9800 -0.4546
 1177SOL     OW14989   1.664   4.109   1.970 -0.7005  0.6920  0.4224
 1177SOL    HW114990   1.711   4.075   2.046  0.9390  0.7499 -0.5629
 1177SOL    HW214991   1.703   4.046   1.910  2.4818  1.7546  1.4055
 1178SOL     OW14992   2.340   3.611  17.096  0.0337  0.0416  0.0916
 1178SOL    HW114993   2.348   3.614  17.001  0.9234  0.7289  0.1950
 1178SOL    HW214994   2.253   3.651  17.102  0.4639  0.7377  1.6347
 1179SOL     OW14995   4.493   0.759  16.157  0.4665  0.2692  0.0010
 1179SOL    HW114996   4.419   0.702  16.180 -0.0103 -0.2324 -2.8707
 1179SOL    HW214997   4.532   0.777  16.243  1.2730 -0.5577 -0.1856
 1180SOL     OW14998   4.448   1.700  13.071 -0.0586  0.0029  0.4447
 1180SOL    HW114999   4.457   1.633  13.003 -2.1815  1.5264 -1.3470
 1180SOL    HW215000   4.363   1.666  13.099 -0.2752 -0.2478 -0.5184
 1181SOL     OW15001   1.058   3.866  15.433 -0.0281  0.3618  0.1953
 1181SOL    HW115002   1.010   3.867  15.516  1.8339  1.4928  1.2659
 1181SOL    HW215003   1.027   3.948  15.394 -0.2443 -0.2514 -0.9125
 1182SOL     OW15004   3.897   0.008   2.507 -0.6396 -0.4082 -0.2144
 1182SOL    HW115005   3.911   4.712   2.415  1.5008  1.0565 -0.2153
 1182SOL    HW215006   3.804   0.027   2.506 -0.9097 -1.8529 -1.8181
 1183SOL     OW15007   1.289   0.791   4.290  0.0504 -0.1871  0.0435
 1183SOL    HW115008   1.311   0.727   4.222  0.0475 -2.4655  2.1919
 1183SOL    HW215009   1.349   0.760   4.358  0.8167 -1.4674 -1.2229
 1184SOL     OW15010   1.815   0.552   5.835 -0.1527  0.2045 -0.4205
 1184SOL    HW115011   1.844   0.527   5.923  1.9353  1.8788 -0.6133
 1184SOL    HW215012   1.779   0.636   5.864 -0.9337 -1.1231  2.4542
 1185SOL     OW15013   1.701   1.211  10.775 -0.3866 -0.5373 -0.6690
 1185SOL    HW115014   1.735   1.201  10.864  0.1554 -1.8068 -1.0264
 1185SOL    HW215015   1.608   1.227  10.794 -0.9915 -1.9640 -2.4371
 1186SOL     OW15016   1.115   0.429   4.125 -0.2304 -0.5934  0.3179
 1186SOL    HW115017   1.024   0.406   4.108  0.0538 -0.9725 -0.6350
 1186SOL    HW215018   1.108   0.471   4.211 -0.6807  1.4960 -0.7239
 1187SOL     OW15019   4.668   2.833  13.463  0.9007 -0.4644  0.3411
 1187SOL    HW115020   4.611   2.757  13.458 -0.7117  0.7825 -0.2271
 1187SOL    HW215021   0.005   2.809  13.532 -1.1167 -0.0588  2.2554
 1188SOL     OW15022   2.073   1.461   4.200  0.7130 -0.4810 -0.7139
 1188SOL    HW115023   2.026   1.377   4.203  1.2048 -0.8016 -1.6931
 1188SOL    HW215024   2.035   1.508   4.126 -0.8247  0.6008  0.8061
 1189SOL     OW15025   2.010   4.134  10.419 -0.1915  0.4645 -0.4301
 1189SOL    HW115026   1.949   4.070  10.383  1.4434 -0.9873 -0.6596
 1189SOL    HW215027   1.980   4.212  10.372  0.7019 -1.1715 -3.7014
 1190SOL     OW15028   1.838   3.252   4.114 -0.0632 -0.3053  0.0554
 1190SOL    HW115029   1.776   3.179   4.119 -0.3336 -0.0922 -0.1987
 1190SOL    HW215030   1.825   3.298   4.031  1.8016  1.2070  0.6097
 1191SOL     OW15031   4.543   2.175  10.632  0.1071  0.0879 -0.0671
 1191SOL    HW115032   4.470   2.183  10.694  0.2851 -0.5008  0.2224
 1191SOL    HW215033   4.490   2.165  10.553  0.5654  0.5331 -0.4271
 1192SOL     OW15034   0.170   3.065   4.754  0.6207 -0.2080 -0.1026
 1192SOL    HW115035   0.217   3.148   4.757 -2.2551  1.4044  0.2844
 1192SOL    HW215036   0.239   3.008   4.786 -1.9740 -2.6745  1.1490
 1193SOL     OW15037   0.140   0.166  13.421 -0.2809  0.0538  0.9415
 1193SOL    HW115038   0.089   0.094  13.383  0.9997  0.4341 -1.5137
 1193SOL    HW215039   0.223   0.150  13.377 -1.4598 -0.6439 -1.0393
 1194SOL     OW15040   0.734   3.133   4.167  0.4571 -0.0922 -0.0493
 1194SOL    HW115041   0.823   3.097   4.167  1.2239  1.8265 -0.0288
 1194SOL    HW215042   0.689   3.059   4.208 -0.3964  1.3430  1.6340
 1195SOL     OW15043   1.888   4.716  12.397  0.8851  0.1187 -0.0401
 1195SOL    HW115044   1.910   0.027  12.484  0.7543  0.4559 -0.1426
 1195SOL    HW215045   1.939   4.634  12.395  0.4095 -0.2031  0.8298
 1196SOL     OW15046   0.795   1.135  15.251  0.4688  0.1410  0.0532
 1196SOL    HW115047   0.805   1.113  15.158 -0.8918 -1.8995  0.3903
 1196SOL    HW215048   0.734   1.207  15.240 -0.0436  0.2210  3.4976
 1197SOL     OW15049   0.928   3.793   5.722  0.0381  0.1379 -0.4650
 1197SOL    HW115050   1.014   3.772   5.760 -0.3205  0.6601  0.6492
 1197SOL    HW215051   0.880   3.792   5.805  0.3635 -0.1846 -0.2753
 1198SOL     OW15052   2.428   3.123   8.188 -0.0867  0.3686  0.1267
 1198SOL    HW115053   2.385   3.052   8.236 -0.2688  0.4495  0.0844
 1198SOL    HW215054   2.478   3.173   8.252  0.3253  0.4859 -0.2846
 1199SOL     OW15055   0.008   0.189  17.023 -0.3387  0.7140  0.3117
 1199SOL    HW115056   4.660   0.196  16.960 -1.0626  0.3590  1.0788
 1199SOL    HW215057   0.087   0.160  16.977 -0.9958  0.0684 -0.4225
 1200SOL     OW15058   1.536   1.369   9.860 -0.0807  0.2741  0.3002
 1200SOL    HW115059   1.548   1.451   9.908  0.2197  0.8315 -0.7317
 1200SOL    HW215060   1.625   1.332   9.860  0.4115  1.4366 -1.2887
 1201SOL     OW15061   0.350   3.911   5.436 -0.6484 -0.1205 -0.1504
 1201SOL    HW115062   0.322   4.002   5.442  1.5129  0.5939 -0.9984
 1201SOL    HW215063   0.360   3.881   5.527  0.6428 -1.6899 -0.8008
 1202SOL     OW15064   3.012   2.611   3.820 -0.5246  0.4221  0.4532
 1202SOL    HW115065   2.956   2.649   3.753  0.0073 -0.3296 -0.4197
 1202SOL    HW215066   3.067   2.551   3.770 -2.3712  0.2450 -1.3795
 1203SOL     OW15067   0.541   1.951   2.463 -0.4599  0.9116  0.1237
 1203SOL    HW115068   0.512   2.004   2.389 -0.7952  1.5626  0.7168
 1203SOL    HW215069   0.635   1.949   2.442 -0.6635 -1.1352 -0.6378
 1204SOL     OW15070   0.385   4.458   4.975  0.2186 -0.0679 -0.5189
 1204SOL    HW115071   0.348   4.457   5.063 -1.4942 -0.7267 -1.2401
 1204SOL    HW215072   0.317   4.442   4.910 -0.4343 -0.9401  0.3746
 1205SOL     OW15073   4.583   1.142   8.508 -0.6547 -0.7286 -0.1008
 1205SOL    HW115074   4.585   1.114   8.600  0.3554 -3.5230 -0.9992
 1205SOL    HW215075   4.558   1.063   8.460  0.2797 -1.0687 -0.0118
 1206SOL     OW15076   2.779   2.765   0.371  0.0405  0.0437  0.1510
 1206SOL    HW115077   2.695   2.754   0.328  0.1770 -2.9728  0.6603
 1206SOL    HW215078   2.775   2.832   0.439  3.7703 -0.2061  0.6548
 1207SOL     OW15079   1.923   4.516   6.385  0.4384 -0.3020  0.1597
 1207SOL    HW115080   1.994   4.452   6.380 -0.1023 -0.5572 -4.0339
 1207SOL    HW215081   1.977   4.571   6.443  0.2481  0.8794 -0.7804
 1208SOL     OW15082   2.474   0.577   8.734 -0.5930 -0.2118  0.2963
 1208SOL    HW115083   2.543   0.528   8.778 -1.1794 -1.7139 -0.4711
 1208SOL    HW215084   2.522   0.660   8.724  1.1177 -1.2155  0.1319
 1209SOL     OW15085   3.977   3.523  10.724  0.1647  0.1392  0.2641
 1209SOL    HW115086   4.064   3.486  10.738  0.0628 -1.4027 -3.1724
 1209SOL    HW215087   3.931   3.482  10.797  0.6351 -0.2061  0.3657
 1210SOL     OW15088   3.968   0.357   7.935 -0.2424 -0.3183  0.0879
 1210SOL    HW115089   3.903   0.303   7.980 -0.9489  1.0277  0.6874
 1210SOL    HW215090   3.928   0.443   7.949  0.4457 -0.2493  1.6364
 1211SOL     OW15091   0.049   0.063   9.521 -0.3222  0.6004 -0.6753
 1211SOL    HW115092   0.058   0.118   9.444  1.0725 -0.4406 -1.2485
 1211SOL    HW215093   0.059   4.698   9.488 -0.3392  0.0101  0.8948
 1212SOL     OW15094   3.518   4.351   4.587 -0.2651 -0.5264  1.0058
 1212SOL    HW115095   3.465   4.315   4.515 -0.0323  1.4953 -0.1779
 1212SOL    HW215096   3.604   4.313   4.569  0.4352  0.4932  2.2981
 1213SOL     OW15097   3.440   1.279   5.151 -0.3240  0.8348  0.4856
 1213SOL    HW115098   3.360   1.323   5.180 -0.8783  0.2520 -0.1459
 1213SOL    HW215099   3.465   1.336   5.079  0.7346  2.0072  1.8034
 1214SOL     OW15100   0.944   4.251   2.025  0.5026  0.7085 -0.3290
 1214SOL    HW115101   0.930   4.229   1.933 -0.2379  1.8749 -0.4913
 1214SOL    HW215102   0.985   4.172   2.060 -0.0034  0.9852  0.8794
 1215SOL     OW15103   2.676   1.174   6.834  0.2845 -0.0014 -0.3366
 1215SOL    HW115104   2.716   1.136   6.913  0.3080  2.4052  0.8104
 1215SOL    HW215105   2.738   1.241   6.809  0.4824 -0.3559 -0.7876
 1216SOL     OW15106   0.774   0.139   6.519 -0.2889  0.4664  0.2103
 1216SOL    HW115107   0.828   0.205   6.562 -0.3117 -0.8134  2.2396
 1216SOL    HW215108   0.704   0.129   6.584 -2.0568  1.1325 -1.5929
 1217SOL     OW15109   4.037   4.522   7.500 -0.2720 -0.7665  0.1057
 1217SOL    HW115110   4.057   4.559   7.414  2.4659  1.9478  1.9240
 1217SOL    HW215111   3.985   4.595   7.534  0.9775  0.6703 -1.0938
 1218SOL     OW15112   0.533   3.073  15.263  0.2255 -0.7075 -0.3503
 1218SOL    HW115113   0.525   3.168  15.269 -2.8169 -0.9276 -0.9857
 1218SOL    HW215114   0.532   3.050  15.170  0.8490  2.3099 -1.1003
 1219SOL     OW15115   0.011   3.917   9.298  0.1209  0.4074  0.1867
 1219SOL    HW115116   0.084   3.969   9.266 -0.8030  1.0169 -0.9345
 1219SOL    HW215117   0.043   3.837   9.341 -1.0494 -1.5041 -2.5306
 1220SOL     OW15118   3.377   4.143   1.939  0.4328 -0.4426 -0.3802
 1220SOL    HW115119   3.427   4.151   1.858 -0.1697 -1.7818 -0.8750
 1220SOL    HW215120   3.440   4.109   2.002  0.8325 -0.8143 -0.9822
 1221SOL     OW15121   0.555   2.291   9.789 -0.0094  0.1957  0.2070
 1221SOL    HW115122   0.460   2.283   9.781 -0.1682  0.3317  2.0136
 1221SOL    HW215123   0.573   2.385   9.784 -1.6185  0.3651 -3.0612
 1222SOL     OW15124   3.131   3.020   1.899 -0.3163 -1.0232  0.4286
 1222SOL    HW115125   3.047   3.049   1.864 -0.0782 -1.3738 -0.4362
 1222SOL    HW215126   3.103   2.946   1.954 -0.8954  0.5982  2.3138
 1223SOL     OW15127   4.722   1.217  11.997 -0.1966 -0.6617  0.0866
 1223SOL    HW115128   4.677   1.301  11.988 -1.4406 -1.2995  0.3452
 1223SOL    HW215129   0.023   1.206  11.906 -2.2124  3.6205 -0.9803
 1224SOL     OW15130   3.143   0.732   4.726  0.2201 -0.0046 -0.4913
 1224SOL    HW115131   3.064   0.758   4.678 -0.4206 -0.5597  0.2802
 1224SOL    HW215132   3.118   0.729   4.818 -0.6739  0.5954 -0.7188
 1225SOL     OW15133   3.872   1.274   9.228 -0.1576 -0.1406 -0.2746
 1225SOL    HW115134   3.784   1.236   9.223  0.1830 -0.9479 -0.2219
 1225SOL    HW215135   3.854   1.331   9.303  0.3301  0.0790 -0.3214
 1226SOL     OW15136   4.687   4.385  15.504 -0.0171  0.0052  0.1517
 1226SOL    HW115137   0.013   4.305  15.523  0.0241  0.3841  1.6243
 1226SOL    HW215138   0.044   4.437  15.509 -0.6498  0.7460  2.4471
 1227SOL     OW15139   3.950   4.377  10.400  0.2612  0.0934  0.1035
 1227SOL    HW115140   4.001   4.319  10.457  0.8693 -1.4231 -1.9790
 1227SOL    HW215141   3.877   4.395  10.459  1.0175  0.1601  1.0315
 1228SOL     OW15142   0.868   0.073   7.750  0.0535  0.4266  0.4354
 1228SOL    HW115143   0.879   0.157   7.795  0.1807  1.2317 -1.0930
 1228SOL    HW215144   0.810   0.097   7.678 -2.1374 -0.7553  1.8167
 1229SOL     OW15145   4.585   4.532   3.737  0.3362 -0.4871  0.0578
 1229SOL    HW115146   4.640   4.479   3.794  0.7755 -0.0745  0.0100
 1229SOL    HW215147   4.538   4.582   3.803  0.7433  0.0225 -0.0458
 1230SOL     OW15148   4.562   0.547  10.771  0.0603  0.1605 -0.4457
 1230SOL    HW115149   4.502   0.581  10.705 -0.1903 -0.2352 -0.4239
 1230SOL    HW215150   4.532   0.597  10.847 -1.5511 -0.8679 -0.4004
 1231SOL     OW15151   1.214   2.260  17.095  0.7301  0.2825  0.2121
 1231SOL    HW115152   1.133   2.253  17.146  0.3631 -1.2424 -0.5660
 1231SOL    HW215153   1.267   2.218  17.163 -0.9464  1.7522  2.4378
 1232SOL     OW15154   1.892   3.392  14.943  0.0405 -0.0123 -0.7432
 1232SOL    HW115155   1.798   3.409  14.950 -0.5871 -3.3922 -1.2426
 1232SOL    HW215156   1.896   3.304  14.980  0.5181  1.6973  3.2702
 1233SOL     OW15157   0.595   0.752   4.436 -0.2648 -0.2064 -0.1260
 1233SOL    HW115158   0.563   0.672   4.395 -3.4081  1.1052 -0.2147
 1233SOL    HW215159   0.685   0.734   4.463  0.6863  2.8842 -1.1106
 1234SOL     OW15160   0.238   0.644   9.715 -0.2432 -0.1529  0.4203
 1234SOL    HW115161   0.198   0.719   9.759  0.2529 -0.2307  1.0151
 1234SOL    HW215162   0.164   0.620   9.661 -0.1177 -1.0631  0.6508
 1235SOL     OW15163   2.494   0.612   8.331 -0.5852 -0.2742  0.0571
 1235SOL    HW115164   2.558   0.550   8.295  0.3269  0.1172  1.0228
 1235SOL    HW215165   2.460   0.564   8.407  1.6258 -0.0900  1.1616
 1236SOL     OW15166   3.686   3.076   5.402 -0.3871  0.4622  0.4624
 1236SOL    HW115167   3.754   3.111   5.459  0.8587 -2.5606  0.8674
 1236SOL    HW215168   3.685   3.148   5.339  0.5543  0.9810  1.0400
 1237SOL     OW15169   3.446   0.109   5.781 -0.0077 -0.3403 -0.5248
 1237SOL    HW115170   3.370   0.107   5.839  1.0205 -1.4932  0.7606
 1237SOL    HW215171   3.502   0.046   5.826  0.1748  0.9697  1.0711
 1238SOL     OW15172   1.904   4.483   5.471  0.2751 -0.1428 -0.2733
 1238SOL    HW115173   1.933   4.543   5.539  0.7580  0.4478 -1.0078
 1238SOL    HW215174   1.929   4.531   5.392 -0.6728  0.2125 -0.3560
 1239SOL     OW15175   0.599   4.444   1.582  0.2207 -0.4307  0.0674
 1239SOL    HW115176   0.666   4.429   1.516  0.1152 -0.0639 -0.1251
 1239SOL    HW215177   0.623   4.533   1.609 -1.4905  0.2578 -0.6647
 1240SOL     OW15178   1.299   3.311   2.541  0.6575 -0.1254  0.6500
 1240SOL    HW115179   1.241   3.239   2.562  1.9660 -0.9770  1.3303
 1240SOL    HW215180   1.238   3.380   2.514 -0.7345 -1.5507  0.2008
 1241SOL     OW15181   2.024   1.707   2.791 -0.6260  0.2596 -0.1253
 1241SOL    HW115182   1.999   1.768   2.722  0.1291  2.0896  1.1961
 1241SOL    HW215183   1.943   1.701   2.842 -1.5652 -1.9572 -1.8817
 1242SOL     OW15184   0.867   0.699   2.000  0.1653  0.6794  0.0816
 1242SOL    HW115185   0.955   0.704   2.038  0.0241  2.1048  0.2141
 1242SOL    HW215186   0.889   0.711   1.908  3.9227 -2.2489  0.6108
 1243SOL     OW15187   2.256   1.931   2.495 -0.3828  0.9066 -0.2265
 1243SOL    HW115188   2.272   1.929   2.400 -2.1081 -2.0648 -0.4451
 1243SOL    HW215189   2.324   1.987   2.533  1.8475  0.3757 -3.4058
 1244SOL     OW15190   3.311   1.795   6.374  0.6025  0.2074  0.2884
 1244SOL    HW115191   3.375   1.738   6.417  0.3691  0.6828  1.2619
 1244SOL    HW215192   3.230   1.779   6.421 -1.0470  0.4502 -2.4833
 1245SOL     OW15193   0.730   3.941  13.035 -0.4682  0.2261  0.5729
 1245SOL    HW115194   0.730   4.022  13.085 -0.0463  0.3267  0.4144
 1245SOL    HW215195   0.823   3.925  13.051 -0.0611  2.2049  0.1464
 1246SOL     OW15196   3.329   3.331  16.111  0.0384  0.8743  0.6073
 1246SOL    HW115197   3.380   3.352  16.033 -0.3706 -2.4087 -0.5752
 1246SOL    HW215198   3.268   3.261  16.085 -0.5535  0.2801  3.6290
 1247SOL     OW15199   0.228   3.971   8.405  0.1980  0.0714 -0.2716
 1247SOL    HW115200   0.152   3.947   8.458  0.7972 -0.3829  0.3882
 1247SOL    HW215201   0.209   3.952   8.313 -0.1588  1.7735 -0.5377
 1248SOL     OW15202   0.448   2.354   1.600 -0.0990 -0.1986 -0.1432
 1248SOL    HW115203   0.376   2.338   1.661 -0.3256 -1.0005 -0.6180
 1248SOL    HW215204   0.422   2.433   1.552 -2.3338 -0.3036  0.9090
 1249SOL     OW15205   0.309   4.164   7.894  0.4343 -0.3497  0.7468
 1249SOL    HW115206   0.236   4.208   7.940 -0.8084 -0.1420 -1.4433
 1249SOL    HW215207   0.369   4.238   7.895  0.8988 -0.7230 -0.1282
 1250SOL     OW15208   2.815   2.179  10.903  0.4455  0.0910  0.1679
 1250SOL    HW115209   2.905   2.187  10.873  0.3588  0.7033  0.0693
 1250SOL    HW215210   2.818   2.210  10.994 -0.4997 -1.1314  0.6154
 1251SOL     OW15211   4.239   2.997   4.131  0.2183 -0.8556 -0.6266
 1251SOL    HW115212   4.204   3.079   4.164  1.9047 -0.4512  0.1689
 1251SOL    HW215213   4.290   3.028   4.056  0.8897  1.3203  0.7369
 1252SOL     OW15214   2.689   0.881   2.926  0.1262 -0.1129 -0.6932
 1252SOL    HW115215   2.622   0.836   2.978  0.6054 -1.7104 -1.4558
 1252SOL    HW215216   2.663   0.971   2.943 -0.9663 -0.6386  0.5129
 1253SOL     OW15217   0.174   3.799   0.111 -0.0515  0.2349  0.3381
 1253SOL    HW115218   0.080   3.789   0.096  0.0380  0.3899 -0.3410
 1253SOL    HW215219   0.213   3.714   0.088 -0.9982  0.5637 -2.4192
 1254SOL     OW15220   1.202   3.029   2.904 -0.0909  0.1102  0.2778
 1254SOL    HW115221   1.202   3.051   2.811 -0.9589  3.7698  1.1400
 1254SOL    HW215222   1.182   3.116   2.938 -1.3733  0.4829 -1.4469
 1255SOL     OW15223   2.012   3.305  11.870 -0.1216 -0.3048  0.0495
 1255SOL    HW115224   2.002   3.396  11.841 -2.0958 -1.2428 -2.2403
 1255SOL    HW215225   2.048   3.319  11.957 -1.0093  2.5940 -0.0328
 1256SOL     OW15226   0.553   0.550   2.290  0.0302  0.2881 -1.1651
 1256SOL    HW115227   0.630   0.507   2.254  1.3526  1.6814 -0.0196
 1256SOL    HW215228   0.565   0.630   2.239 -1.4730  1.7148  0.7063
 1257SOL     OW15229   1.987   0.613  14.806  0.0507 -0.0438  0.1527
 1257SOL    HW115230   1.910   0.598  14.861  0.7507 -0.5729  0.9650
 1257SOL    HW215231   2.046   0.544  14.833 -0.7426 -0.9866 -0.5188
 1258SOL     OW15232   4.387   3.723  17.230  0.5480  0.0752  0.8171
 1258SOL    HW115233   4.469   3.770  17.215  0.4851 -0.7099 -1.9239
 1258SOL    HW215234   4.341   3.782  17.290  0.8768 -0.0130  1.1505
 1259SOL     OW15235   1.146   3.703  13.781 -0.9699 -0.0437  0.1602
 1259SOL    HW115236   1.148   3.791  13.819  0.3941  0.1233 -0.3266
 1259SOL    HW215237   1.189   3.642  13.841 -0.5230  0.8529  0.7388
 1260SOL     OW15238   0.754   0.527   2.498  0.4806 -0.2086  0.1259
 1260SOL    HW115239   0.661   0.541   2.482  0.8387  0.2970 -1.4334
 1260SOL    HW215240   0.752   0.549   2.591  0.4483 -0.6080  0.2192
 1261SOL     OW15241   0.700   3.293   7.778  0.1321 -0.0254  0.5502
 1261SOL    HW115242   0.625   3.310   7.834 -0.0776 -0.0155  0.2684
 1261SOL    HW215243   0.769   3.281   7.843  2.0069 -0.6863 -1.5567
 1262SOL     OW15244   2.156   4.128   3.625  0.8069 -1.0428 -0.4728
 1262SOL    HW115245   2.152   4.202   3.565  0.6596  0.0382  0.8859
 1262SOL    HW215246   2.208   4.066   3.574  0.7036 -1.9600  0.5338
 1263SOL     OW15247   1.197   4.240  13.565 -0.0739  0.2463  0.8625
 1263SOL    HW115248   1.184   4.149  13.594  0.4342 -0.8433 -2.3524
 1263SOL    HW215249   1.278   4.268  13.608  0.0055 -0.8978  1.4738
 1264SOL     OW15250   3.370   2.897   3.968  0.3723 -0.0361  0.2967
 1264SOL    HW115251   3.298   2.866   4.024  0.0023  0.4957  0.1142
 1264SOL    HW215252   3.324   2.921   3.888  0.7233  3.6286  1.1722
 1265SOL     OW15253   2.977   1.502  11.755  0.1275 -0.3290 -0.1222
 1265SOL    HW115254   2.922   1.581  11.757 -0.2577 -0.6052  0.4780
 1265SOL    HW215255   3.060   1.547  11.742 -0.2526  0.4810  0.2467
 1266SOL     OW15256   4.659   2.927   8.051  0.2900  0.2148 -0.2792
 1266SOL    HW115257   4.699   2.900   7.968  1.2515  1.4932 -0.2328
 1266SOL    HW215258   4.573   2.962   8.030  0.3736 -0.1752 -1.2415
 1267SOL     OW15259   1.275   2.824  17.285  0.1875  0.0347 -0.2141
 1267SOL    HW115260   1.190   2.849  17.249 -0.7474 -1.1190  1.1761
 1267SOL    HW215261   1.266   2.729  17.279  2.7434 -0.0974 -2.1057
 1268SOL     OW15262   1.980   2.203   1.197 -0.9931 -0.1311  0.1146
 1268SOL    HW115263   1.997   2.158   1.114 -1.1527  0.1589 -0.0755
 1268SOL    HW215264   2.022   2.288   1.183  0.9173 -0.6394  2.9092
 1269SOL     OW15265   3.947   1.542   1.735  0.0009 -1.1106  0.0513
 1269SOL    HW115266   4.033   1.581   1.726 -1.0897  1.5110  0.9878
 1269SOL    HW215267   3.971   1.451   1.716 -0.0311 -1.1873  0.3746
 1270SOL     OW15268   3.735   0.704   8.944 -0.4493 -0.4108 -0.4189
 1270SOL    HW115269   3.829   0.718   8.937 -0.9740  2.8522 -0.8817
 1270SOL    HW215270   3.700   0.782   8.900 -0.0551  0.8287  1.4452
 1271SOL     OW15271   0.445   1.374   8.170  0.0982 -0.8506  0.0300
 1271SOL    HW115272   0.458   1.445   8.233 -0.5681  1.5677 -2.5221
 1271SOL    HW215273   0.374   1.329   8.216 -0.1288 -0.3233  0.1972
 1272SOL     OW15274   4.047   0.307   1.808 -0.4556 -0.0128  0.7928
 1272SOL    HW115275   4.080   0.359   1.881  2.7826 -1.0237  0.0653
 1272SOL    HW215276   4.131   0.285   1.768  0.0368  1.6031  0.9089
 1273SOL     OW15277   4.609   4.061  13.374 -0.0298 -0.1932 -0.0108
 1273SOL    HW115278   4.641   3.972  13.387  0.4691  0.0294  0.2990
 1273SOL    HW215279   4.691   4.110  13.367 -1.3758  2.1088  0.2401
 1274SOL     OW15280   2.490   2.605   8.481 -0.9813  1.1624  0.2745
 1274SOL    HW115281   2.539   2.527   8.506 -2.2029  0.6979  1.2122
 1274SOL    HW215282   2.437   2.634   8.555 -1.6092  0.4948  0.0814
 1275SOL     OW15283   3.549   2.396   1.442 -0.0052  0.4297  0.4030
 1275SOL    HW115284   3.510   2.325   1.391 -0.0307  1.2045 -0.6477
 1275SOL    HW215285   3.605   2.424   1.369  0.8813  1.2456  1.3879
 1276SOL     OW15286   3.103   0.580   9.929  0.3963  0.4439 -0.2009
 1276SOL    HW115287   3.035   0.574   9.996  0.2165  0.3696 -0.3888
 1276SOL    HW215288   3.164   0.511   9.954 -0.7026 -0.4490  0.0070
 1277SOL     OW15289   1.135   1.794  15.800  0.1197 -0.2449  0.3687
 1277SOL    HW115290   1.066   1.750  15.850 -0.9636  3.1086  1.8970
 1277SOL    HW215291   1.211   1.743  15.825  1.0488  1.3583  0.7820
 1278SOL     OW15292   1.085   1.103   8.378 -0.2436 -0.5189  0.1553
 1278SOL    HW115293   1.132   1.056   8.447  0.6826  0.3964  0.1434
 1278SOL    HW215294   1.056   1.182   8.423  1.1252  1.2347 -2.0461
 1279SOL     OW15295   0.339   0.751   6.736 -0.3575 -0.5108  0.1943
 1279SOL    HW115296   0.271   0.809   6.702 -1.1404 -0.9339  1.0329
 1279SOL    HW215297   0.378   0.793   6.813  1.0046 -0.5022 -0.5001
 1280SOL     OW15298   4.120   0.135   1.449 -0.1142 -0.0267 -0.3476
 1280SOL    HW115299   4.089   0.083   1.523  1.1014  0.3595  0.4326
 1280SOL    HW215300   4.044   0.128   1.391  1.3472 -2.3957 -1.9621
 1281SOL     OW15301   3.535   0.097   8.930 -0.3527  0.0501  1.0355
 1281SOL    HW115302   3.621   0.063   8.955  0.3208 -0.1697 -1.6500
 1281SOL    HW215303   3.488   0.043   8.994 -0.6922  0.1036  0.8305
 1282SOL     OW15304   1.738   4.216   7.936  0.2046 -0.4256  0.2071
 1282SOL    HW115305   1.675   4.180   7.874 -1.0283  1.1661  0.5508
 1282SOL    HW215306   1.749   4.144   7.999  2.8643 -0.7287 -0.5943
 1283SOL     OW15307   1.694   1.903  14.125 -0.2124 -0.1962  0.2377
 1283SOL    HW115308   1.689   1.997  14.107  1.1752  0.0923  1.3797
 1283SOL    HW215309   1.763   1.872  14.066 -1.2496 -2.2090  0.1084
 1284SOL     OW15310   1.809   4.343   4.597 -0.5557 -0.6668  0.0653
 1284SOL    HW115311   1.830   4.254   4.625  0.4144 -0.0968  1.1190
 1284SOL    HW215312   1.888   4.390   4.621 -0.9195 -0.3755  0.6897
 1285SOL     OW15313   3.086   2.982   0.059 -0.3037  0.0296 -0.6894
 1285SOL    HW115314   3.073   3.075   0.077 -3.7414 -0.2771 -1.6298
 1285SOL    HW215315   3.064   2.939   0.141  1.5308  0.0400 -0.1901
 1286SOL     OW15316   1.761   4.325   2.881 -0.0012  0.4174  0.3640
 1286SOL    HW115317   1.824   4.391   2.851  0.7889 -0.5585 -0.0948
 1286SOL    HW215318   1.683   4.343   2.828  0.7910 -0.2078 -1.0223
 1287SOL     OW15319   3.803   1.940   1.694 -0.2569  0.5923 -0.3596
 1287SOL    HW115320   3.748   1.974   1.624  0.8557  0.4409 -1.3039
 1287SOL    HW215321   3.755   1.965   1.773  0.6481  0.9294  0.0858
 1288SOL     OW15322   3.697   1.084  13.318 -0.0129 -0.1053  0.3187
 1288SOL    HW115323   3.711   1.006  13.371  0.3372 -0.3777 -0.1695
 1288SOL    HW215324   3.681   1.054  13.228 -0.6899  0.4029  0.2719
 1289SOL     OW15325   3.929   4.509  12.469 -0.2572 -0.0879 -0.0254
 1289SOL    HW115326   3.944   4.416  12.453  0.1019  0.2587 -1.7883
 1289SOL    HW215327   4.009   4.524  12.519  1.5077  0.8408 -3.1126
 1290SOL     OW15328   0.171   0.777   6.067  0.1095 -0.0564 -0.4730
 1290SOL    HW115329   0.170   0.872   6.055  1.0016  0.4169  3.2041
 1290SOL    HW215330   0.222   0.757   6.145 -1.9243 -2.7552  0.1717
 1291SOL     OW15331   1.974   0.721   8.879  0.1488 -0.3492  0.0977
 1291SOL    HW115332   2.050   0.664   8.874  0.4549 -0.2527  4.1073
 1291SOL    HW215333   1.916   0.646   8.890  1.8887 -1.8778 -1.3233
 1292SOL     OW15334   0.430   3.720   6.181  0.0205  0.8147  0.2512
 1292SOL    HW115335   0.478   3.801   6.198 -1.2012  1.2997  1.3208
 1292SOL    HW215336   0.490   3.665   6.232 -0.5081  0.3034  0.3185
 1293SOL     OW15337   1.735   1.603   6.625  0.5460  0.3617 -0.3975
 1293SOL    HW115338   1.766   1.653   6.550  1.0052 -0.0413 -0.4804
 1293SOL    HW215339   1.790   1.524   6.616  1.1252  0.7748 -0.4657
 1294SOL     OW15340   0.852   1.609   9.397  0.6017 -0.2921  1.1209
 1294SOL    HW115341   0.760   1.581   9.393  0.2590  1.0142 -0.2962
 1294SOL    HW215342   0.844   1.686   9.453  2.8032  0.3871  0.4841
 1295SOL     OW15343   1.324   1.187   9.768  0.1745 -0.1959  0.4166
 1295SOL    HW115344   1.392   1.237   9.812 -0.1301  3.9705 -3.7627
 1295SOL    HW215345   1.341   1.097   9.796  0.7339 -0.4456 -0.7412
 1296SOL     OW15346   4.048   4.395   2.569 -0.1158  0.4055 -0.1956
 1296SOL    HW115347   3.997   4.476   2.580  2.2895  1.7370  1.3081
 1296SOL    HW215348   4.138   4.423   2.556 -0.1162 -0.3088 -1.6325
 1297SOL     OW15349   4.320   3.854  13.197  0.1954 -0.5240  0.2329
 1297SOL    HW115350   4.240   3.802  13.206 -0.1281 -0.1110 -0.2514
 1297SOL    HW215351   4.389   3.794  13.167 -0.6019 -0.2818 -2.1065
 1298SOL     OW15352   2.142   3.353   9.135  0.0671  0.1405  0.2358
 1298SOL    HW115353   2.082   3.281   9.117 -0.2578  0.7139 -0.9997
 1298SOL    HW215354   2.195   3.361   9.056  0.2149 -0.3432  0.2896
 1299SOL     OW15355   0.489   0.787   6.167  0.2829  0.1411  0.3258
 1299SOL    HW115356   0.552   0.752   6.103  1.1436  2.1397  0.0976
 1299SOL    HW215357   0.479   0.879   6.142  3.7607  0.2973 -0.4646
 1300SOL     OW15358   4.376   2.093   9.267  0.3266  0.0392 -0.3243
 1300SOL    HW115359   4.450   2.045   9.230  0.2155  0.5250 -1.1993
 1300SOL    HW215360   4.314   2.025   9.294  1.2199 -0.7396 -0.2449
 1301SOL     OW15361   0.302   4.231   4.766 -0.6264 -0.2938  0.3770
 1301SOL    HW115362   0.227   4.176   4.742 -0.4781 -0.3733  0.0961
 1301SOL    HW215363   0.266   4.319   4.755  0.3435 -0.1656 -1.8417
 1302SOL     OW15364   4.361   3.929   9.810 -0.3945 -0.4903 -0.7821
 1302SOL    HW115365   4.342   3.929   9.716  0.4376 -0.7930 -0.9447
 1302SOL    HW215366   4.413   3.850   9.821  0.5896  0.4465  1.1947
 1303SOL     OW15367   2.641   1.400   9.532  0.3637 -0.7958 -0.0555
 1303SOL    HW115368   2.656   1.446   9.614  1.3977  0.1532 -0.7851
 1303SOL    HW215369   2.625   1.477   9.478  0.7101 -0.2472  0.6262
 1304SOL     OW15370   0.293   3.387   0.236 -0.5220  0.1198  0.1423
 1304SOL    HW115371   0.352   3.311   0.242 -0.2710  0.2414 -0.7789
 1304SOL    HW215372   0.339   3.438   0.170  2.0773  0.0427  1.8790
 1305SOL     OW15373   1.522   1.268   1.919  0.2311 -0.4502 -0.1501
 1305SOL    HW115374   1.436   1.263   1.961  0.9577 -1.0317  1.2974
 1305SOL    HW215375   1.507   1.342   1.861  1.5686 -1.4309 -1.7353
 1306SOL     OW15376   3.823   0.330   3.271 -0.1738 -0.3773  0.1717
 1306SOL    HW115377   3.754   0.327   3.205  2.1344 -0.3879 -2.2057
 1306SOL    HW215378   3.902   0.297   3.230 -0.2789  0.6822 -0.8782
 1307SOL     OW15379   2.457   0.718   4.015  0.0418  0.4270 -0.4582
 1307SOL    HW115380   2.421   0.806   4.014  0.7810  0.7259 -1.0693
 1307SOL    HW215381   2.488   0.717   3.925 -1.0606  0.6547 -0.8300
 1308SOL     OW15382   0.709   2.415   8.198 -0.5394  0.1919 -0.3007
 1308SOL    HW115383   0.623   2.430   8.160 -1.3821 -1.5298  0.9421
 1308SOL    HW215384   0.695   2.457   8.283  0.0708 -0.1292 -0.0380
 1309SOL     OW15385   2.839   0.369   9.694 -0.3167 -0.4411  0.1873
 1309SOL    HW115386   2.928   0.383   9.663 -0.3127 -0.7479  0.0575
 1309SOL    HW215387   2.790   0.448   9.671 -0.1615  0.0669  1.5943
 1310SOL     OW15388   3.820   1.509   6.377 -0.4913  0.1517  0.1010
 1310SOL    HW115389   3.816   1.604   6.385 -0.6630  0.1203  0.4213
 1310SOL    HW215390   3.824   1.474   6.466  0.2472 -0.8763 -0.3337
 1311SOL     OW15391   0.401   4.095   7.122 -0.8614 -0.5606 -0.2526
 1311SOL    HW115392   0.479   4.040   7.129 -1.5467 -1.6333 -1.0280
 1311SOL    HW215393   0.394   4.069   7.030 -0.8226 -2.4940  0.2919
 1312SOL     OW15394   4.173   4.504  10.821 -0.3235 -0.3600 -0.6592
 1312SOL    HW115395   4.146   4.573  10.882  2.8240 -1.5290  2.0908
 1312SOL    HW215396   4.095   4.483  10.771 -1.2023  1.7695 -0.1907
 1313SOL     OW15397   4.239   2.488   9.868  0.2569 -0.5231  0.6242
 1313SOL    HW115398   4.220   2.569   9.821 -1.4085 -1.8517 -0.9832
 1313SOL    HW215399   4.285   2.441   9.798  0.4112  0.9026 -0.2392
 1314SOL     OW15400   1.746   1.586  10.286  0.4910  0.4690  0.2302
 1314SOL    HW115401   1.830   1.544  10.306 -0.7825 -1.6383  1.2143
 1314SOL    HW215402   1.735   1.643  10.361 -1.0630  1.5165 -0.7838
 1315SOL     OW15403   2.398   4.129   5.083  0.0244 -0.5890 -0.0446
 1315SOL    HW115404   2.459   4.056   5.075  0.5572 -0.0793 -0.6781
 1315SOL    HW215405   2.324   4.082   5.123  0.2218  0.3025  1.3653
 1316SOL     OW15406   1.828   4.229   6.763 -0.1760 -0.3055 -0.7934
 1316SOL    HW115407   1.876   4.234   6.846 -1.0105 -2.6561 -0.1928
 1316SOL    HW215408   1.904   4.212   6.708 -1.1114 -0.8842 -1.8962
 1317SOL     OW15409   3.281   4.064  16.966 -0.0685 -0.2236  0.0964
 1317SOL    HW115410   3.212   4.073  16.900  0.0354 -2.0933 -0.2554
 1317SOL    HW215411   3.339   4.133  16.934 -0.0041 -1.2605 -2.0385
 1318SOL     OW15412   3.687   3.691   8.983  0.1356  0.4008 -0.1795
 1318SOL    HW115413   3.661   3.623   9.044 -0.1422  0.5637 -0.1127
 1318SOL    HW215414   3.760   3.656   8.932 -0.4648  0.0656 -0.8140
 1319SOL     OW15415   4.348   2.338  13.303 -0.0058 -0.2412  0.0773
 1319SOL    HW115416   4.280   2.325  13.238 -0.1619  0.7108  0.0517
 1319SOL    HW215417   4.360   2.243  13.312  0.6963 -0.0141  1.6294
 1320SOL     OW15418   4.201   2.382   0.685 -0.0475  0.2183  0.0228
 1320SOL    HW115419   4.142   2.456   0.670 -0.5528 -0.0696  0.6155
 1320SOL    HW215420   4.224   2.357   0.595 -0.5355  1.5776 -0.4880
 1321SOL     OW15421   2.536   3.006   2.862  0.2601  0.3074  0.4343
 1321SOL    HW115422   2.616   3.017   2.809  0.5090 -1.0514  0.5230
 1321SOL    HW215423   2.525   3.096   2.893  1.3678  0.6306 -0.0875
 1322SOL     OW15424   0.522   1.142   9.493 -0.5333  0.4881 -0.3814
 1322SOL    HW115425   0.514   1.099   9.577 -0.3631  0.9000 -0.1532
 1322SOL    HW215426   0.516   1.072   9.428 -0.6201 -1.3519  1.6116
 1323SOL     OW15427   3.811   3.252  14.925 -0.2644  0.0454  0.1846
 1323SOL    HW115428   3.887   3.269  14.870  0.7147  0.8622  1.7999
 1323SOL    HW215429   3.771   3.187  14.867  0.2308 -1.2229  1.2727
 1324SOL     OW15430   0.354   2.699  17.661  0.0095  0.3143  0.4223
 1324SOL    HW115431   0.388   2.786  17.639 -0.0128  0.1694 -0.1968
 1324SOL    HW215432   0.426   2.650  17.622 -2.0644 -2.5115  0.1074
 1325SOL     OW15433   0.364   2.339  15.051 -0.4745 -0.8452 -0.0508
 1325SOL    HW115434   0.436   2.296  15.004  1.0329 -0.8202  2.2424
 1325SOL    HW215435   0.415   2.374  15.124 -2.0738 -1.1647  1.2019
 1326SOL     OW15436   2.965   3.153  16.249  0.2151 -0.4354 -0.5045
 1326SOL    HW115437   2.977   3.242  16.282  0.0320 -0.3937 -0.5551
 1326SOL    HW215438   2.938   3.101  16.325 -2.2277  0.1370 -0.9977
 1327SOL     OW15439   1.087   0.999   5.174 -0.0268 -0.2133  0.9317
 1327SOL    HW115440   1.024   1.064   5.142 -1.8487 -2.5233 -0.1178
 1327SOL    HW215441   1.162   1.021   5.117  0.6092 -2.0028  1.0865
 1328SOL     OW15442   4.648   2.015   4.809 -0.2930  0.3876 -0.0239
 1328SOL    HW115443   4.693   2.022   4.893  1.8738 -1.3090 -1.0496
 1328SOL    HW215444   4.686   1.929   4.788  1.7691  0.7068  2.4993
 1329SOL     OW15445   3.253   1.869  16.690 -0.3923  0.1483  0.2185
 1329SOL    HW115446   3.303   1.925  16.631 -0.3666 -1.8745 -1.6616
 1329SOL    HW215447   3.324   1.861  16.754 -0.0558 -0.5864 -0.2547
 1330SOL     OW15448   3.485   3.660   0.481  0.1235  0.9389  0.8979
 1330SOL    HW115449   3.536   3.738   0.457  2.5628 -1.6863 -2.3722
 1330SOL    HW215450   3.533   3.584   0.449 -1.1600  0.8778 -0.8938
 1331SOL     OW15451   3.930   3.050  15.457 -0.0339 -0.1769 -0.6316
 1331SOL    HW115452   3.944   2.956  15.468 -0.3970 -0.0342  1.1014
 1331SOL    HW215453   3.933   3.058  15.362 -1.0348  1.4230 -0.5344
 1332SOL     OW15454   0.258   0.455   4.936  0.4418 -0.2353  0.1878
 1332SOL    HW115455   0.288   0.506   4.861 -0.5776  0.4549  0.2495
 1332SOL    HW215456   0.319   0.485   5.003  0.0989  1.6124 -0.3110
 1333SOL     OW15457   2.874   1.616  15.998  0.0462  0.2014 -0.6344
 1333SOL    HW115458   2.954   1.629  15.947  1.3725  0.7129  1.5803
 1333SOL    HW215459   2.869   1.708  16.020  2.8917  0.0959  0.4821
 1334SOL     OW15460   1.577   4.128  12.425 -0.3122 -0.4837 -0.5460
 1334SOL    HW115461   1.489   4.147  12.392 -0.5267  1.2057  0.9764
 1334SOL    HW215462   1.577   4.189  12.499 -0.9059 -1.2033  0.0524
 1335SOL     OW15463   0.026   2.036  10.376  0.3415  0.2658 -0.1775
 1335SOL    HW115464   0.047   1.960  10.322  0.9582  0.6154 -0.4372
 1335SOL    HW215465   0.004   1.992  10.458 -0.3204 -0.3871 -0.6988
 1336SOL     OW15466   1.692   2.176   3.774  0.5682 -1.0655  0.0413
 1336SOL    HW115467   1.743   2.236   3.829  0.4810  1.4499 -2.6194
 1336SOL    HW215468   1.753   2.111   3.739  0.5883 -1.0420  0.0322
 1337SOL     OW15469   1.754   0.959   6.522  0.1636 -0.0659  0.3854
 1337SOL    HW115470   1.825   0.975   6.459  0.6144  1.4681  1.2868
 1337SOL    HW215471   1.702   1.038   6.508 -1.8827 -1.3655  0.6624
 1338SOL     OW15472   2.552   3.449  11.811  0.4535  0.2091  0.1633
 1338SOL    HW115473   2.549   3.453  11.715  1.5211 -0.2463  0.1110
 1338SOL    HW215474   2.469   3.492  11.831 -0.3602 -1.2249 -0.1182
 1339SOL     OW15475   3.434   4.719   5.410  0.1661  0.1947 -0.1368
 1339SOL    HW115476   3.520   4.696   5.446 -0.5030 -0.5480  0.9655
 1339SOL    HW215477   3.451   0.086   5.383 -0.9147  0.8580  1.4215
 1340SOL     OW15478   3.912   3.884   5.515  0.0322  0.6466  0.2227
 1340SOL    HW115479   3.884   3.804   5.560  0.3974  0.7401  0.6114
 1340SOL    HW215480   3.842   3.885   5.449 -0.4528  1.8918  0.7602
 1341SOL     OW15481   0.272   2.317   1.788 -0.0139  0.4676 -0.0999
 1341SOL    HW115482   0.180   2.292   1.799  0.8197 -2.3074  0.5892
 1341SOL    HW215483   0.274   2.394   1.845  2.3483 -0.5515  1.2070
 1342SOL     OW15484   2.493   2.715   4.029  0.5828  0.3511  0.0820
 1342SOL    HW115485   2.584   2.688   4.019 -0.1486 -0.9353 -3.2022
 1342SOL    HW215486   2.489   2.803   3.992  0.7898  0.9293  1.4456
 1343SOL     OW15487   3.738   0.380   4.086 -0.3280 -0.6672 -0.1465
 1343SOL    HW115488   3.779   0.460   4.121  0.8331 -1.6559  0.7319
 1343SOL    HW215489   3.721   0.331   4.166  2.8477  1.2835  1.7160
 1344SOL     OW15490   3.855   2.561   7.106  0.2112  0.1510 -0.2704
 1344SOL    HW115491   3.892   2.481   7.069 -0.8933 -1.3747  1.9321
 1344SOL    HW215492   3.763   2.538   7.118  0.1355  1.2860  1.2741
 1345SOL     OW15493   2.129   2.721   6.126 -0.2860  0.1756 -0.4683
 1345SOL    HW115494   2.217   2.747   6.153  0.5516 -2.1477 -0.9407
 1345SOL    HW215495   2.118   2.780   6.051 -1.2684 -0.7306 -1.0385
 1346SOL     OW15496   0.464   4.458   8.020 -0.3369  0.6044  0.0728
 1346SOL    HW115497   0.411   4.523   7.973  3.0108  2.3801 -1.2148
 1346SOL    HW215498   0.453   4.483   8.112  0.3874  1.8372 -0.1781
 1347SOL     OW15499   1.629   1.965  11.922 -0.4586  0.7310  0.2350
 1347SOL    HW115500   1.556   1.947  11.981  1.0765 -0.0976  1.8893
 1347SOL    HW215501   1.693   2.000  11.983  0.4550  0.1837 -0.4042
 1348SOL     OW15502   4.674   0.309   3.602  0.2426  0.3934  0.0541
 1348SOL    HW115503   4.718   0.284   3.683  1.1020  2.8378  0.3546
 1348SOL    HW215504   4.580   0.315   3.620 -0.1579 -0.3366 -1.8926
 1349SOL     OW15505   1.195   0.255   2.942  0.0236 -0.0820  0.2170
 1349SOL    HW115506   1.177   0.327   3.002  1.1215 -1.1440  1.8245
 1349SOL    HW215507   1.154   0.189   2.999 -1.9699  0.9424 -0.0610
 1350SOL     OW15508   4.572   3.960   8.849  0.3240  0.1605 -0.1176
 1350SOL    HW115509   4.596   3.904   8.923 -2.4873  1.2533  1.5808
 1350SOL    HW215510   4.604   3.902   8.779 -2.1692  0.2330 -1.2923
 1351SOL     OW15511   4.044   2.002   5.732  0.1968  0.5926  0.4400
 1351SOL    HW115512   4.029   1.982   5.639  0.9819 -1.2001  0.7080
 1351SOL    HW215513   4.047   2.098   5.732  1.4417  0.5607 -1.6768
 1352SOL     OW15514   4.437   3.645   8.368  0.4271 -0.1174 -0.2686
 1352SOL    HW115515   4.473   3.591   8.438 -1.4701  0.0746  0.8496
 1352SOL    HW215516   4.500   3.717   8.368  0.1798  0.1049 -0.8531
 1353SOL     OW15517   1.327   2.612   2.288  0.6863 -0.6068  0.0788
 1353SOL    HW115518   1.375   2.571   2.215  0.4926  1.4484 -1.2064
 1353SOL    HW215519   1.366   2.699   2.292 -0.1597 -0.1761 -1.1255
 1354SOL     OW15520   2.518   1.153  14.422  0.5680 -0.5991 -0.0912
 1354SOL    HW115521   2.610   1.131  14.432  0.3057 -2.5855 -2.0130
 1354SOL    HW215522   2.478   1.069  14.441 -0.1983  0.0555  1.2101
 1355SOL     OW15523   4.510   3.625  11.325 -0.4922  0.8461  0.4461
 1355SOL    HW115524   4.582   3.601  11.383  0.9917  2.1447 -0.8581
 1355SOL    HW215525   4.523   3.719  11.336  0.0899  1.0186 -1.7187
 1356SOL     OW15526   4.248   4.357  12.472 -0.0643  0.4052 -0.5342
 1356SOL    HW115527   4.209   4.429  12.522 -1.5352 -0.3184 -0.6333
 1356SOL    HW215528   4.232   4.368  12.378 -1.1849  0.8368 -0.2967
 1357SOL     OW15529   4.663   2.240   5.518  0.3389 -0.0114  0.7019
 1357SOL    HW115530   4.641   2.151   5.548  0.5316 -0.6227 -0.9556
 1357SOL    HW215531   4.573   2.268   5.506  1.8114  3.2189 -2.7887
 1358SOL     OW15532   0.654   2.879   5.692  0.3030 -0.3249 -0.6628
 1358SOL    HW115533   0.591   2.950   5.706  0.0680 -0.6397 -0.1221
 1358SOL    HW215534   0.612   2.830   5.621  1.1379  0.6210 -1.8037
 1359SOL     OW15535   0.863   2.108  11.555 -0.1713 -0.1298 -0.1527
 1359SOL    HW115536   0.912   2.189  11.569 -1.1264  0.4890 -0.3747
 1359SOL    HW215537   0.921   2.043  11.518 -0.2424  0.7428 -1.8072
 1360SOL     OW15538   3.750   0.735   5.042 -0.5370  0.9382 -0.0046
 1360SOL    HW115539   3.756   0.821   5.084  1.9285  0.6789  0.1572
 1360SOL    HW215540   3.769   0.758   4.951  1.6206  0.2513  0.2937
 1361SOL     OW15541   1.804   4.424   8.078  0.9129 -0.2399 -0.4400
 1361SOL    HW115542   1.893   4.424   8.044  1.6980  1.9046  1.6258
 1361SOL    HW215543   1.760   4.344   8.049 -0.2841 -1.3995  4.4789
 1362SOL     OW15544   3.279   3.952   7.332  0.2487 -0.3349  0.0169
 1362SOL    HW115545   3.274   3.935   7.427 -1.3982 -3.1177 -0.5573
 1362SOL    HW215546   3.225   3.879   7.301  0.6718 -0.0398 -1.3895
 1363SOL     OW15547   2.693   4.287   0.254  0.7374  0.3294 -0.2155
 1363SOL    HW115548   2.643   4.354   0.301  0.5966 -0.9463  1.4365
 1363SOL    HW215549   2.770   4.273   0.309  0.5424  3.5018  0.8962
 1364SOL     OW15550   2.573   1.818   5.774  0.9348  0.1222  0.0100
 1364SOL    HW115551   2.631   1.824   5.850  0.1181  0.1317  0.6363
 1364SOL    HW215552   2.490   1.805   5.820  1.5644 -2.7836  0.3277
 1365SOL     OW15553   4.491   2.590   1.279 -0.3270 -0.0345 -0.5929
 1365SOL    HW115554   4.459   2.664   1.226 -0.6070 -0.7995 -1.4827
 1365SOL    HW215555   4.439   2.611   1.357 -0.3434  0.8136 -0.8276
 1366SOL     OW15556   3.440   4.438   1.958  0.1272 -0.5827 -0.3144
 1366SOL    HW115557   3.464   4.431   2.050  0.7211  3.5444 -0.1463
 1366SOL    HW215558   3.374   4.370   1.943 -0.4155  0.0038 -0.5928
 1367SOL     OW15559   2.387   1.742   3.868  0.3594 -0.5581  0.4633
 1367SOL    HW115560   2.319   1.675   3.876 -0.3580  0.0546 -0.4622
 1367SOL    HW215561   2.395   1.763   3.775 -0.4532 -2.0092  0.0690
 1368SOL     OW15562   1.567   3.212   5.919  0.2130 -0.5549  0.0712
 1368SOL    HW115563   1.489   3.262   5.945  0.2278  0.3570 -1.5953
 1368SOL    HW215564   1.543   3.120   5.932  1.4218 -0.8961 -0.1053
 1369SOL     OW15565   3.642   3.666   4.500  0.5378 -0.1235 -0.4096
 1369SOL    HW115566   3.571   3.722   4.529 -1.9561 -4.3348  1.4545
 1369SOL    HW215567   3.662   3.613   4.577 -0.7596  1.0422  0.7268
 1370SOL     OW15568   0.878   2.346   4.694  0.6317  0.2760  0.2927
 1370SOL    HW115569   0.853   2.368   4.783  1.5973 -0.3535  0.7238
 1370SOL    HW215570   0.869   2.427   4.644 -0.2047  0.7525  1.2325
 1371SOL     OW15571   4.284   3.072   5.555  0.6252 -0.4652 -0.1807
 1371SOL    HW115572   4.244   3.125   5.624 -0.3825  0.4129 -1.4090
 1371SOL    HW215573   4.244   3.116   5.479 -1.0512 -0.2579  0.8302
 1372SOL     OW15574   3.012   4.631   0.068  0.4140  0.3975 -0.0060
 1372SOL    HW115575   2.983   4.635   0.159 -1.0150 -1.7026 -0.3826
 1372SOL    HW215576   3.078   4.563   0.073 -0.4856 -0.3524  1.6212
 1373SOL     OW15577   4.695   0.901   9.578  0.1069  0.3582 -0.5286
 1373SOL    HW115578   0.035   0.899   9.649 -1.8636  0.5004  1.2467
 1373SOL    HW215579   4.697   0.817   9.532  0.4639  0.3745 -0.5401
 1374SOL     OW15580   4.132   4.345   4.737  0.0117  0.6577 -0.1123
 1374SOL    HW115581   4.090   4.400   4.670  0.8486 -0.2040 -1.3471
 1374SOL    HW215582   4.136   4.414   4.803  1.9546  0.5212 -0.0801
 1375SOL     OW15583   4.718   3.992   2.114  0.1700  0.8565 -0.3752
 1375SOL    HW115584   0.030   3.903   2.108 -2.1367 -0.0646 -0.5586
 1375SOL    HW215585   0.073   4.043   2.133  0.9985 -0.9785  1.1870
 1376SOL     OW15586   0.387   0.659   3.148 -0.0014 -0.3606  0.2366
 1376SOL    HW115587   0.430   0.574   3.155  0.9477  0.0882 -0.1582
 1376SOL    HW215588   0.315   0.635   3.089  0.7613  1.5751 -1.4667
 1377SOL     OW15589   1.007   2.104   9.040  0.6308 -1.1007  0.1807
 1377SOL    HW115590   0.947   2.141   8.976  1.7536 -1.0578 -0.8313
 1377SOL    HW215591   1.040   2.181   9.087 -0.2996 -0.2194 -0.6320
 1378SOL     OW15592   3.882   0.677   8.357 -0.5869  0.3282  0.0641
 1378SOL    HW115593   3.858   0.766   8.384  1.0846  0.3492  1.5604
 1378SOL    HW215594   3.819   0.627   8.408  0.3796 -1.1031 -0.1496
 1379SOL     OW15595   2.984   0.923   7.496  0.0066 -0.4323  0.1951
 1379SOL    HW115596   3.016   0.918   7.586 -1.5213  0.9373  0.7927
 1379SOL    HW215597   2.912   0.985   7.502  0.0142 -0.4411  0.3831
 1380SOL     OW15598   0.777   3.935   4.936  0.5118 -0.0588 -0.9401
 1380SOL    HW115599   0.690   3.968   4.958  0.2660 -2.1063  1.1235
 1380SOL    HW215600   0.765   3.848   4.973 -0.3708  0.0736 -0.9143
 1381SOL     OW15601   0.188   3.748   2.362 -0.6120 -0.1848 -0.1662
 1381SOL    HW115602   0.156   3.719   2.276 -0.8099 -0.9529  0.1745
 1381SOL    HW215603   0.252   3.815   2.339  2.3234 -2.9551 -0.0823
 1382SOL     OW15604   1.109   3.760  11.915 -0.1367 -0.3966 -0.0426
 1382SOL    HW115605   1.164   3.786  11.841 -1.5644 -0.9439 -1.3189
 1382SOL    HW215606   1.025   3.748  11.871  0.5980 -0.1004 -1.5241
 1383SOL     OW15607   2.605   2.641  15.092 -0.2372 -0.4010 -0.1055
 1383SOL    HW115608   2.692   2.607  15.113  0.2316  1.3929  0.8030
 1383SOL    HW215609   2.613   2.685  15.008  1.3152 -2.0275 -0.8059
 1384SOL     OW15610   2.794   2.211  15.029 -0.3136  0.5767 -0.0441
 1384SOL    HW115611   2.786   2.263  15.109  0.7252  2.3433 -1.0813
 1384SOL    HW215612   2.730   2.140  15.037  1.2282 -0.7529  0.5555
 1385SOL     OW15613   1.134   2.107   4.866  0.4510 -0.2416  0.1632
 1385SOL    HW115614   1.133   2.061   4.781  0.7955 -0.3863  0.2368
 1385SOL    HW215615   1.180   2.043   4.920  2.9708  2.1827  0.8783
 1386SOL     OW15616   1.311   0.138   2.365 -0.0675  0.3892 -0.3414
 1386SOL    HW115617   1.280   0.211   2.312 -0.3360 -0.7039 -1.6816
 1386SOL    HW215618   1.231   0.108   2.410  0.4340  0.3673  0.5319
 1387SOL     OW15619   2.850   0.445   7.856 -0.5506 -0.1196  0.5449
 1387SOL    HW115620   2.855   0.370   7.916  1.4528 -0.1199  0.3701
 1387SOL    HW215621   2.758   0.469   7.870 -0.1973  1.2380  0.4951
 1388SOL     OW15622   4.306   4.482   2.514 -0.0998 -0.6198  0.7618
 1388SOL    HW115623   4.320   4.571   2.545 -0.4523  0.5064 -2.3153
 1388SOL    HW215624   4.384   4.472   2.460 -1.0662  1.0977 -0.9351
 1389SOL     OW15625   2.223   3.156   2.958 -0.1298 -0.1092 -0.5703
 1389SOL    HW115626   2.254   3.097   3.027 -0.8809 -0.9799 -0.9684
 1389SOL    HW215627   2.127   3.148   2.954 -0.1094 -0.8856  0.5403
 1390SOL     OW15628   4.601   2.841   6.930  0.2427 -0.3882  0.2065
 1390SOL    HW115629   4.633   2.787   7.003  0.5718  0.9628  1.0548
 1390SOL    HW215630   4.567   2.915   6.981 -0.4521 -0.4450 -0.1829
 1391SOL     OW15631   2.407   1.990   8.035  0.2297  0.2992 -0.1575
 1391SOL    HW115632   2.328   2.044   8.041 -1.0300 -1.6900  1.4070
 1391SOL    HW215633   2.432   1.990   8.127  1.0506 -1.9584 -0.3815
 1392SOL     OW15634   2.238   1.466   5.709  0.2528 -0.0383 -0.2443
 1392SOL    HW115635   2.150   1.476   5.745  1.0182  0.6039  1.4262
 1392SOL    HW215636   2.284   1.506   5.783 -0.5560  2.6091 -1.1963
 1393SOL     OW15637   1.992   0.619   4.287 -0.2593 -0.0500 -0.4774
 1393SOL    HW115638   2.087   0.631   4.299 -0.3561 -0.0631  0.2886
 1393SOL    HW215639   2.006   0.587   4.198  2.1388 -1.3375  0.3591
 1394SOL     OW15640   4.070   1.315   1.997  0.6636 -0.8197  0.4478
 1394SOL    HW115641   4.131   1.365   2.050  1.3188  1.2942 -2.2828
 1394SOL    HW215642   4.119   1.293   1.918  1.6214 -2.2362  1.4630
 1395SOL     OW15643   4.006   3.040   3.890  0.2063  0.2097  0.1879
 1395SOL    HW115644   3.954   2.960   3.879 -0.3370  0.8214 -1.8238
 1395SOL    HW215645   4.076   3.030   3.825 -0.7564  1.1854 -1.0014
 1396SOL     OW15646   4.638   4.351   5.946 -0.4915 -0.1531 -0.2662
 1396SOL    HW115647   4.618   4.437   5.982  0.6837  1.1146 -2.6439
 1396SOL    HW215648   4.563   4.297   5.972 -0.6508 -0.2996 -1.0467
 1397SOL     OW15649   2.863   1.046  12.661  0.3786 -0.2819 -0.0354
 1397SOL    HW115650   2.871   0.967  12.608  1.7256 -1.2572  1.6235
 1397SOL    HW215651   2.818   1.013  12.739 -0.5248  0.8114 -0.0952
 1398SOL     OW15652   2.196   0.070   7.964 -0.1231 -0.3624  0.5055
 1398SOL    HW115653   2.103   0.094   7.960  0.2668  1.2918  1.5185
 1398SOL    HW215654   2.235   0.157   7.959  0.4166 -0.6521 -0.4359
 1399SOL     OW15655   0.026   0.689  15.764  0.0202  0.3241 -0.1274
 1399SOL    HW115656   0.079   0.741  15.824  0.3762 -0.5629  0.3296
 1399SOL    HW215657   4.668   0.688  15.813  0.3564 -0.8573  0.4084
 1400SOL     OW15658   0.411   4.685   1.659  0.4810  0.3315  0.3030
 1400SOL    HW115659   0.431   0.046   1.620 -3.7833 -0.7786 -4.3278
 1400SOL    HW215660   0.372   4.705   1.744 -2.6580  0.1663 -1.0989
 1401SOL     OW15661   0.310   4.401   0.692 -0.5980 -0.7163  0.0199
 1401SOL    HW115662   0.298   4.431   0.602 -1.3673 -0.7230  0.1185
 1401SOL    HW215663   0.223   4.433   0.718  0.3323 -0.7846  3.1386
 1402SOL     OW15664   1.777   1.221   3.444  0.2853  0.0388 -0.0976
 1402SOL    HW115665   1.815   1.135   3.464 -1.1521 -0.1646  1.7732
 1402SOL    HW215666   1.834   1.275   3.499 -1.7730  0.5899  1.4770
 1403SOL     OW15667   0.442   3.262   3.825 -0.0136 -0.1074 -0.1156
 1403SOL    HW115668   0.429   3.172   3.856  1.4464 -0.5534 -0.8010
 1403SOL    HW215669   0.474   3.307   3.903  1.2604  0.0233 -0.7256
 1404SOL     OW15670   4.511   4.469   9.889  0.5111  0.2886 -0.3273
 1404SOL    HW115671   4.568   4.484   9.965  0.6409 -0.1505 -0.3340
 1404SOL    HW215672   4.527   4.374   9.886 -0.8268  0.0571  0.0019
 1405SOL     OW15673   1.791   4.661   2.467  0.3329 -0.0837 -0.4286
 1405SOL    HW115674   1.718   4.722   2.454  0.2820 -0.3844 -1.5647
 1405SOL    HW215675   1.841   4.669   2.385 -0.7297  1.0661 -0.9805
 1406SOL     OW15676   2.921   3.214   0.538  0.4066  0.2800 -0.2326
 1406SOL    HW115677   2.969   3.187   0.616  0.1719  1.2811  0.2507
 1406SOL    HW215678   2.978   3.181   0.469  0.6367 -0.1129  0.1477
 1407SOL     OW15679   0.602   3.606   1.058 -0.6842  0.0660  0.1931
 1407SOL    HW115680   0.516   3.590   1.018 -0.6820  1.1922 -0.2723
 1407SOL    HW215681   0.647   3.651   0.987 -3.6263  0.0340 -1.7045
 1408SOL     OW15682   2.225   0.119   2.242  0.0546 -0.0321  0.0861
 1408SOL    HW115683   2.173   0.183   2.193 -0.9505 -0.3193  0.7767
 1408SOL    HW215684   2.315   0.153   2.234  0.3203 -0.7064  0.2412
 1409SOL     OW15685   3.343   2.596  10.690 -0.2170  0.1591 -0.9949
 1409SOL    HW115686   3.355   2.572  10.782 -0.9100  0.1215 -0.9127
 1409SOL    HW215687   3.303   2.515  10.659 -0.8071  0.0201  0.1402
 1410SOL     OW15688   3.547   3.388   6.821 -0.2027 -0.2362  0.2163
 1410SOL    HW115689   3.478   3.390   6.754 -0.8201 -2.1361  0.7878
 1410SOL    HW215690   3.501   3.330   6.882 -0.3164 -0.5462 -0.1671
 1411SOL     OW15691   1.033   1.724   3.347  0.1377 -0.0920  0.1095
 1411SOL    HW115692   1.128   1.734   3.348  0.2178 -0.3525 -2.4782
 1411SOL    HW215693   1.027   1.751   3.438  1.1560 -2.1108  0.7717
 1412SOL     OW15694   0.574   2.473   5.431  0.3983 -0.4836  0.5260
 1412SOL    HW115695   0.630   2.544   5.464 -0.2631  0.6259 -0.7759
 1412SOL    HW215696   0.620   2.405   5.480 -0.1992  0.0888  1.8882
 1413SOL     OW15697   4.331   4.723  15.355 -0.1097  0.3426 -0.3009
 1413SOL    HW115698   4.421   0.032  15.352 -0.2747  0.6550 -2.2904
 1413SOL    HW215699   4.303   4.713  15.264  0.2666  0.3834 -0.4236
 1414SOL     OW15700   2.595   1.382   1.589  0.1496  0.0728  0.3167
 1414SOL    HW115701   2.667   1.320   1.581 -0.5246 -0.6582 -0.1685
 1414SOL    HW215702   2.544   1.353   1.664  0.0510  0.0842  0.2543
 1415SOL     OW15703   4.082   0.768   6.109  0.2554 -0.5200  0.1731
 1415SOL    HW115704   4.020   0.698   6.130  0.7408 -1.3751 -1.2622
 1415SOL    HW215705   4.061   0.773   6.016  2.8204 -1.4368 -0.4460
 1416SOL     OW15706   2.977   3.473  16.284  0.2137  0.1040  0.2218
 1416SOL    HW115707   2.963   3.563  16.314 -1.0703  0.0474 -0.1828
 1416SOL    HW215708   3.019   3.434  16.361  0.4955 -0.2428 -0.1116
 1417SOL     OW15709   2.826   0.528   3.503  0.1068 -0.7973 -0.3974
 1417SOL    HW115710   2.826   0.540   3.598 -1.5633  0.0062 -0.5031
 1417SOL    HW215711   2.882   0.451   3.498  1.4120 -0.0906  3.3219
 1418SOL     OW15712   2.293   0.433   6.026 -0.1788 -0.5434 -0.1813
 1418SOL    HW115713   2.234   0.404   5.957  1.6657  1.3335 -2.5692
 1418SOL    HW215714   2.358   0.482   5.974 -1.5052  0.8226 -0.5394
 1419SOL     OW15715   0.613   3.930   6.196  0.3886  0.0070 -0.2576
 1419SOL    HW115716   0.668   3.965   6.266  0.0313 -1.0766  0.5596
 1419SOL    HW215717   0.647   3.989   6.129  0.5359  0.3780  0.1399
 1420SOL     OW15718   3.022   2.540   5.523 -0.2677 -0.0841  0.0120
 1420SOL    HW115719   3.053   2.574   5.439  2.7292  0.8147  1.4742
 1420SOL    HW215720   3.101   2.495   5.555  0.7582  1.5458 -0.2225
 1421SOL     OW15721   0.310   1.178   5.383  0.1333 -0.3678 -0.1813
 1421SOL    HW115722   0.247   1.241   5.420 -0.2653  0.1746 -1.7823
 1421SOL    HW215723   0.265   1.150   5.303 -0.9620  0.7011  0.0451
 1422SOL     OW15724   3.189   2.159  16.173  0.1902  0.4878 -0.5018
 1422SOL    HW115725   3.173   2.245  16.134 -0.9455  1.2459  1.6468
 1422SOL    HW215726   3.215   2.190  16.260 -0.1144 -1.1238  0.1490
 1423SOL     OW15727   2.885   2.670   1.028 -0.0439  0.0394  0.6512
 1423SOL    HW115728   2.906   2.658   0.935 -0.4680  2.5147  0.2342
 1423SOL    HW215729   2.969   2.648   1.066 -0.6062 -0.6434  1.5029
 1424SOL     OW15730   0.995   4.721  15.154  0.0972  0.0721  0.3814
 1424SOL    HW115731   0.927   0.064  15.160 -0.5054 -0.5990  0.9514
 1424SOL    HW215732   0.962   4.662  15.222  1.1202 -0.9030  0.0319
 1425SOL     OW15733   1.789   2.783  17.214 -0.4722 -0.3421 -0.0810
 1425SOL    HW115734   1.710   2.836  17.201 -1.0550 -0.7142  1.9510
 1425SOL    HW215735   1.760   2.705  17.166 -0.8353 -0.4694  0.3382
 1426SOL     OW15736   0.825   3.934  11.007 -0.3616  0.1168  0.6385
 1426SOL    HW115737   0.823   3.842  11.033 -0.5885 -0.5586 -1.7622
 1426SOL    HW215738   0.799   3.946  10.916  0.0513  1.6644  0.7167
 1427SOL     OW15739   0.893   1.716   5.505 -0.6025 -0.3963 -0.4085
 1427SOL    HW115740   0.905   1.709   5.599 -2.0920  0.3891 -0.1585
 1427SOL    HW215741   0.910   1.624   5.485 -1.1423 -0.5964  0.0602
 1428SOL     OW15742   2.161   1.688   5.318 -0.4476  0.5408  0.0515
 1428SOL    HW115743   2.196   1.715   5.403  0.9304  1.9740 -0.9519
 1428SOL    HW215744   2.157   1.773   5.274 -0.2869  1.0804  1.0926
 1429SOL     OW15745   0.000   1.758   4.752  0.2162  0.2299  0.2112
 1429SOL    HW115746   0.010   1.681   4.807 -1.1408 -0.5955 -0.7137
 1429SOL    HW215747   0.034   1.714   4.675  0.2704  1.5368 -0.5113
 1430SOL     OW15748   0.557   2.378   3.166  0.4174 -0.3119 -0.3165
 1430SOL    HW115749   0.553   2.314   3.095 -1.1684 -1.1522  0.5282
 1430SOL    HW215750   0.473   2.423   3.151 -0.0036 -0.4585  1.6073
 1431SOL     OW15751   4.627   0.920   8.835 -0.2673 -0.1043  0.1375
 1431SOL    HW115752   4.669   0.875   8.908  2.3189  1.1875 -0.5812
 1431SOL    HW215753   4.705   0.968   8.809 -0.8503  1.6272  1.5493
 1432SOL     OW15754   3.254   3.703  17.247 -0.0999 -0.1180  0.2636
 1432SOL    HW115755   3.315   3.646  17.202 -1.3933 -2.2153  1.1837
 1432SOL    HW215756   3.179   3.694  17.188  0.4365 -0.5054 -0.3647
 1433SOL     OW15757   3.657   1.578   2.448 -0.9069 -0.5467 -0.2542
 1433SOL    HW115758   3.689   1.637   2.379  1.2241 -0.8427  0.4767
 1433SOL    HW215759   3.738   1.530   2.466 -0.8025  0.1415  1.0707
 1434SOL     OW15760   2.860   3.811  11.417 -0.4985  0.4432 -0.5714
 1434SOL    HW115761   2.951   3.783  11.424 -0.7588 -0.6978 -1.7897
 1434SOL    HW215762   2.828   3.789  11.504 -1.5216 -0.3184 -1.1433
 1435SOL     OW15763   4.660   2.116   7.822 -0.1692  0.3591 -0.3955
 1435SOL    HW115764   4.678   2.209   7.838  1.8176 -0.1737  0.4587
 1435SOL    HW215765   4.650   2.081   7.911  3.0123 -0.2463 -0.2583
 1436SOL     OW15766   1.216   2.112   0.506 -0.4147 -0.1559  0.2110
 1436SOL    HW115767   1.300   2.104   0.551  0.9350  1.5333 -2.0086
 1436SOL    HW215768   1.229   2.070   0.421 -1.4238 -2.4172  1.1891
 1437SOL     OW15769   3.681   2.604   3.704 -0.4748  0.4398  0.3810
 1437SOL    HW115770   3.586   2.607   3.692 -0.6877  0.2149  1.9963
 1437SOL    HW215771   3.710   2.580   3.617 -0.5746  0.5531  0.3157
 1438SOL     OW15772   3.233   3.810  11.108 -0.0645  0.4231  0.2706
 1438SOL    HW115773   3.320   3.770  11.105 -0.1232  0.4325 -1.3532
 1438SOL    HW215774   3.185   3.729  11.121  0.3688  0.3148  1.1843
 1439SOL     OW15775   1.834   2.079   5.130  0.2244 -0.3315  0.0611
 1439SOL    HW115776   1.805   1.989   5.114  1.7834 -0.6049 -1.2946
 1439SOL    HW215777   1.779   2.099   5.205 -1.8936  0.6083 -1.7560
 1440SOL     OW15778   4.621   2.815   5.368 -0.5655  0.3927 -0.5231
 1440SOL    HW115779   4.606   2.908   5.348 -1.6018  1.0826  3.3543
 1440SOL    HW215780   4.533   2.787   5.392 -0.6326  1.9568  1.0791
 1441SOL     OW15781   3.577   0.197  17.282  0.2948  0.0555  0.4424
 1441SOL    HW115782   3.520   0.172  17.209  0.4942 -0.9246  0.6286
 1441SOL    HW215783   3.613   0.277  17.243 -0.5759  1.0221  1.5979
 1442SOL     OW15784   0.120   4.247   6.652 -0.1370  0.5525  0.3782
 1442SOL    HW115785   0.101   4.246   6.746 -0.0962 -2.0635  0.3710
 1442SOL    HW215786   0.177   4.324   6.653 -0.3838  0.7490 -0.8267
 1443SOL     OW15787   0.690   0.776   4.189 -0.6832 -0.2559  0.0075
 1443SOL    HW115788   0.608   0.784   4.141  0.6410  1.6929 -1.8749
 1443SOL    HW215789   0.658   0.782   4.279 -0.2287 -1.3061  0.2480
 1444SOL     OW15790   3.357   0.788   5.158  0.0459  0.4837 -0.0944
 1444SOL    HW115791   3.361   0.864   5.100 -0.5015  0.2082 -0.4900
 1444SOL    HW215792   3.421   0.821   5.222  0.5697 -0.4778 -0.1318
 1445SOL     OW15793   1.559   0.982  16.435  0.1289 -0.1524  0.5650
 1445SOL    HW115794   1.617   0.938  16.373 -0.6193  0.5211 -0.5916
 1445SOL    HW215795   1.604   0.977  16.520  4.0979  0.6854 -1.4855
 1446SOL     OW15796   1.495   0.420   3.411 -0.4834 -0.1322 -0.4764
 1446SOL    HW115797   1.472   0.436   3.503  0.2405  0.4496 -0.4033
 1446SOL    HW215798   1.503   0.510   3.379  2.4071 -0.4804 -0.6942
 1447SOL     OW15799   0.354   1.646   2.849 -0.0454  0.1881  0.3890
 1447SOL    HW115800   0.337   1.690   2.765  0.4180 -0.0451  0.1724
 1447SOL    HW215801   0.263   1.633   2.876  0.0090 -0.1197  0.4233
 1448SOL     OW15802   0.219   0.592   1.837  0.9169 -0.1754 -0.0886
 1448SOL    HW115803   0.297   0.536   1.836  0.8271 -0.2985 -0.2645
 1448SOL    HW215804   0.235   0.636   1.753 -2.6596  0.5910 -0.3603
 1449SOL     OW15805   0.267   1.036   9.092  0.0762  0.0447  0.2147
 1449SOL    HW115806   0.180   1.036   9.131  1.0997 -1.3144  2.4866
 1449SOL    HW215807   0.248   1.122   9.055 -0.7729  1.0107  2.9313
 1450SOL     OW15808   3.564   2.185   8.668 -0.0395 -0.0776  0.0338
 1450SOL    HW115809   3.624   2.247   8.709  1.4519 -2.5503  1.5693
 1450SOL    HW215810   3.482   2.235   8.665  0.6182  0.8591 -2.2964
 1451SOL     OW15811   2.929   1.866   4.902  0.0644 -0.0239  0.1373
 1451SOL    HW115812   2.948   1.883   4.810  1.5610 -2.6898 -0.0437
 1451SOL    HW215813   2.857   1.926   4.924 -1.2670 -1.3983 -0.4461
 1452SOL     OW15814   3.807   0.100   9.994  1.0454  0.1166 -0.4050
 1452SOL    HW115815   3.728   0.142   9.962 -0.4266 -0.5771  2.3284
 1452SOL    HW215816   3.772   0.026  10.045  0.7811 -0.5843 -1.6007
 1453SOL     OW15817   0.974   1.207   2.492  0.6596 -0.1847  0.2132
 1453SOL    HW115818   0.956   1.225   2.584  1.5557  0.3960  0.2714
 1453SOL    HW215819   1.060   1.166   2.505  2.2111  3.1968  0.7461
 1454SOL     OW15820   1.175   1.952  13.640  0.1922 -0.2875  0.0428
 1454SOL    HW115821   1.209   2.004  13.713 -0.5763  0.0658  0.1445
 1454SOL    HW215822   1.248   1.895  13.617  1.4931  1.3079  0.2586
 1455SOL     OW15823   0.624   0.217  11.444  0.2692  0.7233  0.4252
 1455SOL    HW115824   0.574   0.136  11.446  0.2108  0.7369 -0.3602
 1455SOL    HW215825   0.641   0.221  11.349 -2.6349  0.9153 -0.0635
 1456SOL     OW15826   1.695   4.359   3.693 -0.3662 -0.5837 -0.5953
 1456SOL    HW115827   1.778   4.391   3.657  0.8529 -0.7695  2.0905
 1456SOL    HW215828   1.721   4.310   3.771  0.4301  0.3064 -0.3021
 1457SOL     OW15829   3.991   3.728   6.804 -0.3687 -0.3759  0.3343
 1457SOL    HW115830   4.013   3.639   6.830  0.4391  0.0716  1.1719
 1457SOL    HW215831   4.062   3.763   6.750 -2.9511  0.2389 -2.6672
 1458SOL     OW15832   2.937   2.324   7.159 -0.2328 -0.1424  0.0510
 1458SOL    HW115833   2.845   2.336   7.137 -0.5140 -0.9956  0.7544
 1458SOL    HW215834   2.979   2.347   7.076  1.7164 -0.3813  0.9684
 1459SOL     OW15835   1.248   4.139  10.179 -0.0603  0.2787 -0.1727
 1459SOL    HW115836   1.300   4.209  10.218  1.8972 -0.3360 -1.6345
 1459SOL    HW215837   1.298   4.065  10.214  1.2129  0.4154 -1.6926
 1460SOL     OW15838   0.933   1.857   7.168 -0.0565 -0.0336 -0.4781
 1460SOL    HW115839   0.886   1.786   7.213  1.9114 -1.1839 -0.2452
 1460SOL    HW215840   0.985   1.884   7.244 -0.4815 -0.6609  0.0473
 1461SOL     OW15841   3.549   1.423   3.834 -0.1688 -0.2032  0.7445
 1461SOL    HW115842   3.568   1.428   3.740  1.1076 -0.2198  0.9979
 1461SOL    HW215843   3.616   1.358   3.858  0.4805  0.3564  0.4377
 1462SOL     OW15844   4.680   2.022   2.399 -0.2037  0.2891 -0.2369
 1462SOL    HW115845   0.046   1.989   2.405 -0.1662  0.9026  2.6349
 1462SOL    HW215846   4.639   1.936   2.394 -1.5531  0.9016  0.2993
 1463SOL     OW15847   3.454   3.178   6.964  0.2636  0.0331  0.0171
 1463SOL    HW115848   3.425   3.098   7.007 -1.7145  0.6012 -0.2517
 1463SOL    HW215849   3.539   3.144   6.935  0.3915  1.4814 -1.3215
 1464SOL     OW15850   1.017   0.774  14.407 -0.4013  0.5784  0.0208
 1464SOL    HW115851   1.017   0.794  14.500 -0.4325  0.0292  0.1387
 1464SOL    HW215852   1.064   0.692  14.390 -1.6728 -1.0100  4.1261
 1465SOL     OW15853   0.150   1.419   2.896  0.1414  0.3029 -0.1806
 1465SOL    HW115854   0.143   1.510   2.923 -0.3245  0.3952 -0.6023
 1465SOL    HW215855   0.096   1.375   2.962  1.9445  1.8720  2.3373
 1466SOL     OW15856   3.845   1.734   7.385  0.3638  0.0577  0.2783
 1466SOL    HW115857   3.835   1.799   7.455  0.8995  0.3648  0.0651
 1466SOL    HW215858   3.769   1.677   7.396  1.0105 -0.8854 -0.1392
 1467SOL     OW15859   0.731   1.360  17.057  0.3457  0.2084 -0.2578
 1467SOL    HW115860   0.799   1.418  17.089  0.3263 -0.0065  0.1728
 1467SOL    HW215861   0.716   1.392  16.968 -2.2293  2.0312  0.8266
 1468SOL     OW15862   4.388   0.946   6.499 -0.1493  1.2566  0.0153
 1468SOL    HW115863   4.304   0.964   6.456  0.2977  3.6862  0.1950
 1468SOL    HW215864   4.364   0.927   6.590 -0.9821  1.5531 -0.1364
 1469SOL     OW15865   3.655   1.157  17.379 -0.1102 -0.1708  1.1070
 1469SOL    HW115866   3.676   1.063  17.387 -1.5960 -0.5028  1.1328
 1469SOL    HW215867   3.669   1.187  17.469 -1.1386 -0.9564  1.5436
 1470SOL     OW15868   2.273   3.528   7.483  0.2900  0.2595 -0.2893
 1470SOL    HW115869   2.284   3.433   7.493  2.1324  0.4966 -0.0951
 1470SOL    HW215870   2.361   3.553   7.512 -0.1292  1.6658 -0.2108
 1471SOL     OW15871   3.008   2.555   5.849 -0.2294 -0.0465 -0.4741
 1471SOL    HW115872   2.948   2.622   5.818 -1.6775 -2.2716 -2.4940
 1471SOL    HW215873   3.085   2.606   5.826  0.8607 -0.6629  1.8224
 1472SOL     OW15874   1.694   0.456   4.867  0.0987 -0.0397 -0.0574
 1472SOL    HW115875   1.769   0.459   4.926  1.6093  3.9816 -2.1791
 1472SOL    HW215876   1.738   0.479   4.785  1.3045  2.4697  1.2878
 1473SOL     OW15877   0.100   3.054   6.755  0.4309 -0.2081 -0.3680
 1473SOL    HW115878   0.059   2.968   6.742  1.0634 -0.7262  1.0620
 1473SOL    HW215879   0.083   3.079   6.845 -1.6494 -1.0257 -0.5224
 1474SOL     OW15880   2.720   3.251   5.876  0.1067 -0.0690 -0.7194
 1474SOL    HW115881   2.695   3.289   5.792  0.4948 -0.4944 -1.0313
 1474SOL    HW215882   2.653   3.183   5.890 -0.1664  0.6352  1.3485
 1475SOL     OW15883   1.191   3.962  12.086  0.3761  0.0812  0.1976
 1475SOL    HW115884   1.160   3.907  12.014  1.0694 -0.7228  0.5056
 1475SOL    HW215885   1.246   4.016  12.029 -1.0082  2.3280  1.0174
 1476SOL     OW15886   0.982   1.939  16.106 -0.7987  0.1305 -0.3859
 1476SOL    HW115887   1.046   1.942  16.177 -0.5059 -1.4369 -0.5829
 1476SOL    HW215888   1.008   1.864  16.053  1.7727  0.6828  0.1273
 1477SOL     OW15889   4.475   3.427   6.232  0.2070 -0.0541 -0.0616
 1477SOL    HW115890   4.464   3.338   6.266  2.2499 -1.4276 -3.0234
 1477SOL    HW215891   4.570   3.433   6.239  0.3249 -1.2924 -0.6625
 1478SOL     OW15892   4.116   1.420   7.858  0.6867 -0.8246 -0.6711
 1478SOL    HW115893   4.043   1.359   7.869 -0.2879  0.9181  2.5024
 1478SOL    HW215894   4.195   1.369   7.841  1.6723  0.7568 -0.8041
 1479SOL     OW15895   3.674   2.230  12.336 -0.9693  0.6564 -0.1628
 1479SOL    HW115896   3.700   2.288  12.408  1.5968  0.2705 -0.7714
 1479SOL    HW215897   3.629   2.300  12.289 -0.2382  1.6162  0.5837
 1480SOL     OW15898   3.249   3.383  14.203  0.7694  0.0404 -0.3315
 1480SOL    HW115899   3.247   3.379  14.299  1.5459 -1.6501 -0.3835
 1480SOL    HW215900   3.195   3.460  14.184  0.3257 -0.6726 -1.9785
 1481SOL     OW15901   0.085   1.334   5.057  0.7285 -0.0014 -0.2191
 1481SOL    HW115902   0.037   1.264   5.013 -1.1239  2.4070 -2.0312
 1481SOL    HW215903   0.017   1.393   5.090  1.4224  0.1290  0.9801
 1482SOL     OW15904   2.976   1.905   6.304 -0.0480 -0.5864 -0.1351
 1482SOL    HW115905   2.957   1.986   6.352  1.5969  0.5063 -1.3295
 1482SOL    HW215906   2.984   1.836   6.370 -1.5281 -1.6690 -1.1009
 1483SOL     OW15907   3.583   0.533  10.397  0.5017  0.2010  0.1144
 1483SOL    HW115908   3.658   0.592  10.407  0.9064  0.1217 -2.5317
 1483SOL    HW215909   3.509   0.594  10.394  0.7614  0.4622 -0.9759
 1484SOL     OW15910   1.573   1.200   8.399 -0.3661  0.4837  0.2214
 1484SOL    HW115911   1.529   1.235   8.322  0.4926 -4.1663 -2.3457
 1484SOL    HW215912   1.639   1.267   8.419 -1.3597  2.1337 -2.0596
 1485SOL     OW15913   1.331   3.586   2.936 -0.5703  0.2271 -0.3093
 1485SOL    HW115914   1.426   3.589   2.926 -0.3267  0.8452  2.2469
 1485SOL    HW215915   1.309   3.634   3.016 -3.0438 -0.2024 -0.7249
 1486SOL     OW15916   3.141   1.879   1.084 -0.3603  0.4822 -0.1351
 1486SOL    HW115917   3.106   1.873   1.173  2.0189 -1.4872  0.6530
 1486SOL    HW215918   3.082   1.948   1.054  1.3616  1.7175 -0.6885
 1487SOL     OW15919   1.833   1.226   7.043  0.7954  0.1283 -0.1627
 1487SOL    HW115920   1.803   1.163   6.977 -1.3078  0.6134  0.3310
 1487SOL    HW215921   1.773   1.301   7.043  1.6932  0.8363  0.4379
 1488SOL     OW15922   3.972   1.977   4.487  0.5378  0.2579 -0.4694
 1488SOL    HW115923   4.043   2.001   4.427  0.6715 -0.6369 -0.6742
 1488SOL    HW215924   3.892   2.010   4.447  0.1432 -1.6390 -1.2126
 1489SOL     OW15925   0.134   3.284   2.416 -0.7253 -0.5324 -0.4246
 1489SOL    HW115926   0.181   3.336   2.351  1.0833  0.0165  1.3327
 1489SOL    HW215927   0.107   3.204   2.371 -1.7136 -0.9720  0.9549
 1490SOL     OW15928   2.800   1.388  13.197 -0.2715 -0.1622  0.1797
 1490SOL    HW115929   2.800   1.427  13.285 -0.6186 -1.0453  0.5722
 1490SOL    HW215930   2.762   1.302  13.214 -1.8925  0.2412 -1.3027
 1491SOL     OW15931   1.861   1.126   1.860  0.2320 -0.3403  0.0032
 1491SOL    HW115932   1.786   1.072   1.835 -0.4748  0.1969  0.9941
 1491SOL    HW215933   1.921   1.127   1.785  0.8030  2.0019  0.5120
 1492SOL     OW15934   3.049   3.883   1.137  0.1762 -0.2276  0.0190
 1492SOL    HW115935   3.094   3.799   1.128  2.0188  0.5824  1.7150
 1492SOL    HW215936   3.112   3.944   1.099  0.4539  0.2285  1.2089
 1493SOL     OW15937   0.968   0.129   4.924  0.5796 -0.2282 -0.3637
 1493SOL    HW115938   1.004   0.067   4.988  2.4596 -1.2600 -2.4362
 1493SOL    HW215939   1.012   0.211   4.950 -0.3664  0.7931 -2.0253
 1494SOL     OW15940   3.953   0.996   7.366  0.6584  0.3597 -0.3086
 1494SOL    HW115941   3.951   0.979   7.460  0.0268  0.0098 -0.3844
 1494SOL    HW215942   3.892   1.069   7.357  0.1181 -0.0818 -0.2865
 1495SOL     OW15943   1.406   0.594   2.689 -0.5468 -0.2044 -0.1589
 1495SOL    HW115944   1.445   0.681   2.693  1.6643 -1.1495 -0.6827
 1495SOL    HW215945   1.320   0.621   2.658 -0.9866  0.6727  1.8441
 1496SOL     OW15946   3.133   1.736  17.098  0.4623  0.3303  0.6752
 1496SOL    HW115947   3.113   1.716  17.189  0.7431  0.2086  0.7092
 1496SOL    HW215948   3.173   1.822  17.111 -0.0797  0.4157  1.7899
 1497SOL     OW15949   3.547   3.961   5.383 -0.0662 -0.0644  0.0895
 1497SOL    HW115950   3.512   4.050   5.392  1.2259  0.5027 -0.5578
 1497SOL    HW215951   3.611   3.976   5.314 -0.5300 -2.8148 -0.9145
 1498SOL     OW15952   0.985   2.577   5.894  0.4351  0.5609 -0.0600
 1498SOL    HW115953   0.917   2.627   5.939 -0.3045 -1.1551  0.7232
 1498SOL    HW215954   0.978   2.485   5.920 -0.1700  0.8480  0.7671
 1499SOL     OW15955   2.302   2.048  16.601  0.1882  0.6561  0.1129
 1499SOL    HW115956   2.265   1.980  16.656 -1.0441  0.3128 -1.1425
 1499SOL    HW215957   2.240   2.061  16.529  0.9385 -0.1552 -0.6879
 1500SOL     OW15958   2.936   0.245   2.700 -0.2813 -0.1506  0.1090
 1500SOL    HW115959   2.959   0.319   2.643  1.1798 -0.1216  0.7528
 1500SOL    HW215960   2.859   0.272   2.751 -0.1477 -3.7883  2.1966
 1501SOL     OW15961   3.427   1.121  11.618 -0.1744 -0.7165  0.4064
 1501SOL    HW115962   3.515   1.156  11.603 -0.2044 -0.7722  0.0878
 1501SOL    HW215963   3.383   1.103  11.535  1.6781 -1.4007 -0.4492
 1502SOL     OW15964   2.820   1.790   7.484 -0.0726 -0.2560 -0.0418
 1502SOL    HW115965   2.860   1.875   7.464 -0.8054  0.4940  1.6958
 1502SOL    HW215966   2.739   1.799   7.433  0.1416 -0.4472 -0.4154
 1503SOL     OW15967   1.096   1.322   5.116  0.3998  0.5108  0.0451
 1503SOL    HW115968   1.056   1.398   5.159 -0.8261 -0.9457  1.4433
 1503SOL    HW215969   1.023   1.273   5.079  0.9712  0.7254 -1.3708
 1504SOL     OW15970   2.544   1.861   4.698  0.2391  0.0811 -0.1422
 1504SOL    HW115971   2.448   1.862   4.707  0.3014 -1.2873  0.5549
 1504SOL    HW215972   2.574   1.952   4.703  1.5022 -0.3070 -0.9843
 1505SOL     OW15973   0.697   0.987  12.361  0.0275 -0.0347  0.0971
 1505SOL    HW115974   0.615   0.969  12.408  0.4338 -0.0167  0.8226
 1505SOL    HW215975   0.729   1.065  12.406  0.4760  0.6373 -1.3833
 1506SOL     OW15976   3.355   3.301   8.403 -0.0808  0.1265  0.1258
 1506SOL    HW115977   3.310   3.332   8.324 -1.3598 -0.3088  0.6745
 1506SOL    HW215978   3.440   3.343   8.393  0.6993 -1.7917 -1.3435
 1507SOL     OW15979   0.663   2.123   5.478 -0.1060  0.3180 -0.1463
 1507SOL    HW115980   0.667   2.031   5.451  2.9386  0.4619 -0.2107
 1507SOL    HW215981   0.645   2.166   5.395 -0.4844 -0.4527 -0.4596
 1508SOL     OW15982   1.405   2.325   9.264 -0.1574  0.1846  0.5983
 1508SOL    HW115983   1.411   2.265   9.338  0.7215 -1.3208 -0.6956
 1508SOL    HW215984   1.392   2.262   9.193  1.1393  1.3119 -0.6582
 1509SOL     OW15985   3.537   4.051   7.610  0.0778 -0.4827  0.6055
 1509SOL    HW115986   3.478   3.983   7.642  1.9169 -1.1297  2.6221
 1509SOL    HW215987   3.476   4.122   7.592  0.7014 -0.2040 -0.4736
 1510SOL     OW15988   0.621   4.079  17.058 -0.6643 -0.4207  0.6664
 1510SOL    HW115989   0.640   4.028  17.137  0.9365 -2.7349 -1.1949
 1510SOL    HW215990   0.650   4.166  17.085 -3.2075  0.6824 -0.2452
 1511SOL     OW15991   2.064   0.051  15.079 -0.4713  0.0778 -0.2237
 1511SOL    HW115992   2.049   0.045  14.984 -1.9544 -2.3475  0.1783
 1511SOL    HW215993   2.158   0.066  15.088 -0.4572 -0.8689  1.2065
 1512SOL     OW15994   3.232   1.707   7.598 -0.4017 -0.5646 -0.6309
 1512SOL    HW115995   3.138   1.719   7.589  0.1258  3.5093 -1.0119
 1512SOL    HW215996   3.251   1.673   7.686  1.9762 -1.5842 -1.5321
 1513SOL     OW15997   0.702   2.034   4.544 -0.3812 -0.1749  0.5548
 1513SOL    HW115998   0.719   2.128   4.552 -0.6954 -0.3652  3.7349
 1513SOL    HW215999   0.705   2.023   4.449 -1.4834  1.4553  0.3474
 1514SOL     OW16000   0.943   2.199   2.322 -0.8210  0.0723 -0.6701
 1514SOL    HW116001   0.958   2.120   2.375  0.0889 -1.9365 -3.9387
 1514SOL    HW216002   0.858   2.235   2.348 -0.8857 -0.5036 -0.0651
 1515SOL     OW16003   0.349   2.344   8.734  0.0138  0.0832 -0.1941
 1515SOL    HW116004   0.320   2.253   8.725  0.4579 -0.1081  0.3418
 1515SOL    HW216005   0.269   2.390   8.761 -0.0790 -0.0941 -0.1713
 1516SOL     OW16006   1.732   4.207   3.220  0.5373 -0.6226 -0.3097
 1516SOL    HW116007   1.720   4.116   3.192  0.6031 -1.1632  1.4436
 1516SOL    HW216008   1.757   4.190   3.311  1.0355  0.3601 -0.2712
 1517SOL     OW16009   4.207   3.892   0.944  0.2195 -0.0414 -0.3265
 1517SOL    HW116010   4.300   3.888   0.965  0.3012  0.4465 -0.5979
 1517SOL    HW216011   4.207   3.868   0.851 -0.1829 -0.0493 -0.3263
 1518SOL     OW16012   1.142   1.798   2.150 -0.0936  0.4513 -0.3138
 1518SOL    HW116013   1.082   1.759   2.213  1.1075 -0.0550  0.5110
 1518SOL    HW216014   1.164   1.717   2.105 -0.0760 -0.2390  0.9511
 1519SOL     OW16015   1.262   0.007   7.188  0.1633 -0.2749  0.6596
 1519SOL    HW116016   1.318   0.036   7.260  1.9161 -2.1316  0.0708
 1519SOL    HW216017   1.186   4.689   7.230  0.3654  0.0970  1.4003
 1520SOL     OW16018   1.441   0.363   0.676  0.0031 -0.4592  0.0534
 1520SOL    HW116019   1.468   0.337   0.764  3.7844  1.7976 -0.4540
 1520SOL    HW216020   1.449   0.274   0.643  1.5639  0.1860 -1.3060
 1521SOL     OW16021   2.517   0.669   1.533 -0.1202  1.0429 -0.5338
 1521SOL    HW116022   2.516   0.623   1.448  2.8457 -0.6136  0.3362
 1521SOL    HW216023   2.524   0.755   1.492 -0.8202  0.4523 -1.9004
 1522SOL     OW16024   4.158   2.974  15.297 -0.0068  0.6345 -0.3814
 1522SOL    HW116025   4.188   3.059  15.328 -1.5526  0.8124  0.5735
 1522SOL    HW216026   4.171   2.979  15.202  0.4405 -0.6252 -0.3930
 1523SOL     OW16027   0.355   4.340   3.639  0.0127  0.1989 -0.0795
 1523SOL    HW116028   0.305   4.314   3.562 -0.6887 -1.6204  0.9635
 1523SOL    HW216029   0.433   4.374   3.594 -2.2844  3.5246 -1.4862
 1524SOL     OW16030   2.088   0.501   3.106  0.1429  0.0813  0.0566
 1524SOL    HW116031   2.107   0.464   3.020  1.1585  1.4307 -0.3124
 1524SOL    HW216032   2.101   0.595   3.090 -0.0411  0.2548  0.9249
 1525SOL     OW16033   0.259   1.517   2.324 -0.0808  0.1726 -0.0090
 1525SOL    HW116034   0.191   1.501   2.389 -0.8267  1.8496 -0.3672
 1525SOL    HW216035   0.226   1.594   2.278 -0.6514  0.2999  0.6166
 1526SOL     OW16036   1.718   1.730   9.203 -0.1732 -0.3669 -0.0966
 1526SOL    HW116037   1.790   1.775   9.247 -0.2500 -0.7778  0.4476
 1526SOL    HW216038   1.711   1.647   9.248 -0.8143 -1.1285 -1.5958
 1527SOL     OW16039   4.354   0.658   2.468  1.0904 -0.0073 -0.1444
 1527SOL    HW116040   4.309   0.664   2.552  1.3982  1.2972 -0.0768
 1527SOL    HW216041   4.332   0.741   2.425 -3.4678 -2.0439 -1.7789
 1528SOL     OW16042   4.231   2.174   4.786 -0.4138  0.6601  0.1421
 1528SOL    HW116043   4.315   2.206   4.752 -1.5465 -0.3461 -3.6121
 1528SOL    HW216044   4.234   2.084   4.754 -3.3106  0.5371  0.2527
 1529SOL     OW16045   0.591   2.622   8.824 -0.5962  0.3802  0.1967
 1529SOL    HW116046   0.638   2.697   8.787  0.4878  1.2834  3.3508
 1529SOL    HW216047   0.580   2.563   8.750  1.0187  1.7808 -1.1560
 1530SOL     OW16048   2.525   2.706   0.262 -0.3197 -0.5896 -0.2408
 1530SOL    HW116049   2.463   2.715   0.190 -0.8997 -0.7519  0.2466
 1530SOL    HW216050   2.488   2.646   0.326  0.3069 -0.8884 -0.1556
 1531SOL     OW16051   3.260   0.970  13.082 -0.7326  0.4269 -0.0003
 1531SOL    HW116052   3.270   0.875  13.083  0.4100  0.5537  0.6075
 1531SOL    HW216053   3.219   0.988  12.997  0.9459 -0.5583 -1.0104
 1532SOL     OW16054   3.282   1.109  11.373 -0.3382 -0.4287  0.1441
 1532SOL    HW116055   3.346   1.144  11.311  1.8052  0.6046  2.9020
 1532SOL    HW216056   3.226   1.064  11.311 -2.2443  3.0727 -0.6873
 1533SOL     OW16057   2.868   3.055   1.835  0.7192  0.0286 -0.6860
 1533SOL    HW116058   2.798   3.092   1.781 -1.2034 -0.8158  1.1992
 1533SOL    HW216059   2.848   3.099   1.918  1.2064  0.6437 -0.9077
 1534SOL     OW16060   1.113   1.302  10.206  0.5700  1.1722  0.2819
 1534SOL    HW116061   1.194   1.266  10.242  1.2701 -0.1797 -2.6434
 1534SOL    HW216062   1.138   1.309  10.114 -0.2645  0.2488 -0.0093
 1535SOL     OW16063   4.158   4.682   0.836  0.4013  0.5980 -0.1596
 1535SOL    HW116064   4.217   4.711   0.906 -0.2750 -0.1637  0.7249
 1535SOL    HW216065   4.194   0.006   0.762 -0.0250  1.5560  0.2482
 1536SOL     OW16066   1.709   2.517   8.151  0.1025 -0.2245  0.0969
 1536SOL    HW116067   1.729   2.610   8.158  1.0710 -0.4631  0.4645
 1536SOL    HW216068   1.765   2.485   8.079  0.2520  1.1128 -0.3922
 1537SOL     OW16069   0.853   2.481   8.591  0.0209 -0.0312 -0.1775
 1537SOL    HW116070   0.768   2.440   8.580 -0.4460  0.5288  1.3036
 1537SOL    HW216071   0.831   2.566   8.630 -0.1076  0.0899 -0.5171
 1538SOL     OW16072   3.187   1.733   4.787 -0.2767 -0.0218  0.2154
 1538SOL    HW116073   3.119   1.727   4.854  0.5334  0.9922  1.1343
 1538SOL    HW216074   3.140   1.787   4.723  0.3708 -3.1715 -2.9186
 1539SOL     OW16075   3.393   3.083   6.431  0.5193  0.3425 -0.0741
 1539SOL    HW116076   3.301   3.073   6.455  1.0286  1.7350  2.4676
 1539SOL    HW216077   3.434   3.007   6.473  0.9600  0.1865 -0.7918
 1540SOL     OW16078   0.726   2.331   5.002  0.4712 -0.1582  0.1615
 1540SOL    HW116079   0.785   2.256   4.993  1.2476  0.7129 -2.1268
 1540SOL    HW216080   0.651   2.298   4.951  1.1826 -3.1378  1.0371
 1541SOL     OW16081   3.300   2.971   0.399 -0.2459  0.1351  0.4989
 1541SOL    HW116082   3.211   2.987   0.369  0.8119  1.5212 -1.8823
 1541SOL    HW216083   3.288   2.908   0.470  1.2384 -1.1182 -0.3714
 1542SOL     OW16084   2.487   4.602   7.555 -0.6143 -0.4075 -0.1127
 1542SOL    HW116085   2.501   4.602   7.650 -0.6967  1.4855 -0.1001
 1542SOL    HW216086   2.422   4.532   7.550 -0.5763 -0.2901 -2.3085
 1543SOL     OW16087   0.632   0.730   2.116  0.2776 -0.5684 -0.8319
 1543SOL    HW116088   0.592   0.745   2.030  0.4663  2.8689 -0.3218
 1543SOL    HW216089   0.724   0.731   2.091 -0.1549 -0.8978 -2.4473
 1544SOL     OW16090   3.043   3.650   6.067  0.0105  0.5362 -0.0926
 1544SOL    HW116091   3.026   3.570   6.016 -0.8603  1.9915 -2.0715
 1544SOL    HW216092   3.132   3.664   6.033 -0.0213  0.1838 -0.3327
 1545SOL     OW16093   2.324   2.178   6.873 -0.9915 -0.1167 -0.4104
 1545SOL    HW116094   2.285   2.258   6.838  0.5395  0.7465 -0.1332
 1545SOL    HW216095   2.260   2.110   6.853 -0.4503 -0.5254 -0.7327
 1546SOL     OW16096   0.265   1.275   3.172  0.0685 -0.4126 -1.0744
 1546SOL    HW116097   0.305   1.202   3.219 -3.9123 -0.5989  2.0557
 1546SOL    HW216098   0.315   1.270   3.091 -0.5051  0.9209 -1.5122
 1547SOL     OW16099   1.070   1.506  13.598 -0.0435 -0.5808 -0.2402
 1547SOL    HW116100   0.994   1.554  13.629 -0.1859 -0.3683 -0.9286
 1547SOL    HW216101   1.086   1.550  13.515  1.0289 -1.0231 -0.2793
 1548SOL     OW16102   3.293   1.954  16.404  0.0452 -0.1860  0.4786
 1548SOL    HW116103   3.343   1.909  16.336 -0.4071 -0.7611  0.5283
 1548SOL    HW216104   3.208   1.962  16.362  0.0754 -4.1887 -0.3133
 1549SOL     OW16105   4.079   3.984  17.271 -0.0052  0.4156  0.2364
 1549SOL    HW116106   4.030   3.912  17.311  0.1574  0.3997  0.4099
 1549SOL    HW216107   4.167   3.964  17.304  1.1564 -1.6531 -4.1378
 1550SOL     OW16108   0.955   1.793   1.819  0.1773 -0.1624  0.0699
 1550SOL    HW116109   0.924   1.718   1.769  1.0275 -1.9369  2.1992
 1550SOL    HW216110   1.046   1.794   1.791 -0.2843 -0.7027 -1.4303
 1551SOL     OW16111   3.494   1.774   1.222 -0.1509  0.2090 -0.6604
 1551SOL    HW116112   3.454   1.795   1.306  0.3547  0.7732 -0.5636
 1551SOL    HW216113   3.431   1.712   1.185  0.5966 -0.9395 -0.0138
 1552SOL     OW16114   1.722   3.356   5.744 -0.0801  0.4084 -0.1319
 1552SOL    HW116115   1.647   3.341   5.802 -0.3098 -2.0114 -1.0357
 1552SOL    HW216116   1.680   3.350   5.658  1.5316 -0.7506 -0.8445
 1553SOL     OW16117   1.276   0.590  11.837  0.0229 -0.1803 -0.0737
 1553SOL    HW116118   1.344   0.606  11.902 -1.0710 -1.1477  1.3031
 1553SOL    HW216119   1.311   0.608  11.750 -0.3984  4.0200  0.6185
 1554SOL     OW16120   0.980   3.047   1.222  0.5847  0.5173  0.3308
 1554SOL    HW116121   0.996   3.007   1.136 -1.5151 -1.4947  0.8956
 1554SOL    HW216122   0.944   3.134   1.199  0.2770  0.1198 -0.7161
 1555SOL     OW16123   0.752   0.110   3.704  0.2255  0.1587 -0.1325
 1555SOL    HW116124   0.739   0.202   3.679  0.0664  0.6432  1.7421
 1555SOL    HW216125   0.836   0.114   3.749 -0.4055 -0.6982  1.1123
 1556SOL     OW16126   0.828   0.367   4.118 -0.1091 -0.1483  0.0543
 1556SOL    HW116127   0.827   0.273   4.134 -1.9436 -0.7810 -3.8453
 1556SOL    HW216128   0.742   0.384   4.080 -0.1624 -1.4858 -0.4154
 1557SOL     OW16129   1.817   1.508   3.654 -0.5102  0.4445 -0.3845
 1557SOL    HW116130   1.867   1.474   3.580 -1.4267 -0.7914 -0.4459
 1557SOL    HW216131   1.775   1.586   3.619  1.6333  1.2404 -1.1350
 1558SOL     OW16132   3.664   0.555  15.952 -0.1581  0.4281 -0.6426
 1558SOL    HW116133   3.644   0.642  15.918  0.8474  1.2956  0.9718
 1558SOL    HW216134   3.583   0.505  15.943 -0.6123  0.9222  0.7131
 1559SOL     OW16135   3.337   1.427   4.522 -0.4091 -0.1558 -0.3196
 1559SOL    HW116136   3.426   1.411   4.492 -0.8374  0.4961 -1.9700
 1559SOL    HW216137   3.307   1.507   4.477  1.8200  1.7364  1.5363
 1560SOL     OW16138   2.549   1.462   7.006  0.0180  0.3761  0.0235
 1560SOL    HW116139   2.635   1.419   7.001  0.8595  1.9084  1.0233
 1560SOL    HW216140   2.559   1.508   7.090  1.0502 -2.3328  1.4159
 1561SOL     OW16141   1.388   0.096   0.737 -0.5366  0.0491 -0.0870
 1561SOL    HW116142   1.305   0.060   0.707 -0.2884 -0.3281 -0.3127
 1561SOL    HW216143   1.399   0.049   0.820 -2.6121  2.4881  1.6022
 1562SOL     OW16144   4.312   3.501  12.928 -0.0190  0.3024  0.4401
 1562SOL    HW116145   4.392   3.449  12.927 -0.6184 -0.6527  1.9195
 1562SOL    HW216146   4.349   3.587  12.950  0.6868  0.0122  0.3590
 1563SOL     OW16147   2.279   0.950   4.319 -0.3614 -0.3887  0.3922
 1563SOL    HW116148   2.273   1.044   4.300 -1.9856 -0.5354  0.1786
 1563SOL    HW216149   2.246   0.918   4.235 -1.6903 -1.2909  1.2440
 1564SOL     OW16150   3.052   1.626   4.012  0.1493  0.1494 -0.1087
 1564SOL    HW116151   2.975   1.616   4.067 -0.0010  2.0207 -0.0015
 1564SOL    HW216152   3.105   1.670   4.078  0.4526 -0.3577 -0.0114
 1565SOL     OW16153   3.335   2.032   1.901 -0.1032 -0.1761  0.0692
 1565SOL    HW116154   3.270   1.988   1.956  0.4063  0.2569  1.0097
 1565SOL    HW216155   3.315   2.118   1.938  1.0511 -0.7378  2.0397
 1566SOL     OW16156   1.165   2.384   4.863 -0.3517  0.4353 -0.0877
 1566SOL    HW116157   1.121   2.306   4.829 -1.2189  1.0144 -0.3144
 1566SOL    HW216158   1.092   2.436   4.897  0.0827  0.7691  0.3293
 1567SOL     OW16159   0.150   4.118  13.436 -0.4667 -0.3201 -0.3347
 1567SOL    HW116160   0.202   4.039  13.450 -0.0349  0.3992  2.0176
 1567SOL    HW216161   0.116   4.156  13.516 -1.6875 -2.1956  0.0318
 1568SOL     OW16162   3.083   4.294   5.601  0.7350 -0.5133  0.2075
 1568SOL    HW116163   3.147   4.260   5.663  0.4232 -1.7520 -0.1504
 1568SOL    HW216164   3.020   4.332   5.663 -0.0314 -0.0957 -0.8290
 1569SOL     OW16165   1.388   2.122   9.096 -0.2275  0.4384 -0.4289
 1569SOL    HW116166   1.424   2.038   9.122  1.4977  1.7070  1.2425
 1569SOL    HW216167   1.307   2.094   9.052 -0.3368  1.0245 -0.6039
 1570SOL     OW16168   3.047   1.233   3.313 -0.3509  0.1397  0.4780
 1570SOL    HW116169   3.065   1.139   3.313 -1.9961 -0.1683 -0.1844
 1570SOL    HW216170   3.087   1.261   3.230 -3.1690  1.4334 -0.4467
 1571SOL     OW16171   3.891   0.543   5.647 -0.8179 -0.0708 -0.7440
 1571SOL    HW116172   3.806   0.511   5.618 -1.5231  1.5979 -0.5356
 1571SOL    HW216173   3.951   0.480   5.606 -1.4696  0.7898 -3.0309
 1572SOL     OW16174   1.693   0.354   8.333 -0.1543 -0.1692 -0.6552
 1572SOL    HW116175   1.726   0.352   8.243  0.3095 -2.2240 -0.4374
 1572SOL    HW216176   1.655   0.442   8.340 -0.3710 -0.2329 -1.0258
 1573SOL     OW16177   1.182   2.402   0.339 -0.3035 -0.8916 -0.0247
 1573SOL    HW116178   1.258   2.398   0.281 -0.3623  1.4620 -0.2688
 1573SOL    HW216179   1.223   2.369   0.419 -1.0139  2.9985  1.9635
 1574SOL     OW16180   0.616   3.827   7.392 -0.2920  0.0609 -0.5469
 1574SOL    HW116181   0.534   3.785   7.418  0.4655 -0.1103  1.5621
 1574SOL    HW216182   0.605   3.912   7.433 -1.2291 -0.0486 -0.5566
 1575SOL     OW16183   1.561   0.785   7.492  0.1339 -0.0302 -0.2196
 1575SOL    HW116184   1.466   0.776   7.481  0.1257  0.0596 -0.2213
 1575SOL    HW216185   1.596   0.777   7.404  0.8884  1.6572 -0.0710
 1576SOL     OW16186   4.141   3.054  10.846  0.1642  0.0615 -0.3317
 1576SOL    HW116187   4.172   2.974  10.803 -1.1768  0.4473 -1.9949
 1576SOL    HW216188   4.135   3.028  10.938  3.3595 -0.3343 -0.2289
 1577SOL     OW16189   2.739   1.852   2.092  0.1886 -0.2599  0.1388
 1577SOL    HW116190   2.797   1.782   2.064 -2.3422 -1.8126 -1.2329
 1577SOL    HW216191   2.775   1.878   2.176 -1.3690  1.7419  0.2045
 1578SOL     OW16192   4.631   0.262  11.079 -0.9553  0.2106 -0.6282
 1578SOL    HW116193   4.570   0.234  11.011 -0.3014 -1.2929 -0.6157
 1578SOL    HW216194   4.709   0.271  11.024  1.2059  2.6421  2.8131
 1579SOL     OW16195   4.382   0.952   2.123  0.8323  0.1504 -0.2889
 1579SOL    HW116196   4.389   1.035   2.076 -0.9604  0.8870  0.7504
 1579SOL    HW216197   4.450   0.897   2.084 -1.0300 -1.4107 -1.3566
 1580SOL     OW16198   3.873   3.966   7.042 -0.8096  0.0468  0.1216
 1580SOL    HW116199   3.898   3.877   7.018 -1.1150 -0.1754  0.6352
 1580SOL    HW216200   3.899   3.966   7.134  2.5791 -0.8425 -0.8398
 1581SOL     OW16201   2.913   0.788   5.252  0.1789 -0.3587  0.4321
 1581SOL    HW116202   2.966   0.759   5.178 -1.9936 -2.0672 -0.4471
 1581SOL    HW216203   2.883   0.875   5.225 -0.8603 -0.1764  2.1698
 1582SOL     OW16204   3.774   3.070   7.564 -0.7567 -0.2275  0.0994
 1582SOL    HW116205   3.807   3.041   7.479 -0.8691  0.5364 -0.2047
 1582SOL    HW216206   3.681   3.049   7.555 -0.1135 -1.7906 -2.7693
 1583SOL     OW16207   4.312   2.833   2.623 -0.0458  0.0931 -0.3282
 1583SOL    HW116208   4.291   2.745   2.594  0.9826 -0.3982  0.4144
 1583SOL    HW216209   4.318   2.808   2.715  0.6378 -0.4278 -0.5166
 1584SOL     OW16210   4.464   0.437   2.808  0.0158 -0.1834  0.2909
 1584SOL    HW116211   4.420   0.452   2.725  0.7823  2.2117  0.3216
 1584SOL    HW216212   4.465   0.342   2.817  0.9681 -0.1998  0.0507
 1585SOL     OW16213   3.905   0.924   1.439  0.0391 -0.0988  0.1974
 1585SOL    HW116214   3.900   0.857   1.507 -3.2709 -0.6130 -0.5932
 1585SOL    HW216215   3.842   0.888   1.377  0.0729  1.1789 -0.5921
 1586SOL     OW16216   4.663   0.482   3.367  0.2331 -0.2099  0.0133
 1586SOL    HW116217   4.629   0.562   3.406  2.4321  1.1691 -0.9521
 1586SOL    HW216218   4.665   0.425   3.444  3.6161  0.6491  0.5257
 1587SOL     OW16219   0.590   1.898   5.848  0.1566 -0.5693  0.0130
 1587SOL    HW116220   0.560   1.848   5.771  0.8739 -0.2880 -0.4470
 1587SOL    HW216221   0.579   1.992   5.831 -1.9912 -0.7681  0.2375
 1588SOL     OW16222   4.127   1.631   7.711  0.0833 -0.0897 -0.5149
 1588SOL    HW116223   4.035   1.654   7.724  0.8532  1.4682  2.2148
 1588SOL    HW216224   4.137   1.563   7.778 -2.1935 -0.2827 -0.3594
 1589SOL     OW16225   2.548   2.916  17.446 -0.0439 -0.5084  0.5361
 1589SOL    HW116226   2.514   2.998  17.482 -0.3098 -0.4485  0.1496
 1589SOL    HW216227   2.534   2.855  17.517 -2.7585 -1.4293 -0.7996
 1590SOL     OW16228   0.979   3.587  17.294 -0.3886 -0.8664  0.0066
 1590SOL    HW116229   0.928   3.631  17.226  0.2592  2.1419  1.4667
 1590SOL    HW216230   1.025   3.659  17.338 -0.6588 -1.8730  1.9527
 1591SOL     OW16231   3.994   4.497   7.036 -0.0595  0.2651  0.3136
 1591SOL    HW116232   4.036   4.504   6.951 -1.6894  0.8866 -0.4255
 1591SOL    HW216233   3.973   4.404   7.040  1.3047 -0.0614 -0.1550
 1592SOL     OW16234   1.895   2.400   3.682  0.4472  0.1926  0.4615
 1592SOL    HW116235   1.983   2.427   3.658  1.1599 -1.8560  0.8214
 1592SOL    HW216236   1.836   2.426   3.612 -0.3725 -0.0355  1.0603
 1593SOL     OW16237   0.873   3.038   1.470 -0.1088  0.5224  0.0820
 1593SOL    HW116238   0.943   3.084   1.516  0.4643 -0.2302 -0.0441
 1593SOL    HW216239   0.892   3.034   1.376  0.7881 -0.2119  0.3062
 1594SOL     OW16240   3.065   3.325   3.047  0.0770  0.6462  0.1936
 1594SOL    HW116241   3.062   3.240   3.004  1.2232 -0.2860  1.9566
 1594SOL    HW216242   3.158   3.334   3.068  0.1270  0.2145  0.1533
 1595SOL     OW16243   2.776   1.971  15.940 -0.2286 -0.0393  0.2447
 1595SOL    HW116244   2.710   2.029  15.977 -1.8442 -0.8511 -1.3886
 1595SOL    HW216245   2.843   1.966  16.008 -1.9712  2.2095  2.1063
 1596SOL     OW16246   2.897   0.842   4.879 -0.2019 -0.2587  0.0710
 1596SOL    HW116247   2.945   0.909   4.831  0.9546 -0.5859  0.7682
 1596SOL    HW216248   2.855   0.890   4.950  1.7599  0.8720  0.4663
 1597SOL     OW16249   3.754   2.428   8.226 -0.1895 -0.2589 -0.3412
 1597SOL    HW116250   3.812   2.394   8.158 -1.1914  3.1557 -2.8631
 1597SOL    HW216251   3.719   2.344   8.255  1.6600 -1.1717 -0.7896
 1598SOL     OW16252   1.068   3.157  17.038  0.4600  0.4746  0.1544
 1598SOL    HW116253   0.991   3.210  17.021 -1.3004 -1.9280  0.7340
 1598SOL    HW216254   1.114   3.161  16.954 -1.2584 -1.4530 -0.8658
 1599SOL     OW16255   1.208   1.719   1.670 -0.3614 -0.0000 -0.2446
 1599SOL    HW116256   1.227   1.770   1.592  0.0751  0.0001 -0.1371
 1599SOL    HW216257   1.224   1.632   1.634  1.0223 -0.2339  0.9613
 1600SOL     OW16258   3.739   3.330   8.820  0.5462 -0.3108  0.2314
 1600SOL    HW116259   3.725   3.235   8.824 -0.0693 -0.1912  1.0815
 1600SOL    HW216260   3.657   3.360   8.781 -0.3197 -4.1318 -0.9628
 1601SOL     OW16261   3.977   1.537   0.364  0.0350  0.2198  0.5525
 1601SOL    HW116262   4.072   1.523   0.360 -0.1234 -0.7598  0.0014
 1601SOL    HW216263   3.974   1.598   0.290  3.4343 -1.1415 -0.7333
 1602SOL     OW16264   2.008   4.210  12.706 -0.4252  0.3123  0.4978
 1602SOL    HW116265   2.027   4.216  12.800  1.6232 -3.8159  0.3676
 1602SOL    HW216266   2.068   4.279  12.678  0.5661 -2.2183 -3.6150
 1603SOL     OW16267   1.213   0.953  12.339  0.0945 -0.1953  0.3264
 1603SOL    HW116268   1.131   1.001  12.335  0.0814 -0.2454  0.0394
 1603SOL    HW216269   1.198   0.905  12.421  1.3118 -0.2905  0.5065
 1604SOL     OW16270   4.024   4.694   4.708 -0.6627  1.2026 -0.2681
 1604SOL    HW116271   3.936   0.008   4.711 -0.5381  1.5259 -0.7782
 1604SOL    HW216272   4.024   4.656   4.796 -0.5970 -0.2827 -0.8999
 1605SOL     OW16273   2.635   4.703   2.406 -0.0118  0.4812 -0.1602
 1605SOL    HW116274   2.592   4.637   2.351  0.6086  0.4355 -0.5883
 1605SOL    HW216275   2.614   0.062   2.363 -2.5093 -0.6131 -1.0502
 1606SOL     OW16276   2.783   4.663   3.320 -0.3165  0.7805  0.1394
 1606SOL    HW116277   2.862   4.669   3.266  0.4842 -0.9945  1.1061
 1606SOL    HW216278   2.705   4.666   3.265 -1.2799  0.9880  1.5265
 1607SOL     OW16279   4.701   2.678   7.132 -0.2930 -0.0732  0.4262
 1607SOL    HW116280   4.661   2.703   7.216  2.5900 -1.3243  2.1692
 1607SOL    HW216281   0.051   2.628   7.166  0.9942  1.1652 -0.5688
 1608SOL     OW16282   1.525   2.489  17.299 -0.2347 -0.3471  0.4579
 1608SOL    HW116283   1.536   2.435  17.377  4.5641  0.4724  0.3465
 1608SOL    HW216284   1.454   2.547  17.325 -0.2402 -0.4545  0.6870
 1609SOL     OW16285   2.486   4.335   8.580 -0.3536  0.4090 -0.2119
 1609SOL    HW116286   2.463   4.348   8.488 -1.5204  1.2128  0.1832
 1609SOL    HW216287   2.582   4.328   8.582 -0.4124 -0.4427 -0.7973
 1610SOL     OW16288   0.034   4.420  13.346 -0.4218  0.2203  0.2187
 1610SOL    HW116289   0.099   4.448  13.410 -1.0717  1.1204  0.4956
 1610SOL    HW216290   0.096   4.370  13.293  1.3277 -0.0780  2.5381
 1611SOL     OW16291   0.222   1.124  13.216 -0.3200 -0.3755 -0.7283
 1611SOL    HW116292   0.295   1.093  13.164  1.1457  1.8788 -0.0344
 1611SOL    HW216293   0.179   1.041  13.236 -1.0024  0.9555  3.3990
 1612SOL     OW16294   1.434   2.755  10.505 -0.1904 -0.2754 -0.4549
 1612SOL    HW116295   1.487   2.685  10.467 -0.7443 -0.4124 -0.9951
 1612SOL    HW216296   1.419   2.806  10.425 -0.6679 -1.8708 -1.4034
 1613SOL     OW16297   0.137   0.634  11.097 -0.4995  0.6954  0.0281
 1613SOL    HW116298   0.083   0.709  11.071 -0.3808  0.2689 -1.4151
 1613SOL    HW216299   0.160   0.668  11.184  0.8893 -2.1188  0.7485
 1614SOL     OW16300   0.019   2.355   9.032  0.7197  0.0703 -0.3995
 1614SOL    HW116301   4.716   2.439   9.068  1.1798 -0.3157  0.8482
 1614SOL    HW216302   0.003   2.368   8.938  0.2119 -1.4263 -0.5205
 1615SOL     OW16303   2.413   1.395   4.044 -0.4367  0.4611  0.0056
 1615SOL    HW116304   2.398   1.358   4.131  2.8742 -1.5240 -0.2654
 1615SOL    HW216305   2.508   1.403   4.036 -0.4257 -0.8814 -1.3397
 1616SOL     OW16306   1.739   4.517  16.172  0.1987  0.5859 -0.1080
 1616SOL    HW116307   1.667   4.555  16.223 -0.1987  0.6316 -0.6974
 1616SOL    HW216308   1.784   4.598  16.149 -3.3621  2.7507  0.5501
 1617SOL     OW16309   3.425   2.489  10.962  0.1332  0.4598 -0.1592
 1617SOL    HW116310   3.503   2.449  10.924  3.4064  4.9391  1.8582
 1617SOL    HW216311   3.457   2.509  11.050 -1.7213 -0.5179  0.7358
 1618SOL     OW16312   4.622   3.813   9.039 -0.1098  0.2646  0.0034
 1618SOL    HW116313   4.658   3.875   9.102 -0.8765 -2.3712  3.0163
 1618SOL    HW216314   4.700   3.770   9.003 -0.3845 -1.1359  1.0783
 1619SOL     OW16315   3.993   2.308   6.416  0.0704  0.2697  0.5039
 1619SOL    HW116316   3.995   2.221   6.458  0.6708 -0.6650 -1.4643
 1619SOL    HW216317   3.943   2.363   6.476 -2.5000  0.4518 -1.8272
 1620SOL     OW16318   1.451   1.108   2.697 -0.3433 -0.0439  0.3707
 1620SOL    HW116319   1.515   1.177   2.677 -2.3811  1.3251 -1.4922
 1620SOL    HW216320   1.398   1.148   2.766 -1.3178  0.7822 -0.8628
 1621SOL     OW16321   4.206   1.847  14.919 -0.2816 -0.1074  0.2484
 1621SOL    HW116322   4.117   1.858  14.887 -0.6095 -2.0712  0.4690
 1621SOL    HW216323   4.242   1.812  14.837 -3.5851  1.0539 -1.6907
 1622SOL     OW16324   1.432   3.882  14.375  0.0799 -0.0723 -0.1750
 1622SOL    HW116325   1.480   3.912  14.298 -0.2237  0.3601 -0.1974
 1622SOL    HW216326   1.493   3.819  14.412  2.1832  1.3930 -1.1721
 1623SOL     OW16327   0.873   3.598   8.396  0.0767 -0.5772  0.4805
 1623SOL    HW116328   0.858   3.582   8.489 -1.7947 -2.1862 -0.0962
 1623SOL    HW216329   0.784   3.606   8.364  0.0216  0.8766  1.0079
 1624SOL     OW16330   3.324   3.671   9.229 -0.1036 -0.5968 -0.0131
 1624SOL    HW116331   3.391   3.728   9.267  0.8722 -2.4195  1.0259
 1624SOL    HW216332   3.244   3.720   9.247 -1.4135 -2.1102 -1.7686
 1625SOL     OW16333   3.461   0.349   2.642 -0.3141 -0.2668 -0.4548
 1625SOL    HW116334   3.524   0.352   2.570  0.8399  0.6264  0.5733
 1625SOL    HW216335   3.404   0.278   2.616  0.5388 -1.1236  0.0038
 1626SOL     OW16336   4.360   3.210  14.531  0.0968 -0.6198 -0.1584
 1626SOL    HW116337   4.434   3.153  14.506 -0.4267 -0.9877 -0.8619
 1626SOL    HW216338   4.340   3.196  14.624  1.8807 -1.9530  0.0268
 1627SOL     OW16339   4.265   0.509   3.899 -0.0638 -0.0842  0.5487
 1627SOL    HW116340   4.211   0.521   3.977 -0.3878  1.1428  0.1273
 1627SOL    HW216341   4.317   0.588   3.916  0.5115  0.2212 -2.7239
 1628SOL     OW16342   0.421   2.810  10.954  0.1955  0.1271 -0.2115
 1628SOL    HW116343   0.429   2.872  11.027 -1.0458  1.7022 -1.4033
 1628SOL    HW216344   0.399   2.882  10.895  2.4756  0.5323 -0.5422
 1629SOL     OW16345   2.657   4.160   6.525  0.0712  0.2650  0.4735
 1629SOL    HW116346   2.644   4.069   6.554  2.0056  0.1604  0.9732
 1629SOL    HW216347   2.683   4.206   6.605 -0.0772 -1.9402  1.8186
 1630SOL     OW16348   4.070   1.484   7.419 -0.3552 -0.1142 -0.1737
 1630SOL    HW116349   4.002   1.488   7.486 -1.5316  2.4171 -1.5386
 1630SOL    HW216350   4.121   1.409   7.451  0.3915  0.5845  0.2736
 1631SOL     OW16351   1.125   2.053   6.530 -0.0573  0.9332 -0.8756
 1631SOL    HW116352   1.052   2.026   6.586  0.6233  2.0809  0.5473
 1631SOL    HW216353   1.186   1.985   6.559 -2.3099 -0.8681 -0.3326
 1632SOL     OW16354   3.878   1.154   0.518 -0.0154  0.1432 -0.2879
 1632SOL    HW116355   3.874   1.184   0.609 -1.8378  0.9690 -0.6511
 1632SOL    HW216356   3.902   1.062   0.528  0.1459  0.2917  0.7486
 1633SOL     OW16357   4.346   0.259   3.899 -0.2422 -0.0128  0.5762
 1633SOL    HW116358   4.435   0.282   3.872 -0.2134 -1.5799 -0.6631
 1633SOL    HW216359   4.306   0.337   3.862 -0.6741 -1.2180 -1.4813
 1634SOL     OW16360   3.380   2.787  14.210 -0.0725  0.2226 -0.5133
 1634SOL    HW116361   3.387   2.694  14.228  2.4639  0.7933  1.5257
 1634SOL    HW216362   3.467   2.812  14.179  1.4491  0.5562  3.9966
 1635SOL     OW16363   2.977   0.585   7.092  0.8897  0.6081  0.3863
 1635SOL    HW116364   3.043   0.653   7.102  1.3573  0.7321 -3.4032
 1635SOL    HW216365   2.997   0.530   7.168  3.3878 -0.7534 -1.2661
 1636SOL     OW16366   1.963   1.400   3.883  0.7276  0.4916  0.1908
 1636SOL    HW116367   1.905   1.413   3.808  1.2593 -1.4600 -0.5486
 1636SOL    HW216368   1.938   1.310   3.902  1.5154  0.3370  0.5015
 1637SOL     OW16369   3.811   2.648   6.204 -0.7361 -0.8578  0.1760
 1637SOL    HW116370   3.745   2.714   6.186  0.3133  0.9870  3.1257
 1637SOL    HW216371   3.881   2.662   6.140 -0.0316  1.1987  1.4256
 1638SOL     OW16372   0.017   1.684  17.195 -0.1755 -0.0760 -0.2593
 1638SOL    HW116373   4.688   1.686  17.275 -0.8268 -1.7011 -0.6708
 1638SOL    HW216374   0.080   1.613  17.207 -0.5443 -0.1946  0.9556
 1639SOL     OW16375   0.238   1.644  14.363 -0.4120 -0.5301  0.3310
 1639SOL    HW116376   0.215   1.568  14.308  0.5226  1.9552 -3.4670
 1639SOL    HW216377   0.289   1.699  14.304  0.4088 -1.5254  0.1057
 1640SOL     OW16378   3.434   3.375  11.749 -0.4287 -0.2408 -0.4632
 1640SOL    HW116379   3.452   3.372  11.655  0.1343 -0.4696 -0.3472
 1640SOL    HW216380   3.473   3.459  11.772 -1.2234 -0.0848  0.3551
 1641SOL     OW16381   3.147   2.461   6.359 -0.2853 -0.0582 -0.7269
 1641SOL    HW116382   3.144   2.438   6.267  1.9778  1.5596 -1.1995
 1641SOL    HW216383   3.056   2.469   6.386 -0.2674 -0.0445 -0.6695
 1642SOL     OW16384   2.659   2.143   5.794  0.0253  0.3566  0.3673
 1642SOL    HW116385   2.571   2.124   5.763  1.1435 -1.2854 -1.7637
 1642SOL    HW216386   2.703   2.156   5.710  2.1852  2.1360  1.7550
 1643SOL     OW16387   1.651   2.047   6.520  0.7424 -0.0920 -0.2716
 1643SOL    HW116388   1.746   2.036   6.529  0.6335 -1.1722 -0.4977
 1643SOL    HW216389   1.620   1.998   6.596 -0.6276 -0.6173 -1.1763
 1644SOL     OW16390   1.987   1.887   7.154 -0.1226 -0.0131 -0.4482
 1644SOL    HW116391   2.068   1.927   7.123  0.3206 -0.3612  0.2867
 1644SOL    HW216392   1.986   1.930   7.239  2.7105  0.6175 -0.7256
 1645SOL     OW16393   4.321   3.050   5.951 -0.2197 -0.2154  0.2575
 1645SOL    HW116394   4.385   3.093   5.894  1.1906 -1.0285  1.2351
 1645SOL    HW216395   4.374   3.011   6.021 -0.0053  1.8804  1.2496
 1646SOL     OW16396   2.380   2.262   4.679  0.0349  0.0595  0.4595
 1646SOL    HW116397   2.372   2.248   4.774 -0.1152 -0.1236  0.4193
 1646SOL    HW216398   2.471   2.242   4.659 -1.0750 -1.9290 -2.6296
 1647SOL     OW16399   2.292   2.935   8.331 -0.3266 -0.0319  0.3313
 1647SOL    HW116400   2.243   2.857   8.304 -1.2555 -0.0066  1.8923
 1647SOL    HW216401   2.373   2.914   8.376 -0.9308 -0.0902  1.3909
 1648SOL     OW16402   1.482   0.353   7.910 -0.0206  0.6430 -0.0328
 1648SOL    HW116403   1.501   0.282   7.971  0.8129  0.5481 -0.4010
 1648SOL    HW216404   1.567   0.396   7.903  1.7266 -2.8108 -0.0400
 1649SOL     OW16405   3.926   2.433   0.881 -0.2201  0.5077 -0.1029
 1649SOL    HW116406   4.021   2.420   0.883 -0.3611 -0.3151  1.5921
 1649SOL    HW216407   3.921   2.524   0.911 -1.3616  0.4984 -0.2489
 1650SOL     OW16408   1.398   0.711   4.904  0.3653 -0.0337 -0.1432
 1650SOL    HW116409   1.347   0.637   4.936  0.2186  0.6839  1.3108
 1650SOL    HW216410   1.485   0.696   4.939  0.1867 -0.8153 -0.0407
 1651SOL     OW16411   2.358   2.468   0.425 -0.2013 -0.1935 -0.5475
 1651SOL    HW116412   2.316   2.506   0.501 -1.1761 -0.3489 -1.0038
 1651SOL    HW216413   2.280   2.452   0.371 -1.8041 -1.1179  2.0591
 1652SOL     OW16414   0.992   4.306   6.671 -0.2201 -0.3561  0.2961
 1652SOL    HW116415   0.966   4.305   6.579  0.3655 -2.0753  0.1398
 1652SOL    HW216416   0.911   4.340   6.709 -1.0054 -2.1911  0.2854
 1653SOL     OW16417   1.121   4.252   6.907  0.2779  0.0741 -0.0754
 1653SOL    HW116418   1.087   4.236   6.819 -1.1655  1.7042  0.1931
 1653SOL    HW216419   1.119   4.348   6.907 -0.2312  0.0510  1.3436
 1654SOL     OW16420   1.709   4.263  13.074  0.0513 -0.2815  0.2351
 1654SOL    HW116421   1.749   4.320  13.008  1.0926  0.0391  1.1510
 1654SOL    HW216422   1.723   4.320  13.150  1.7915 -0.5909  0.1491
 1655SOL     OW16423   1.529   3.231   4.645  0.3944 -0.1551 -0.1147
 1655SOL    HW116424   1.607   3.285   4.634 -0.1354  0.8516  1.1204
 1655SOL    HW216425   1.532   3.195   4.556  0.2469 -0.8054  0.1430
 1656SOL     OW16426   3.218   0.146   7.487  0.1205  0.2267 -0.5543
 1656SOL    HW116427   3.231   0.079   7.420 -0.7739 -0.6646  0.1616
 1656SOL    HW216428   3.265   0.218   7.445  2.7738 -1.2348 -0.0909
 1657SOL     OW16429   1.345   0.119   3.644  0.2469  0.1957  0.3639
 1657SOL    HW116430   1.358   0.046   3.704 -2.7789 -0.8596 -0.2871
 1657SOL    HW216431   1.406   0.092   3.575  0.3921  2.8180 -0.5611
 1658SOL     OW16432   1.904   0.711   7.462 -0.3907 -0.1879 -1.4206
 1658SOL    HW116433   1.816   0.703   7.424 -2.2859  2.6463  2.2696
 1658SOL    HW216434   1.939   0.773   7.398 -1.0097  4.1104  2.3521
 1659SOL     OW16435   4.007   1.343   4.921 -0.2619 -0.3051  0.4130
 1659SOL    HW116436   4.001   1.270   4.858  1.8433  0.1475 -0.2846
 1659SOL    HW216437   3.990   1.413   4.859  1.1868 -1.2324 -1.0508
 1660SOL     OW16438   1.946   4.346  10.260 -0.4488 -0.2359  0.2759
 1660SOL    HW116439   2.011   4.368  10.194  0.2110 -1.4533  0.5317
 1660SOL    HW216440   1.873   4.399  10.229  2.2865  2.5718 -1.3497
 1661SOL     OW16441   1.918   4.693  13.349  0.1370 -0.5911  0.0816
 1661SOL    HW116442   1.992   0.003  13.400 -1.1469  2.9959 -0.4271
 1661SOL    HW216443   1.847   0.029  13.372  1.3907  0.2969  1.6607
 1662SOL     OW16444   0.597   1.929  11.620 -0.4722 -0.2833 -0.3827
 1662SOL    HW116445   0.652   1.955  11.546 -1.2963  1.3883 -0.4159
 1662SOL    HW216446   0.585   2.000  11.682  0.5285 -0.3905 -0.0742
 1663SOL     OW16447   0.490   1.781  16.555  0.0755 -0.1400  0.3343
 1663SOL    HW116448   0.509   1.803  16.464 -0.5695  1.1448  0.5075
 1663SOL    HW216449   0.428   1.708  16.545 -2.9121  2.6535 -1.8772
 1664SOL     OW16450   4.458   1.251   3.683  0.0205  0.2442 -0.8646
 1664SOL    HW116451   4.534   1.260   3.626  0.2484 -0.9117 -0.7413
 1664SOL    HW216452   4.464   1.320   3.748  2.8616  0.7396 -1.6416
 1665SOL     OW16453   3.884   1.837   4.950 -0.0930 -0.4122  0.4263
 1665SOL    HW116454   3.880   1.848   5.045 -2.0848 -1.2255  0.4436
 1665SOL    HW216455   3.874   1.927   4.920 -1.0609 -0.1497  1.5233
 1666SOL     OW16456   0.851   3.680  17.563 -0.2122 -0.1233  0.0664
 1666SOL    HW116457   0.820   3.590  17.554 -3.2699  1.1659 -2.3312
 1666SOL    HW216458   0.781   3.718  17.510 -0.9803 -1.4641  0.1371
 1667SOL     OW16459   2.487   4.276   3.852  0.0786  0.4722 -0.2416
 1667SOL    HW116460   2.474   4.217   3.778 -0.6007  0.2382  0.0659
 1667SOL    HW216461   2.519   4.352   3.804  1.4931 -1.1861 -1.9088
 1668SOL     OW16462   2.799   0.341   0.640 -0.2450  0.3843  0.3654
 1668SOL    HW116463   2.883   0.335   0.596  0.6630  0.8611  2.0249
 1668SOL    HW216464   2.786   0.436   0.645 -0.8155  0.3792 -1.1425
 1669SOL     OW16465   0.400   2.433   2.779 -0.1059 -0.5596  0.3427
 1669SOL    HW116466   0.451   2.434   2.698 -1.8358 -0.2675 -0.7422
 1669SOL    HW216467   0.441   2.355   2.816  0.7957 -0.2768 -0.0594
 1670SOL     OW16468   3.152   4.273   8.108 -0.1959 -0.3281  0.6502
 1670SOL    HW116469   3.106   4.233   8.183 -0.2385  0.5593  1.0954
 1670SOL    HW216470   3.159   4.201   8.045 -0.5373  0.4813 -0.3056
 1671SOL     OW16471   4.001   2.710   4.952 -0.4616 -0.1481 -0.0477
 1671SOL    HW116472   4.046   2.736   5.032  0.4372 -1.3105 -0.1800
 1671SOL    HW216473   3.967   2.623   4.974  0.0078  0.2857  2.3830
 1672SOL     OW16474   0.086   0.696   2.630 -0.3641  0.1545 -0.3164
 1672SOL    HW116475   0.138   0.775   2.644  0.0544 -0.3579  1.0262
 1672SOL    HW216476   0.027   0.724   2.560  1.7622  0.7901 -1.8525
 1673SOL     OW16477   1.456   0.881   1.892 -0.3122  0.0366 -0.0092
 1673SOL    HW116478   1.515   0.946   1.853  2.5044 -2.4386  0.1506
 1673SOL    HW216479   1.471   0.805   1.836  0.3610  0.3283 -0.2307
 1674SOL     OW16480   2.660   1.215   3.745  0.3900 -0.5396  0.7185
 1674SOL    HW116481   2.565   1.218   3.735  0.4656 -0.7545 -0.0168
 1674SOL    HW216482   2.689   1.264   3.668 -0.6821  1.0329  1.3017
 1675SOL     OW16483   0.626   3.492   6.200  0.3936  0.5274 -1.0466
 1675SOL    HW116484   0.699   3.446   6.241 -2.1077 -0.5975  2.1015
 1675SOL    HW216485   0.596   3.423   6.140  0.5688  0.8367 -1.4953
 1676SOL     OW16486   4.285   1.335  11.417 -1.0445 -0.1028  0.8898
 1676SOL    HW116487   4.193   1.361  11.412 -1.1655 -0.7898 -0.5081
 1676SOL    HW216488   4.311   1.397  11.486  1.9280 -2.3706  1.8182
 1677SOL     OW16489   4.118   4.052   8.438  0.2214  0.2234  0.4981
 1677SOL    HW116490   4.041   4.001   8.462 -1.2023  1.8691 -0.6402
 1677SOL    HW216491   4.184   3.982   8.442  0.3449  0.4115  1.7097
 1678SOL     OW16492   2.629   0.915   6.310 -0.0946 -0.2247 -0.0715
 1678SOL    HW116493   2.640   0.976   6.382 -0.3446  0.1897 -0.3805
 1678SOL    HW216494   2.661   0.831   6.343  2.3564 -0.5614 -3.2633
 1679SOL     OW16495   2.738   4.569   2.050  0.0847 -0.0713  0.4771
 1679SOL    HW116496   2.681   4.548   2.124  2.8193 -1.7360  2.1275
 1679SOL    HW216497   2.779   4.486   2.025  0.5256 -0.5882  2.8601
 1680SOL     OW16498   3.139   2.793   9.676  0.4044 -0.0555  0.6586
 1680SOL    HW116499   3.128   2.853   9.750  0.5936  1.0101 -0.1714
 1680SOL    HW216500   3.065   2.816   9.620  1.5270  0.6766 -0.5247
 1681SOL     OW16501   4.449   4.265   8.753 -0.4386 -0.2546  0.0714
 1681SOL    HW116502   4.479   4.211   8.680  0.8164 -1.3900  1.4132
 1681SOL    HW216503   4.452   4.203   8.826  0.0526 -3.2209 -2.4730
 1682SOL     OW16504   1.859   2.351  17.319 -0.5461 -0.0491  0.6321
 1682SOL    HW116505   1.804   2.406  17.262  0.9816  0.4345 -0.3665
 1682SOL    HW216506   1.835   2.402  17.396 -1.8512  0.9672 -0.4382
 1683SOL     OW16507   4.103   1.819  16.906 -0.1803  0.0644 -0.3631
 1683SOL    HW116508   4.053   1.803  16.827 -0.1966  0.3523 -0.4106
 1683SOL    HW216509   4.105   1.729  16.940  1.0502  0.6102  1.0156
 1684SOL     OW16510   0.838   4.353  16.118 -0.2570 -0.3431 -0.4221
 1684SOL    HW116511   0.924   4.395  16.124 -0.4675 -0.2088  1.8833
 1684SOL    HW216512   0.791   4.403  16.185 -4.9579 -2.7797 -1.9313
 1685SOL     OW16513   1.553   3.838   4.256  0.3691  0.1244 -0.2404
 1685SOL    HW116514   1.498   3.842   4.334  0.8553 -1.1243  0.1676
 1685SOL    HW216515   1.634   3.842   4.308 -0.9508 -1.5517  1.9342
 1686SOL     OW16516   4.319   3.941   7.164 -0.2927  1.2588 -0.9679
 1686SOL    HW116517   4.363   4.000   7.224 -0.4446 -0.2806  0.6641
 1686SOL    HW216518   4.302   3.873   7.229  1.2883  0.2382 -1.5959
 1687SOL     OW16519   1.191   0.265  15.376 -0.0623 -0.5469 -0.1027
 1687SOL    HW116520   1.149   0.343  15.339  0.6319  0.7156  1.7749
 1687SOL    HW216521   1.121   0.218  15.421  0.0436  0.3363  0.9988
 1688SOL     OW16522   4.035   3.246  14.766  0.2878 -0.3729  0.5129
 1688SOL    HW116523   4.127   3.259  14.791  0.5820  0.2579 -0.9241
 1688SOL    HW216524   4.046   3.192  14.688  0.4919 -0.3995  0.5593
 1689SOL     OW16525   0.498   4.018   8.413  0.0091  0.0731 -0.2501
 1689SOL    HW116526   0.406   3.993   8.413  0.7073 -2.5150 -1.2414
 1689SOL    HW216527   0.544   3.967   8.480  0.8555 -1.3545 -1.9069
 1690SOL     OW16528   1.786   2.475   8.813 -0.6314  0.0116 -0.0528
 1690SOL    HW116529   1.841   2.451   8.888  0.2259 -1.5636 -1.2012
 1690SOL    HW216530   1.702   2.440   8.842 -0.8536  1.3455  0.9458
 1691SOL     OW16531   3.304   2.002   4.534  0.4091  0.1792  0.0740
 1691SOL    HW116532   3.377   2.062   4.544 -1.8609  3.1276 -0.9017
 1691SOL    HW216533   3.290   1.994   4.439 -0.7457  2.0955  0.0750
 1692SOL     OW16534   1.266   1.548   8.169 -0.1563 -0.3449 -0.4228
 1692SOL    HW116535   1.184   1.516   8.207  0.3523 -0.8024  0.3118
 1692SOL    HW216536   1.242   1.624   8.116 -1.3480 -2.0804 -2.3598
 1693SOL     OW16537   1.728   1.218   9.571  0.1146  0.2588 -0.2299
 1693SOL    HW116538   1.812   1.261   9.551  0.7159 -0.2831  1.1777
 1693SOL    HW216539   1.671   1.290   9.544  0.9483  0.3405 -1.7564
 1694SOL     OW16540   0.337   2.398   6.654 -0.2806  0.7576 -0.1529
 1694SOL    HW116541   0.393   2.339   6.603 -0.8154  1.5267 -1.6583
 1694SOL    HW216542   0.267   2.406   6.589  0.4483  2.9239 -0.6818
 1695SOL     OW16543   4.123   4.603   7.249 -0.4706 -0.0870  0.1351
 1695SOL    HW116544   4.211   4.590   7.215 -0.6368  1.2568 -0.8132
 1695SOL    HW216545   4.068   4.555   7.187 -0.5738 -0.8654  0.8316
 1696SOL     OW16546   2.545   1.688   1.766  0.0103  0.6904  0.1334
 1696SOL    HW116547   2.487   1.724   1.833  1.0448  2.4953  0.0616
 1696SOL    HW216548   2.513   1.707   1.678  0.4536  0.6212 -0.0427
 1697SOL     OW16549   1.487   0.715   2.102  0.3036 -0.3660  0.0007
 1697SOL    HW116550   1.450   0.770   2.032  0.0891  0.3126  0.6475
 1697SOL    HW216551   1.425   0.644   2.120  2.8188 -2.7688 -0.8712
 1698SOL     OW16552   2.002   1.363   8.887  0.3269  0.7235 -0.0566
 1698SOL    HW116553   2.095   1.386   8.891  0.3766  0.3651  0.9131
 1698SOL    HW216554   1.962   1.450   8.899  0.1146  0.9102 -2.2192
 1699SOL     OW16555   0.113   4.149   9.040  0.1847  1.1133  0.6996
 1699SOL    HW116556   0.177   4.117   9.104 -0.2492 -0.2572  0.4379
 1699SOL    HW216557   0.154   4.231   9.014  3.2693 -0.5043  0.5227
 1700SOL     OW16558   1.079   3.323   1.474 -0.2288 -0.4585 -0.0757
 1700SOL    HW116559   1.019   3.339   1.401  1.7782 -0.3249 -1.6944
 1700SOL    HW216560   1.118   3.409   1.492 -0.5853 -0.1245 -0.8783
 1701SOL     OW16561   3.789   3.119   6.591 -0.3678 -0.2712 -0.9388
 1701SOL    HW116562   3.825   3.032   6.612 -2.7214 -0.9103  0.5495
 1701SOL    HW216563   3.859   3.173   6.628  0.9328 -0.5701 -2.9844
 1702SOL     OW16564   3.786   1.059  14.867 -0.5083 -0.4515 -0.5878
 1702SOL    HW116565   3.694   1.057  14.892 -0.3708  1.1324  0.0478
 1702SOL    HW216566   3.817   0.969  14.876  1.5349  0.4097  1.1022
 1703SOL     OW16567   2.945   4.233   4.027  0.2696  0.5986  0.1191
 1703SOL    HW116568   2.919   4.141   4.028 -1.0335  0.9625 -0.1461
 1703SOL    HW216569   2.908   4.259   3.943 -1.2122  1.4001  1.0315
 1704SOL     OW16570   2.281   2.080   5.169 -0.0273 -0.3344 -0.3151
 1704SOL    HW116571   2.191   2.095   5.198 -0.1729 -1.6677 -0.0856
 1704SOL    HW216572   2.333   2.123   5.237 -2.3717  1.0695  0.6218
 1705SOL     OW16573   2.614   2.596   7.513  0.2914 -0.5624 -0.0143
 1705SOL    HW116574   2.642   2.653   7.585  0.5733  0.2882 -0.8005
 1705SOL    HW216575   2.700   2.555   7.510  0.0539 -0.9010 -2.2827
 1706SOL     OW16576   2.418   1.278   3.548 -0.0443  0.7596  0.4806
 1706SOL    HW116577   2.480   1.305   3.481 -0.8277 -0.6467 -0.8200
 1706SOL    HW216578   2.373   1.356   3.580  0.7389  0.7300  1.6473
 1707SOL     OW16579   0.289   1.747   8.547  0.0780 -0.0400  0.6133
 1707SOL    HW116580   0.207   1.757   8.499  0.3479  2.8716  0.7043
 1707SOL    HW216581   0.257   1.687   8.614 -2.6317  1.0290  0.2769
 1708SOL     OW16582   4.214   3.903  17.004 -0.1254 -0.2587  0.2921
 1708SOL    HW116583   4.188   3.912  17.095 -2.3969  2.2819 -0.6220
 1708SOL    HW216584   4.156   3.966  16.961  1.4826  1.0921  0.0797
 1709SOL     OW16585   0.083   2.122   3.024  0.1764 -0.0918 -0.1273
 1709SOL    HW116586   0.098   2.101   3.115 -1.3411  0.4332  0.2497
 1709SOL    HW216587   0.146   2.063   2.984 -0.1217 -0.7783  0.4172
 1710SOL     OW16588   0.597   3.026   3.014 -0.0654  0.2415  0.3489
 1710SOL    HW116589   0.660   3.032   3.086  2.1658 -1.0213 -1.5074
 1710SOL    HW216590   0.511   3.029   3.055  0.8617  2.0884  2.1590
 1711SOL     OW16591   3.650   0.989  12.508  0.1207 -1.3022  0.0826
 1711SOL    HW116592   3.584   0.943  12.560  0.3891 -1.2554  0.4676
 1711SOL    HW216593   3.679   1.054  12.572  1.1178 -1.3866 -0.2793
 1712SOL     OW16594   4.003   1.196   8.199  0.8235  0.3764  0.2621
 1712SOL    HW116595   3.980   1.120   8.145  0.4532  0.2083  0.6548
 1712SOL    HW216596   3.943   1.260   8.161 -0.6857 -0.3891  1.3735
 1713SOL     OW16597   0.287   2.070   8.731  0.0588  0.1135 -0.6540
 1713SOL    HW116598   0.369   2.022   8.733 -1.3379 -2.1590  1.5014
 1713SOL    HW216599   0.238   2.038   8.807 -0.8291  1.0118 -0.8426
 1714SOL     OW16600   4.309   3.828   0.023 -0.1846  0.7254  0.3659
 1714SOL    HW116601   4.388   3.863   0.064  0.3021  0.5148 -0.4026
 1714SOL    HW216602   4.275   3.772   0.093 -1.0171  1.1676  0.3203
 1715SOL     OW16603   4.619   0.520   8.689 -0.0123 -0.1702 -0.4261
 1715SOL    HW116604   4.574   0.442   8.655  2.8029 -1.9051 -0.1565
 1715SOL    HW216605   4.626   0.572   8.609  2.9606 -0.0898 -0.1050
 1716SOL     OW16606   1.416   2.473  17.608  0.3453  0.2052  0.9538
 1716SOL    HW116607   1.412   2.419  17.687 -0.1085 -2.4928 -0.9332
 1716SOL    HW216608   1.329   2.513  17.604  0.1179 -0.4634 -0.7049
 1717SOL     OW16609   2.343   0.184  14.360 -0.5630  0.1027  0.1777
 1717SOL    HW116610   2.347   0.168  14.454  2.3146  2.0103  0.3726
 1717SOL    HW216611   2.328   0.094  14.331  0.0818 -0.2393  0.9150
 1718SOL     OW16612   0.483   1.385  10.353  0.1057  0.4962  0.0733
 1718SOL    HW116613   0.514   1.422  10.436 -2.2759 -0.0578  1.2065
 1718SOL    HW216614   0.413   1.443  10.323  3.0006  1.5256 -4.6344
 1719SOL     OW16615   2.097   0.508   5.832 -0.1896 -0.2777 -0.1803
 1719SOL    HW116616   2.023   0.550   5.789  0.5969  1.1660 -0.1202
 1719SOL    HW216617   2.144   0.477   5.755  0.2545 -1.7669  0.6854
 1720SOL     OW16618   0.594   3.363   4.681 -0.3737 -0.0609  0.1057
 1720SOL    HW116619   0.657   3.305   4.726  0.4524  1.2508  0.6316
 1720SOL    HW216620   0.634   3.369   4.594 -0.2520 -1.7878  0.0406
 1721SOL     OW16621   1.688   3.776   3.622  0.3063 -0.3661  0.4366
 1721SOL    HW116622   1.767   3.803   3.574 -1.8127 -1.2516 -3.5417
 1721SOL    HW216623   1.694   3.830   3.700 -0.2826  4.2720 -2.7593
 1722SOL     OW16624   0.053   2.758   6.282  0.6461 -0.2264  0.3832
 1722SOL    HW116625   0.095   2.757   6.368  2.6166  0.0652 -0.5739
 1722SOL    HW216626   0.133   2.737   6.234  0.0310 -1.3181 -0.1639
 1723SOL     OW16627   0.949   1.587  11.334  0.1863 -0.0033 -0.3599
 1723SOL    HW116628   1.030   1.560  11.291  0.4538  1.6932 -0.9287
 1723SOL    HW216629   0.964   1.536  11.414 -2.1394  2.1088  1.4669
 1724SOL     OW16630   4.277   1.842   9.313  0.2075 -0.2606  0.5734
 1724SOL    HW116631   4.363   1.804   9.296 -0.4375 -1.6880  0.5370
 1724SOL    HW216632   4.232   1.812   9.234  0.7600  2.6845 -0.8701
 1725SOL     OW16633   2.404   4.378   1.897 -0.2201 -0.2160 -0.2037
 1725SOL    HW116634   2.479   4.339   1.941  0.4221  3.7152  2.1000
 1725SOL    HW216635   2.341   4.314   1.931 -2.9175  2.0802 -0.7986
 1726SOL     OW16636   2.980   1.982   4.126 -0.1901 -0.2171  0.0047
 1726SOL    HW116637   2.985   2.069   4.086  1.5500  0.3999  1.5916
 1726SOL    HW216638   2.933   1.933   4.058  1.6316 -1.2340 -0.5213
 1727SOL     OW16639   4.351   4.409   5.103  0.2194 -0.1865 -0.0181
 1727SOL    HW116640   4.313   4.437   5.186 -0.5362  0.4666 -0.5918
 1727SOL    HW216641   4.366   4.316   5.124  0.5347  0.0573  0.8483
 1728SOL     OW16642   0.660   0.463   8.902 -0.3157 -0.0531  0.1252
 1728SOL    HW116643   0.573   0.438   8.931 -0.5459 -0.1599 -0.6605
 1728SOL    HW216644   0.655   0.559   8.899 -0.1395  0.0146  2.3622
 1729SOL     OW16645   1.699   0.779   7.260 -0.1801  0.5526  0.5290
 1729SOL    HW116646   1.696   0.874   7.273 -0.5409  0.2313  2.8765
 1729SOL    HW216647   1.750   0.769   7.180 -2.6545 -2.7920 -0.6214
 1730SOL     OW16648   4.461   1.564   6.343 -0.5429 -0.4767  0.7609
 1730SOL    HW116649   4.405   1.602   6.275  0.7736 -0.0908 -0.1134
 1730SOL    HW216650   4.515   1.631   6.386 -0.7544 -1.0137  1.8632
 1731SOL     OW16651   3.086   1.327  13.299 -0.4490  0.1527 -0.0370
 1731SOL    HW116652   3.182   1.336  13.302 -0.2681 -1.8298 -0.3432
 1731SOL    HW216653   3.049   1.336  13.387 -0.2619 -0.3077  0.0858
 1732SOL     OW16654   2.600   2.911   8.654  0.5153  0.7593  0.4757
 1732SOL    HW116655   2.528   2.962   8.692 -1.5899 -1.6806 -0.2350
 1732SOL    HW216656   2.633   2.871   8.734  0.7264 -2.2594 -1.1525
 1733SOL     OW16657   4.303   2.887  10.659 -0.5234  0.1630  0.2243
 1733SOL    HW116658   4.292   2.807  10.710  1.4082 -2.0224 -2.8162
 1733SOL    HW216659   4.335   2.858  10.574  0.6155  2.2112 -0.0414
 1734SOL     OW16660   1.452   3.255   8.406 -0.3312  0.3062 -0.1605
 1734SOL    HW116661   1.356   3.252   8.410 -0.2404 -1.1209  0.9209
 1734SOL    HW216662   1.472   3.177   8.356  0.4912 -1.9114  3.6209
 1735SOL     OW16663   0.101   4.410   6.201  0.2023 -0.2443  0.1516
 1735SOL    HW116664   0.129   4.324   6.169  1.4634  1.4190 -3.1654
 1735SOL    HW216665   0.127   4.470   6.131  0.7513 -0.1561  0.4360
 1736SOL     OW16666   2.493   4.111   5.571  0.6783 -0.4193 -0.0546
 1736SOL    HW116667   2.578   4.112   5.614 -0.1276  2.8213  1.5001
 1736SOL    HW216668   2.475   4.205   5.561  0.8075 -0.5278 -1.2691
 1737SOL     OW16669   2.692   3.903   7.762  0.1946 -0.0724 -0.2984
 1737SOL    HW116670   2.645   3.870   7.838 -2.9869 -1.4846 -2.8692
 1737SOL    HW216671   2.745   3.826   7.743 -1.3483 -1.5104  1.2702
 1738SOL     OW16672   2.441   2.844   0.641  0.0598 -0.3421 -0.2606
 1738SOL    HW116673   2.386   2.783   0.692  0.2825 -0.4790 -0.1859
 1738SOL    HW216674   2.433   2.923   0.695 -0.5940  1.0955 -2.4961
 1739SOL     OW16675   3.615   0.063   2.530 -0.5315  1.3441  0.1152
 1739SOL    HW116676   3.530   0.101   2.510 -1.6795 -0.4429  1.6238
 1739SOL    HW216677   3.616   0.078   2.625  0.3085  1.1566  0.1402
 1740SOL     OW16678   4.330   4.012   8.231 -0.1610  0.0079  0.3002
 1740SOL    HW116679   4.259   3.959   8.195 -0.1723  0.6618 -0.6683
 1740SOL    HW216680   4.286   4.097   8.241  0.3600  0.3800 -0.5484
 1741SOL     OW16681   1.153   2.896   1.641  0.3397  0.6453 -0.1970
 1741SOL    HW116682   1.217   2.827   1.664 -0.3963  0.3723  1.0194
 1741SOL    HW216683   1.076   2.844   1.620  0.3232  0.3555  0.6045
 1742SOL     OW16684   4.607   0.143   6.263 -0.2059 -0.0536  0.2500
 1742SOL    HW116685   4.564   0.058   6.265  1.6874 -0.9931  2.0567
 1742SOL    HW216686   4.647   0.145   6.350  0.0586 -1.0625  0.1577
 1743SOL     OW16687   4.583   1.786   1.401 -0.0372 -0.0380 -0.1285
 1743SOL    HW116688   4.658   1.825   1.355  0.7923 -0.2496  1.0530
 1743SOL    HW216689   4.508   1.799   1.343  1.2769  2.0140 -1.3561
 1744SOL     OW16690   2.837   3.115  16.466  0.5767  0.0748  0.1686
 1744SOL    HW116691   2.848   3.153  16.554 -0.0558  0.7744 -0.0578
 1744SOL    HW216692   2.755   3.153  16.435  1.2641  1.4952  0.0621
 1745SOL     OW16693   0.870   2.704   3.412  0.4008 -0.5607 -0.2812
 1745SOL    HW116694   0.855   2.627   3.358 -1.7443 -1.6042  1.8154
 1745SOL    HW216695   0.921   2.756   3.351 -0.3394 -1.1381 -1.3793
 1746SOL     OW16696   2.177   1.181  16.317  0.0097 -0.0172  0.0584
 1746SOL    HW116697   2.182   1.269  16.354  0.9137 -0.1475  0.2510
 1746SOL    HW216698   2.091   1.178  16.275  0.0886  1.3217 -0.1908
 1747SOL     OW16699   2.252   1.072   8.864  0.1360 -0.3383  0.2185
 1747SOL    HW116700   2.315   1.076   8.936  1.4304 -2.6524 -0.7864
 1747SOL    HW216701   2.243   0.977   8.853  0.8010 -0.1911 -1.6261
 1748SOL     OW16702   1.922   3.192   5.152  0.2573  0.3804 -0.1855
 1748SOL    HW116703   1.864   3.254   5.107  0.0263 -0.8411 -1.6011
 1748SOL    HW216704   1.865   3.117   5.171 -1.1976  2.0281  1.8882
 1749SOL     OW16705   1.151   3.461   4.131 -0.3309  0.0837 -0.0088
 1749SOL    HW116706   1.099   3.505   4.198  2.5120  2.8187  0.4104
 1749SOL    HW216707   1.236   3.504   4.134  0.0810 -0.6785 -0.5657
 1750SOL     OW16708   1.671   4.543   6.938 -0.5807  0.1320 -0.2330
 1750SOL    HW116709   1.633   4.458   6.958  1.1046 -0.9151 -1.4641
 1750SOL    HW216710   1.644   4.555   6.847 -1.3683 -0.1053 -0.0319
 1751SOL     OW16711   1.080   0.064   2.188  0.2741 -0.2532  0.3584
 1751SOL    HW116712   0.987   0.062   2.168  0.7955 -1.3519 -1.9754
 1751SOL    HW216713   1.095   0.158   2.201 -0.7989 -0.0141 -0.1786
 1752SOL     OW16714   0.790   2.209   7.437  0.4019  0.0969  0.0547
 1752SOL    HW116715   0.848   2.195   7.363 -1.4772  2.1533 -1.8147
 1752SOL    HW216716   0.834   2.275   7.491 -0.9095  0.4092  0.7646
 1753SOL     OW16717   1.139   2.278   2.696  0.6098 -0.1012 -0.6338
 1753SOL    HW116718   1.051   2.289   2.733  0.9749 -1.4524  0.6253
 1753SOL    HW216719   1.121   2.335   2.621  1.1445 -0.6057 -1.1418
 1754SOL     OW16720   3.494   1.967   6.831  0.6403 -0.4375  0.3636
 1754SOL    HW116721   3.447   1.976   6.748 -0.6454 -1.5116  0.9865
 1754SOL    HW216722   3.533   1.881   6.843 -1.2585 -1.1592  1.3014
 1755SOL     OW16723   2.733   4.339   3.509  0.0440 -0.6692  0.1777
 1755SOL    HW116724   2.685   4.371   3.433 -0.0599  1.6836  1.2492
 1755SOL    HW216725   2.691   4.256   3.532 -1.8265  0.3500  0.3910
 1756SOL     OW16726   3.142   1.370   9.998 -0.1829 -0.3020 -0.2845
 1756SOL    HW116727   3.226   1.385  10.041 -1.0718 -1.1433  1.7266
 1756SOL    HW216728   3.179   1.356   9.911 -0.2105  0.3091 -0.3921
 1757SOL     OW16729   2.405   0.374   7.641 -0.0052  0.0348  0.1811
 1757SOL    HW116730   2.466   0.363   7.568  0.1238  1.1638  0.1262
 1757SOL    HW216731   2.325   0.373   7.588  0.2268 -2.4946 -0.1387
 1758SOL     OW16732   1.282   2.948   0.638  0.4143 -0.6050  0.9473
 1758SOL    HW116733   1.260   3.041   0.632 -2.4474 -1.6500 -4.2268
 1758SOL    HW216734   1.280   2.946   0.734  0.9346  1.4724  0.9961
 1759SOL     OW16735   0.397   3.693   7.046  0.2046  0.3632  0.4294
 1759SOL    HW116736   0.436   3.607   7.033  0.1068  0.3633  0.1556
 1759SOL    HW216737   0.471   3.748   7.073 -1.0539  2.5394 -0.5616
 1760SOL     OW16738   0.437   1.414   3.945  0.1317 -0.4069 -0.8546
 1760SOL    HW116739   0.430   1.350   4.016  3.6610  1.5986  1.2998
 1760SOL    HW216740   0.425   1.353   3.872  3.8846 -1.3096 -0.7353
 1761SOL     OW16741   1.514   3.097   1.408  0.4341 -0.2779  0.9795
 1761SOL    HW116742   1.442   3.036   1.395 -0.1705  0.6833 -0.2380
 1761SOL    HW216743   1.471   3.171   1.451  0.3947 -0.1531  0.7267
 1762SOL     OW16744   3.385   4.212   4.394 -0.0693 -0.2142 -0.0194
 1762SOL    HW116745   3.427   4.131   4.366  0.9064  0.5420 -0.7660
 1762SOL    HW216746   3.325   4.227   4.322 -0.2000 -0.1510  0.1033
 1763SOL     OW16747   0.955   4.149  13.848  0.6666 -0.4754  0.0273
 1763SOL    HW116748   1.008   4.082  13.806  0.0651  0.2731 -1.8957
 1763SOL    HW216749   1.018   4.203  13.895 -0.0062  0.2313  0.1144
 1764SOL     OW16750   1.668   3.219   9.141 -0.3028  0.2090 -0.2348
 1764SOL    HW116751   1.583   3.179   9.123  0.4330 -2.2596  1.6554
 1764SOL    HW216752   1.684   3.256   9.055 -1.1480 -1.7441 -1.2480
 1765SOL     OW16753   1.830   3.879  10.358  0.1161 -0.0991 -0.6191
 1765SOL    HW116754   1.810   3.952  10.300  1.5041 -0.4064 -1.4901
 1765SOL    HW216755   1.888   3.828  10.301  0.0667 -0.1252 -0.6454
 1766SOL     OW16756   3.880   2.315   7.793 -0.0582  0.3386 -0.0098
 1766SOL    HW116757   3.930   2.353   7.721 -0.0433 -0.8871 -0.6407
 1766SOL    HW216758   3.827   2.389   7.824  1.3361  1.7148 -0.9267
 1767SOL     OW16759   2.751   4.440   8.235  0.0471 -0.2491 -0.1479
 1767SOL    HW116760   2.787   4.484   8.158  2.4594  0.0173  1.1439
 1767SOL    HW216761   2.833   4.403   8.267  0.3628 -0.2273 -0.9421
 1768SOL     OW16762   4.211   0.498   6.432 -0.3812  0.7501 -0.3411
 1768SOL    HW116763   4.304   0.517   6.447  0.4763 -2.4518 -1.5339
 1768SOL    HW216764   4.197   0.418   6.482  2.9606 -0.1128 -0.7811
 1769SOL     OW16765   3.802   2.786   4.202 -0.0837  0.3033 -0.1339
 1769SOL    HW116766   3.821   2.733   4.280 -1.4111  1.4348  0.9432
 1769SOL    HW216767   3.879   2.842   4.202  0.6823 -0.7630 -1.9709
 1770SOL     OW16768   2.590   0.248   6.579 -0.0547  0.1478  0.4504
 1770SOL    HW116769   2.562   0.256   6.487  2.1854 -0.0837 -0.2595
 1770SOL    HW216770   2.672   0.201   6.561 -1.1039 -1.1434 -0.9646
 1771SOL     OW16771   3.422   1.164   0.862 -0.3229 -0.3708  0.1162
 1771SOL    HW116772   3.428   1.230   0.793  5.2128  0.4720  1.4121
 1771SOL    HW216773   3.476   1.096   0.822 -0.6703 -0.2386 -0.5717
 1772SOL     OW16774   0.075   0.645   4.384 -0.0169  0.4220 -0.1428
 1772SOL    HW116775   0.123   0.677   4.460  0.1515  1.1735 -0.5658
 1772SOL    HW216776   0.076   0.551   4.405  0.9519  0.2888 -0.7376
 1773SOL     OW16777   1.241   4.023   4.786  0.5246  0.0842 -0.6921
 1773SOL    HW116778   1.303   4.070   4.843  1.5302 -1.4630 -0.5147
 1773SOL    HW216779   1.160   4.036   4.836  0.6626  2.0036 -0.9647
 1774SOL     OW16780   4.226   3.208   7.440 -0.5756 -0.2734 -0.0967
 1774SOL    HW116781   4.236   3.268   7.515  0.0788 -1.7127  0.9686
 1774SOL    HW216782   4.207   3.279   7.378 -1.4154 -0.7919 -0.4301
 1775SOL     OW16783   2.437   1.411   9.113  0.4855  0.4743  0.1234
 1775SOL    HW116784   2.462   1.442   9.026  1.1555  1.6621  0.7459
 1775SOL    HW216785   2.519   1.373   9.145  0.8767  1.8348  0.7261
 1776SOL     OW16786   3.522   0.543   4.310 -0.5423 -0.5322 -0.3667
 1776SOL    HW116787   3.585   0.578   4.246 -2.6802  0.0027 -2.1837
 1776SOL    HW216788   3.547   0.450   4.308  0.7427 -0.2058  1.0008
 1777SOL     OW16789   0.338   0.532  11.625 -0.0086  0.1339  0.8756
 1777SOL    HW116790   0.284   0.461  11.592 -3.4000  1.8028  2.7833
 1777SOL    HW216791   0.269   0.575  11.676  0.2596 -0.2512  1.5559
 1778SOL     OW16792   4.171   0.044   2.206  0.1631  0.1459 -0.4023
 1778SOL    HW116793   4.194   0.123   2.157 -0.6925  0.2977 -0.5497
 1778SOL    HW216794   4.077   0.038   2.189  0.4796  1.1479 -2.5038
 1779SOL     OW16795   2.193   1.539   6.126 -0.3442 -0.4782  0.0379
 1779SOL    HW116796   2.233   1.455   6.103 -0.3950 -0.5140  0.0818
 1779SOL    HW216797   2.179   1.538   6.220  0.2023 -0.0252  0.1221
 1780SOL     OW16798   2.022   3.379  16.036 -0.3828 -0.4461  0.5373
 1780SOL    HW116799   2.009   3.430  15.956 -0.1286 -1.2724 -0.0215
 1780SOL    HW216800   1.936   3.337  16.039 -0.3412 -0.4876  1.1711
 1781SOL     OW16801   2.940   3.575   3.737 -0.5736  0.0987 -0.0283
 1781SOL    HW116802   2.970   3.662   3.710 -0.5378  0.2886  0.6208
 1781SOL    HW216803   2.973   3.516   3.670 -0.4322 -1.8915  1.8104
 1782SOL     OW16804   0.019   0.590   9.579 -0.4761  0.1137 -0.0696
 1782SOL    HW116805   4.693   0.570   9.658 -1.2537  0.3003 -0.5157
 1782SOL    HW216806   4.675   0.571   9.514  0.4706 -1.2240 -0.6863
 1783SOL     OW16807   3.522   2.126   3.804  0.3267  0.1530  0.2115
 1783SOL    HW116808   3.499   2.218   3.794 -0.7103 -0.1344 -0.0387
 1783SOL    HW216809   3.482   2.100   3.721  0.5454  0.9492 -0.1449
 1784SOL     OW16810   4.616   1.390   0.435  0.8123 -0.4714 -0.2087
 1784SOL    HW116811   4.631   1.423   0.346 -1.9488 -0.7313 -0.7753
 1784SOL    HW216812   4.704   1.364   0.462  1.1668 -1.0781 -1.8897
 1785SOL     OW16813   2.260   2.299   2.814  0.1015  0.1389  0.0517
 1785SOL    HW116814   2.215   2.321   2.732 -2.6922  0.9884  1.8188
 1785SOL    HW216815   2.329   2.239   2.786  2.3404  1.1868  3.3918
 1786SOL     OW16816   4.508   0.474   6.484 -0.0253 -0.5461 -0.3255
 1786SOL    HW116817   4.598   0.495   6.507 -0.5901  1.3686  0.1494
 1786SOL    HW216818   4.464   0.486   6.569  0.7091 -0.4160  0.0317
 1787SOL     OW16819   4.664   2.550   2.458 -0.3166  0.3163  0.0023
 1787SOL    HW116820   4.638   2.641   2.471 -0.4854 -0.0589  2.2392
 1787SOL    HW216821   0.007   2.556   2.527 -1.4058  1.0643  1.0009
 1788SOL     OW16822   2.417   2.085  14.657 -0.3330 -0.6086  0.4007
 1788SOL    HW116823   2.380   2.015  14.711 -1.9781 -1.0879 -1.3377
 1788SOL    HW216824   2.411   2.044  14.570 -0.4201  0.4783 -0.1104
 1789SOL     OW16825   3.652   1.149  17.665 -0.0131 -0.9529  0.1718
 1789SOL    HW116826   3.711   1.154   0.044  1.4875  1.2090 -1.1362
 1789SOL    HW216827   3.661   1.060  17.633 -2.3763 -0.6678 -1.3108
 1790SOL     OW16828   4.505   2.650   6.226 -0.0414 -0.2771  0.6059
 1790SOL    HW116829   4.473   2.574   6.275 -0.5494 -1.6871 -1.8478
 1790SOL    HW216830   4.584   2.680   6.271  0.1551 -0.6772  0.5363
 1791SOL     OW16831   0.979   2.020   4.374 -0.1183 -0.0835 -0.2927
 1791SOL    HW116832   1.054   1.965   4.356 -0.3611 -0.3354 -0.5322
 1791SOL    HW216833   0.918   1.948   4.389 -0.6817  0.4132 -0.1722
 1792SOL     OW16834   0.881   0.789   6.870  0.1564  0.5828  0.1585
 1792SOL    HW116835   0.814   0.720   6.865 -0.0838  0.6871  1.8598
 1792SOL    HW216836   0.843   0.874   6.850  0.3814  1.0608  1.7493
 1793SOL     OW16837   3.853   3.544  11.941  0.0921 -0.1824 -0.2454
 1793SOL    HW116838   3.831   3.542  11.848  2.0771 -0.7498 -0.7189
 1793SOL    HW216839   3.903   3.625  11.929 -0.5818  0.4596  1.3829
 1794SOL     OW16840   0.768   1.330   5.925  0.2921 -0.2244 -0.6363
 1794SOL    HW116841   0.729   1.259   5.873 -2.9715 -0.5317  2.2559
 1794SOL    HW216842   0.791   1.277   6.002  0.6702 -1.3358 -1.5072
 1795SOL     OW16843   1.493   2.998  11.472 -0.1741  0.4080 -0.3725
 1795SOL    HW116844   1.495   3.013  11.378 -1.4613  1.2566 -0.2563
 1795SOL    HW216845   1.566   3.058  11.491  1.2649 -1.5039  0.0911
 1796SOL     OW16846   2.357   3.580   8.510  0.2132 -0.1022  0.0691
 1796SOL    HW116847   2.422   3.591   8.579 -2.0642  0.0920  2.1966
 1796SOL    HW216848   2.311   3.500   8.535  2.0500 -1.1792  0.0171
 1797SOL     OW16849   2.154   3.215  13.800  0.2208 -0.3235 -0.5680
 1797SOL    HW116850   2.229   3.259  13.761  1.0538 -2.4983 -1.4138
 1797SOL    HW216851   2.164   3.235  13.893 -0.1873  2.6291 -1.1746
 1798SOL     OW16852   3.617   3.828   3.506  0.4704  0.0582  0.7252
 1798SOL    HW116853   3.534   3.876   3.512  0.4967  0.1105  0.6771
 1798SOL    HW216854   3.624   3.806   3.413 -0.4299 -0.7288  0.8483
 1799SOL     OW16855   2.740   4.092   5.679  0.4664 -0.0864  0.8081
 1799SOL    HW116856   2.815   4.103   5.621 -1.4739  0.7136 -1.5741
 1799SOL    HW216857   2.761   4.009   5.720  2.4042 -0.1383 -0.3111
 1800SOL     OW16858   0.827   1.706   2.849 -0.1435  0.0291 -0.0690
 1800SOL    HW116859   0.843   1.706   2.944  0.9068  3.5457 -0.2498
 1800SOL    HW216860   0.738   1.672   2.845 -0.6265  1.3760 -0.9414
 1801SOL     OW16861   2.452   0.275   9.466 -0.5416 -0.2675  0.4551
 1801SOL    HW116862   2.521   0.241   9.523 -0.0278 -0.1838 -0.1204
 1801SOL    HW216863   2.471   0.367   9.451 -1.3448 -0.2654 -0.5442
 1802SOL     OW16864   3.159   4.627   4.323  0.7262 -0.2888 -0.0644
 1802SOL    HW116865   3.156   4.563   4.394  2.3347 -0.4359 -0.1287
 1802SOL    HW216866   3.125   4.572   4.253 -0.3760  2.4117 -1.6845
 1803SOL     OW16867   3.213   0.738   5.409  0.1296  0.0939 -0.3604
 1803SOL    HW116868   3.124   0.705   5.395 -0.7520  2.2710  0.2600
 1803SOL    HW216869   3.245   0.756   5.321  0.7817 -3.4689 -0.8542
 1804SOL     OW16870   1.609   2.948  13.516  0.4056 -0.0188  0.0308
 1804SOL    HW116871   1.586   2.926  13.606  0.8987  0.7093  0.3398
 1804SOL    HW216872   1.705   2.957  13.518  0.4575 -0.4845 -0.3182
 1805SOL     OW16873   2.601   4.613   1.138 -0.2174 -0.1029  0.0775
 1805SOL    HW116874   2.535   4.655   1.193  0.4417  0.9930  0.0303
 1805SOL    HW216875   2.682   4.663   1.147 -0.7669  0.9845 -1.1077
 1806SOL     OW16876   0.763   2.677  16.780 -0.0827  0.4033  0.2856
 1806SOL    HW116877   0.701   2.716  16.718 -0.0210  0.3649  0.1999
 1806SOL    HW216878   0.842   2.689  16.727 -0.6919  2.3906 -0.1629
 1807SOL     OW16879   2.617   3.898   6.629 -0.3309 -0.5553 -0.2478
 1807SOL    HW116880   2.532   3.860   6.651 -0.2961 -0.1096  0.6414
 1807SOL    HW216881   2.673   3.822   6.640 -0.3378 -0.5883 -0.4357
 1808SOL     OW16882   4.670   0.793   6.907 -0.0979  0.0311  0.5469
 1808SOL    HW116883   4.586   0.838   6.912 -0.8281 -1.5450  2.1524
 1808SOL    HW216884   4.658   0.747   6.823  1.1783  2.9129 -1.2165
 1809SOL     OW16885   0.108   4.254   5.798  0.2025  0.0236  0.2287
 1809SOL    HW116886   0.030   4.202   5.779  0.1727 -1.1567  3.6391
 1809SOL    HW216887   0.067   4.331   5.838  0.6987 -0.0827  0.9298
 1810SOL     OW16888   1.026   0.528  11.754 -0.1536  1.4479 -0.2665
 1810SOL    HW116889   1.106   0.530  11.807  0.3080  0.4483 -0.9296
 1810SOL    HW216890   0.969   0.472  11.808  1.5981  1.2897  1.4265
 1811SOL     OW16891   3.020   0.478   0.870  0.1190 -0.2309 -0.1933
 1811SOL    HW116892   2.948   0.524   0.828  1.3492  1.0804 -0.9002
 1811SOL    HW216893   3.090   0.542   0.858 -1.7906  1.1301 -4.0337
 1812SOL     OW16894   3.857   4.259   7.953  0.1619 -0.1137  0.1576
 1812SOL    HW116895   3.819   4.183   7.909 -0.9219  0.5513 -0.0537
 1812SOL    HW216896   3.857   4.324   7.883 -0.6179  1.1647  1.3585
 1813SOL     OW16897   4.609   2.554   7.580  0.3238 -0.3848  0.4049
 1813SOL    HW116898   4.641   2.513   7.661 -2.1124 -1.0559  1.0512
 1813SOL    HW216899   4.567   2.633   7.614 -0.0578 -0.6474  0.5563
 1814SOL     OW16900   3.794   1.238   7.365 -0.0368 -0.6680 -0.0108
 1814SOL    HW116901   3.821   1.285   7.286  0.0674 -4.2513 -2.1127
 1814SOL    HW216902   3.757   1.315   7.408  0.1618 -0.4860 -0.1649
 1815SOL     OW16903   0.948   3.067   6.164 -0.1603 -0.2540  0.1666
 1815SOL    HW116904   0.991   3.148   6.136 -1.3434  0.2596 -0.1894
 1815SOL    HW216905   1.014   3.032   6.224  0.1030 -1.1484 -0.6573
 1816SOL     OW16906   2.513   4.041   3.639 -0.3961 -0.0482 -0.0990
 1816SOL    HW116907   2.442   4.081   3.589  1.1820 -0.1260 -2.3698
 1816SOL    HW216908   2.489   3.950   3.657  0.8956 -0.2728  0.5464
 1817SOL     OW16909   2.940   0.331   8.724 -0.4434 -0.0892  0.7485
 1817SOL    HW116910   2.921   0.356   8.634  1.2489 -0.8699  0.1778
 1817SOL    HW216911   3.035   0.336   8.721 -0.3692 -2.0830  0.0633
 1818SOL     OW16912   1.640   4.489   3.152 -0.2833  0.3221  0.1528
 1818SOL    HW116913   1.650   4.395   3.140  0.2692  0.5881 -1.4286
 1818SOL    HW216914   1.548   4.512   3.164 -0.1942  0.7376  0.0641
 1819SOL     OW16915   4.660   4.487   9.528 -0.2631  0.2723  0.2937
 1819SOL    HW116916   4.592   4.421   9.542  1.0753 -1.5575 -1.8194
 1819SOL    HW216917   0.015   4.440   9.558 -1.2673 -1.0332  0.9014
 1820SOL     OW16918   2.025   0.277   3.998  0.0596 -0.9599  0.5393
 1820SOL    HW116919   1.973   0.220   3.942 -0.1760 -2.2417  2.0449
 1820SOL    HW216920   2.100   0.218   4.008  0.8537 -0.4451 -2.3931
 1821SOL     OW16921   1.000   1.945  11.392  0.3154 -0.5167 -0.6010
 1821SOL    HW116922   1.070   1.903  11.341  1.0901  1.4554 -1.1653
 1821SOL    HW216923   0.925   1.914  11.342 -0.5682 -2.5076  1.9534
 1822SOL     OW16924   3.734   4.568   7.070  0.2160  0.1743 -0.0220
 1822SOL    HW116925   3.828   4.561   7.052  0.3391  1.6355  0.0133
 1822SOL    HW216926   3.728   4.627   7.145  0.1950  1.7890 -1.2857
 1823SOL     OW16927   0.078   3.231  10.427  0.4467 -0.8454 -0.2380
 1823SOL    HW116928   0.155   3.175  10.433 -0.8402 -2.4348  1.4325
 1823SOL    HW216929   0.043   3.217  10.339 -0.3381 -0.9209  0.0861
 1824SOL     OW16930   3.064   3.516   2.540 -0.4776 -0.5485  0.2775
 1824SOL    HW116931   3.112   3.434   2.531  0.4824 -0.0646  1.0499
 1824SOL    HW216932   3.072   3.521   2.635  2.1699  1.6253 -0.0633
 1825SOL     OW16933   1.698   2.166  13.048 -0.2727 -0.6335 -0.0609
 1825SOL    HW116934   1.758   2.095  13.028 -0.0471  0.1955 -2.2511
 1825SOL    HW216935   1.676   2.121  13.130  0.0717 -0.8707 -0.0991
 1826SOL     OW16936   3.059   1.570   3.097  0.2277 -0.3338  0.2273
 1826SOL    HW116937   3.061   1.477   3.076 -1.3246  0.0043 -1.4184
 1826SOL    HW216938   3.137   1.587   3.149  0.4776  1.8996 -0.8857
 1827SOL     OW16939   0.114   0.672  15.289 -0.3108  0.2399  0.1188
 1827SOL    HW116940   0.023   0.680  15.319  0.1401  0.0665  1.5300
 1827SOL    HW216941   0.169   0.737  15.332 -0.8977  0.3201  0.7480
 1828SOL     OW16942   4.366   3.882   1.868  0.2051 -0.5212  0.3056
 1828SOL    HW116943   4.445   3.901   1.817 -0.4268 -1.1040 -0.9048
 1828SOL    HW216944   4.297   3.891   1.802  0.1015  2.0686  0.7885
 1829SOL     OW16945   2.508   2.702   2.096 -0.0910 -0.2727  0.2059
 1829SOL    HW116946   2.440   2.745   2.147 -0.6921 -1.5441  0.4560
 1829SOL    HW216947   2.518   2.745   2.010 -1.2419 -1.3622 -0.4647
 1830SOL     OW16948   1.349   3.503   5.611  0.1541  0.3078 -0.0843
 1830SOL    HW116949   1.354   3.506   5.706  0.8009 -0.2377 -0.0966
 1830SOL    HW216950   1.426   3.554   5.587 -0.2959  0.3960 -1.3401
 1831SOL     OW16951   2.301   1.389   6.647 -0.2743 -0.4335  0.0126
 1831SOL    HW116952   2.282   1.460   6.708  1.0902 -0.4578  0.4798
 1831SOL    HW216953   2.213   1.351   6.649 -0.5667  0.1626 -1.5268
 1832SOL     OW16954   1.513   4.144  12.775  0.4405 -0.1725 -0.2953
 1832SOL    HW116955   1.585   4.090  12.743 -0.3520 -2.9862  2.7928
 1832SOL    HW216956   1.550   4.229  12.750  2.0161 -0.6303  0.5602
 1833SOL     OW16957   2.496   4.715  12.791  0.0086  0.1332  0.2796
 1833SOL    HW116958   2.545   4.676  12.718 -1.0287 -4.3647  1.9502
 1833SOL    HW216959   2.523   4.654  12.860  2.1482 -1.6273 -2.1116
 1834SOL     OW16960   4.664   0.915   7.624  0.2383 -0.1111 -0.1366
 1834SOL    HW116961   4.597   0.983   7.635 -0.1115 -0.5251  0.2933
 1834SOL    HW216962   4.715   0.951   7.552  1.2671  0.9297  1.1066
 1835SOL     OW16963   2.950   1.857  13.742  0.2536 -0.2655 -0.3723
 1835SOL    HW116964   2.921   1.919  13.675 -0.2732 -0.5712 -0.4234
 1835SOL    HW216965   2.902   1.778  13.717  1.2268 -0.0281 -2.9518
 1836SOL     OW16966   1.444   2.925   2.586  0.0439 -0.2601 -0.4345
 1836SOL    HW116967   1.360   2.905   2.628  0.6053 -1.7630 -0.0523
 1836SOL    HW216968   1.464   3.004   2.636  0.1093 -0.9336  0.6168
 1837SOL     OW16969   3.237   0.075   4.096 -0.0586 -0.3396  0.2851
 1837SOL    HW116970   3.307   0.010   4.087 -0.5344 -0.5059 -2.0299
 1837SOL    HW216971   3.165   0.018   4.123 -0.1305 -0.0329  0.7451
 1838SOL     OW16972   1.566   4.203   5.565 -0.0027 -0.2366  0.4999
 1838SOL    HW116973   1.631   4.255   5.612  1.8967 -1.2993 -0.9204
 1838SOL    HW216974   1.490   4.257   5.547  1.3999  1.5585 -0.0396
 1839SOL     OW16975   4.610   3.245   5.578 -0.1873  0.2509  0.3161
 1839SOL    HW116976   4.579   3.161   5.543  0.6203  0.5694 -1.1905
 1839SOL    HW216977   4.592   3.295   5.498  0.7617  0.6398  0.3362
 1840SOL     OW16978   0.178   1.828   3.769  0.6606 -0.7340 -0.5299
 1840SOL    HW116979   0.271   1.817   3.749  1.3243  0.9278  1.6844
 1840SOL    HW216980   0.140   1.760   3.713 -3.3851  0.9837  0.0889
 1841SOL     OW16981   0.792   1.760   4.930 -0.5001  0.0311 -1.0478
 1841SOL    HW116982   0.714   1.715   4.962  0.6669 -0.5705  0.9091
 1841SOL    HW216983   0.754   1.832   4.880 -0.0975  1.9365  1.3710
 1842SOL     OW16984   3.001   4.379   3.585 -0.3623 -0.2263  0.2937
 1842SOL    HW116985   2.910   4.361   3.561  0.3806  0.1016 -2.7203
 1842SOL    HW216986   3.026   4.463   3.548 -0.6361 -0.2604  0.0348
 1843SOL     OW16987   1.430   3.750  11.004 -0.5224  0.0975 -0.4615
 1843SOL    HW116988   1.431   3.735  11.099 -0.4584  2.1486 -0.1433
 1843SOL    HW216989   1.489   3.679  10.981  0.0811  0.8238 -1.1346
 1844SOL     OW16990   0.328   1.629  11.375  0.1386  0.6351  0.4939
 1844SOL    HW116991   0.261   1.565  11.347  1.0733 -0.8125  1.5569
 1844SOL    HW216992   0.383   1.625  11.297 -0.0223  1.7434  0.3250
 1845SOL     OW16993   0.448   3.091   0.258 -0.4540  0.0462 -0.1638
 1845SOL    HW116994   0.473   2.998   0.264  1.8053  0.8817  2.8943
 1845SOL    HW216995   0.509   3.135   0.316  0.0353  0.6579 -1.1563
 1846SOL     OW16996   2.347   1.164  12.769 -0.0500  0.3664 -0.0846
 1846SOL    HW116997   2.429   1.163  12.720  0.6628 -1.0787  1.1416
 1846SOL    HW216998   2.306   1.251  12.768 -1.5962 -0.3488  1.0206
 1847SOL     OW16999   3.298   3.670   3.017 -0.1518  0.3016 -0.1303
 1847SOL    HW117000   3.215   3.641   3.055 -0.3852  2.6155  1.1388
 1847SOL    HW217001   3.321   3.746   3.071 -0.9979 -1.6666  3.0021
 1848SOL     OW17002   0.120   2.021   7.605  0.9639  0.3398 -0.9125
 1848SOL    HW117003   0.159   1.958   7.665  1.6510  0.7377 -0.9451
 1848SOL    HW217004   0.050   2.059   7.658  2.4343  2.3190 -0.4172
 1849SOL     OW17005   0.053   4.493   6.450 -0.0090  0.4187  0.6101
 1849SOL    HW117006   4.683   4.476   6.458 -0.0518  0.9562  1.3161
 1849SOL    HW217007   0.083   4.452   6.369  2.2906  3.0398  0.1452
 1850SOL     OW17008   2.843   1.407  10.961  0.4835 -0.0112  0.8121
 1850SOL    HW117009   2.747   1.414  10.963  0.4255 -0.4343 -0.9986
 1850SOL    HW217010   2.855   1.379  10.871  0.3350  2.3548  0.0538
 1851SOL     OW17011   0.820   2.561   7.199 -0.6913 -0.4098  0.2108
 1851SOL    HW117012   0.897   2.508   7.219 -1.0968 -0.7130  0.9640
 1851SOL    HW217013   0.848   2.634   7.254 -2.1292  1.0014 -0.9532
 1852SOL     OW17014   0.188   2.287   3.488  0.4575  0.1942 -0.3762
 1852SOL    HW117015   0.263   2.341   3.512  0.0705 -0.6248  2.6018
 1852SOL    HW217016   0.155   2.253   3.570 -0.3239 -0.1409 -0.8315
 1853SOL     OW17017   2.895   4.696   4.805 -0.1568 -0.1812  0.4631
 1853SOL    HW117018   2.836   4.720   4.734  0.5977 -0.5182 -0.2741
 1853SOL    HW217019   2.863   4.614   4.841  0.0522  0.1320  1.3667
 1854SOL     OW17020   1.285   1.908   9.815 -0.1044  0.5105 -0.0422
 1854SOL    HW117021   1.256   1.834   9.869  1.5806  1.5934  2.3588
 1854SOL    HW217022   1.217   1.975   9.819 -0.7037 -0.1382  0.6083
 1855SOL     OW17023   3.716   4.474   0.728 -0.9472  0.0775  0.1935
 1855SOL    HW117024   3.648   4.427   0.777 -0.3746 -2.7444 -1.7068
 1855SOL    HW217025   3.785   4.409   0.737  0.1894  1.2471 -0.1031
 1856SOL     OW17026   3.368   3.103  16.719  0.0011 -0.2582 -0.4091
 1856SOL    HW117027   3.379   3.014  16.753  0.7094 -0.8930 -2.3089
 1856SOL    HW217028   3.298   3.077  16.660  0.0848 -2.3434  0.4127
 1857SOL     OW17029   1.660   0.185  16.724  0.6898 -0.0739 -0.2183
 1857SOL    HW117030   1.726   0.241  16.683  1.1386 -2.4076 -2.7215
 1857SOL    HW217031   1.673   0.207  16.816 -0.1629  1.5286 -0.4913
 1858SOL     OW17032   2.050   2.643   2.606  0.0371 -0.2103 -0.1736
 1858SOL    HW117033   2.016   2.632   2.695 -3.1093  0.2497 -1.2976
 1858SOL    HW217034   2.142   2.622   2.620 -0.0789 -2.6076 -2.9136
 1859SOL     OW17035   3.817   1.383   5.483  0.6179  0.3662  0.5550
 1859SOL    HW117036   3.864   1.404   5.402  0.9038  0.4952  0.7589
 1859SOL    HW217037   3.770   1.304   5.455  0.1532 -0.6593  4.3277
 1860SOL     OW17038   4.086   4.608   9.631  0.1885 -0.3263  0.0222
 1860SOL    HW117039   4.182   4.612   9.626  0.4450 -3.5150  2.1966
 1860SOL    HW217040   4.086   4.594   9.726  0.2260 -0.4742  0.0018
 1861SOL     OW17041   2.457   1.981   4.340  0.5122 -0.1727  0.7750
 1861SOL    HW117042   2.378   1.952   4.386  0.1417  0.1369  0.3324
 1861SOL    HW217043   2.419   2.064   4.312  0.0446 -0.5546  0.2642
 1862SOL     OW17044   3.769   2.547  17.439 -0.5211  0.5959  0.2841
 1862SOL    HW117045   3.832   2.515  17.375 -1.3510  0.1843 -0.3202
 1862SOL    HW217046   3.831   2.584  17.502  0.3289  0.4138 -0.4375
 1863SOL     OW17047   3.311   2.276   5.926  0.1575 -0.1738  0.4879
 1863SOL    HW117048   3.264   2.225   5.992  0.0777  1.3174  1.5587
 1863SOL    HW217049   3.382   2.312   5.979  0.3961 -0.6505  0.4901
 1864SOL     OW17050   2.332   1.040   3.429  0.2916  0.0311 -0.2088
 1864SOL    HW117051   2.390   1.107   3.464  1.1495 -1.4524  1.2185
 1864SOL    HW217052   2.383   0.986   3.369  0.9068 -0.2857  0.6063
 1865SOL     OW17053   3.193   4.214   7.300  0.4098  0.1696  0.1752
 1865SOL    HW117054   3.136   4.227   7.376 -0.4967  0.8420 -0.6118
 1865SOL    HW217055   3.226   4.125   7.312  0.5680  0.3342  0.9103
 1866SOL     OW17056   4.163   3.737   4.428  0.6904 -0.3146 -0.1477
 1866SOL    HW117057   4.196   3.677   4.361 -1.6146 -0.4069 -1.2216
 1866SOL    HW217058   4.083   3.688   4.447 -0.3429  1.4898  0.1396
 1867SOL     OW17059   3.559   0.354   5.781 -0.5392  0.4121  0.6005
 1867SOL    HW117060   3.522   0.267   5.773 -1.5518  1.1458 -2.7485
 1867SOL    HW217061   3.478   0.401   5.762 -1.1762 -0.2067  1.7887
 1868SOL     OW17062   3.291   0.502   7.608 -0.1763 -0.2694 -0.5110
 1868SOL    HW117063   3.261   0.421   7.650  1.3818 -1.4234 -1.6326
 1868SOL    HW217064   3.305   0.477   7.517  2.3071 -2.6787  0.5311
 1869SOL     OW17065   4.519   4.474  15.245  0.3592  0.2967  0.2849
 1869SOL    HW117066   4.452   4.540  15.266 -0.9175 -1.7391  2.4913
 1869SOL    HW217067   4.583   4.484  15.315 -1.9368  1.6288  2.1800
 1870SOL     OW17068   0.761   2.753   9.292 -0.0868 -0.0766 -0.3170
 1870SOL    HW117069   0.702   2.828   9.300  0.7082  0.5784 -0.4774
 1870SOL    HW217070   0.705   2.681   9.265 -1.5319  0.9290 -0.0040
 1871SOL     OW17071   4.518   4.055   6.467 -0.2997  0.0826  0.3654
 1871SOL    HW117072   4.524   3.993   6.540 -0.4496 -0.5810 -0.1941
 1871SOL    HW217073   4.610   4.073   6.450 -0.8789  0.5671 -2.2924
 1872SOL     OW17074   0.257   4.618   0.926 -0.7303 -0.8361  0.1638
 1872SOL    HW117075   0.298   4.650   0.846 -0.4785 -2.3855 -0.3284
 1872SOL    HW217076   0.271   4.687   0.991  2.2449 -1.1347 -0.1615
 1873SOL     OW17077   0.353   2.087  10.664  0.3091  0.0641  0.1224
 1873SOL    HW117078   0.262   2.113  10.649  1.2168  1.9770 -1.9876
 1873SOL    HW217079   0.389   2.085  10.576 -1.9116 -2.8265 -0.7292
 1874SOL     OW17080   1.167   2.929  11.583 -0.3726  0.2577 -0.1354
 1874SOL    HW117081   1.149   2.995  11.516 -2.2734  0.4211  0.5514
 1874SOL    HW217082   1.079   2.907  11.613 -0.2401  1.2051  0.9715
 1875SOL     OW17083   3.636   2.246   7.215  0.0751  0.4107  0.2982
 1875SOL    HW117084   3.606   2.231   7.126  1.2736 -0.8072  0.0911
 1875SOL    HW217085   3.577   2.189   7.265  0.3495 -0.3302 -0.2267
 1876SOL     OW17086   0.186   1.213  11.122 -0.0263 -0.5092  0.0687
 1876SOL    HW117087   0.271   1.246  11.152 -0.0642 -0.8439  0.5473
 1876SOL    HW217088   0.181   1.124  11.157 -1.6341 -1.0157 -1.4269
 1877SOL     OW17089   1.043   4.637   5.077 -0.2321 -0.5458 -0.2212
 1877SOL    HW117090   1.123   4.671   5.036 -0.0102 -0.5921  0.1752
 1877SOL    HW217091   1.059   4.543   5.077  1.1702 -0.3077 -0.0384
 1878SOL     OW17092   2.793   0.911   7.830  0.1310  0.0122 -0.1661
 1878SOL    HW117093   2.742   0.988   7.856 -2.1610 -1.2280 -0.9559
 1878SOL    HW217094   2.749   0.875   7.753  0.4636  1.0440 -0.8386
 1879SOL     OW17095   3.923   4.238   4.177  0.0108 -0.6999 -0.4368
 1879SOL    HW117096   3.991   4.285   4.225 -0.5581 -0.1894 -0.1473
 1879SOL    HW217097   3.873   4.302   4.127 -1.0062 -0.7678  0.4968
 1880SOL     OW17098   3.221   2.784   8.227  0.3050 -0.3538  0.2249
 1880SOL    HW117099   3.315   2.765   8.221  0.3085 -0.3133  0.1330
 1880SOL    HW217100   3.202   2.700   8.267 -0.2972 -1.1670 -1.7513
 1881SOL     OW17101   1.996   1.431   2.476  0.3289 -0.2280 -0.6335
 1881SOL    HW117102   2.023   1.395   2.391 -1.1226  3.2594 -2.5823
 1881SOL    HW217103   2.019   1.370   2.546  1.1191 -0.8179 -1.4136
 1882SOL     OW17104   4.578   1.166   2.801  0.1949 -0.3612 -0.0936
 1882SOL    HW117105   4.632   1.141   2.726 -1.6617 -2.7076 -0.6438
 1882SOL    HW217106   4.640   1.173   2.874 -0.8025  0.5490  0.6659
 1883SOL     OW17107   1.982   0.118   5.913 -0.7139  0.6136  0.2698
 1883SOL    HW117108   1.973   0.035   5.960 -1.7863  0.4750 -0.1732
 1883SOL    HW217109   2.012   0.178   5.981 -0.4237 -0.3346  0.9857
 1884SOL     OW17110   0.915   0.343  10.901  0.5518  0.9950  0.0600
 1884SOL    HW117111   0.907   0.377  10.991  0.6032 -0.0883  0.4752
 1884SOL    HW217112   0.972   0.407  10.857 -0.6638  0.6668 -1.9701
 1885SOL     OW17113   3.150   2.600  15.192 -0.1760  0.0499 -0.3378
 1885SOL    HW117114   3.108   2.557  15.267  0.2940  1.3318  0.6744
 1885SOL    HW217115   3.241   2.597  15.221 -0.3746  2.2969  0.5863
 1886SOL     OW17116   2.407   3.290   5.178 -0.1480 -0.1083  0.4283
 1886SOL    HW117117   2.460   3.320   5.252 -1.0969  1.2417  0.5594
 1886SOL    HW217118   2.462   3.311   5.103 -2.0801 -1.2566 -1.3018
 1887SOL     OW17119   3.804   2.069   7.700  0.0312  0.1731 -0.0261
 1887SOL    HW117120   3.847   2.147   7.733  1.0807 -0.0685 -0.8210
 1887SOL    HW217121   3.737   2.076   7.768 -1.8798 -1.0364 -1.7962
 1888SOL     OW17122   0.848   0.389   6.632 -0.6653 -0.3832  0.2297
 1888SOL    HW117123   0.819   0.370   6.721 -0.9163 -2.3881 -0.2811
 1888SOL    HW217124   0.833   0.484   6.627  0.0779 -0.2170  1.1078
 1889SOL     OW17125   1.865   0.613  15.890  0.1494  0.0985 -0.0906
 1889SOL    HW117126   1.942   0.606  15.834  1.1307  0.3351  1.2235
 1889SOL    HW217127   1.840   0.523  15.914  0.3366  0.0180 -0.1915
 1890SOL     OW17128   3.557   4.554  13.988 -0.3060  0.2959 -0.2196
 1890SOL    HW117129   3.596   4.489  14.046  1.1359  1.2825 -0.1029
 1890SOL    HW217130   3.564   4.501  13.908 -0.3893 -1.2338  0.7958
 1891SOL     OW17131   2.433   3.584   9.927  0.3321  0.8032 -0.5250
 1891SOL    HW117132   2.463   3.553  10.013 -0.2745  0.5180 -0.4206
 1891SOL    HW217133   2.350   3.628   9.942 -0.9436 -2.1322  1.0688
 1892SOL     OW17134   2.861   3.503   5.012 -0.1372 -0.4929  0.0509
 1892SOL    HW117135   2.806   3.486   5.089 -0.6890 -1.8457 -0.6616
 1892SOL    HW217136   2.939   3.450   5.027 -0.8426 -1.5428 -0.0178
 1893SOL     OW17137   3.609   0.651   1.755  0.1942 -0.3525 -0.0547
 1893SOL    HW117138   3.577   0.577   1.806 -1.2614 -0.4501 -1.0865
 1893SOL    HW217139   3.640   0.611   1.674 -2.8784 -1.0607 -0.8752
 1894SOL     OW17140   4.724   3.660   3.623  0.2591 -0.9129  0.1015
 1894SOL    HW117141   4.630   3.663   3.643  0.2767 -0.6623  0.1421
 1894SOL    HW217142   0.006   3.569   3.594  1.4634 -0.4010 -1.2544
 1895SOL     OW17143   2.556   2.298   3.421 -0.1626 -0.7200 -0.3701
 1895SOL    HW117144   2.552   2.378   3.368 -1.3715  0.7792  1.9664
 1895SOL    HW217145   2.619   2.252   3.366  0.5916 -0.2924  0.1481
 1896SOL     OW17146   3.915   3.201  10.835 -0.5234  0.0624  0.2158
 1896SOL    HW117147   3.997   3.243  10.811  0.5011 -2.3904 -0.5948
 1896SOL    HW217148   3.939   3.109  10.820 -4.4234 -0.8780 -0.3484
 1897SOL     OW17149   1.434   4.433   8.582  0.5723  0.0078  0.1172
 1897SOL    HW117150   1.458   4.468   8.668  4.9191 -0.4709 -0.8781
 1897SOL    HW217151   1.433   4.339   8.603  0.0192  0.0253  0.1589
 1898SOL     OW17152   3.511   4.178   8.166 -0.1962 -0.1681  0.0360
 1898SOL    HW117153   3.539   4.240   8.233  1.3155 -1.3502  0.4954
 1898SOL    HW217154   3.585   4.130   8.129  0.1912 -0.0600  0.6679
 1899SOL     OW17155   2.200   0.589  10.019 -0.1178  0.2148  0.0729
 1899SOL    HW117156   2.266   0.530  10.057 -0.0209 -0.0583 -0.5294
 1899SOL    HW217157   2.242   0.575   9.934 -0.7905  1.1003 -0.4002
 1900SOL     OW17158   1.009   4.722   7.309  0.4783  0.0088  0.3727
 1900SOL    HW117159   1.032   4.717   7.402  0.5968 -0.3244  0.3260
 1900SOL    HW217160   0.949   0.073   7.308 -0.0721 -0.4505 -1.0088
 1901SOL     OW17161   3.835   2.783   9.615 -0.0856 -0.5764  0.6442
 1901SOL    HW117162   3.882   2.712   9.659  1.5527 -0.8267 -1.5246
 1901SOL    HW217163   3.903   2.826   9.563  0.6822 -1.3918  0.9633
 1902SOL     OW17164   3.264   0.568   6.126 -0.2155  0.2632 -0.2252
 1902SOL    HW117165   3.332   0.531   6.182  1.0413 -0.4434 -2.2201
 1902SOL    HW217166   3.303   0.652   6.102 -0.7902  0.3095 -0.9756
 1903SOL     OW17167   2.115   1.440   2.766  0.4263 -0.9094  0.8711
 1903SOL    HW117168   2.209   1.453   2.776  0.2361  0.4289  0.8913
 1903SOL    HW217169   2.076   1.527   2.766  1.3381 -0.5080  1.4421
 1904SOL     OW17170   2.596   1.289   3.333  0.1450 -0.7212 -0.2260
 1904SOL    HW117171   2.677   1.337   3.347 -1.0321  0.4548  2.6612
 1904SOL    HW217172   2.631   1.215   3.283  2.0481  1.5167 -2.1824
 1905SOL     OW17173   2.416   3.319   0.251  0.2890  0.1050 -0.0662
 1905SOL    HW117174   2.499   3.298   0.208  1.0759  2.8806  0.0589
 1905SOL    HW217175   2.423   3.413   0.269 -1.4370  0.0632  0.7683
 1906SOL     OW17176   1.146   0.980  10.856 -0.1655 -1.1100 -0.1019
 1906SOL    HW117177   1.106   0.947  10.775  0.9474 -1.0132 -0.6928
 1906SOL    HW217178   1.117   1.070  10.871  3.3799  0.0625 -0.3083
 1907SOL     OW17179   3.383   4.277  16.798 -0.1718  0.6396 -0.2234
 1907SOL    HW117180   3.310   4.226  16.764 -0.4278  1.3301 -0.7050
 1907SOL    HW217181   3.446   4.220  16.754  3.0279  3.4856  0.6825
 1908SOL     OW17182   4.129   0.049  15.759  0.1229 -0.6581 -0.1918
 1908SOL    HW117183   4.140   4.694  15.705 -1.2199 -2.7981  2.6005
 1908SOL    HW217184   4.182   0.113  15.712 -3.4739  2.1331 -0.3874
 1909SOL     OW17185   3.583   2.071   2.631  0.3735 -0.1462 -0.4792
 1909SOL    HW117186   3.673   2.101   2.648  0.9830 -0.8966 -2.3503
 1909SOL    HW217187   3.546   2.066   2.719 -0.6711 -2.0850 -1.0396
 1910SOL     OW17188   2.221   3.578   1.859  0.1434 -0.0041  0.2362
 1910SOL    HW117189   2.126   3.564   1.858  0.2281 -0.4561 -1.5796
 1910SOL    HW217190   2.240   3.646   1.794 -2.3150 -0.7162 -1.2438
 1911SOL     OW17191   1.496   1.192   1.543  0.1955  0.1020  0.4737
 1911SOL    HW117192   1.583   1.218   1.572  1.3930 -2.3864 -0.8546
 1911SOL    HW217193   1.485   1.228   1.455  1.8311 -0.0530  0.2080
 1912SOL     OW17194   3.646   3.550   9.245  0.0173  0.0262 -0.4698
 1912SOL    HW117195   3.588   3.475   9.258  0.6937  0.0247  2.5067
 1912SOL    HW217196   3.698   3.552   9.326 -2.3530 -1.7390  1.0814
 1913SOL     OW17197   4.337   0.477   6.695  0.4709 -0.1421  0.2971
 1913SOL    HW117198   4.265   0.431   6.738 -0.4174  0.3588 -0.6809
 1913SOL    HW217199   4.309   0.568   6.698 -1.5148 -0.6878 -2.6726
 1914SOL     OW17200   3.955   0.379  17.056  0.0248  0.3818 -0.4674
 1914SOL    HW117201   3.873   0.426  17.042 -0.6522 -1.6487 -3.4304
 1914SOL    HW217202   3.934   0.337  17.139 -0.9337 -0.2864 -1.0430
 1915SOL     OW17203   0.376   0.093   4.926 -0.2255 -0.3059  0.5420
 1915SOL    HW117204   0.384   0.058   5.014 -0.3315  0.0487  0.6919
 1915SOL    HW217205   0.466   0.076   4.897 -0.6437 -0.1345 -0.8927
 1916SOL     OW17206   0.062   1.308   0.815  0.4853  0.4411 -0.3594
 1916SOL    HW117207   4.723   1.380   0.817  0.7616  0.7276 -2.9364
 1916SOL    HW217208   0.079   1.297   0.909  1.2391 -3.1598 -0.9275
 1917SOL     OW17209   1.876   2.337   0.060 -0.3135 -0.4654 -0.0982
 1917SOL    HW117210   1.849   2.428   0.046  1.1265  0.0351  0.4460
 1917SOL    HW217211   1.895   2.335   0.154  2.6686 -0.2440 -0.7017
 1918SOL     OW17212   3.311   0.115   0.880 -0.1832  0.7894  0.7136
 1918SOL    HW117213   3.405   0.125   0.861  0.0852  0.1514  1.6923
 1918SOL    HW217214   3.323   0.054   0.953  2.6077  0.7025  0.1745
 1919SOL     OW17215   0.863   3.110  11.708  0.1076  0.0712 -0.2937
 1919SOL    HW117216   0.813   3.096  11.788 -1.4552 -1.5167 -1.5512
 1919SOL    HW217217   0.805   3.167  11.657  0.2128 -0.0058 -0.5013
 1920SOL     OW17218   1.333   0.627   8.422  0.0655  0.0155  0.4809
 1920SOL    HW117219   1.382   0.564   8.475 -1.5348 -0.4153  1.4535
 1920SOL    HW217220   1.370   0.710   8.452 -0.8108  1.2659 -1.9067
 1921SOL     OW17221   3.506   2.640   1.504  0.0811 -0.3574  0.4188
 1921SOL    HW117222   3.416   2.646   1.535 -0.2949  0.9160 -0.9225
 1921SOL    HW217223   3.517   2.547   1.484  0.7308  0.1594 -1.6229
 1922SOL     OW17224   0.247   3.375   6.695  0.1509 -0.5262 -0.1646
 1922SOL    HW117225   0.199   3.293   6.680 -1.7094  0.8459 -1.6763
 1922SOL    HW217226   0.224   3.392   6.786  2.1224 -0.3117  0.3083
 1923SOL     OW17227   2.841   0.358   6.255 -0.2442 -0.3467 -0.1607
 1923SOL    HW117228   2.904   0.418   6.216 -1.2598  0.0470 -1.2038
 1923SOL    HW217229   2.896   0.324   6.326  1.3277 -0.4300 -1.4158
 1924SOL     OW17230   2.577   4.070   3.251 -0.3969  0.4955  0.2247
 1924SOL    HW117231   2.559   4.154   3.292 -2.0362 -0.1026  0.7442
 1924SOL    HW217232   2.528   4.072   3.169  0.8585 -1.2048 -0.5760
 1925SOL     OW17233   0.525   2.470   7.736  0.3489  0.1249 -0.1626
 1925SOL    HW117234   0.522   2.468   7.831 -0.3123  1.7168 -0.1480
 1925SOL    HW217235   0.570   2.555   7.731  2.1220 -0.7460  0.8389
 1926SOL     OW17236   2.744   3.986   6.240 -0.0675 -0.1048 -0.5099
 1926SOL    HW117237   2.829   3.975   6.283  0.0221  1.4341 -0.3088
 1926SOL    HW217238   2.761   4.067   6.192  1.3655 -0.1074  0.0042
 1927SOL     OW17239   2.154   0.164   2.924 -0.2347 -0.1917  0.1192
 1927SOL    HW117240   2.072   0.128   2.957  0.0820 -0.0714  1.0296
 1927SOL    HW217241   2.125   0.243   2.880  0.4517  0.1584  0.2832
 1928SOL     OW17242   3.200   3.819   3.411  0.0642 -0.7905  0.0810
 1928SOL    HW117243   3.269   3.838   3.474  0.1179  0.1007 -0.2393
 1928SOL    HW217244   3.206   3.899   3.358 -2.1507  1.1867  2.8025
 1929SOL     OW17245   2.333   2.553   9.137 -0.0629  0.0601 -0.2792
 1929SOL    HW117246   2.415   2.503   9.139 -0.6477 -0.9410 -1.7068
 1929SOL    HW217247   2.272   2.487   9.102  1.4531 -0.6216 -1.6166
 1930SOL     OW17248   0.969   1.999   2.004  0.6689 -0.5284  0.2574
 1930SOL    HW117249   1.043   1.964   2.052  0.9021 -2.3523 -1.4456
 1930SOL    HW217250   0.949   1.924   1.949  1.3272 -0.8992  0.5277
 1931SOL     OW17251   3.284   2.777   8.609  0.1378  0.0534  0.0890
 1931SOL    HW117252   3.268   2.858   8.560  0.7349  0.8544  1.2082
 1931SOL    HW217253   3.363   2.749   8.563  0.5368 -0.9737  1.4104
 1932SOL     OW17254   3.174   2.281   8.202  0.4971 -0.5778  0.2441
 1932SOL    HW117255   3.130   2.331   8.133  0.2347  0.4662  1.1690
 1932SOL    HW217256   3.264   2.313   8.194  0.0669  0.7730  0.8151
 1933SOL     OW17257   1.370   3.927   6.312 -0.2266  0.4747 -0.0584
 1933SOL    HW117258   1.350   3.975   6.232 -0.9882  1.7123  0.8718
 1933SOL    HW217259   1.413   3.998   6.359  0.5022 -0.2302  0.3466
 1934SOL     OW17260   0.775   3.248  16.140  0.2138  0.0906 -0.2149
 1934SOL    HW117261   0.705   3.204  16.189  0.3415 -0.7429 -0.7643
 1934SOL    HW217262   0.761   3.339  16.163 -0.0368 -0.6356  2.5300
 1935SOL     OW17263   0.481   0.553   5.120 -0.6613 -0.2410 -0.1226
 1935SOL    HW117264   0.560   0.509   5.152 -2.1178 -1.5465  1.6544
 1935SOL    HW217265   0.515   0.597   5.042  0.5518  0.7196  0.9376
 1936SOL     OW17266   4.624   3.977  11.221  0.2038  0.0415  0.8634
 1936SOL    HW117267   4.598   3.953  11.310  0.1683  1.5309  1.2673
 1936SOL    HW217268   4.684   4.052  11.229  2.3127 -1.6748  1.2778
 1937SOL     OW17269   1.927   3.626   9.906 -0.3150 -0.7153  0.2847
 1937SOL    HW117270   1.908   3.605   9.815 -1.1504 -0.3690  0.3777
 1937SOL    HW217271   2.019   3.652   9.899 -0.5814  0.1511  0.0227
 1938SOL     OW17272   0.399   1.086   1.637 -0.0411 -0.1089  0.4678
 1938SOL    HW117273   0.439   1.016   1.586  1.0082 -1.7867  3.5905
 1938SOL    HW217274   0.330   1.102   1.573  0.1923 -0.3376  0.1617
 1939SOL     OW17275   3.259   2.880  14.460 -0.3505 -0.3486  0.1616
 1939SOL    HW117276   3.333   2.846  14.409 -0.8033  0.1716 -0.8488
 1939SOL    HW217277   3.196   2.809  14.471  0.0532 -0.7344 -0.0310
 1940SOL     OW17278   2.143   1.626   3.080  0.0385 -0.1368 -0.6296
 1940SOL    HW117279   2.098   1.698   3.035  0.0620  0.6045  0.5465
 1940SOL    HW217280   2.129   1.659   3.169 -0.7319  1.7675 -1.4400
 1941SOL     OW17281   2.150   0.657   7.559 -0.0299  0.2001 -0.0477
 1941SOL    HW117282   2.118   0.684   7.645 -0.6727 -2.2542  0.4954
 1941SOL    HW217283   2.068   0.684   7.516 -1.7649 -1.2406  2.3570
 1942SOL     OW17284   4.458   2.733   6.547 -0.3088  0.1024 -0.0608
 1942SOL    HW117285   4.406   2.744   6.627  1.8166  1.1520  1.2187
 1942SOL    HW217286   4.403   2.679   6.492 -1.1869  0.0474  0.8741
 1943SOL     OW17287   2.329   3.485   3.402  0.6774  0.6952  0.1578
 1943SOL    HW117288   2.417   3.518   3.419 -0.0485  1.2402  2.9401
 1943SOL    HW217289   2.313   3.502   3.309 -2.4535 -1.3642  0.3295
 1944SOL     OW17290   3.910   0.343   7.089 -0.2971 -0.5204 -0.6357
 1944SOL    HW117291   3.865   0.369   7.170 -0.5492 -3.1984  0.0916
 1944SOL    HW217292   3.981   0.302   7.138  0.4786 -2.0614 -3.0673
 1945SOL     OW17293   4.169   3.629  12.718 -0.5299 -0.5017  0.1056
 1945SOL    HW117294   4.209   3.563  12.774  1.1664  0.2666 -0.1997
 1945SOL    HW217295   4.121   3.577  12.653 -0.3714 -1.4212  0.7250
 1946SOL     OW17296   2.281   4.560  10.979  0.0646 -0.3428  0.0291
 1946SOL    HW117297   2.202   4.608  10.955 -0.6966 -1.1342  0.9162
 1946SOL    HW217298   2.242   4.472  10.974  0.8457 -0.7711  1.5315
 1947SOL     OW17299   4.306   2.516  17.245  0.3213 -0.3215 -0.1491
 1947SOL    HW117300   4.380   2.563  17.206 -1.9732  2.4179 -1.2086
 1947SOL    HW217301   4.314   2.430  17.204 -2.3047 -0.6055 -0.0134
 1948SOL     OW17302   3.611   0.169   7.432  0.5909  0.1134 -0.2695
 1948SOL    HW117303   3.596   0.088   7.383  0.8381 -0.5963  0.8465
 1948SOL    HW217304   3.547   0.154   7.501  1.8954 -0.5737  0.7807
 1949SOL     OW17305   3.830   4.604   9.589  0.0109  0.5229  0.2880
 1949SOL    HW117306   3.830   4.607   9.493  3.8669 -0.1428  0.2381
 1949SOL    HW217307   3.925   4.611   9.601 -0.1264 -1.1159  2.2945
 1950SOL     OW17308   2.036   0.541   8.017  0.3140 -0.1652 -0.2472
 1950SOL    HW117309   2.051   0.490   8.097  1.5691  0.7314  0.0923
 1950SOL    HW217310   1.973   0.605   8.051  0.8054  0.4352 -0.4630
 1951SOL     OW17311   2.058   2.516   8.915  0.0610 -0.3444  0.3816
 1951SOL    HW117312   2.042   2.610   8.922 -0.7338 -0.5328  1.0176
 1951SOL    HW217313   2.122   2.518   8.844 -0.3441 -0.6801  0.0117
 1952SOL     OW17314   1.434   0.790   6.793 -0.1009  0.0412  0.1895
 1952SOL    HW117315   1.381   0.722   6.751 -2.0482  2.2754 -0.9945
 1952SOL    HW217316   1.522   0.780   6.757  0.7811  0.0762  2.3692
 1953SOL     OW17317   1.632   3.886   5.131 -0.3715 -0.0301  0.9592
 1953SOL    HW117318   1.611   3.943   5.205  1.0545  1.0424  0.5587
 1953SOL    HW217319   1.546   3.853   5.105  0.8265 -0.9352 -1.9325
 1954SOL     OW17320   2.980   1.950  13.317  0.5307 -0.8515 -0.4445
 1954SOL    HW117321   2.972   1.859  13.346 -0.0513 -1.2678 -1.8986
 1954SOL    HW217322   2.938   1.992  13.393 -0.0089 -0.7444 -0.8029
 1955SOL     OW17323   2.135   3.709   3.799  0.1680 -0.0560  0.7657
 1955SOL    HW117324   2.055   3.688   3.846 -1.1599  1.7084 -0.6696
 1955SOL    HW217325   2.146   3.632   3.743  0.0829  0.0986  0.5324
 1956SOL     OW17326   4.250   3.472   3.650 -0.5002 -0.3591 -0.5252
 1956SOL    HW117327   4.205   3.538   3.597 -1.4613 -1.0072 -0.5197
 1956SOL    HW217328   4.232   3.394   3.598  1.9795 -0.1356 -1.7074
 1957SOL     OW17329   3.292   0.697  13.143 -0.0185  0.1298 -0.0847
 1957SOL    HW117330   3.322   0.608  13.164  1.2515  1.2289  2.8509
 1957SOL    HW217331   3.263   0.729  13.229  0.4642 -0.5473  0.3275
 1958SOL     OW17332   2.911   2.694  13.580  0.0513 -0.2482 -0.3304
 1958SOL    HW117333   2.981   2.684  13.644  0.3763 -2.2682 -1.0022
 1958SOL    HW217334   2.835   2.686  13.638 -0.4636 -0.8234 -1.0760
 1959SOL     OW17335   0.552   0.851   8.290  0.1088  0.1299 -0.0945
 1959SOL    HW117336   0.460   0.863   8.267  0.7596  0.0246 -2.8230
 1959SOL    HW217337   0.605   0.872   8.212  0.5890 -1.9910 -0.3481
 1960SOL     OW17338   1.903   2.491  14.376  0.0969 -0.7036 -0.0967
 1960SOL    HW117339   1.868   2.473  14.463  1.1689 -1.0153  0.2656
 1960SOL    HW217340   1.893   2.404  14.337  1.2714 -1.0234  0.3174
 1961SOL     OW17341   2.939   1.807  11.769  0.5051 -0.1693  0.4927
 1961SOL    HW117342   2.958   1.891  11.810 -1.6773 -0.2194  1.5791
 1961SOL    HW217343   2.954   1.820  11.675 -0.8597  0.2262  0.3274
 1962SOL     OW17344   1.489   4.035   8.054  0.2456  0.3635  0.3102
 1962SOL    HW117345   1.455   3.959   8.008  0.1438  0.2352  0.5921
 1962SOL    HW217346   1.573   4.004   8.086 -0.0339 -0.7495 -0.0518
 1963SOL     OW17347   0.427   4.076   9.912 -0.3234  0.0644  0.3662
 1963SOL    HW117348   0.422   4.001   9.971  1.3253  0.4984  1.0615
 1963SOL    HW217349   0.365   4.135   9.956 -0.8719 -0.4850  0.3154
 1964SOL     OW17350   0.139   1.225   0.565  0.6525  0.1815  0.4390
 1964SOL    HW117351   0.118   1.252   0.655  1.0261  0.0108  0.5798
 1964SOL    HW217352   0.107   1.135   0.573  0.7757  0.2638  1.9961
 1965SOL     OW17353   3.739   3.383   2.067  0.4334 -0.5511  0.5292
 1965SOL    HW117354   3.674   3.331   2.019  0.1590  0.2402  0.0443
 1965SOL    HW217355   3.723   3.471   2.032 -1.9400 -1.7851 -1.5190
 1966SOL     OW17356   1.862   1.906   6.909  0.3495  0.3505 -0.4632
 1966SOL    HW117357   1.846   1.814   6.890  0.2713  0.2802 -0.0394
 1966SOL    HW217358   1.901   1.896   6.996  0.1224 -0.7981 -0.5031
 1967SOL     OW17359   3.070   2.812   2.066  0.4520  0.2214 -0.1066
 1967SOL    HW117360   3.100   2.755   2.136 -3.1227  0.3980  1.6101
 1967SOL    HW217361   2.986   2.767   2.053  1.3523 -0.8833 -2.1864
 1968SOL     OW17362   0.019   0.945   4.559  0.5008  0.4020 -0.0513
 1968SOL    HW117363   0.094   0.887   4.570  0.4264 -0.1565 -2.4767
 1968SOL    HW217364   4.677   0.876   4.570  0.7128 -0.0717 -1.7393
 1969SOL     OW17365   0.808   4.080   5.285  0.2069 -0.4297 -0.0078
 1969SOL    HW117366   0.743   4.054   5.350 -0.3502 -0.2176 -0.4760
 1969SOL    HW217367   0.756   4.109   5.209  1.9869 -0.8164 -1.3797
 1970SOL     OW17368   0.244   2.659   9.240 -0.8307  0.1958 -0.0436
 1970SOL    HW117369   0.150   2.639   9.234 -0.3187 -2.2102 -0.1439
 1970SOL    HW217370   0.276   2.630   9.155  2.7499 -1.2396  1.8022
 1971SOL     OW17371   2.144   4.563   7.800 -0.3879 -0.3637  0.5266
 1971SOL    HW117372   2.124   4.495   7.865 -0.2700  0.3596  1.3212
 1971SOL    HW217373   2.163   4.631   7.864  0.0586 -0.0576  0.0587
 1972SOL     OW17374   0.698   0.369   5.126 -0.5919 -0.4055  0.0655
 1972SOL    HW117375   0.781   0.322   5.135 -2.6713 -3.9631  1.0252
 1972SOL    HW217376   0.662   0.342   5.042 -1.6437 -0.0197  0.3981
 1973SOL     OW17377   2.206   0.332   0.999  0.1736  0.2592 -0.4495
 1973SOL    HW117378   2.112   0.350   1.005 -0.1721 -2.0473  1.2427
 1973SOL    HW217379   2.241   0.409   0.955  2.5220 -0.0259  0.9132
 1974SOL     OW17380   0.442   3.049  16.448  0.5291 -0.2624  0.0744
 1974SOL    HW117381   0.424   2.956  16.463  0.9678 -0.3347  0.1497
 1974SOL    HW217382   0.374   3.072  16.385  1.4664 -0.1503 -0.8840
 1975SOL     OW17383   1.789   2.943   5.145  0.6009  0.1237  0.3738
 1975SOL    HW117384   1.846   2.902   5.080 -0.9977  0.8667 -1.5069
 1975SOL    HW217385   1.764   2.876   5.208 -1.3128  1.6526  1.2500
 1976SOL     OW17386   4.100   3.329   8.092  0.1485  0.4004  0.0146
 1976SOL    HW117387   4.138   3.396   8.149  0.8498  0.8466 -0.9873
 1976SOL    HW217388   4.062   3.258   8.144 -2.4319  1.6866 -0.1000
 1977SOL     OW17389   4.189   3.080   3.678  0.6462 -0.2183  1.0544
 1977SOL    HW117390   4.264   3.134   3.703  1.2207 -1.1268  1.2570
 1977SOL    HW217391   4.230   2.995   3.669 -1.7801 -1.1170 -1.6262
 1978SOL     OW17392   3.182   1.029  12.217 -0.1210  0.2946  0.0376
 1978SOL    HW117393   3.210   1.031  12.309 -2.0938 -2.9436  0.7081
 1978SOL    HW217394   3.109   0.967  12.219 -1.9496  2.4255 -0.4065
 1979SOL     OW17395   2.095   3.829  16.517  0.2914  0.0518  0.1635
 1979SOL    HW117396   2.121   3.815  16.426 -0.8015 -3.0443  0.3291
 1979SOL    HW217397   2.104   3.924  16.520  0.8867 -0.0013  0.0008
 1980SOL     OW17398   4.058   1.708   4.269  0.4000  0.4337 -0.4899
 1980SOL    HW117399   4.056   1.709   4.173 -1.2041 -1.9640 -0.4749
 1980SOL    HW217400   4.107   1.790   4.281  0.9368  0.0633 -0.1697
 1981SOL     OW17401   4.388   3.654   9.038  0.2885  0.2019  0.0844
 1981SOL    HW117402   4.472   3.699   9.039  0.9036 -0.9377  0.0383
 1981SOL    HW217403   4.343   3.731   9.071 -0.6112 -0.7015  0.9761
 1982SOL     OW17404   3.528   0.813  14.979  0.4120  0.0743 -0.2272
 1982SOL    HW117405   3.620   0.799  14.957  0.9909 -0.5350  2.4856
 1982SOL    HW217406   3.522   0.909  14.974  2.9274  0.2853  1.0332
 1983SOL     OW17407   3.430   3.445   5.410 -0.1885  0.6428 -0.3560
 1983SOL    HW117408   3.366   3.484   5.470  0.1229 -0.9079  0.9855
 1983SOL    HW217409   3.508   3.454   5.464  2.3588 -0.7517 -3.8066
 1984SOL     OW17410   1.378   3.957  12.269 -0.5274  0.1331  0.0790
 1984SOL    HW117411   1.331   3.970  12.352 -0.0445  2.0450  0.0397
 1984SOL    HW217412   1.300   3.940  12.216 -0.1338 -2.0499  0.1889
 1985SOL     OW17413   0.036   0.339   8.208  0.2927  0.1877 -0.1624
 1985SOL    HW117414   0.061   0.393   8.133  0.5479 -0.4171 -0.5161
 1985SOL    HW217415   0.071   0.389   8.281  5.0704 -0.3448 -2.0633
 1986SOL     OW17416   2.872   1.307   3.500 -0.4276  0.3738  0.0659
 1986SOL    HW117417   2.936   1.295   3.430 -0.0963 -3.4790  1.0119
 1986SOL    HW217418   2.881   1.400   3.521 -1.3727  0.5966 -0.4824
 1987SOL     OW17419   2.030   0.479   2.592  0.1689 -0.0669 -0.3627
 1987SOL    HW117420   2.099   0.492   2.527  0.1817  3.2669  0.3209
 1987SOL    HW217421   1.965   0.432   2.539 -1.3004  1.3838  0.1343
 1988SOL     OW17422   4.661   0.243  13.948  0.2588  0.3067 -0.0186
 1988SOL    HW117423   4.679   0.214  14.038 -1.9214 -0.3914  0.1968
 1988SOL    HW217424   4.598   0.309  13.975 -0.6982 -1.0869  1.1711
 1989SOL     OW17425   2.688   2.037  16.322 -0.5982 -0.1913  0.0094
 1989SOL    HW117426   2.648   2.076  16.399 -0.0972 -0.3098  0.3300
 1989SOL    HW217427   2.756   1.982  16.360  0.2495  0.9063  0.0784
 1990SOL     OW17428   4.078   1.631   5.161  0.4739  0.1639 -0.1219
 1990SOL    HW117429   3.991   1.590   5.159  0.4101  0.3528 -1.3375
 1990SOL    HW217430   4.119   1.604   5.079 -2.8458 -1.1722 -1.3405
 1991SOL     OW17431   3.451   2.409   3.447  0.1026 -0.3301  0.3597
 1991SOL    HW117432   3.380   2.417   3.383  0.5665  0.0891 -0.1025
 1991SOL    HW217433   3.529   2.450   3.409  0.0348  0.3482  0.9631
 1992SOL     OW17434   1.756   0.053   2.084 -0.3913 -0.4948 -0.2426
 1992SOL    HW117435   1.805   4.695   2.083  1.5565  0.6514  1.6158
 1992SOL    HW217436   1.696   0.034   2.012 -0.5889  0.4287 -0.3213
 1993SOL     OW17437   3.819   1.753   9.144  0.4248  0.4410  0.4888
 1993SOL    HW117438   3.735   1.723   9.179  1.8276 -1.1277  2.5504
 1993SOL    HW217439   3.816   1.844   9.172 -0.8332  0.2503  0.9663
 1994SOL     OW17440   1.153   3.042   2.617  0.9606 -0.3001 -0.4827
 1994SOL    HW117441   1.157   3.025   2.522  0.1542 -1.7465 -0.2544
 1994SOL    HW217442   1.082   2.985   2.645  0.7330  0.8121  1.1547
 1995SOL     OW17443   2.842   0.601   0.699 -0.1670 -0.2812  0.3696
 1995SOL    HW117444   2.863   0.644   0.615  1.6497 -1.8160  0.0315
 1995SOL    HW217445   2.777   0.665   0.726 -1.1005 -0.7835 -0.6948
 1996SOL     OW17446   4.275   0.383  10.495  0.2036 -0.0748  0.1081
 1996SOL    HW117447   4.337   0.313  10.472  0.5842 -0.1521  1.3918
 1996SOL    HW217448   4.271   0.377  10.590  0.1812 -0.2267  0.0983
 1997SOL     OW17449   3.450   4.080   0.027  0.3425  0.1599  0.4087
 1997SOL    HW117450   3.466   4.110   0.116 -0.8858 -1.8436  1.3025
 1997SOL    HW217451   3.498   4.144  17.672 -0.1064 -0.4406 -0.7520
 1998SOL     OW17452   1.567   3.343  12.972 -0.1062 -0.3046  0.0505
 1998SOL    HW117453   1.534   3.340  13.062 -2.7277  0.6759 -0.8746
 1998SOL    HW217454   1.658   3.367  12.990 -0.7009  0.6107  1.9065
 1999SOL     OW17455   1.149   1.197   9.539 -0.0973 -0.3783  0.3570
 1999SOL    HW117456   1.199   1.191   9.621  1.0281 -3.3777 -0.5364
 1999SOL    HW217457   1.101   1.279   9.546  2.2788  1.1642 -1.1685
 2000SOL     OW17458   3.991   1.215   3.956 -0.0457  0.4749  0.4866
 2000SOL    HW117459   4.013   1.130   3.916 -1.0091  1.1201 -1.4407
 2000SOL    HW217460   4.077   1.230   3.995  0.3005  1.5538 -0.6904
 2001SOL     OW17461   0.634   0.527  10.317 -0.3037  0.3839  0.8608
 2001SOL    HW117462   0.626   0.619  10.341  2.2996  0.6144  0.8390
 2001SOL    HW217463   0.708   0.535  10.257  0.8564  1.7454  2.4779
 2002SOL     OW17464   0.945   4.577  15.394  0.1158 -0.6109  0.2176
 2002SOL    HW117465   0.859   4.587  15.436 -0.2419 -0.5428 -0.5292
 2002SOL    HW217466   0.971   4.504  15.450 -0.3576 -0.6487  0.3921
 2003SOL     OW17467   4.237   2.214   7.677  0.0085  0.3748  0.0907
 2003SOL    HW117468   4.188   2.139   7.644  0.0379  0.3098  0.1958
 2003SOL    HW217469   4.295   2.228   7.602  0.0639  0.2978  0.1199
 2004SOL     OW17470   3.511   1.599  16.656 -0.0462 -0.5077  0.1218
 2004SOL    HW117471   3.531   1.535  16.587  0.1576  0.3852 -0.6516
 2004SOL    HW217472   3.550   1.681  16.626  0.2855 -0.1495  1.5172
 2005SOL     OW17473   4.381   2.386   6.640  0.2971 -0.4265  0.3898
 2005SOL    HW117474   4.312   2.319   6.643  1.3668 -1.5701 -0.8117
 2005SOL    HW217475   4.463   2.340   6.622 -0.9844 -1.8802 -1.7102
 2006SOL     OW17476   3.863   0.675   2.710 -0.5091 -0.1817  0.0619
 2006SOL    HW117477   3.889   0.583   2.703 -0.5903 -0.1372 -0.8112
 2006SOL    HW217478   3.951   0.711   2.725 -0.2636 -1.3745  1.4687
 2007SOL     OW17479   4.507   2.898  12.400  0.1827 -0.2031 -0.0796
 2007SOL    HW117480   4.545   2.928  12.483  0.6557 -1.9242  0.3251
 2007SOL    HW217481   4.589   2.863  12.365 -0.0897 -0.6749 -0.2408
 2008SOL     OW17482   4.314   2.350   3.583  0.1686 -0.4928  0.7417
 2008SOL    HW117483   4.371   2.273   3.576  0.8888  0.1370 -0.3627
 2008SOL    HW217484   4.378   2.401   3.633  0.8535 -1.0669  0.4495
 2009SOL     OW17485   0.712   2.532   6.352 -0.2678  0.2429 -0.1123
 2009SOL    HW117486   0.662   2.481   6.417 -2.3895 -0.4217 -2.2323
 2009SOL    HW217487   0.778   2.467   6.329  1.9008  2.3491  0.2451
 2010SOL     OW17488   1.493   2.611   4.707  0.0440 -0.2815 -0.1639
 2010SOL    HW117489   1.423   2.574   4.761 -0.1002  0.5393  0.2097
 2010SOL    HW217490   1.466   2.703   4.706 -1.1931 -0.6471 -0.0964
 2011SOL     OW17491   0.654   1.477   2.072  0.0462  0.0089  0.6309
 2011SOL    HW117492   0.730   1.449   2.124  1.0612 -1.4747 -1.6384
 2011SOL    HW217493   0.626   1.551   2.125 -2.2736 -1.1600  1.0185
 2012SOL     OW17494   3.258   0.390   1.031  0.4138  0.6439  0.5499
 2012SOL    HW117495   3.272   0.322   0.965 -0.3614 -0.4592  1.5204
 2012SOL    HW217496   3.182   0.437   0.996  0.9117  1.6299  0.8262
 2013SOL     OW17497   4.671   2.551   9.796  0.1621  0.2338  0.3663
 2013SOL    HW117498   4.602   2.582   9.855 -0.7328  2.9457 -2.1029
 2013SOL    HW217499   4.716   2.483   9.846  1.1211  1.0682  0.6456
 2014SOL     OW17500   2.241   2.435   6.770  0.0044 -0.4811 -0.0609
 2014SOL    HW117501   2.271   2.523   6.791 -1.0232 -0.0877 -0.2156
 2014SOL    HW217502   2.244   2.432   6.674  1.4775 -0.2095 -0.0257
 2015SOL     OW17503   3.413   0.803   1.623  0.8337 -0.8546  0.1334
 2015SOL    HW117504   3.499   0.774   1.654  0.7693 -1.1192  0.0632
 2015SOL    HW217505   3.430   0.884   1.574  0.5715 -1.4182 -0.8806
 2016SOL     OW17506   1.416   2.151   3.431  0.2278 -0.7844  0.2942
 2016SOL    HW117507   1.374   2.204   3.363 -0.1614 -1.1941  0.2127
 2016SOL    HW217508   1.361   2.176   3.506 -0.8690 -3.8100  0.5070
 2017SOL     OW17509   3.399   1.993  12.785  0.0542  0.0653  0.6205
 2017SOL    HW117510   3.433   1.988  12.695 -0.1461 -1.6613  0.6443
 2017SOL    HW217511   3.464   2.043  12.835  0.3352  2.5881 -2.2003
 2018SOL     OW17512   0.551   4.016   5.053 -0.0499 -0.3400  0.7011
 2018SOL    HW117513   0.481   4.081   5.053 -0.5994 -0.9428  2.4840
 2018SOL    HW217514   0.508   3.944   5.099 -1.9556 -0.3212 -1.0318
 2019SOL     OW17515   3.498   4.638   7.304  0.3764  0.0752  0.0007
 2019SOL    HW117516   3.453   4.571   7.252 -1.2347  1.9031 -0.9707
 2019SOL    HW217517   3.530   4.578   7.371  2.9522  1.4803  0.0202
 2020SOL     OW17518   2.163   3.362   5.191 -0.3414  0.0222 -0.6579
 2020SOL    HW117519   2.253   3.334   5.179 -0.6590 -1.4394  0.2765
 2020SOL    HW217520   2.113   3.285   5.162  0.4295 -0.8570  0.3603
 2021SOL     OW17521   0.800   1.151   9.073 -0.6269 -0.0133 -0.0467
 2021SOL    HW117522   0.709   1.146   9.043 -0.5075  2.1378 -0.7901
 2021SOL    HW217523   0.800   1.203   9.153 -0.3651  0.5910 -0.4373
 2022SOL     OW17524   0.753   0.495  13.208  0.1336  0.0505 -0.5325
 2022SOL    HW117525   0.844   0.466  13.195 -0.3402 -1.2675 -0.8597
 2022SOL    HW217526   0.746   0.495  13.304  0.5550 -0.4960 -0.5001
 2023SOL     OW17527   3.342   1.721   8.298 -0.2003  1.1586 -0.2812
 2023SOL    HW117528   3.271   1.658   8.314 -0.4550  1.7203  0.8243
 2023SOL    HW217529   3.299   1.776   8.232  0.8155  1.0400 -1.0393
 2024SOL     OW17530   1.096   2.731   0.430 -0.5811  0.0542 -0.3967
 2024SOL    HW117531   1.072   2.757   0.519 -2.4768 -0.3206 -0.7812
 2024SOL    HW217532   1.185   2.698   0.442 -0.8220 -0.5906 -0.3652
 2025SOL     OW17533   2.780   1.606   4.976  0.5117 -0.1072  0.2841
 2025SOL    HW117534   2.773   1.589   4.882  0.6895 -2.5627  0.7260
 2025SOL    HW217535   2.787   1.701   4.968  0.9772 -0.2873 -1.4974
 2026SOL     OW17536   2.952   2.914   5.564 -0.1937  0.4164 -0.0627
 2026SOL    HW117537   2.934   2.911   5.658  0.1904 -2.4732 -0.0934
 2026SOL    HW217538   3.041   2.878   5.560 -0.2357  0.4749 -1.4832
 2027SOL     OW17539   2.213   4.576   2.881 -0.1454 -1.0554 -0.0093
 2027SOL    HW117540   2.258   4.572   2.797  1.5241 -3.8704  1.0294
 2027SOL    HW217541   2.211   4.671   2.895 -1.9630 -0.9241 -1.0800
 2028SOL     OW17542   0.125   4.005   2.702 -0.5943 -0.1296  0.0111
 2028SOL    HW117543   0.142   4.060   2.779  1.2733  0.2574 -0.6859
 2028SOL    HW217544   0.098   3.926   2.749  1.7819 -0.3367  1.0435
 2029SOL     OW17545   3.319   1.015  11.991  0.4560  0.1551 -0.4468
 2029SOL    HW117546   3.342   1.108  11.981  0.7981  0.2424  1.1404
 2029SOL    HW217547   3.294   1.013  12.083  4.5272 -2.5265  0.6071
 2030SOL     OW17548   2.491   4.380   5.501 -0.7095 -0.1390 -0.5816
 2030SOL    HW117549   2.502   4.380   5.406  0.3289  1.3831 -0.4672
 2030SOL    HW217550   2.542   4.457   5.526 -0.1124 -1.4399  2.1827
 2031SOL     OW17551   4.694   0.026  17.231  0.1773 -0.2783 -0.6718
 2031SOL    HW117552   0.011   0.069  17.307  1.6896 -1.5385 -0.7477
 2031SOL    HW217553   4.688   0.097  17.168  0.0717  2.2678  2.1938
 2032SOL     OW17554   4.592   2.840   3.995 -0.0776 -0.7769  0.6333
 2032SOL    HW117555   4.497   2.838   3.984 -0.3907 -1.3693  3.3811
 2032SOL    HW217556   4.607   2.898   4.070 -1.1226  0.3722 -0.0496
 2033SOL     OW17557   4.402   1.734   5.745 -0.3055 -0.1781 -0.2751
 2033SOL    HW117558   4.440   1.690   5.821 -0.1323  0.4884  0.0262
 2033SOL    HW217559   4.320   1.765   5.783 -1.2942  0.2293 -2.7854
 2034SOL     OW17560   2.785   2.741   9.631  0.1769  0.2459  0.1760
 2034SOL    HW117561   2.825   2.739   9.544  0.0258  0.3246  0.1049
 2034SOL    HW217562   2.759   2.833   9.638  1.8011  0.8760 -1.9453
 2035SOL     OW17563   3.477   1.007   1.429  0.8262 -0.2064  0.0787
 2035SOL    HW117564   3.478   1.103   1.438 -2.3855 -0.0645 -1.0347
 2035SOL    HW217565   3.526   1.000   1.347 -0.4709 -0.5383 -0.6663
 2036SOL     OW17566   0.229   4.071   3.416 -0.2051 -0.3408  0.0583
 2036SOL    HW117567   0.293   4.034   3.476  0.0770  1.4258  0.8197
 2036SOL    HW217568   0.180   3.989   3.405 -1.0381  0.2271 -0.4658
 2037SOL     OW17569   0.975   2.919   4.804 -0.3162 -0.1620  0.2054
 2037SOL    HW117570   1.070   2.926   4.801 -0.1180 -2.9893  0.6121
 2037SOL    HW217571   0.964   2.889   4.893  1.4118 -0.8531  0.1765
 2038SOL     OW17572   4.713   2.292   1.887 -0.1386 -0.1174  0.2841
 2038SOL    HW117573   4.687   2.296   1.795 -1.5374 -0.2117  0.6861
 2038SOL    HW217574   4.704   2.385   1.910  0.1221 -0.0799  0.2393
 2039SOL     OW17575   3.998   1.691  17.348  0.2042 -0.3669 -0.2507
 2039SOL    HW117576   4.070   1.633  17.374 -0.7976 -1.2683  0.5201
 2039SOL    HW217577   4.025   1.774  17.390  0.3195 -1.1581  1.2461
 2040SOL     OW17578   2.455   3.085   6.202  0.4058  0.3103  0.6259
 2040SOL    HW117579   2.456   3.047   6.290  2.4987  0.8200  0.8117
 2040SOL    HW217580   2.549   3.099   6.197  0.4891  0.1491  1.7975
 2041SOL     OW17581   2.364   4.507   8.770 -0.2745 -0.6696 -0.7440
 2041SOL    HW117582   2.422   4.459   8.711  0.1477 -1.5008  0.3503
 2041SOL    HW217583   2.286   4.451   8.765 -1.5095  0.9892  0.0785
 2042SOL     OW17584   3.474   3.107   6.191 -0.3707  0.2179  0.5920
 2042SOL    HW117585   3.425   3.096   6.272 -0.5563  1.4817  0.6456
 2042SOL    HW217586   3.501   3.197   6.209 -2.5050  1.2161 -1.1276
 2043SOL     OW17587   4.325   2.892  13.266 -0.0312  0.4087 -0.0783
 2043SOL    HW117588   4.270   2.915  13.191  3.2551  2.0496 -2.0373
 2043SOL    HW217589   4.314   2.799  13.285 -1.6764  0.8554  1.0293
 2044SOL     OW17590   1.824   3.357  15.247 -0.1572 -0.1324 -0.2391
 2044SOL    HW117591   1.873   3.286  15.206  1.8950 -0.0908  2.1232
 2044SOL    HW217592   1.862   3.435  15.206 -0.5156 -1.0341 -2.2626
 2045SOL     OW17593   0.696   0.766  13.810  0.4602  0.0649 -0.2629
 2045SOL    HW117594   0.750   0.810  13.876 -2.4181  0.0243  2.1408
 2045SOL    HW217595   0.624   0.730  13.862  2.6590 -0.7362  2.2217
 2046SOL     OW17596   2.214   0.410   7.439  0.4576  0.5208 -0.0707
 2046SOL    HW117597   2.129   0.410   7.395  1.0287 -0.6138 -1.1618
 2046SOL    HW217598   2.203   0.496   7.481 -0.9269 -0.1419  0.9281
 2047SOL     OW17599   1.200   2.314  17.402 -0.2502 -0.3367 -0.2031
 2047SOL    HW117600   1.115   2.281  17.374  0.5018 -1.1886 -1.4937
 2047SOL    HW217601   1.235   2.251  17.466 -0.3387  2.6682  2.8060
 2048SOL     OW17602   2.931   1.319   9.418 -0.1259  0.3684 -0.3736
 2048SOL    HW117603   2.842   1.324   9.454  0.6789  0.9605  1.4778
 2048SOL    HW217604   2.981   1.376   9.475 -0.2739 -0.4543  0.5786
 2049SOL     OW17605   1.631   1.533   7.264 -0.3216 -0.0548 -0.5673
 2049SOL    HW117606   1.689   1.604   7.237 -0.0001  0.0735  0.4563
 2049SOL    HW217607   1.576   1.593   7.315  0.7446  1.7840 -1.5792
 2050SOL     OW17608   4.085   2.941   9.525 -0.0056  0.2100  0.2758
 2050SOL    HW117609   4.046   2.940   9.437 -0.2137  0.2379  0.3672
 2050SOL    HW217610   4.140   2.863   9.522 -0.3607 -0.0759  1.2483
 2051SOL     OW17611   3.021   4.427   2.912 -0.1348 -0.3345 -0.6057
 2051SOL    HW117612   2.981   4.386   2.989 -1.3102 -0.1913 -1.1373
 2051SOL    HW217613   3.106   4.456   2.946 -0.4587 -0.3195  0.2039
 2052SOL     OW17614   3.827   1.084   9.014 -0.2171  0.6591 -0.4080
 2052SOL    HW117615   3.850   1.025   9.085 -1.0172  0.5308 -0.2568
 2052SOL    HW217616   3.767   1.144   9.059  2.2071  2.5143  0.3009
 2053SOL     OW17617   2.996   1.022  14.364 -0.3040  0.9866  0.2740
 2053SOL    HW117618   2.998   0.942  14.313  1.0962  0.3946  1.2562
 2053SOL    HW217619   3.071   1.069  14.327  0.9832 -1.0041  0.3415
 2054SOL     OW17620   0.788   1.085  13.760 -0.2493  0.0366  0.0853
 2054SOL    HW117621   0.871   1.101  13.716 -0.3167 -1.3575 -0.5601
 2054SOL    HW217622   0.795   0.997  13.795 -1.0144 -0.6943 -1.5918
 2055SOL     OW17623   1.195   3.932   4.274  0.2626  0.7692 -0.0744
 2055SOL    HW117624   1.246   3.878   4.334 -1.5045 -0.5139  0.2620
 2055SOL    HW217625   1.145   3.981   4.339 -1.4760 -0.7468 -0.2727
 2056SOL     OW17626   2.122   0.415   0.274  0.6049 -0.5965  0.3109
 2056SOL    HW117627   2.182   0.480   0.311  0.8407 -0.8178  0.3188
 2056SOL    HW217628   2.038   0.450   0.302  2.1730  2.0635  1.7882
 2057SOL     OW17629   3.739   2.501   5.370 -0.0915 -0.2238  0.0716
 2057SOL    HW117630   3.763   2.416   5.334  0.0899  0.0848 -0.5263
 2057SOL    HW217631   3.797   2.503   5.446  1.1506  1.2799 -0.9199
 2058SOL     OW17632   1.000   4.020  12.479  0.0203  0.0233 -0.2385
 2058SOL    HW117633   0.942   4.063  12.416  1.5017  0.3535 -1.3922
 2058SOL    HW217634   0.943   4.036  12.553  1.0732  0.0574  0.5603
 2059SOL     OW17635   2.866   3.064  17.485 -0.6977  0.2630  0.3585
 2059SOL    HW117636   2.818   2.982  17.495 -1.8039  0.8127 -0.4662
 2059SOL    HW217637   2.804   3.126  17.523 -0.2574  1.2788 -0.6194
 2060SOL     OW17638   0.240   2.469   1.168 -0.1514 -0.3633  0.4943
 2060SOL    HW117639   0.276   2.485   1.080 -3.2978 -0.1495 -0.7550
 2060SOL    HW217640   0.150   2.495   1.147 -0.6990 -1.7604  1.1608
 2061SOL     OW17641   1.239   0.362   3.902  0.2846 -0.4806  0.1990
 2061SOL    HW117642   1.249   0.267   3.914  4.2748 -0.4572 -2.8380
 2061SOL    HW217643   1.204   0.393   3.986  0.1277  0.7588 -0.3242
 2062SOL     OW17644   1.694   2.710  11.460  0.1595 -0.8582  0.1300
 2062SOL    HW117645   1.657   2.650  11.395  0.5685 -0.0442 -0.8469
 2062SOL    HW217646   1.698   2.794  11.413  0.0058 -1.0114 -0.1572
 2063SOL     OW17647   0.963   0.803   8.966  0.2312 -0.3460 -0.4336
 2063SOL    HW117648   0.996   0.877   9.017 -0.9271  0.6731 -1.1784
 2063SOL    HW217649   1.005   0.741   9.027  3.1061  0.1290 -1.9197
 2064SOL     OW17650   2.146   3.462   4.871  0.5896 -0.0635 -0.6158
 2064SOL    HW117651   2.184   3.381   4.837  3.3308  0.9627  0.0004
 2064SOL    HW217652   2.207   3.519   4.824  2.3288 -0.7819  0.7431
 2065SOL     OW17653   0.170   4.421   7.452  0.0505  0.2694  0.0201
 2065SOL    HW117654   0.224   4.386   7.381  1.7025  3.3046 -0.2360
 2065SOL    HW217655   0.113   4.345   7.461  0.8774 -0.3766 -0.1790
 2066SOL     OW17656   2.133   1.173   7.677 -0.1088 -0.6345  0.0213
 2066SOL    HW117657   2.073   1.133   7.613 -0.9581  0.2680  0.2574
 2066SOL    HW217658   2.146   1.102   7.740  1.2211 -1.3718 -1.0824
 2067SOL     OW17659   3.734   0.373   7.697  0.1011  0.1403 -0.2192
 2067SOL    HW117660   3.751   0.288   7.738  1.5982  0.1432 -0.8652
 2067SOL    HW217661   3.763   0.357   7.608  0.3166  0.9107 -0.2847
 2068SOL     OW17662   1.637   2.770   6.937 -0.3716 -0.2290  0.4147
 2068SOL    HW117663   1.732   2.778   6.938 -0.5122  1.4114  0.8088
 2068SOL    HW217664   1.612   2.726   7.019  1.5069 -2.3941 -0.1917
 2069SOL     OW17665   2.780   2.769   5.967  0.2564 -0.1307  0.2842
 2069SOL    HW117666   2.725   2.742   5.893  1.3477  1.9294 -1.2804
 2069SOL    HW217667   2.816   2.851   5.933 -0.8873 -1.0061 -3.1290
 2070SOL     OW17668   0.914   2.237  17.590  0.6676  0.0336  0.2979
 2070SOL    HW117669   0.981   2.229  17.658 -1.0058  0.5419  1.9635
 2070SOL    HW217670   0.874   2.322  17.605  0.3704 -0.0654  0.0653
 2071SOL     OW17671   2.667   2.473  16.885 -0.0384  0.2107  0.0688
 2071SOL    HW117672   2.621   2.472  16.969  0.3104 -1.3965  0.2532
 2071SOL    HW217673   2.757   2.482  16.915  1.3048 -2.7645 -3.0624
 2072SOL     OW17674   2.812   0.066   5.544 -0.0320  0.1104 -0.4012
 2072SOL    HW117675   2.868   0.094   5.472  0.6310  0.0247  0.0831
 2072SOL    HW217676   2.853   0.115   5.615  0.2796  1.5369 -1.5795
 2073SOL     OW17677   2.097   2.309   5.240  0.0221 -0.0514 -0.0015
 2073SOL    HW117678   2.150   2.381   5.206  0.4738 -0.9404 -1.1654
 2073SOL    HW217679   2.011   2.349   5.249  0.3031  0.4949  0.2529
 2074SOL     OW17680   2.668   3.259   8.674  0.6197 -0.3376 -0.6296
 2074SOL    HW117681   2.585   3.227   8.639 -0.0101  0.8833 -0.2451
 2074SOL    HW217682   2.673   3.199   8.748 -0.0528 -0.0671 -0.3580
 2075SOL     OW17683   4.010   2.747  13.519 -0.0106 -0.2543  0.4078
 2075SOL    HW117684   4.104   2.760  13.502 -0.0569  1.2127  1.2875
 2075SOL    HW217685   4.003   2.758  13.614 -1.3622 -1.0925  0.4019
 2076SOL     OW17686   2.120   3.401   6.083 -0.0881 -0.1465 -0.3897
 2076SOL    HW117687   2.030   3.413   6.113 -0.6771 -0.5049 -2.0330
 2076SOL    HW217688   2.172   3.395   6.163 -2.1535 -0.4780  0.9009
 2077SOL     OW17689   1.916   1.606   7.212  0.2240 -0.0374 -0.2165
 2077SOL    HW117690   1.947   1.696   7.203  1.8216 -0.8062 -2.5023
 2077SOL    HW217691   1.934   1.593   7.119 -0.0397 -0.7425 -0.1653
 2078SOL     OW17692   1.817   1.516   8.727 -0.7857  0.0171  0.6230
 2078SOL    HW117693   1.831   1.587   8.790 -1.8516  0.5589  0.2575
 2078SOL    HW217694   1.723   1.533   8.716 -0.5202  1.7752  0.9606
 2079SOL     OW17695   2.300   2.243   4.193  0.5437 -0.0643  0.1447
 2079SOL    HW117696   2.217   2.219   4.233  0.6218  1.6345  1.3276
 2079SOL    HW217697   2.295   2.180   4.121  2.3349  0.1875 -0.2147
 2080SOL     OW17698   1.346   0.740  11.098  0.8095 -0.1751 -0.5453
 2080SOL    HW117699   1.313   0.677  11.162  1.7664 -0.4756 -0.3501
 2080SOL    HW217700   1.318   0.703  11.014  1.6964 -2.6411  0.2406
 2081SOL     OW17701   3.481   3.153   7.324 -0.2083  0.1191  0.2630
 2081SOL    HW117702   3.485   3.089   7.253  1.3119 -0.5226  0.9247
 2081SOL    HW217703   3.495   3.238   7.280 -0.0449  0.1528  0.3788
 2082SOL     OW17704   2.599   0.093   1.973 -0.0355  0.8974  0.3293
 2082SOL    HW117705   2.662   0.024   1.997  2.8356  3.3101 -0.2000
 2082SOL    HW217706   2.620   0.123   1.885  1.5964 -1.5981 -0.1523
 2083SOL     OW17707   2.718   4.247   6.763  0.1720  0.0696 -0.0597
 2083SOL    HW117708   2.674   4.332   6.767 -1.1657 -0.5806 -1.1045
 2083SOL    HW217709   2.670   4.198   6.830 -1.2406  0.8929 -0.4722
 2084SOL     OW17710   4.223   0.487   9.844  0.0133 -0.0367  0.3636
 2084SOL    HW117711   4.227   0.576   9.877  2.7524 -0.8754  2.2775
 2084SOL    HW217712   4.129   0.495   9.827  0.2846 -0.7710 -1.5160
 2085SOL     OW17713   0.911   4.315   2.895 -0.4851 -0.1263 -0.1280
 2085SOL    HW117714   0.862   4.367   2.959  1.1205  1.0984  0.1225
 2085SOL    HW217715   0.865   4.336   2.814 -0.2869  1.3279  0.1241
 2086SOL     OW17716   1.924   3.770  12.663  0.1068  0.0443  0.7253
 2086SOL    HW117717   1.938   3.676  12.673 -0.3291 -0.1576 -0.6424
 2086SOL    HW217718   1.996   3.787  12.603  0.9433 -0.4138  1.5972
 2087SOL     OW17719   3.855   0.456   6.318 -0.8533  0.1839 -0.2883
 2087SOL    HW117720   3.869   0.551   6.322  1.6709 -0.1889 -0.5019
 2087SOL    HW217721   3.812   0.456   6.404  2.6538 -0.7954  1.4700
 2088SOL     OW17722   1.787   4.156  12.196 -0.2935 -0.1000  0.1625
 2088SOL    HW117723   1.719   4.192  12.253 -0.9821 -1.7425  0.3803
 2088SOL    HW217724   1.747   4.077  12.160 -0.4332 -0.2833  0.7220
 2089SOL     OW17725   2.714   1.890  17.627 -0.9666 -0.0762 -0.3621
 2089SOL    HW117726   2.712   1.801  17.663  2.1840 -0.3139 -0.8386
 2089SOL    HW217727   2.663   1.937  17.693  0.6922 -1.9194  2.2111
 2090SOL     OW17728   2.167   3.936   5.699 -0.5495 -0.0352 -0.3661
 2090SOL    HW117729   2.188   3.937   5.792  1.6312 -1.1865 -0.8298
 2090SOL    HW217730   2.159   3.840   5.693 -2.3263 -0.0193  1.5931
 2091SOL     OW17731   4.542   1.464   5.175  0.1450  0.0109 -0.3493
 2091SOL    HW117732   4.535   1.533   5.109 -0.2980 -0.2745 -0.5989
 2091SOL    HW217733   4.459   1.479   5.220 -0.1783  0.6102 -1.1379
 2092SOL     OW17734   2.636   3.008  14.830  0.1063  0.4375  0.5847
 2092SOL    HW117735   2.601   2.923  14.804  2.3288 -0.3673  0.1709
 2092SOL    HW217736   2.699   2.986  14.898  1.4850  1.6488 -0.2886
 2093SOL     OW17737   4.124   1.485  10.056  0.2418  0.1772  0.2014
 2093SOL    HW117738   4.092   1.574  10.064  1.0345  0.2223  2.8854
 2093SOL    HW217739   4.103   1.460   9.966 -0.0047 -0.6045  0.4720
 2094SOL     OW17740   3.025   4.176   6.187  0.0178  0.1341 -0.0742
 2094SOL    HW117741   3.007   4.207   6.275 -0.1130 -0.9456  0.2797
 2094SOL    HW217742   3.116   4.207   6.193  0.6754 -2.0190  1.1233
 2095SOL     OW17743   1.060   0.463   5.798  0.0052  0.0636  0.4312
 2095SOL    HW117744   1.130   0.523   5.824 -0.1972  0.7044 -0.4953
 2095SOL    HW217745   1.082   0.436   5.709  0.1822 -0.2382  0.5665
 2096SOL     OW17746   1.743   3.817   2.399 -0.3137  0.1610  0.0395
 2096SOL    HW117747   1.780   3.735   2.366 -0.2283  0.7150 -1.2611
 2096SOL    HW217748   1.649   3.816   2.378 -0.1698  2.0667 -0.6728
 2097SOL     OW17749   3.900   3.927   9.325  0.2842 -0.3128 -0.0548
 2097SOL    HW117750   3.994   3.938   9.338  0.7350 -2.1889 -1.8122
 2097SOL    HW217751   3.864   3.961   9.407  1.8388  0.0840  0.4772
 2098SOL     OW17752   2.298   0.582   7.904 -0.3307  0.2099  0.1805
 2098SOL    HW117753   2.358   0.631   7.960 -0.8230  0.0759  0.8131
 2098SOL    HW217754   2.213   0.609   7.938  0.1138  0.0341  1.4255
 2099SOL     OW17755   3.768   1.496   1.919  0.1643 -0.0862 -0.0730
 2099SOL    HW117756   3.834   1.509   1.987 -2.3093  1.1679  2.0924
 2099SOL    HW217757   3.829   1.529   1.853 -1.7299 -0.3640 -1.9619
 2100SOL     OW17758   3.138   3.845   8.453 -0.7028  0.6762 -0.0019
 2100SOL    HW117759   3.060   3.871   8.404 -1.2200  1.5609  1.3031
 2100SOL    HW217760   3.181   3.928   8.472  0.1409 -0.1050  1.4953
 2101SOL     OW17761   4.711   2.280   0.628 -0.0664  0.2580  0.7183
 2101SOL    HW117762   4.684   2.355   0.682  1.0944  3.5548 -3.2726
 2101SOL    HW217763   0.027   2.320   0.551  0.2391 -0.6773  0.3958
 2102SOL     OW17764   1.990   1.894   7.712  0.1419  0.0337  0.3158
 2102SOL    HW117765   1.909   1.944   7.717  0.1426  0.0799 -0.1092
 2102SOL    HW217766   2.024   1.910   7.800  0.9946 -0.4964  0.0843
 2103SOL     OW17767   3.146   2.420   0.773  0.2994  0.1538 -0.1638
 2103SOL    HW117768   3.113   2.480   0.840 -0.4508 -2.7471  2.0406
 2103SOL    HW217769   3.235   2.454   0.771  0.1193  0.5376 -1.4470
 2104SOL     OW17770   2.381   1.906   6.127 -0.0534 -0.3662 -0.6079
 2104SOL    HW117771   2.408   1.819   6.098 -1.9996 -1.3396  0.4774
 2104SOL    HW217772   2.345   1.884   6.213  1.0962 -3.3269 -0.8817
 2105SOL     OW17773   3.323   4.718   3.296 -0.0950  0.2336  0.1028
 2105SOL    HW117774   3.381   4.642   3.304 -0.7467 -0.2512  0.2093
 2105SOL    HW217775   3.373   0.074   3.312 -1.9030  1.3098  0.3176
 2106SOL     OW17776   1.597   3.518   3.347  0.5669  0.3804  0.0422
 2106SOL    HW117777   1.603   3.455   3.275  0.7498 -0.5436  0.8679
 2106SOL    HW217778   1.653   3.480   3.414 -0.4299 -0.2291  0.5374
 2107SOL     OW17779   4.228   2.135   6.680 -0.2252 -0.1405  0.5122
 2107SOL    HW117780   4.238   2.065   6.745  1.9452  0.1597  0.4872
 2107SOL    HW217781   4.285   2.096   6.614 -0.3438 -0.4436  0.5905
 2108SOL     OW17782   2.315   4.342   1.635 -0.4107  0.5913 -0.1128
 2108SOL    HW117783   2.358   4.309   1.714 -0.8861 -1.2640 -0.6249
 2108SOL    HW217784   2.278   4.273   1.580  0.8707 -1.0294  1.0950
 2109SOL     OW17785   0.341   2.240  17.662 -0.3259 -0.2114 -0.0976
 2109SOL    HW117786   0.290   2.267   0.042  2.2514 -0.1633  1.6407
 2109SOL    HW217787   0.281   2.188  17.609  1.9125 -0.5181 -2.3560
 2110SOL     OW17788   1.315   1.787   1.899 -0.0404  0.1877  0.5387
 2110SOL    HW117789   1.286   1.781   1.808  0.3991  0.1847  0.3993
 2110SOL    HW217790   1.297   1.699   1.931  0.8481  0.1885  1.0289
 2111SOL     OW17791   2.968   1.058   6.619  0.0935 -0.0603  0.2798
 2111SOL    HW117792   2.982   1.102   6.536  0.5266  0.5671  0.6832
 2111SOL    HW217793   2.879   1.023   6.620 -0.4123  1.2364  1.3212
 2112SOL     OW17794   4.101   4.128   5.005 -0.1903 -0.0878 -0.0656
 2112SOL    HW117795   4.140   4.137   5.092 -0.3564 -0.8395  0.0894
 2112SOL    HW217796   4.075   4.218   4.988  1.1259  0.2997 -0.0107
 2113SOL     OW17797   1.408   0.397   3.670 -0.0991  0.3202 -0.4739
 2113SOL    HW117798   1.348   0.393   3.744  1.7176 -0.9515  0.9126
 2113SOL    HW217799   1.405   0.305   3.644 -3.6895  0.8574 -1.9124
 2114SOL     OW17800   1.626   3.209   5.269 -0.4885 -0.3586 -0.3681
 2114SOL    HW117801   1.600   3.155   5.194 -0.8452 -0.3633 -0.2450
 2114SOL    HW217802   1.689   3.269   5.230  0.5601 -0.9322  0.4434
 2115SOL     OW17803   3.322   1.374  17.487 -0.9170  0.4204 -0.1798
 2115SOL    HW117804   3.335   1.287  17.524  0.5630  0.8056  0.1733
 2115SOL    HW217805   3.260   1.408  17.551  0.2428  1.6712  0.2716
 2116SOL     OW17806   2.264   3.351   8.600  0.2592 -0.1391  0.0306
 2116SOL    HW117807   2.169   3.364   8.593  0.5602  0.7867 -2.3651
 2116SOL    HW217808   2.280   3.381   8.690 -1.2825  0.3313  0.1488
 2117SOL     OW17809   2.931   4.243  13.444 -0.1744  0.1781  0.1068
 2117SOL    HW117810   2.955   4.274  13.531 -0.3722 -0.0088  0.2270
 2117SOL    HW217811   2.974   4.158  13.444  1.0000  0.7587 -0.2339
 2118SOL     OW17812   2.148   2.675   7.485 -0.3550  0.5383 -0.2595
 2118SOL    HW117813   2.232   2.632   7.467 -0.1625  0.5306  0.6819
 2118SOL    HW217814   2.091   2.599   7.494  0.3789 -0.1460 -1.3597
 2119SOL     OW17815   1.252   2.629   4.258  0.1333 -0.0659 -0.4626
 2119SOL    HW117816   1.320   2.564   4.247  0.0574 -0.0453 -1.0157
 2119SOL    HW217817   1.180   2.581   4.217 -0.5764  0.9523 -0.4187
 2120SOL     OW17818   0.316   1.979   4.731  0.2459 -0.1331 -0.3091
 2120SOL    HW117819   0.299   1.974   4.637 -1.8515 -0.5546  0.0934
 2120SOL    HW217820   0.295   2.072   4.741 -1.0608 -0.2047 -2.3210
 2121SOL     OW17821   0.756   4.602   6.155  0.1217 -0.1424  0.2744
 2121SOL    HW117822   0.789   4.616   6.243  3.6916 -0.1488 -1.0563
 2121SOL    HW217823   0.793   4.515   6.138 -0.2810 -0.1873 -0.3563
 2122SOL     OW17824   2.325   1.141   9.347  0.2399 -0.1402 -0.6991
 2122SOL    HW117825   2.418   1.138   9.322  0.3197 -0.7964 -0.3071
 2122SOL    HW217826   2.345   1.125   9.439  1.4308  0.9380 -0.7761
 2123SOL     OW17827   0.076   1.266   2.176  0.1559  0.7756 -0.2678
 2123SOL    HW117828   0.147   1.239   2.234  0.2442  1.1616 -0.1943
 2123SOL    HW217829   0.073   1.183   2.128  1.2225  1.4416 -1.4849
 2124SOL     OW17830   2.243   4.583   6.869 -0.7374 -0.7332  0.3270
 2124SOL    HW117831   2.228   4.653   6.932  2.6418  0.4830 -0.2354
 2124SOL    HW217832   2.153   4.557   6.851 -1.3712  0.1351  2.2538
 2125SOL     OW17833   4.084   0.738   8.140  0.4736  0.0807 -0.0496
 2125SOL    HW117834   4.003   0.709   8.181  1.4325 -0.3123  1.5612
 2125SOL    HW217835   4.129   0.778   8.214  1.4795 -0.3244 -0.4386
 2126SOL     OW17836   2.246   4.681   6.266  0.6581 -0.1268  0.2815
 2126SOL    HW117837   2.299   4.602   6.276 -1.6227 -1.3424  2.6544
 2126SOL    HW217838   2.155   4.651   6.272  1.2697 -2.0224  0.1664
 2127SOL     OW17839   1.233   3.949  11.485  0.2060  0.3930 -0.1341
 2127SOL    HW117840   1.286   4.028  11.474 -0.8600  0.8387 -2.0626
 2127SOL    HW217841   1.190   3.938  11.400 -1.7544  1.2732  0.7709
 2128SOL     OW17842   3.591   0.799   4.698  0.2145 -0.1485 -0.4264
 2128SOL    HW117843   3.681   0.816   4.726 -0.1791  0.0625  0.7037
 2128SOL    HW217844   3.546   0.877   4.731  0.8891 -0.0156  0.1779
 2129SOL     OW17845   4.596   2.281   3.973 -0.0139 -0.4230  0.3647
 2129SOL    HW117846   4.566   2.370   3.988  0.2761 -0.3420  0.4604
 2129SOL    HW217847   4.512   2.240   3.952 -0.2829 -0.9603  2.4964
 2130SOL     OW17848   3.052   1.927   3.168 -0.5330 -0.2310 -0.0591
 2130SOL    HW117849   3.121   1.910   3.104 -0.5430 -0.6229  0.0333
 2130SOL    HW217850   2.985   1.963   3.110 -0.2210 -1.0843 -0.9431
 2131SOL     OW17851   0.935   2.034   5.907 -0.3589 -0.1042 -0.2293
 2131SOL    HW117852   1.000   1.990   5.853 -2.5489 -0.7611 -2.2991
 2131SOL    HW217853   0.916   1.958   5.962  0.6080 -1.2555 -1.4774
 2132SOL     OW17854   0.453   3.879  13.080  0.9544  0.0942 -0.4193
 2132SOL    HW117855   0.532   3.929  13.099  0.5870  0.0989  1.1041
 2132SOL    HW217856   0.488   3.794  13.052 -0.0327 -1.2266  2.2981
 2133SOL     OW17857   4.181   2.991   6.380 -0.4656  0.2604  0.3961
 2133SOL    HW117858   4.176   2.905   6.422  1.6397 -1.2756 -2.4682
 2133SOL    HW217859   4.205   3.052   6.450  0.0034 -0.2178  0.6545
 2134SOL     OW17860   2.676   0.384   8.829  0.3835  0.5613 -0.1327
 2134SOL    HW117861   2.621   0.330   8.772 -0.7393  2.2938 -0.7010
 2134SOL    HW217862   2.761   0.340   8.818  0.4130  0.4220  0.7049
 2135SOL     OW17863   4.561   2.352   0.291 -1.1901  0.2657 -0.3315
 2135SOL    HW117864   4.532   2.400   0.213 -1.4460  1.4442  0.4850
 2135SOL    HW217865   4.586   2.261   0.276 -0.7035  0.4022 -0.3426
 2136SOL     OW17866   2.725   0.056  16.904 -0.2457 -0.0383 -0.2684
 2136SOL    HW117867   2.787   0.047  16.976  0.9233 -2.7306 -1.5845
 2136SOL    HW217868   2.658   0.107  16.948  1.7946  1.8425  0.6568
 2137SOL     OW17869   3.481   3.332   5.956 -0.1311 -0.3633  0.5683
 2137SOL    HW117870   3.532   3.363   6.030 -4.0142 -0.2058  3.1874
 2137SOL    HW217871   3.406   3.291   5.999 -0.0650 -0.4130  0.6358
 2138SOL     OW17872   0.831   4.549   5.708  0.6282  0.0766  0.1322
 2138SOL    HW117873   0.743   4.585   5.698  0.5752 -0.0349  0.2079
 2138SOL    HW217874   0.859   4.563   5.617  0.6523 -3.1056 -0.3224
 2139SOL     OW17875   0.283   1.513   7.697  0.2725 -0.1153  0.2690
 2139SOL    HW117876   0.230   1.483   7.771  0.0410  1.9989  0.9487
 2139SOL    HW217877   0.239   1.508   7.612  0.3603  0.3559  0.1953
 2140SOL     OW17878   0.129   3.670   6.012 -0.3943 -0.1313  0.0872
 2140SOL    HW117879   0.048   3.623   5.993 -0.0828 -0.8948  0.6714
 2140SOL    HW217880   0.101   3.723   6.087 -0.9705 -0.1933 -0.0808
 2141SOL     OW17881   0.022   1.701   3.609 -0.5320  0.0793 -0.4265
 2141SOL    HW117882   4.654   1.673   3.617 -0.1845 -1.1266 -0.5798
 2141SOL    HW217883   0.074   1.621   3.616 -0.0527  0.4298  0.0092
 2142SOL     OW17884   1.693   1.176  14.272 -0.2230  0.0511  0.1700
 2142SOL    HW117885   1.724   1.174  14.182  2.2707  1.5770  0.9947
 2142SOL    HW217886   1.782   1.173  14.307  0.7083  0.2810 -2.2106
 2143SOL     OW17887   4.073   2.699   7.196 -0.2233 -0.2243  0.4081
 2143SOL    HW117888   3.983   2.674   7.172 -0.6898  2.3513 -0.5479
 2143SOL    HW217889   4.100   2.626   7.252 -4.4688 -1.3534  0.9858
 2144SOL     OW17890   2.424   4.080   7.650 -0.7652 -0.1102 -0.0786
 2144SOL    HW117891   2.394   4.002   7.695  0.3575 -1.0290 -0.9162
 2144SOL    HW217892   2.345   4.107   7.604 -1.8056  1.4810  2.6861
 2145SOL     OW17893   1.861   2.900   0.732  0.6277 -0.0829  0.2158
 2145SOL    HW117894   1.929   2.965   0.746  0.0598  0.0892  2.2325
 2145SOL    HW217895   1.885   2.828   0.790  0.8187 -0.2841 -0.1197
 2146SOL     OW17896   3.863   3.998   4.417 -0.7159  0.1948  0.6040
 2146SOL    HW117897   3.901   3.967   4.335  0.4292  1.6522  0.5780
 2146SOL    HW217898   3.936   3.969   4.472 -1.0566 -0.5283  0.6686
 2147SOL     OW17899   4.517   0.347   9.805 -0.5098  0.0422  0.1126
 2147SOL    HW117900   4.491   0.276   9.747 -0.1197  0.7627 -0.9313
 2147SOL    HW217901   4.582   0.296   9.854 -0.0836 -0.7235 -1.2578
 2148SOL     OW17902   3.957   2.413   4.446 -0.5164 -0.3673  0.4433
 2148SOL    HW117903   4.044   2.446   4.468 -0.4132 -0.1636 -0.2951
 2148SOL    HW217904   3.964   2.412   4.351 -1.2678  4.8936  0.3472
 2149SOL     OW17905   4.143   0.098   2.862 -0.4817  0.0694 -0.1074
 2149SOL    HW117906   4.113   0.111   2.772  0.1620 -1.0312 -0.4873
 2149SOL    HW217907   4.237   0.091   2.844 -0.5133  1.0179 -0.6203
 2150SOL     OW17908   0.108   1.746   5.798  0.0648 -0.0342 -0.0031
 2150SOL    HW117909   0.118   1.782   5.886  0.0679 -0.3153  0.1106
 2150SOL    HW217910   0.013   1.746   5.793  0.0598 -0.9010  0.1349
 2151SOL     OW17911   3.116   3.355   2.251  0.6594 -0.3279 -0.3223
 2151SOL    HW117912   3.116   3.265   2.284  1.2614  0.2671  1.3079
 2151SOL    HW217913   3.034   3.394   2.281  2.3603  3.2011 -0.2225
 2152SOL     OW17914   2.879   0.170   0.246  0.5404 -0.1674 -0.2280
 2152SOL    HW117915   2.913   0.255   0.274  2.2376 -0.0981 -2.5045
 2152SOL    HW217916   2.939   0.110   0.290  0.5097  0.0654  0.1302
 2153SOL     OW17917   0.375   0.412  17.169  0.1533  0.4681 -0.6786
 2153SOL    HW117918   0.445   0.346  17.173 -0.7499 -0.3644  1.9601
 2153SOL    HW217919   0.406   0.475  17.234 -0.5668 -1.2560  1.3594
 2154SOL     OW17920   1.803   3.218   2.996 -0.4115  0.3943  0.6179
 2154SOL    HW117921   1.884   3.187   3.037 -0.6127  1.6395  1.9540
 2154SOL    HW217922   1.752   3.138   3.005 -0.6326  0.4062 -0.5182
 2155SOL     OW17923   0.287   2.372  14.228  0.1828 -0.3160 -0.0912
 2155SOL    HW117924   0.222   2.301  14.220  0.7126 -0.8186  0.0976
 2155SOL    HW217925   0.341   2.336  14.297 -0.9433 -1.8473 -0.0058
 2156SOL     OW17926   4.397   2.130   4.289  0.5070 -0.3449  0.2539
 2156SOL    HW117927   4.462   2.060   4.279  2.3300  1.7158 -2.4413
 2156SOL    HW217928   4.444   2.208   4.316 -0.1887 -0.2398  1.1485
 2157SOL     OW17929   2.435   1.433   1.149 -0.6453 -0.0554  0.2667
 2157SOL    HW117930   2.498   1.450   1.219 -2.1208  1.0469  1.3121
 2157SOL    HW217931   2.463   1.494   1.082 -0.0243 -1.1594 -0.4842
 2158SOL     OW17932   3.749   3.985   6.262 -0.5107 -0.3417  0.2965
 2158SOL    HW117933   3.809   3.949   6.326 -0.5998 -0.9608  0.0300
 2158SOL    HW217934   3.673   3.926   6.262  0.2628 -1.3338 -0.7330
 2159SOL     OW17935   3.349   0.781  10.692  0.1018 -0.2330 -0.2581
 2159SOL    HW117936   3.424   0.831  10.723 -0.2759  0.3715 -0.3188
 2159SOL    HW217937   3.373   0.689  10.682 -0.5034 -0.6219  1.7464
 2160SOL     OW17938   2.064   2.109   8.827  0.0717 -0.1109 -0.7290
 2160SOL    HW117939   2.022   2.025   8.808  0.8670 -0.4696 -0.8987
 2160SOL    HW217940   2.063   2.114   8.922 -0.1656 -0.8740 -0.6888
 2161SOL     OW17941   1.147   4.072  11.005 -0.1550 -0.3302  0.2994
 2161SOL    HW117942   1.201   4.151  10.997  1.0138 -1.1125  0.4456
 2161SOL    HW217943   1.149   4.026  10.922  1.9693 -2.6554  1.6298
 2162SOL     OW17944   3.463   0.672  16.515 -0.0306 -0.4213 -0.0849
 2162SOL    HW117945   3.538   0.624  16.550 -1.3779 -0.4467  2.7790
 2162SOL    HW217946   3.435   0.730  16.586  1.0316 -0.1388  0.1041
 2163SOL     OW17947   4.312   1.489   4.512 -0.7501  0.2753  0.1376
 2163SOL    HW117948   4.339   1.443   4.433  0.7611  0.1857  0.6990
 2163SOL    HW217949   4.317   1.580   4.486  1.4743 -0.7702 -3.0590
 2164SOL     OW17950   2.854   1.824   3.315 -0.1003  0.7632 -1.1060
 2164SOL    HW117951   2.885   1.816   3.405 -0.4511  0.2480 -1.0275
 2164SOL    HW217952   2.932   1.870   3.285  1.0203 -0.5559 -0.2181
 2165SOL     OW17953   3.514   1.627   6.490  0.2518 -0.4584 -0.1501
 2165SOL    HW117954   3.477   1.566   6.554  1.7200 -0.5567  0.6232
 2165SOL    HW217955   3.608   1.627   6.510  0.3650 -0.8285 -0.7061
 2166SOL     OW17956   3.639   2.700  15.798 -0.5005  0.0706 -0.5000
 2166SOL    HW117957   3.583   2.764  15.753 -3.2764  0.3503  3.3875
 2166SOL    HW217958   3.658   2.754  15.874 -1.7039  2.1623 -1.6933
 2167SOL     OW17959   3.035   3.082   6.240 -0.1494 -0.4542 -0.2486
 2167SOL    HW117960   3.059   3.171   6.212  2.8585 -1.8115 -2.0307
 2167SOL    HW217961   3.066   3.070   6.329 -0.9798  0.1338  0.1182
 2168SOL     OW17962   1.500   1.427   9.580  0.2139 -0.1863 -0.5738
 2168SOL    HW117963   1.447   1.505   9.600  0.9366  0.0512  0.4122
 2168SOL    HW217964   1.526   1.399   9.668  2.1955 -1.2173 -1.5018
 2169SOL     OW17965   3.989   1.268   9.497 -0.7241  0.0353  0.3747
 2169SOL    HW117966   3.995   1.212   9.574 -1.0434  1.7891  1.6623
 2169SOL    HW217967   3.968   1.198   9.435 -1.5043  0.4544  0.1654
 2170SOL     OW17968   3.193   0.130   3.565  0.0470 -0.3789 -0.0930
 2170SOL    HW117969   3.149   0.070   3.505 -0.7712 -0.0360  0.1558
 2170SOL    HW217970   3.207   0.208   3.512 -1.3402 -0.8759 -1.1786
 2171SOL     OW17971   1.105   0.042   2.532  0.0664  0.0772  0.5539
 2171SOL    HW117972   1.145   4.681   2.512  1.5519  1.1193 -0.8028
 2171SOL    HW217973   1.159   0.066   2.607 -1.1774 -1.5213  1.9802
 2172SOL     OW17974   3.182   4.673   2.388  0.2832  0.4825 -0.1572
 2172SOL    HW117975   3.274   4.666   2.365  0.3347  0.6354 -0.0034
 2172SOL    HW217976   3.139   4.684   2.303 -0.9709 -1.4837  0.2400
 2173SOL     OW17977   0.079   4.434   2.606  0.4708  0.5470 -0.1076
 2173SOL    HW117978   0.166   4.421   2.570  0.0242  0.1199 -1.0380
 2173SOL    HW217979   0.103   4.454   2.696 -0.7304 -2.2736  0.8175
 2174SOL     OW17980   2.423   3.564   2.385 -0.4308  0.1198  0.0229
 2174SOL    HW117981   2.379   3.487   2.350  0.8485 -0.2956 -0.7004
 2174SOL    HW217982   2.514   3.532   2.384 -0.6501 -0.4774 -0.5923
 2175SOL     OW17983   3.711   3.910   4.750  0.2095 -0.6326  0.7736
 2175SOL    HW117984   3.640   3.900   4.686 -0.0576  1.4648  0.7527
 2175SOL    HW217985   3.671   3.890   4.835 -0.7179  0.6153  0.6354
 2176SOL     OW17986   1.837   4.090   7.528 -0.5222 -0.1062  0.3786
 2176SOL    HW117987   1.841   3.995   7.530  0.0298 -0.0485  2.4612
 2176SOL    HW217988   1.742   4.104   7.524 -0.9499 -2.3646  2.4022
 2177SOL     OW17989   3.362   2.945   5.208  0.3286  0.1231  0.5791
 2177SOL    HW117990   3.413   2.902   5.140  1.6939 -1.5461  2.6320
 2177SOL    HW217991   3.419   2.937   5.285  1.2700  0.9185 -0.0380
 2178SOL     OW17992   0.189   4.610   7.255 -0.2352 -0.4185 -0.3306
 2178SOL    HW117993   0.163   4.585   7.344  1.7520 -0.4528  0.2353
 2178SOL    HW217994   0.221   4.531   7.212 -0.0533  0.6023 -2.0857
 2179SOL     OW17995   4.679   1.741   6.399  0.4346 -0.6808 -0.1578
 2179SOL    HW117996   4.715   1.778   6.319  0.0105 -0.7322 -0.3741
 2179SOL    HW217997   0.000   1.778   6.475  0.9477  0.2960 -0.9397
 2180SOL     OW17998   0.734   4.268   4.653 -0.0496  0.1823  0.1848
 2180SOL    HW117999   0.790   4.191   4.665  0.1074 -0.2314 -3.1275
 2180SOL    HW218000   0.693   4.278   4.738  2.4811  0.6712  1.3630
 2181SOL     OW18001   2.812   4.368   5.732  0.3264 -0.0508  0.3088
 2181SOL    HW118002   2.744   4.305   5.754  0.5059 -0.7586 -1.1808
 2181SOL    HW218003   2.850   4.384   5.818  1.1933 -1.0307  0.1079
 2182SOL     OW18004   4.419   2.797   4.700 -0.0789 -0.2654 -0.2391
 2182SOL    HW118005   4.446   2.711   4.733  0.8602  0.8288  1.8431
 2182SOL    HW218006   4.415   2.841   4.784  1.3449  0.1079 -0.3537
 2183SOL     OW18007   3.364   1.147   2.109 -0.1086  0.0544 -0.3119
 2183SOL    HW118008   3.409   1.072   2.071  0.1357  0.7860 -1.4638
 2183SOL    HW218009   3.343   1.098   2.188  0.4710 -0.4341 -0.4633
 2184SOL     OW18010   3.372   4.006  16.184 -0.4760 -0.4892 -0.2315
 2184SOL    HW118011   3.370   3.924  16.234  1.3376 -0.3285  0.1016
 2184SOL    HW218012   3.301   4.052  16.229  0.0043  1.1159 -1.1170
 2185SOL     OW18013   0.132   4.085   3.997 -0.6128 -0.4125  0.2642
 2185SOL    HW118014   0.200   4.052   4.056 -1.0065  1.0273  1.5509
 2185SOL    HW218015   0.195   4.107   3.928 -3.6397 -0.3734 -2.4734
 2186SOL     OW18016   1.904   0.456   2.168 -0.0649  0.7456 -0.0148
 2186SOL    HW118017   1.944   0.539   2.144  1.4481  0.1614  0.4667
 2186SOL    HW218018   1.927   0.401   2.093  0.7722 -1.0587  1.5386
 2187SOL     OW18019   0.778   3.699   6.059 -0.2787  0.5011 -0.1984
 2187SOL    HW118020   0.749   3.652   5.980  1.4566  0.1716 -0.6475
 2187SOL    HW218021   0.714   3.669   6.123  1.3329 -1.3883  0.5433
 2188SOL     OW18022   2.448   3.827   8.769  0.2222  0.2914 -0.4810
 2188SOL    HW118023   2.383   3.893   8.793  0.3382 -0.4504  1.9658
 2188SOL    HW218024   2.504   3.861   8.700 -0.2683  0.4031 -0.8255
 2189SOL     OW18025   1.612   0.958  12.459  0.1793  0.2409  0.1029
 2189SOL    HW118026   1.534   1.013  12.454  1.3606  2.0291  1.2856
 2189SOL    HW218027   1.660   0.995  12.385  0.6801 -1.4678 -0.4230
 2190SOL     OW18028   0.363   4.412   2.478 -0.0011 -0.2293  0.0558
 2190SOL    HW118029   0.421   4.354   2.528 -0.3962 -0.0111  0.7663
 2190SOL    HW218030   0.421   4.455   2.416  0.8405  0.6462  1.4742
 2191SOL     OW18031   1.588   4.471   2.671 -0.2041  0.1167  0.0782
 2191SOL    HW118032   1.578   4.557   2.713  2.7704  0.0305  1.0001
 2191SOL    HW218033   1.622   4.494   2.584 -1.8892 -1.7789 -1.0804
 2192SOL     OW18034   1.371   3.122   6.578 -0.3200  0.8263 -0.4389
 2192SOL    HW118035   1.321   3.145   6.656 -0.9735 -0.4229 -0.4999
 2192SOL    HW218036   1.302   3.066   6.543  1.1401 -1.2499  0.0128
 2193SOL     OW18037   0.349   1.220   4.110  0.6423 -0.2292  0.9271
 2193SOL    HW118038   0.301   1.211   4.192 -0.6547 -0.6532  0.1133
 2193SOL    HW218039   0.408   1.145   4.107 -1.6797 -2.0005 -0.3753
 2194SOL     OW18040   3.575   1.844   1.942 -0.1499  0.1366  0.4859
 2194SOL    HW118041   3.548   1.846   2.034 -1.0592 -0.3726  0.2238
 2194SOL    HW218042   3.501   1.894   1.910 -0.2682 -0.5714 -0.3649
 2195SOL     OW18043   2.708   2.941   0.593 -0.5650  0.0548  0.1069
 2195SOL    HW118044   2.622   2.902   0.604 -0.6352 -0.3259 -1.7430
 2195SOL    HW218045   2.683   3.029   0.563 -0.1155 -0.6293 -2.2527
 2196SOL     OW18046   2.668   2.262   2.942 -0.3159 -0.2474 -0.1770
 2196SOL    HW118047   2.598   2.231   2.884 -0.6141 -0.4724  0.2955
 2196SOL    HW218048   2.707   2.329   2.887  1.7435 -1.0594  0.3168
 2197SOL     OW18049   4.463   0.739  10.946 -0.6560  0.6341 -0.2004
 2197SOL    HW118050   4.397   0.786  10.997 -0.6523 -0.3012  0.6691
 2197SOL    HW218051   4.533   0.805  10.945  0.6578 -0.7834 -0.5874
 2198SOL     OW18052   2.450   0.231   2.581  0.0338 -0.2486 -0.4363
 2198SOL    HW118053   2.465   0.149   2.627  0.6690  0.5493  0.7622
 2198SOL    HW218054   2.538   0.237   2.543  0.7794 -0.0239  1.3432
 2199SOL     OW18055   4.271   0.432  11.869  0.4649  0.2678 -0.0512
 2199SOL    HW118056   4.347   0.403  11.918 -0.4120  0.9011  1.6890
 2199SOL    HW218057   4.203   0.417  11.935  0.2874  1.6389  0.0874
 2200SOL     OW18058   1.922   1.590   4.635 -0.0175 -0.0753 -0.2057
 2200SOL    HW118059   1.943   1.680   4.662 -0.1226 -0.8504  2.4350
 2200SOL    HW218060   1.884   1.539   4.706  0.0213 -0.5879 -0.5533
 2201SOL     OW18061   0.435   2.117   2.267  0.1015 -0.4820  0.4394
 2201SOL    HW118062   0.386   2.061   2.206  0.9539 -0.9083  0.1443
 2201SOL    HW218063   0.446   2.194   2.211  0.6572 -0.0973  1.0733
 2202SOL     OW18064   4.356   1.362   0.515 -0.2507 -0.3070  0.0451
 2202SOL    HW118065   4.448   1.364   0.488 -0.0309 -1.0066  0.7476
 2202SOL    HW218066   4.358   1.421   0.589  0.0121 -1.2821  0.8177
 2203SOL     OW18067   0.120   2.901   3.821 -0.3671 -0.6220 -0.1557
 2203SOL    HW118068   0.120   2.995   3.839 -0.5475 -0.7651  0.6111
 2203SOL    HW218069   0.041   2.881   3.872 -0.0528 -2.3188 -0.3238
 2204SOL     OW18070   0.812   0.858   3.496 -0.2740  0.3747  0.2279
 2204SOL    HW118071   0.822   0.904   3.579 -1.0108 -1.5207  1.3485
 2204SOL    HW218072   0.887   0.896   3.449 -0.6168  2.1911  1.1634
 2205SOL     OW18073   3.726   1.206   8.078  0.3613 -0.1872  0.8720
 2205SOL    HW118074   3.750   1.117   8.050 -1.5662 -0.4397  0.0420
 2205SOL    HW218075   3.663   1.175   8.143 -0.5652  1.9122  0.9595
 2206SOL     OW18076   0.030   1.552   1.442  0.5523 -0.0255 -1.0415
 2206SOL    HW118077   4.675   1.600   1.419  0.0205 -0.9188 -1.0635
 2206SOL    HW218078   0.065   1.619   1.501  1.9515 -0.3580 -1.4775
 2207SOL     OW18079   0.455   0.310   8.976 -0.3721  0.0749 -0.2315
 2207SOL    HW118080   0.390   0.336   9.041 -1.6652 -0.4957 -1.2976
 2207SOL    HW218081   0.402   0.301   8.897  0.2179 -0.9439 -0.5214
 2208SOL     OW18082   0.738   0.275   4.668  0.2759  1.1031  0.1271
 2208SOL    HW118083   0.826   0.265   4.704  0.0838  2.1902  0.9149
 2208SOL    HW218084   0.690   0.206   4.713  0.0044  0.9908 -0.3364
 2209SOL     OW18085   1.292   2.885   1.934 -0.4423 -0.5825 -0.5761
 2209SOL    HW118086   1.240   2.829   1.991  0.5967 -1.9475 -0.9587
 2209SOL    HW218087   1.275   2.859   1.843  1.0130 -0.4390 -0.8955
 2210SOL     OW18088   2.183   1.692   3.347  0.2632  0.2981  0.0270
 2210SOL    HW118089   2.198   1.785   3.361  0.2728  0.1993  0.6805
 2210SOL    HW218090   2.265   1.659   3.385 -1.2557 -0.4347  2.6792
 2211SOL     OW18091   4.540   2.220  17.558  0.1597  0.1993 -0.1916
 2211SOL    HW118092   4.496   2.157  17.615 -0.5915  1.9169  1.1046
 2211SOL    HW218093   4.617   2.244  17.610 -0.2224  0.6522  0.1728
 2212SOL     OW18094   0.100   0.338  12.217  0.3390 -0.8724 -0.4727
 2212SOL    HW118095   0.135   0.323  12.305 -2.2621 -0.4694  0.6334
 2212SOL    HW218096   0.174   0.313  12.163 -0.2528 -0.7075 -1.3571
 2213SOL     OW18097   4.523   0.811  11.354 -0.0770  0.2191  0.7909
 2213SOL    HW118098   4.591   0.831  11.289 -1.2620  0.7692 -0.2720
 2213SOL    HW218099   4.555   0.724  11.379  0.8729 -0.2317 -1.9180
 2214SOL     OW18100   0.033   0.314   5.565 -0.0246 -0.1181  0.2910
 2214SOL    HW118101   4.680   0.355   5.606 -0.5591 -1.2279  0.3821
 2214SOL    HW218102   0.016   0.221   5.574  1.3078 -0.1896  2.0004
 2215SOL     OW18103   2.805   3.094   2.726 -0.1581 -0.2461  0.2172
 2215SOL    HW118104   2.861   3.066   2.799 -2.5176 -0.3622  2.0199
 2215SOL    HW218105   2.783   3.007   2.691  1.0788 -0.5496  0.1936
 2216SOL     OW18106   3.458   1.482   4.968 -0.4448 -0.0612  0.0067
 2216SOL    HW118107   3.455   1.573   4.995 -1.8297 -0.4404  1.1557
 2216SOL    HW218108   3.387   1.481   4.903 -0.1373  0.5526 -0.3321
 2217SOL     OW18109   4.681   1.162   4.380 -0.2814 -0.5011 -0.0361
 2217SOL    HW118110   4.722   1.098   4.438  0.8127 -0.9549 -1.3153
 2217SOL    HW218111   4.592   1.138   4.403 -0.3346 -1.1880 -0.9811
 2218SOL     OW18112   3.738   4.679   7.945  0.4612  0.2094 -0.5967
 2218SOL    HW118113   3.791   4.616   7.993  0.6400  0.2272 -0.7691
 2218SOL    HW218114   3.654   4.642   7.971  1.1288  0.1689  1.4987
 2219SOL     OW18115   0.468   1.773   3.734 -0.1688 -0.1901 -0.0310
 2219SOL    HW118116   0.524   1.714   3.684  1.0409 -0.6018  1.8039
 2219SOL    HW218117   0.461   1.845   3.670 -0.2284  0.9983  1.3152
 2220SOL     OW18118   0.340   4.204  14.075 -0.4032  0.2790  0.0205
 2220SOL    HW118119   0.298   4.243  13.999  0.6251  0.5173 -0.4184
 2220SOL    HW218120   0.304   4.242  14.155 -1.2423 -0.4135 -0.0183
 2221SOL     OW18121   4.232   0.692   5.430  0.1693 -0.0001  0.7013
 2221SOL    HW118122   4.243   0.703   5.525  1.8430 -0.7683  0.5990
 2221SOL    HW218123   4.324   0.697   5.408  0.3086 -3.6726  0.4674
 2222SOL     OW18124   3.223   4.631  10.834  0.3160 -0.6783 -0.1094
 2222SOL    HW118125   3.286   4.632  10.762 -0.3882  1.2537 -0.6984
 2222SOL    HW218126   3.209   4.536  10.832  0.8220 -0.6900 -3.3575
 2223SOL     OW18127   0.843   3.360  17.081 -0.0343 -0.1161 -0.6781
 2223SOL    HW118128   0.892   3.431  17.122  2.2077 -1.3069 -1.2914
 2223SOL    HW218129   0.785   3.345  17.156  0.4136  0.3245 -0.2480
 2224SOL     OW18130   2.083   2.419   5.751 -0.1221  0.3720 -0.1656
 2224SOL    HW118131   2.057   2.494   5.697 -0.9621  0.4945  0.3972
 2224SOL    HW218132   2.156   2.394   5.695 -0.9397  1.9894 -1.9458
 2225SOL     OW18133   0.948   0.993   7.740 -0.4975  0.2172  0.0251
 2225SOL    HW118134   0.860   1.014   7.769 -0.7710 -0.9913  0.0560
 2225SOL    HW218135   0.990   0.986   7.825  0.7232  1.4354 -0.4729
 2226SOL     OW18136   1.832   1.500   1.739 -0.1272 -0.3230 -0.2964
 2226SOL    HW118137   1.826   1.572   1.676  0.5622 -0.3766 -0.4226
 2226SOL    HW218138   1.752   1.515   1.790 -0.0983  1.1608 -0.6755
 2227SOL     OW18139   1.062   3.184  14.661  0.3796 -0.4887 -0.2409
 2227SOL    HW118140   1.140   3.204  14.610 -0.8217  1.0419 -1.4826
 2227SOL    HW218141   1.000   3.168  14.590  1.6405 -1.3369 -1.1366
 2228SOL     OW18142   2.886   3.840   1.741  0.3952 -0.0459 -0.3064
 2228SOL    HW118143   2.913   3.931   1.749  1.7511 -0.4770  0.0337
 2228SOL    HW218144   2.936   3.803   1.814 -0.3637  0.3301  0.4065
 2229SOL     OW18145   2.850   2.380  14.575 -0.2188  0.0199 -0.0249
 2229SOL    HW118146   2.774   2.407  14.627  1.0586  0.9486  1.3803
 2229SOL    HW218147   2.920   2.373  14.641  0.2460  0.2407 -0.4918
 2230SOL     OW18148   3.034   0.426   7.334  0.2730  0.6233  0.1412
 2230SOL    HW118149   2.992   0.464   7.411  1.4326  1.5623  0.3027
 2230SOL    HW218150   3.126   0.434   7.357  0.1603 -1.1365  1.1913
 2231SOL     OW18151   2.584   1.349   2.532  0.1380 -0.4624  0.1036
 2231SOL    HW118152   2.600   1.397   2.450  1.1260 -0.4600  0.3039
 2231SOL    HW218153   2.593   1.421   2.594  0.8508  0.6338 -1.2701
 2232SOL     OW18154   3.018   3.542  12.837 -0.0791 -0.2337 -0.7848
 2232SOL    HW118155   2.960   3.491  12.781  0.4621 -1.5614 -0.1297
 2232SOL    HW218156   3.040   3.482  12.908  1.0626  1.3193  0.1944
 2233SOL     OW18157   2.228   1.150   4.056  0.0786 -0.1019 -0.4553
 2233SOL    HW118158   2.277   1.201   4.121  0.9133 -1.5379  0.0438
 2233SOL    HW218159   2.150   1.203   4.038  0.5450  0.0117 -2.1726
 2234SOL     OW18160   3.149   1.820   5.699 -0.0310  0.0626  0.2005
 2234SOL    HW118161   3.141   1.915   5.709 -0.6616  0.3661 -3.1055
 2234SOL    HW218162   3.129   1.795   5.789 -1.4701 -1.6989 -0.6194
 2235SOL     OW18163   0.391   4.055   6.529 -0.0640  0.3563 -0.4898
 2235SOL    HW118164   0.419   4.121   6.465 -0.3709  0.6555 -0.3165
 2235SOL    HW218165   0.296   4.060   6.523 -0.0794  0.4372 -0.1684
 2236SOL     OW18166   2.928   0.105   6.033 -0.9875  0.2683  0.0086
 2236SOL    HW118167   2.972   0.090   6.116 -0.9095 -0.2079 -0.1239
 2236SOL    HW218168   2.992   0.126   5.964  0.3352 -0.6219  0.9659
 2237SOL     OW18169   2.857   4.286  15.469  0.4679  0.0450  0.2618
 2237SOL    HW118170   2.815   4.226  15.531  0.4022  2.1740  2.2454
 2237SOL    HW218171   2.808   4.366  15.488 -0.3562 -1.1129  3.1443
 2238SOL     OW18172   3.874   0.304   2.361  0.2408 -0.2077 -0.2804
 2238SOL    HW118173   3.809   0.241   2.330 -0.7110 -0.0778  1.4431
 2238SOL    HW218174   3.858   0.376   2.300 -0.8689  0.2011  0.5092
 2239SOL     OW18175   2.768   3.603   7.649  0.3388 -0.2026  0.5576
 2239SOL    HW118176   2.802   3.627   7.563 -0.6663 -1.1074 -0.0918
 2239SOL    HW218177   2.674   3.621   7.641  0.1175 -2.1956 -1.3981
 2240SOL     OW18178   2.559   0.915   4.353 -0.2270 -0.6125  0.2866
 2240SOL    HW118179   2.591   0.965   4.278 -1.4701 -1.0843 -0.5438
 2240SOL    HW218180   2.469   0.944   4.365  0.1391  0.5751  0.1460
 2241SOL     OW18181   4.458   1.636   1.611  0.0123  0.6996 -0.1946
 2241SOL    HW118182   4.500   1.713   1.572 -1.3938  1.8741  0.6298
 2241SOL    HW218183   4.458   1.582   1.532  0.1718 -1.4760  1.3049
 2242SOL     OW18184   2.934   3.976   4.152 -0.2373 -0.1682  0.2803
 2242SOL    HW118185   2.878   4.004   4.225 -0.2933  0.3242  0.0496
 2242SOL    HW218186   3.006   3.928   4.192 -1.7298  0.8788  4.2242
 2243SOL     OW18187   4.112   0.163  16.933  0.2915  0.3180  0.3054
 2243SOL    HW118188   4.078   0.250  16.954 -0.7849 -0.2685  0.9715
 2243SOL    HW218189   4.024   0.127  16.924 -0.3389  1.8219  0.4031
 2244SOL     OW18190   2.314   2.747  12.357 -1.0102  0.6532 -0.0534
 2244SOL    HW118191   2.367   2.812  12.403  0.2105 -1.0368  0.9185
 2244SOL    HW218192   2.262   2.707  12.426  2.2121 -1.5351  1.1019
 2245SOL     OW18193   0.494   1.263   4.545  0.6018  0.2849  0.3861
 2245SOL    HW118194   0.588   1.271   4.532  0.4051  1.3361 -0.4113
 2245SOL    HW218195   0.490   1.207   4.622 -0.7015  0.0905  0.1936
 2246SOL     OW18196   0.995   0.228   6.946  0.0525 -0.6414  0.4663
 2246SOL    HW118197   0.957   0.261   7.028 -3.5528  0.7400 -1.7401
 2246SOL    HW218198   0.924   0.167   6.924 -0.9337 -0.1139  2.1756
 2247SOL     OW18199   1.802   4.162   5.905 -0.5514 -0.5195  0.2857
 2247SOL    HW118200   1.720   4.128   5.871 -0.4782  2.0363 -2.4044
 2247SOL    HW218201   1.850   4.186   5.826 -2.8127 -0.0606 -0.9493
 2248SOL     OW18202   1.476   2.503   3.845 -0.9943  0.3384  0.1389
 2248SOL    HW118203   1.385   2.526   3.832 -1.2639 -0.8676 -0.1335
 2248SOL    HW218204   1.465   2.425   3.899 -0.8190 -1.9066 -3.0220
 2249SOL     OW18205   3.750   2.042   6.811 -0.1165  0.0839  0.2129
 2249SOL    HW118206   3.765   2.007   6.724  2.9009  0.4667  0.5599
 2249SOL    HW218207   3.655   2.044   6.823  0.1373 -0.2950  2.3197
 2250SOL     OW18208   4.247   2.632  13.305 -0.2148  0.1088  0.1152
 2250SOL    HW118209   4.331   2.588  13.314 -0.6188 -0.2496  2.0088
 2250SOL    HW218210   4.184   2.566  13.333 -1.9469  2.0868  0.9719
 2251SOL     OW18211   1.335   0.441   1.797  0.2690  0.4232 -0.1271
 2251SOL    HW118212   1.381   0.428   1.714 -1.2028 -0.6795 -0.7568
 2251SOL    HW218213   1.256   0.390   1.778  0.5353  0.6324 -1.8387
 2252SOL     OW18214   4.029   4.307   9.927 -0.4927  0.4341 -0.4451
 2252SOL    HW118215   3.961   4.368   9.900 -1.8803 -0.6748  0.5211
 2252SOL    HW218216   4.077   4.367   9.983 -1.2151  2.4084 -1.9580
 2253SOL     OW18217   4.384   0.017   2.623 -0.7591  0.0896  0.1192
 2253SOL    HW118218   4.418   0.069   2.696 -0.2319  0.4493 -0.3833
 2253SOL    HW218219   4.310   0.071   2.595 -0.5152  0.5550  0.3669
 2254SOL     OW18220   0.347   2.649   2.536  0.4934 -0.0016  0.0476
 2254SOL    HW118221   0.308   2.689   2.458 -2.3928 -0.2075  1.3829
 2254SOL    HW218222   0.337   2.723   2.597  1.2670  1.4273 -1.5431
 2255SOL     OW18223   3.153   4.404   3.253 -0.3913 -0.4866 -0.1441
 2255SOL    HW118224   3.212   4.409   3.329  0.8318  1.9733 -1.2637
 2255SOL    HW218225   3.162   4.490   3.213  1.9717 -0.7989 -0.2948
 2256SOL     OW18226   3.432   0.200   8.709 -0.0011  0.3332 -0.5980
 2256SOL    HW118227   3.512   0.239   8.672  1.5294 -0.7211  1.6175
 2256SOL    HW218228   3.460   0.168   8.794  1.1169 -0.1268 -1.1335
 2257SOL     OW18229   1.307   0.461   5.997  0.5361 -0.4709  0.9155
 2257SOL    HW118230   1.390   0.454   5.949 -0.3174 -2.7194 -0.2447
 2257SOL    HW218231   1.338   0.508   6.074 -1.9032 -0.0661  1.6493
 2258SOL     OW18232   0.101   3.359   8.380  0.3923 -0.2023  0.5304
 2258SOL    HW118233   0.089   3.339   8.473 -2.0466  0.6644  0.4047
 2258SOL    HW218234   0.127   3.278   8.336  0.6533  0.0701  0.1846
 2259SOL     OW18235   2.977   2.171  16.657 -0.7358 -0.0171  0.3642
 2259SOL    HW118236   3.003   2.236  16.592  2.4128 -3.4652 -1.8342
 2259SOL    HW218237   2.959   2.232  16.729  1.5736 -1.1001  1.8655
 2260SOL     OW18238   0.842   0.201   5.318 -0.4897 -0.3367 -0.0757
 2260SOL    HW118239   0.834   0.224   5.411  0.0868 -0.8745  0.1042
 2260SOL    HW218240   0.934   0.178   5.310 -0.0628  0.4523  2.3375
 2261SOL     OW18241   0.166   0.042  15.417  0.7669  0.3222  0.0699
 2261SOL    HW118242   0.191   4.687  15.465 -1.2597  0.5759  1.5590
 2261SOL    HW218243   0.189   0.024  15.326  0.6808 -0.5443  0.2230
 2262SOL     OW18244   0.952   2.261  17.202  0.8550  0.4864  0.1111
 2262SOL    HW118245   0.938   2.336  17.261  0.1954 -0.3814  1.0681
 2262SOL    HW218246   0.870   2.260  17.153  1.6746 -1.0656 -1.2069
 2263SOL     OW18247   0.860   3.660   3.434 -0.1181  0.3639 -0.6332
 2263SOL    HW118248   0.823   3.623   3.514 -0.3179 -0.1229 -0.9523
 2263SOL    HW218249   0.948   3.665   3.471 -1.1348  1.9345  1.5543
 2264SOL     OW18250   0.267   0.446  16.943  0.3321  0.0106  0.2195
 2264SOL    HW118251   0.328   0.434  17.016  0.7190  0.6633  0.0013
 2264SOL    HW218252   0.217   0.364  16.941  0.9378 -0.2911 -1.7413
 2265SOL     OW18253   2.290   1.133   3.746 -0.3603 -0.0791  0.2510
 2265SOL    HW118254   2.332   1.180   3.675 -1.9036  0.0881 -0.5492
 2265SOL    HW218255   2.206   1.179   3.753 -0.5318 -0.3435 -0.0614
 2266SOL     OW18256   0.583   4.086  17.350  0.5034 -0.1790  0.0010
 2266SOL    HW118257   0.576   4.179  17.371  0.4896 -0.0027 -0.7790
 2266SOL    HW218258   0.653   4.065  17.412 -0.0883 -0.5905  0.5318
 2267SOL     OW18259   1.444   2.459  12.217 -0.1567 -0.2129  0.2467
 2267SOL    HW118260   1.397   2.476  12.298 -1.2259 -0.8242 -0.2414
 2267SOL    HW218261   1.377   2.440  12.152  1.0998 -3.6129 -0.0686
 2268SOL     OW18262   3.590   4.039  16.991 -0.4904  0.8905  0.1929
 2268SOL    HW118263   3.503   4.003  16.974  0.4351 -1.1842 -0.1543
 2268SOL    HW218264   3.627   3.966  17.041  0.4384  1.1121 -0.1533
 2269SOL     OW18265   1.346   2.259   8.030  0.6137 -0.5955 -0.1321
 2269SOL    HW118266   1.391   2.336   8.065  0.0661  0.3103 -1.4133
 2269SOL    HW218267   1.273   2.255   8.092 -1.2179 -0.6225 -2.3155
 2270SOL     OW18268   3.365   2.070   1.059 -0.8738 -0.7971 -0.1606
 2270SOL    HW118269   3.318   1.987   1.068 -1.4846 -0.3636  0.6404
 2270SOL    HW218270   3.387   2.073   0.965 -1.2744 -0.0213 -0.2307
 2271SOL     OW18271   1.785   2.927   0.474  0.4649  0.8847  0.2456
 2271SOL    HW118272   1.865   2.892   0.436 -0.5455 -2.8016  1.4861
 2271SOL    HW218273   1.799   2.883   0.558  0.6858  0.5893  0.0521
 2272SOL     OW18274   1.116   3.329   0.944  0.4315 -0.2743  0.5394
 2272SOL    HW118275   1.169   3.300   0.869 -0.3186  1.9675 -0.8502
 2272SOL    HW218276   1.175   3.388   0.991  1.1180  0.3513 -1.0994
 2273SOL     OW18277   1.468   0.688   4.470 -0.6930  0.4401 -0.6474
 2273SOL    HW118278   1.538   0.644   4.422 -0.9749  1.9745 -2.4770
 2273SOL    HW218279   1.460   0.628   4.544  0.8908 -1.0742 -1.6984
 2274SOL     OW18280   0.913   1.369   2.157 -0.5324  0.0186  0.7664
 2274SOL    HW118281   0.979   1.438   2.164 -0.9517  0.5553 -0.5441
 2274SOL    HW218282   0.959   1.297   2.201 -0.4503 -1.0963 -1.1774
 2275SOL     OW18283   3.330   0.141   6.066 -0.0862 -0.3736  0.7704
 2275SOL    HW118284   3.251   0.113   6.111 -0.5646  0.6549  0.5652
 2275SOL    HW218285   3.396   0.139   6.135  1.4543  0.6135 -0.6700
 2276SOL     OW18286   0.252   2.405   3.103 -0.4373  0.1584 -0.3177
 2276SOL    HW118287   0.164   2.407   3.139  0.1874 -0.1174  1.2206
 2276SOL    HW218288   0.282   2.317   3.124  0.1853  0.1959 -1.0257
 2277SOL     OW18289   0.084   0.814  12.789 -0.0596 -0.1480  0.0730
 2277SOL    HW118290   4.723   0.772  12.777  0.3414 -0.2742 -2.3532
 2277SOL    HW218291   0.077   0.845  12.879  1.2994  1.1157 -0.2450
 2278SOL     OW18292   4.496   1.518   2.682 -0.8822 -0.5555  0.2797
 2278SOL    HW118293   4.583   1.500   2.647  0.0104  2.3361  1.0449
 2278SOL    HW218294   4.522   1.519   2.774 -1.0985 -0.0644  0.3325
 2279SOL     OW18295   0.945   3.297   7.462 -0.3523  0.2124  0.0870
 2279SOL    HW118296   0.877   3.241   7.500 -0.0705 -0.5766 -0.5743
 2279SOL    HW218297   0.889   3.327   7.391 -1.3994 -1.5450  0.1531
 2280SOL     OW18298   1.294   2.376  12.038  0.0092 -0.1867 -0.4687
 2280SOL    HW118299   1.234   2.303  12.056  0.4238 -0.3497  0.2588
 2280SOL    HW218300   1.259   2.410  11.956  0.8698 -0.8188 -1.0910
 2281SOL     OW18301   1.866   3.825   7.620 -0.6304  0.2955 -0.4084
 2281SOL    HW118302   1.812   3.753   7.588 -2.7654  0.9395  1.7018
 2281SOL    HW218303   1.954   3.789   7.605 -0.1188  1.4576 -0.1929
 2282SOL     OW18304   0.028   2.268   4.200 -0.1671 -0.1614 -0.1443
 2282SOL    HW118305   4.721   2.277   4.110  0.8229 -0.6745 -0.5283
 2282SOL    HW218306   4.702   2.187   4.216 -0.2165 -0.4104 -1.5462
 2283SOL     OW18307   4.709   1.462  15.763  0.2181  0.1649  0.2810
 2283SOL    HW118308   0.048   1.475  15.835  0.0549  2.0191  0.1052
 2283SOL    HW218309   4.629   1.483  15.812  0.0399 -0.4301  0.2460
 2284SOL     OW18310   3.613   3.110   4.520 -0.0185 -0.1630 -0.2541
 2284SOL    HW118311   3.701   3.074   4.509  0.2755  1.0448 -1.7171
 2284SOL    HW218312   3.632   3.203   4.508  0.0597 -0.2164 -0.5327
 2285SOL     OW18313   3.438   4.635   2.299  0.1415  0.1698 -0.0476
 2285SOL    HW118314   3.512   4.592   2.340  0.9376 -0.5151 -2.2179
 2285SOL    HW218315   3.473   4.653   2.212  0.6933  4.4567  1.0423
 2286SOL     OW18316   2.116   1.282   6.357 -0.0350  0.1212  0.4278
 2286SOL    HW118317   2.185   1.256   6.296  0.2144 -1.1108  1.2405
 2286SOL    HW218318   2.064   1.202   6.348 -1.9086  1.4416 -0.6693
 2287SOL     OW18319   3.733   2.700   8.261  0.2340  0.1260 -0.1475
 2287SOL    HW118320   3.773   2.688   8.175  1.3097 -0.4178  0.4388
 2287SOL    HW218321   3.734   2.609   8.289  0.0972 -0.2248 -1.2904
 2288SOL     OW18322   1.934   2.301   7.107  0.4941 -0.0176  0.0845
 2288SOL    HW118323   1.909   2.352   7.030  0.6738  0.7225  0.5143
 2288SOL    HW218324   1.847   2.270   7.131 -0.1230  0.6320 -1.3984
 2289SOL     OW18325   4.595   0.900   4.840 -0.0119 -0.1477  0.2936
 2289SOL    HW118326   4.554   0.878   4.924 -1.7488 -0.8498 -0.7514
 2289SOL    HW218327   4.594   0.816   4.794  0.5363 -1.4657  2.7067
 2290SOL     OW18328   4.026   3.312  12.329 -0.0904  0.2791  0.0925
 2290SOL    HW118329   3.999   3.304  12.237 -0.8929 -1.9284  0.5292
 2290SOL    HW218330   4.120   3.324  12.316 -0.9306  3.7445 -2.7925
 2291SOL     OW18331   3.714   1.631   1.310 -0.1498  0.1839 -0.2028
 2291SOL    HW118332   3.647   1.674   1.258  0.3943  0.3122 -0.8069
 2291SOL    HW218333   3.661   1.584   1.374  0.8752 -0.0715  0.4721
 2292SOL     OW18334   1.017   4.648  12.398  0.0640  0.5663 -0.3634
 2292SOL    HW118335   0.952   4.699  12.446  0.1967  0.9602 -0.6060
 2292SOL    HW218336   1.026   4.680  12.308  0.5183 -0.9573 -0.8506
 2293SOL     OW18337   0.424   3.817   5.205  0.7254 -0.2169 -0.5345
 2293SOL    HW118338   0.491   3.764   5.249 -2.3796 -1.1414  3.0391
 2293SOL    HW218339   0.394   3.870   5.279 -0.3635 -1.9956  0.3095
 2294SOL     OW18340   2.875   0.281   9.949 -0.2855  1.0088 -0.6675
 2294SOL    HW118341   2.901   0.371   9.965  3.5786  0.1151 -1.9630
 2294SOL    HW218342   2.884   0.284   9.853 -2.4368 -2.0178 -0.9915
 2295SOL     OW18343   2.689   0.965   6.620  0.3348 -0.1789  0.0834
 2295SOL    HW118344   2.635   1.032   6.662  1.3973 -0.7714  2.4113
 2295SOL    HW218345   2.674   0.889   6.676 -1.0061 -0.4742 -0.6771
 2296SOL     OW18346   3.022   4.540   6.367  0.0398  0.0105 -0.1757
 2296SOL    HW118347   3.057   4.494   6.443 -0.7367  0.7603  0.6329
 2296SOL    HW218348   2.941   4.489   6.360  0.0716 -0.4469  2.6265
 2297SOL     OW18349   0.523   2.430  11.781 -0.0489 -0.4743  0.2839
 2297SOL    HW118350   0.548   2.518  11.811 -2.5597  0.9550 -1.7394
 2297SOL    HW218351   0.605   2.385  11.798  0.3404  0.5067  0.9854
 2298SOL     OW18352   2.073   3.415   2.698 -0.8028  0.0254  0.1935
 2298SOL    HW118353   2.139   3.346   2.690 -3.7621 -2.9334  1.0150
 2298SOL    HW218354   2.131   3.489   2.679 -0.9831 -0.0072 -0.4653
 2299SOL     OW18355   3.364   2.156  15.452  0.1390  0.0569  0.0144
 2299SOL    HW118356   3.419   2.086  15.418  1.1056  2.7578 -3.9565
 2299SOL    HW218357   3.362   2.202  15.369 -2.0417  0.1148  0.0975
 2300SOL     OW18358   4.265   0.846   1.884  0.5511  0.0830  0.1622
 2300SOL    HW118359   4.321   0.876   1.955  0.3781 -1.8063  1.1106
 2300SOL    HW218360   4.324   0.805   1.821 -0.5878  0.4830 -1.1791
 2301SOL     OW18361   2.679   0.040   8.764 -0.0187 -0.2957 -0.6071
 2301SOL    HW118362   2.654   0.122   8.721 -0.8033 -1.1588 -1.7930
 2301SOL    HW218363   2.770   0.025   8.738  0.1895  0.0467 -0.0796
 2302SOL     OW18364   1.205   0.134   7.758  0.2924  0.3960 -0.4527
 2302SOL    HW118365   1.205   0.189   7.836 -1.0337  0.4907 -0.5089
 2302SOL    HW218366   1.173   0.189   7.687  0.1037  0.2978 -0.4454
 2303SOL     OW18367   2.237   2.014   3.714 -0.0041 -0.3896 -0.1720
 2303SOL    HW118368   2.303   2.055   3.657  2.3979  1.1227  3.7130
 2303SOL    HW218369   2.170   1.985   3.652 -0.6240 -0.3906  0.5063
 2304SOL     OW18370   4.461   4.660   5.665 -0.0422 -0.1616 -0.8271
 2304SOL    HW118371   4.472   4.567   5.648 -0.7302 -0.0353 -1.9935
 2304SOL    HW218372   4.368   4.678   5.677 -0.0849 -1.3443  0.5683
 2305SOL     OW18373   3.534   4.618   9.217 -0.4562  0.4827 -0.0073
 2305SOL    HW118374   3.604   4.557   9.243 -1.4125 -0.4691  0.3534
 2305SOL    HW218375   3.528   4.583   9.128  0.9166  0.2826 -0.0181
 2306SOL     OW18376   4.024   3.614   6.406  0.0877  0.2431  0.3096
 2306SOL    HW118377   4.095   3.641   6.348  1.6655 -2.6912  0.9238
 2306SOL    HW218378   4.075   3.624   6.486 -2.0462  2.1607  1.4365
 2307SOL     OW18379   4.364   2.046  14.610  0.0655 -0.7689  0.3215
 2307SOL    HW118380   4.413   1.967  14.633  0.1594 -1.0769 -0.9103
 2307SOL    HW218381   4.360   2.094  14.693  0.3429  0.6783 -0.5017
 2308SOL     OW18382   3.964   2.326   7.012 -0.4972  0.4821  0.5553
 2308SOL    HW118383   3.957   2.292   7.101 -1.2846  1.0074  0.7019
 2308SOL    HW218384   4.060   2.331   7.011 -0.5669  1.4910 -0.6988
 2309SOL     OW18385   0.205   1.763   9.113  0.3909  0.2892  0.4637
 2309SOL    HW118386   0.140   1.761   9.183  0.1191 -1.8281  0.1532
 2309SOL    HW218387   0.286   1.756   9.163 -0.1735  0.2819  1.3819
 2310SOL     OW18388   3.852   3.545   0.481  0.0113  0.3332  0.1151
 2310SOL    HW118389   3.758   3.529   0.478 -0.3637  2.9728 -2.3808
 2310SOL    HW218390   3.896   3.461   0.495  0.7213  0.6787 -0.0476
 2311SOL     OW18391   2.819   2.653   5.660  0.0685 -0.3671  0.5561
 2311SOL    HW118392   2.767   2.647   5.580  1.1955  0.2590 -0.2325
 2311SOL    HW218393   2.904   2.629   5.623  1.0556  1.2517  1.7654
 2312SOL     OW18394   2.101   2.742   7.738  0.0477  0.1102  0.0371
 2312SOL    HW118395   2.028   2.797   7.712 -0.2645  0.9120  2.6113
 2312SOL    HW218396   2.134   2.716   7.652 -1.5301 -0.4972 -0.3828
 2313SOL     OW18397   3.203   3.532   7.671  0.3324  0.4050  0.1661
 2313SOL    HW118398   3.172   3.489   7.592 -0.9502 -1.2537  1.5702
 2313SOL    HW218399   3.125   3.531   7.727 -0.6186 -1.4250 -1.1934
 2314SOL     OW18400   3.397   4.273   6.660  0.2934  0.6916  0.5703
 2314SOL    HW118401   3.353   4.191   6.638 -0.9889  1.3047  0.8639
 2314SOL    HW218402   3.378   4.285   6.753 -0.2742  2.0255  0.2805
 2315SOL     OW18403   3.986   4.635   9.350 -0.5183 -0.4564 -0.1228
 2315SOL    HW118404   4.049   4.587   9.296  0.6356  0.7873  0.1016
 2315SOL    HW218405   4.040   4.653   9.427 -0.9622  0.0319  0.0781
 2316SOL     OW18406   0.486   2.626   4.637  0.3733 -0.2152  0.0990
 2316SOL    HW118407   0.473   2.568   4.561 -1.1508 -0.2026  0.3575
 2316SOL    HW218408   0.424   2.595   4.703 -0.6015 -0.9530 -1.1607
 2317SOL     OW18409   0.637   1.207  11.295  0.0937  0.2548 -0.3064
 2317SOL    HW118410   0.700   1.238  11.359  0.0046 -2.2722  1.0151
 2317SOL    HW218411   0.675   1.134  11.245  0.0403  0.4183 -0.5842
 2318SOL     OW18412   3.189   2.484  12.564 -0.0847  0.3614 -0.5779
 2318SOL    HW118413   3.217   2.568  12.528 -1.3174  1.1351  0.2878
 2318SOL    HW218414   3.262   2.478  12.626 -0.2466 -0.2093 -0.4428
 2319SOL     OW18415   4.539   0.735   9.156  0.2183 -0.3812 -0.1175
 2319SOL    HW118416   4.461   0.748   9.210  0.7876  1.9026  0.1626
 2319SOL    HW218417   4.609   0.721   9.220 -0.7634 -0.7465  0.8668
 2320SOL     OW18418   1.668   0.275   1.189  0.4935 -0.1878  0.1350
 2320SOL    HW118419   1.648   0.295   1.281  1.2117 -0.0076  0.2499
 2320SOL    HW218420   1.738   0.333   1.160 -1.0692  1.0557 -1.1156
 2321SOL     OW18421   2.062   3.912   8.157 -0.1233  0.5095  0.0413
 2321SOL    HW118422   2.137   3.883   8.105 -0.9469 -0.9209 -0.3644
 2321SOL    HW218423   2.063   3.854   8.234 -1.9146 -0.0331 -0.3488
 2322SOL     OW18424   0.135   2.431   4.670  0.6336  0.2242  0.3974
 2322SOL    HW118425   0.063   2.392   4.719  0.5482 -0.6304 -0.4032
 2322SOL    HW218426   0.146   2.372   4.595  0.1455 -1.4308  1.6343
 2323SOL     OW18427   0.019   1.383   8.397  0.2762 -0.0095  0.6519
 2323SOL    HW118428   4.699   1.355   8.477  1.7794  0.4048  1.6102
 2323SOL    HW218429   4.666   1.411   8.347  0.7573  0.2209  0.0394
 2324SOL     OW18430   3.436   2.145   3.532  0.0024  0.3178 -0.2724
 2324SOL    HW118431   3.453   2.236   3.507 -0.4876  0.4255 -0.2057
 2324SOL    HW218432   3.474   2.095   3.460 -0.8114  0.5417 -0.8487
 2325SOL     OW18433   1.723   4.113   2.508 -0.4243 -0.0038  0.0409
 2325SOL    HW118434   1.657   4.057   2.468  1.2462 -1.7418 -0.2941
 2325SOL    HW218435   1.722   4.084   2.599  2.5170 -0.0097  0.0675
 2326SOL     OW18436   2.743   3.650  11.917 -0.0591 -0.1049 -0.0574
 2326SOL    HW118437   2.717   3.685  12.002 -2.3976  2.1388 -1.7037
 2326SOL    HW218438   2.692   3.571  11.904 -0.8260  0.5394 -0.9962
 2327SOL     OW18439   0.508   3.475   5.720  0.0601  0.0259 -0.0214
 2327SOL    HW118440   0.497   3.467   5.815  0.6781  0.4930  0.0895
 2327SOL    HW218441   0.430   3.525   5.697  0.3765  0.2731 -0.5693
 2328SOL     OW18442   4.313   2.384  17.523 -0.0130  0.0925 -0.3400
 2328SOL    HW118443   4.384   2.331  17.489 -0.6916 -1.5206  0.7698
 2328SOL    HW218444   4.250   2.319  17.554 -1.6413  1.5452 -0.5505
 2329SOL     OW18445   0.239   0.827   0.041  0.7200  0.1563  0.0927
 2329SOL    HW118446   0.277   0.911   0.015  1.7517 -0.3109  0.1027
 2329SOL    HW218447   0.160   0.824  17.684 -0.1119 -3.0534  1.5048
 2330SOL     OW18448   1.549   3.147   0.350  0.2083 -0.1506 -0.4764
 2330SOL    HW118449   1.636   3.112   0.370 -0.2968 -1.9762 -1.4367
 2330SOL    HW218450   1.525   3.166   0.440 -0.6674 -0.4070 -0.6596
 2331SOL     OW18451   3.011   3.364  13.087 -0.4265  0.6361 -0.2557
 2331SOL    HW118452   3.006   3.309  13.165  1.0692 -0.3143 -0.8324
 2331SOL    HW218453   2.919   3.389  13.074 -1.0147 -1.1695  0.3704
 2332SOL     OW18454   0.563   2.133  17.440 -0.3584  0.1729  0.2472
 2332SOL    HW118455   0.570   2.219  17.397 -1.5260 -0.3020 -0.9028
 2332SOL    HW218456   0.504   2.091  17.377 -0.7414 -1.0217  1.4016
 2333SOL     OW18457   3.275   1.701   2.098 -0.4752 -0.6684  0.3884
 2333SOL    HW118458   3.322   1.666   2.023  0.9539  1.8131  0.1246
 2333SOL    HW218459   3.347   1.709   2.161 -1.6596 -0.7384  1.7570
 2334SOL     OW18460   4.626   4.324   7.764 -0.0696  0.5367  0.3669
 2334SOL    HW118461   4.717   4.325   7.794 -0.4622  1.0181  1.5328
 2334SOL    HW218462   4.586   4.347   7.847 -1.8630  0.5365 -0.5033
 2335SOL     OW18463   1.489   3.261   0.597 -0.1912 -0.0524 -0.5785
 2335SOL    HW118464   1.431   3.238   0.669  1.9835  2.1843  1.8792
 2335SOL    HW218465   1.481   3.357   0.596  0.1004 -0.0187  0.3071
 2336SOL     OW18466   1.397   3.879   6.001  0.1198 -0.0189 -0.1844
 2336SOL    HW118467   1.350   3.842   5.927  1.9002  1.9156 -2.2892
 2336SOL    HW218468   1.366   3.970   6.006  0.5087  0.1191 -0.2652
 2337SOL     OW18469   1.771   2.251  11.227  0.1130  1.0486  0.2352
 2337SOL    HW118470   1.741   2.236  11.137 -0.4363  0.5792  0.4959
 2337SOL    HW218471   1.707   2.207  11.284  0.5265  0.0360 -0.0701
 2338SOL     OW18472   4.074   1.177   6.604 -0.6338 -0.6044  0.3764
 2338SOL    HW118473   4.163   1.207   6.623  0.0439 -1.7948 -0.9325
 2338SOL    HW218474   4.075   1.087   6.636  0.1934 -0.7399 -0.0342
 2339SOL     OW18475   1.796   4.435  13.291 -0.3307  0.4711 -0.3560
 2339SOL    HW118476   1.844   4.516  13.308  1.5200 -1.2682  2.7162
 2339SOL    HW218477   1.806   4.388  13.374  0.1341  1.8695  0.3880
 2340SOL     OW18478   1.431   3.731   7.408 -0.2249  0.2436 -0.2050
 2340SOL    HW118479   1.379   3.669   7.357  0.0352  0.1698 -0.3805
 2340SOL    HW218480   1.405   3.817   7.375  0.5051  0.4486 -0.2514
 2341SOL     OW18481   2.645   3.663   3.895 -0.6259  0.2145  0.2586
 2341SOL    HW118482   2.612   3.725   3.960 -1.6356  1.9397 -1.9105
 2341SOL    HW218483   2.738   3.679   3.912  0.0121 -0.1005 -2.9302
 2342SOL     OW18484   3.577   2.174   6.379  0.1301 -0.4412 -0.3044
 2342SOL    HW118485   3.622   2.254   6.350 -0.5944  0.2763  0.5648
 2342SOL    HW218486   3.487   2.195   6.354 -0.2312 -2.2327 -0.5092
 2343SOL     OW18487   0.042   3.749  14.801 -0.1248 -0.0611 -0.0493
 2343SOL    HW118488   0.045   3.742  14.897 -1.9244  0.3890  0.0389
 2343SOL    HW218489   0.077   3.836  14.782 -0.5780  0.1626  0.1340
 2344SOL     OW18490   4.225   1.566   4.922  0.8475 -0.3624 -0.2830
 2344SOL    HW118491   4.272   1.486   4.896  0.7187 -0.6318  0.2986
 2344SOL    HW218492   4.149   1.566   4.864 -0.2222 -1.2040  1.0849
 2345SOL     OW18493   2.721   3.977   0.985 -0.1589 -0.3483  0.3124
 2345SOL    HW118494   2.736   3.884   0.999 -1.2520 -0.6524 -0.5376
 2345SOL    HW218495   2.783   3.985   0.913 -1.5059  0.5574 -0.7521
 2346SOL     OW18496   3.942   1.773   1.376 -0.0279 -0.7664  0.0663
 2346SOL    HW118497   3.893   1.847   1.411 -0.7406 -1.1071 -0.1985
 2346SOL    HW218498   3.865   1.727   1.342  0.4301 -2.3933  1.2683
 2347SOL     OW18499   4.666   0.181  13.667 -0.2939 -0.3872  0.0125
 2347SOL    HW118500   4.713   0.099  13.650  0.8245  0.6209 -1.8717
 2347SOL    HW218501   4.664   0.188  13.762 -1.3181  1.2658 -0.1369
 2348SOL     OW18502   2.507   3.079  15.157 -0.0041  0.2224 -0.1605
 2348SOL    HW118503   2.571   3.022  15.115 -0.4460 -0.3602 -0.0410
 2348SOL    HW218504   2.423   3.036  15.138 -0.7720  0.6941  2.1113
 2349SOL     OW18505   4.686   1.258   5.987 -0.0961  0.6988  0.0753
 2349SOL    HW118506   4.690   1.345   6.029 -1.4134 -0.9378  3.6114
 2349SOL    HW218507   4.718   1.205   6.060  2.0582  2.2847  0.3052
 2350SOL     OW18508   4.013   1.467   1.073 -0.3558 -0.2891  0.1694
 2350SOL    HW118509   3.956   1.542   1.054  0.3450 -0.2343 -1.6945
 2350SOL    HW218510   4.014   1.461   1.169  0.1126  0.0289  0.1824
 2351SOL     OW18511   3.010   4.548  17.489  0.3965 -0.5353 -0.3847
 2351SOL    HW118512   2.951   4.623  17.483  1.7742  0.5050 -0.8851
 2351SOL    HW218513   3.051   4.561  17.574 -1.2913 -0.4164  0.4034
 2352SOL     OW18514   0.081   3.541  17.265 -0.1307 -0.0296  0.3596
 2352SOL    HW118515   0.079   3.627  17.305 -1.9569  0.2296 -0.3160
 2352SOL    HW218516   0.170   3.520  17.235 -0.4891  1.2309 -1.5824
 2353SOL     OW18517   3.406   0.099  12.575  0.4922  0.6932 -0.7400
 2353SOL    HW118518   3.360   0.031  12.526  0.8766  0.4460 -0.7582
 2353SOL    HW218519   3.405   0.054  12.660 -2.3511  1.2734 -0.4498
 2354SOL     OW18520   3.133   4.398   6.600  0.2275 -0.0120  0.0020
 2354SOL    HW118521   3.227   4.385   6.613  0.3565  0.0644 -0.8881
 2354SOL    HW218522   3.094   4.338   6.664 -1.6238  0.3858 -0.7444
 2355SOL     OW18523   3.197   3.351   8.635 -0.3460  0.0967  0.3120
 2355SOL    HW118524   3.107   3.317   8.632  0.2822 -1.5902  0.5201
 2355SOL    HW218525   3.240   3.306   8.562 -0.1342  0.1889  0.3805
 2356SOL     OW18526   1.145   1.424   1.774  0.0101  0.5241 -0.1110
 2356SOL    HW118527   1.155   1.373   1.694  1.1764  1.4417 -0.5474
 2356SOL    HW218528   1.068   1.476   1.750  0.2565  2.3872  3.0736
 2357SOL     OW18529   0.854   3.143  16.690 -0.5675 -0.3717 -0.2161
 2357SOL    HW118530   0.801   3.210  16.734 -0.4439 -0.6070  0.2957
 2357SOL    HW218531   0.794   3.122  16.619  0.0925  0.9953 -1.1688
 2358SOL     OW18532   4.462   0.943   3.753  0.3909 -0.0009  0.2876
 2358SOL    HW118533   4.554   0.968   3.756  0.4098  0.2171 -2.0013
 2358SOL    HW218534   4.423   1.029   3.741  0.0917  0.1375  2.2158
 2359SOL     OW18535   1.122   3.058   8.147  0.0048  0.3114  0.3079
 2359SOL    HW118536   1.152   3.068   8.238 -0.6427  1.6388  0.3797
 2359SOL    HW218537   1.141   2.964   8.139 -1.2464 -0.1685  2.8624
 2360SOL     OW18538   1.999   0.545   4.003  0.0904 -0.3215  0.2275
 2360SOL    HW118539   2.006   0.451   3.985 -1.1708 -0.4553  0.4110
 2360SOL    HW218540   1.980   0.568   3.912  1.8571 -0.5495 -0.1872
 2361SOL     OW18541   3.940   0.556   9.876  0.2593 -0.2935  0.3010
 2361SOL    HW118542   3.894   0.530   9.956 -3.2025  0.3366 -1.4596
 2361SOL    HW218543   3.887   0.505   9.814 -0.4477 -0.2872  0.8920
 2362SOL     OW18544   1.331   3.531   8.649  0.3348 -0.8262 -0.1796
 2362SOL    HW118545   1.267   3.507   8.581 -0.5136 -1.5051  0.8699
 2362SOL    HW218546   1.280   3.506   8.726  0.2328 -3.1773 -1.0135
 2363SOL     OW18547   2.249   0.074   7.068 -0.5691 -0.2677  0.1108
 2363SOL    HW118548   2.174   0.087   7.125 -0.6882  1.3174 -0.4165
 2363SOL    HW218549   2.298   0.016   7.127 -0.8379  0.1700  0.7600
 2364SOL     OW18550   2.944   2.915   4.243 -0.0996 -0.2977 -0.2571
 2364SOL    HW118551   2.983   2.894   4.158  0.4772  1.3909 -0.3983
 2364SOL    HW218552   2.888   2.837   4.248  0.1180 -0.6308 -2.7227
 2365SOL     OW18553   0.120   3.945   8.127 -0.1987 -0.3504  0.2576
 2365SOL    HW118554   0.049   3.881   8.128  0.6375 -1.2743  0.5851
 2365SOL    HW218555   0.068   4.026   8.129  0.1754 -0.1695  2.9041
 2366SOL     OW18556   4.414   2.173   7.461 -0.1432 -0.1213 -0.0436
 2366SOL    HW118557   4.386   2.109   7.396 -1.0878  0.4274 -0.1770
 2366SOL    HW218558   4.433   2.245   7.400 -0.4424  0.7294  0.8603
 2367SOL     OW18559   2.788   0.311   6.980  0.3831  0.5582 -0.1912
 2367SOL    HW118560   2.808   0.322   7.073  1.8014  1.2870 -0.5733
 2367SOL    HW218561   2.722   0.379   6.967  0.9668  1.1641 -0.0074
 2368SOL     OW18562   0.778   3.973   3.666  0.1910 -0.5237 -0.7043
 2368SOL    HW118563   0.872   3.963   3.654  0.3025 -2.7453  1.9388
 2368SOL    HW218564   0.757   3.922   3.744  2.1203 -1.1908 -0.6413
 2369SOL     OW18565   3.835   0.746   6.238  0.1057  0.0037  0.0314
 2369SOL    HW118566   3.784   0.778   6.312 -0.4443  0.5759 -0.5904
 2369SOL    HW218567   3.874   0.824   6.198  0.4519 -1.2260 -2.0441
 2370SOL     OW18568   3.955   1.223  13.002 -0.5015 -0.4281 -0.1616
 2370SOL    HW118569   3.957   1.281  12.926 -0.7287  1.2194  1.0895
 2370SOL    HW218570   3.955   1.141  12.953  0.3983  1.1928 -2.8339
 2371SOL     OW18571   4.117   3.020   4.553  0.1533 -0.2514  0.2877
 2371SOL    HW118572   4.027   3.043   4.527  0.8977  2.3794  0.0644
 2371SOL    HW218573   4.129   3.080   4.625  1.8175  0.5154 -0.6396
 2372SOL     OW18574   4.447   3.667   2.933  0.2397 -0.8056 -0.1610
 2372SOL    HW118575   4.486   3.753   2.915 -1.7338 -0.0816 -0.9572
 2372SOL    HW218576   4.441   3.634   2.843  0.3890  0.5758 -0.6825
 2373SOL     OW18577   1.293   3.337   2.880 -0.3716 -0.3415  0.3675
 2373SOL    HW118578   1.298   3.433   2.882 -0.5395 -0.3489  1.1038
 2373SOL    HW218579   1.210   3.331   2.833 -0.0915 -0.3948 -0.1166
 2374SOL     OW18580   0.539   2.250   7.295  0.9633 -0.0696 -0.5989
 2374SOL    HW118581   0.537   2.175   7.236  0.6356 -1.9329  1.7705
 2374SOL    HW218582   0.608   2.238   7.361  0.0710 -1.4609  0.0840
 2375SOL     OW18583   3.990   1.398   2.317  0.1200  0.0904 -0.5581
 2375SOL    HW118584   3.978   1.444   2.400 -0.8437 -0.3811 -0.4389
 2375SOL    HW218585   3.992   1.464   2.248  1.0000 -1.4362 -2.0061
 2376SOL     OW18586   0.010   4.181   7.478  0.3707  0.1424  0.0019
 2376SOL    HW118587   4.657   4.186   7.535  0.9021 -1.2534  0.8311
 2376SOL    HW218588   0.064   4.117   7.524  0.5741  0.2566 -0.0761
 2377SOL     OW18589   2.808   3.698   9.588  0.2442 -0.4791  0.2890
 2377SOL    HW118590   2.765   3.739   9.513  0.8067 -0.2918  0.0674
 2377SOL    HW218591   2.898   3.730   9.584  0.2020 -0.2974  0.7316
 2378SOL     OW18592   3.327   1.073   2.834  0.0524  0.3049 -0.2780
 2378SOL    HW118593   3.340   0.981   2.858  1.7293 -0.1307 -2.7966
 2378SOL    HW218594   3.233   1.062   2.820  0.5015 -0.2431 -2.8285
 2379SOL     OW18595   3.234   0.703   0.064  0.4593 -0.3010 -0.2513
 2379SOL    HW118596   3.277   0.695  17.675 -2.2455  0.5661 -1.6852
 2379SOL    HW218597   3.185   0.621   0.068 -0.3790  0.0968 -2.3657
 2380SOL     OW18598   2.393   3.761   6.698 -0.0167  0.3974  0.0374
 2380SOL    HW118599   2.341   3.702   6.752 -1.9141 -0.2613 -2.5081
 2380SOL    HW218600   2.357   3.735   6.613  0.7782 -1.1667  0.1766
 2381SOL     OW18601   3.826   2.993   8.414  0.7113 -0.5682 -0.1145
 2381SOL    HW118602   3.774   2.913   8.426  0.7086 -0.9041 -2.3391
 2381SOL    HW218603   3.782   3.047   8.479  0.6582 -0.1621 -0.4909
 2382SOL     OW18604   3.457   3.188   4.855 -0.0443  0.3371  0.1017
 2382SOL    HW118605   3.421   3.113   4.903  1.8281 -0.5905  0.0427
 2382SOL    HW218606   3.374   3.222   4.824  0.3751  1.2417 -0.0174
 2383SOL     OW18607   0.774   0.038   8.043  0.3320 -0.2348 -0.5627
 2383SOL    HW118608   0.817   4.714   7.972 -0.7086 -1.8385 -0.1201
 2383SOL    HW218609   0.787   4.711   8.123  0.5996 -2.9009 -2.3016
 2384SOL     OW18610   3.179   4.287   4.755  0.2719 -0.4669  0.3054
 2384SOL    HW118611   3.147   4.219   4.695 -1.4636  0.3078  0.3866
 2384SOL    HW218612   3.117   4.271   4.826 -0.4770  1.4137  0.0559
 2385SOL     OW18613   0.491   4.229   2.667  0.0460 -0.0450 -0.0804
 2385SOL    HW118614   0.473   4.136   2.672 -0.5850 -0.1017 -3.3598
 2385SOL    HW218615   0.451   4.262   2.748  0.9845 -0.9047  0.7310
 2386SOL     OW18616   1.283   4.472   6.678  0.6059  0.6107 -0.3657
 2386SOL    HW118617   1.263   4.497   6.768 -0.1497  1.9704 -0.9133
 2386SOL    HW218618   1.271   4.377   6.678  0.0493  0.6857  1.7146
 2387SOL     OW18619   1.072   0.970   1.678  0.4986 -0.4114  0.2671
 2387SOL    HW118620   1.112   0.991   1.594 -0.4800  2.2051  0.4651
 2387SOL    HW218621   1.141   1.011   1.730 -1.9100  0.7561  2.5270
 2388SOL     OW18622   2.776   1.110   0.380  0.5236  0.2576  0.2171
 2388SOL    HW118623   2.742   1.171   0.314  1.1577  0.1791 -0.1885
 2388SOL    HW218624   2.717   1.140   0.450  1.9412  1.7816  0.7701
 2389SOL     OW18625   1.343   1.947   8.431 -0.1202 -0.0004 -0.7257
 2389SOL    HW118626   1.342   1.851   8.427  1.2764 -0.0663  0.4384
 2389SOL    HW218627   1.322   1.961   8.523 -1.8873  0.1505 -1.1434
 2390SOL     OW18628   4.297   0.747   9.929  0.0366 -0.3998 -0.3299
 2390SOL    HW118629   4.313   0.840   9.913 -2.8179  0.1864  0.2504
 2390SOL    HW218630   4.373   0.727   9.984  0.1401 -0.6291 -0.5560
 2391SOL     OW18631   2.168   0.762   3.005  0.0292  0.5291  0.4538
 2391SOL    HW118632   2.169   0.813   3.086  1.1577  0.6061  0.3856
 2391SOL    HW218633   2.079   0.780   2.974 -0.3903  1.2297  2.0733
 2392SOL     OW18634   0.944   3.744   9.081 -0.3073 -0.3766 -0.5886
 2392SOL    HW118635   0.907   3.668   9.126 -0.9828  0.0251 -0.4736
 2392SOL    HW218636   0.866   3.799   9.079  1.6659  2.4312  0.1072
 2393SOL     OW18637   0.961   3.380   3.739 -0.6228  0.6345 -0.6677
 2393SOL    HW118638   0.947   3.446   3.806  0.2326  0.9383 -0.7928
 2393SOL    HW218639   0.887   3.386   3.678  0.3343  1.5752 -1.7476
 2394SOL     OW18640   2.624   3.702  17.472  0.4485 -0.5160 -0.1941
 2394SOL    HW118641   2.606   3.679  17.564 -4.2016  2.3277 -0.4107
 2394SOL    HW218642   2.596   3.793  17.473 -1.9478 -1.2764  0.7452
 2395SOL     OW18643   1.102   2.305   9.190  0.0808 -0.0608 -0.0652
 2395SOL    HW118644   1.121   2.358   9.113  0.4024  0.9028  0.6739
 2395SOL    HW218645   1.190   2.309   9.228  0.6633  1.2494 -1.5347
 2396SOL     OW18646   4.076   1.835   6.689  0.7589 -0.0190  0.1350
 2396SOL    HW118647   4.057   1.794   6.605  0.4125  0.4808 -0.0357
 2396SOL    HW218648   4.154   1.783   6.707  1.3201  1.7281  2.7862
 2397SOL     OW18649   1.857   1.440  17.579  0.3633  0.3685 -0.4412
 2397SOL    HW118650   1.837   1.356  17.620 -1.1341  1.8950  1.9674
 2397SOL    HW218651   1.905   1.483  17.650 -0.3869  0.5589 -0.0502
 2398SOL     OW18652   0.761   0.531   7.497 -0.8671  0.5302 -0.0753
 2398SOL    HW118653   0.824   0.563   7.432 -1.8984 -0.5942 -1.6196
 2398SOL    HW218654   0.678   0.567   7.467 -0.0354  0.8293 -2.0050
 2399SOL     OW18655   1.012   1.128   7.010 -0.5918  0.1844  0.0648
 2399SOL    HW118656   0.983   1.170   7.091 -0.9718 -0.3242  0.1986
 2399SOL    HW218657   1.041   1.044   7.048  1.0995  1.0819  0.7558
 2400SOL     OW18658   0.161   4.466   2.888 -0.5885 -1.1023  0.9074
 2400SOL    HW118659   0.256   4.471   2.898 -0.4760 -1.5150  0.0579
 2400SOL    HW218660   0.138   4.413   2.964  0.5446 -1.4556  0.9920
 2401SOL     OW18661   2.640   2.672   2.375 -0.0786  0.1063  0.0685
 2401SOL    HW118662   2.558   2.677   2.326  0.2512 -2.2864 -0.7093
 2401SOL    HW218663   2.680   2.596   2.333 -1.2332 -1.0607  1.1036
 2402SOL     OW18664   2.573   0.830   5.774  0.6666  0.9052  0.7005
 2402SOL    HW118665   2.634   0.871   5.713 -0.6763  0.3813 -0.9948
 2402SOL    HW218666   2.493   0.878   5.756 -0.4918 -1.0011  0.7080
 2403SOL     OW18667   3.715   1.194   3.679 -0.3455 -0.0850 -0.0214
 2403SOL    HW118668   3.681   1.110   3.710 -0.7013 -0.6347 -1.8444
 2403SOL    HW218669   3.809   1.176   3.674 -0.3947 -1.0330  2.8592
 2404SOL     OW18670   3.747   3.995  17.264 -0.2457  0.2412 -0.3398
 2404SOL    HW118671   3.804   4.068  17.242  0.1560 -0.4646 -1.7103
 2404SOL    HW218672   3.753   3.951  17.179 -0.1568 -0.9827  0.2951
 2405SOL     OW18673   0.145   2.381  16.176  0.6559  0.0080 -0.2012
 2405SOL    HW118674   0.091   2.304  16.163  2.1235 -0.7899 -1.5677
 2405SOL    HW218675   0.098   2.450  16.130 -1.4021 -0.7645  0.7687
 2406SOL     OW18676   1.383   2.053   5.409  0.4011  0.0427 -0.8996
 2406SOL    HW118677   1.339   2.065   5.493  1.7010 -2.1176  0.0879
 2406SOL    HW218678   1.380   1.958   5.404  3.1057 -0.0302 -1.2833
 2407SOL     OW18679   1.585   0.730  11.787  0.3436 -0.9091 -0.2248
 2407SOL    HW118680   1.520   0.769  11.728 -1.0634  0.9932  2.6002
 2407SOL    HW218681   1.556   0.771  11.868  1.5175 -0.2462 -0.1427
 2408SOL     OW18682   4.196   0.441   5.317 -0.1143 -0.1085  0.0366
 2408SOL    HW118683   4.181   0.398   5.401  2.7336 -1.6920 -0.2515
 2408SOL    HW218684   4.198   0.529   5.355 -0.2350 -0.1342  0.1007
 2409SOL     OW18685   3.768   1.943   8.039 -0.0391 -0.0275  0.3042
 2409SOL    HW118686   3.718   1.895   8.105  2.4056  0.6449  2.6580
 2409SOL    HW218687   3.811   1.873   7.989 -2.3983  0.7227 -2.7800
 2410SOL     OW18688   3.911   4.500  10.150 -0.1834  0.1747 -0.1371
 2410SOL    HW118689   3.997   4.541  10.148 -1.8238  3.5344 -2.0061
 2410SOL    HW218690   3.912   4.462  10.238  1.1407  0.1950 -0.1397
 2411SOL     OW18691   2.669   3.702   7.957  0.4521  0.6705  0.2021
 2411SOL    HW118692   2.721   3.624   7.978  1.2784  1.2621  0.3530
 2411SOL    HW218693   2.579   3.668   7.955  1.2391 -1.3744 -0.1314
 2412SOL     OW18694   2.167   3.190   4.244  0.2645 -0.4160  0.6435
 2412SOL    HW118695   2.125   3.246   4.179  0.6137  0.6144  1.2980
 2412SOL    HW218696   2.243   3.247   4.260  0.6659 -1.4215  2.3325
 2413SOL     OW18697   0.112   0.752   7.790  1.1492  0.0950 -0.3094
 2413SOL    HW118698   0.075   0.812   7.724 -0.8550 -1.3163 -0.4690
 2413SOL    HW218699   0.059   0.779   7.866  0.3661 -1.8990 -0.1463
 2414SOL     OW18700   2.825   3.386   2.195 -0.2453  0.1371  0.0126
 2414SOL    HW118701   2.876   3.394   2.115 -0.9521  2.9514 -0.1765
 2414SOL    HW218702   2.766   3.317   2.164  0.2166 -1.1657  2.0016
 2415SOL     OW18703   0.453   0.973   6.875 -0.0731 -0.0467  0.0648
 2415SOL    HW118704   0.541   0.983   6.912 -0.2201  0.6705  0.2176
 2415SOL    HW218705   0.435   1.060   6.840  0.5327 -0.3449 -0.9841
 2416SOL     OW18706   3.705   0.449   4.887  1.1011  0.4181 -0.1142
 2416SOL    HW118707   3.750   0.520   4.933  0.6326  0.3193  0.5060
 2416SOL    HW218708   3.631   0.431   4.945  1.7569  1.6105  1.0980
 2417SOL     OW18709   4.524   3.944   0.154 -0.9166  0.1224 -0.7595
 2417SOL    HW118710   4.594   3.982   0.209  0.3819 -1.7096 -1.1640
 2417SOL    HW218711   4.553   3.953   0.063 -2.1785 -0.9238 -1.2510
 2418SOL     OW18712   4.430   2.424   9.062 -0.2744  0.1138  0.0116
 2418SOL    HW118713   4.378   2.486   9.011 -1.3774 -2.3281 -1.7865
 2418SOL    HW218714   4.499   2.475   9.105 -0.8247  0.4790  0.4697
 2419SOL     OW18715   1.878   2.259   0.879  0.3436  0.0847  0.0203
 2419SOL    HW118716   1.798   2.255   0.932  0.5144 -0.1628  0.2570
 2419SOL    HW218717   1.907   2.169   0.890 -0.5727 -0.1846  0.2689
 2420SOL     OW18718   3.896   0.500   9.396  0.4017  0.4742 -0.5849
 2420SOL    HW118719   3.801   0.492   9.392  0.4451 -1.0521  1.5719
 2420SOL    HW218720   3.923   0.417   9.436  1.3475  0.9276 -0.2960
 2421SOL     OW18721   0.574   4.539   0.723 -0.8491 -0.4393  0.3735
 2421SOL    HW118722   0.531   4.617   0.689 -0.7453 -1.0554 -1.1601
 2421SOL    HW218723   0.507   4.472   0.704 -1.5600  1.1696 -2.7996
 2422SOL     OW18724   3.129   3.841   9.295  0.1332  0.3980 -0.1715
 2422SOL    HW118725   3.155   3.915   9.350 -0.4223 -0.0192  0.6423
 2422SOL    HW218726   3.113   3.880   9.209  1.5381 -0.0774 -0.6632
 2423SOL     OW18727   2.335   1.900   7.175  0.6030  0.1689 -0.0590
 2423SOL    HW118728   2.393   1.976   7.179  0.0861  0.5097  0.9522
 2423SOL    HW218729   2.383   1.841   7.118 -0.0538 -0.8582  0.4479
 2424SOL     OW18730   3.437   0.593   4.875 -0.1297  0.3193 -0.1830
 2424SOL    HW118731   3.485   0.571   4.795 -1.1647  1.2145 -1.0323
 2424SOL    HW218732   3.359   0.632   4.836 -1.2199  1.2098  2.9337
 2425SOL     OW18733   2.177   2.559   4.067 -0.1614  0.2324  0.0593
 2425SOL    HW118734   2.230   2.591   4.140 -2.8164  2.8932  0.8274
 2425SOL    HW218735   2.133   2.643   4.056 -0.7828 -0.2416 -1.0508
 2426SOL     OW18736   1.876   0.955   4.806  0.2272 -0.3818  0.1071
 2426SOL    HW118737   1.914   1.034   4.844 -2.4874  0.6410  0.6751
 2426SOL    HW218738   1.782   0.971   4.804  0.2157 -0.6167 -1.9190
 2427SOL     OW18739   0.235   1.133   4.349 -0.2119 -0.4753  0.2258
 2427SOL    HW118740   0.184   1.068   4.299 -0.5605  0.0916 -0.1490
 2427SOL    HW218741   0.324   1.098   4.355  0.4689  1.2731  0.2503
 2428SOL     OW18742   3.114   0.791   6.635 -0.1914  0.0928  0.3609
 2428SOL    HW118743   3.088   0.881   6.654 -1.4345  0.0364 -1.0820
 2428SOL    HW218744   3.143   0.789   6.544 -2.9578  2.3408 -0.5790
 2429SOL     OW18745   0.913   0.393   6.350  0.1251 -0.2196  0.0424
 2429SOL    HW118746   0.975   0.325   6.378 -1.1103 -0.2300  2.7467
 2429SOL    HW218747   0.900   0.418   6.441 -0.7822 -3.4789  0.8225
 2430SOL     OW18748   1.330   2.735   0.147  0.0137 -0.1315  0.2812
 2430SOL    HW118749   1.297   2.806   0.202  0.2354  0.3362 -0.1910
 2430SOL    HW218750   1.425   2.746   0.156  0.0870  2.3594 -3.4958
 2431SOL     OW18751   2.821   0.149  11.775 -0.0918 -0.0182 -0.0299
 2431SOL    HW118752   2.874   0.190  11.844  0.3945  0.0796 -0.4615
 2431SOL    HW218753   2.742   0.138  11.829  1.3613  0.3047  2.1852
 2432SOL     OW18754   1.133   1.223   7.579  0.0834  0.3454 -0.2169
 2432SOL    HW118755   1.175   1.151   7.532  0.1447  1.3182 -1.6737
 2432SOL    HW218756   1.046   1.219   7.538  0.2270  1.5117 -0.6273
 2433SOL     OW18757   3.792   4.505  16.183  0.1601 -0.4689 -0.8411
 2433SOL    HW118758   3.784   4.418  16.144  2.2862 -0.9841 -0.1439
 2433SOL    HW218759   3.720   4.559  16.149 -1.3793 -1.1739  1.2972
 2434SOL     OW18760   4.026   0.511   3.595  0.2878 -0.4490 -0.4785
 2434SOL    HW118761   3.986   0.423   3.594 -1.6456  0.4077  0.7492
 2434SOL    HW218762   3.969   0.563   3.538  0.4488  1.4692  1.1396
 2435SOL     OW18763   0.548   0.850   2.749 -0.2247  0.0852 -0.5481
 2435SOL    HW118764   0.573   0.874   2.660  3.1036  1.6924  0.8540
 2435SOL    HW218765   0.566   0.934   2.791 -0.4128  0.8384 -1.9443
 2436SOL     OW18766   0.698   3.995   5.556 -0.0683 -0.5302 -0.1624
 2436SOL    HW118767   0.748   3.916   5.532  2.8447  0.4890  2.5016
 2436SOL    HW218768   0.761   4.043   5.609 -0.2989 -0.3579 -0.0477
 2437SOL     OW18769   0.157   0.180   8.551  0.1816 -0.4797 -0.1634
 2437SOL    HW118770   0.151   0.271   8.523  1.4262 -0.4033 -0.1571
 2437SOL    HW218771   0.233   0.144   8.505  1.1612  2.0506 -0.5224
 2438SOL     OW18772   1.065   4.008   5.302 -0.1130 -0.4664  0.1719
 2438SOL    HW118773   1.049   3.916   5.283 -0.4897 -0.6584  1.4256
 2438SOL    HW218774   0.976   4.041   5.290  0.2920  0.0257 -1.4238
 2439SOL     OW18775   4.594   0.290   7.180  0.5402  0.6620  0.3166
 2439SOL    HW118776   4.582   0.318   7.089  0.1550 -1.7739 -0.3787
 2439SOL    HW218777   4.506   0.310   7.214 -0.0505  0.4854 -1.1063
 2440SOL     OW18778   0.345   1.294  11.706 -0.0740  0.4007  0.2555
 2440SOL    HW118779   0.366   1.245  11.626 -0.0940 -0.7971  0.9847
 2440SOL    HW218780   0.362   1.382  11.672 -0.1640  0.1940 -0.3310
 2441SOL     OW18781   4.452   1.382   1.123  0.1286 -0.5908 -0.1183
 2441SOL    HW118782   4.375   1.426   1.088  1.5837  1.8222 -0.3075
 2441SOL    HW218783   4.462   1.300   1.073 -3.2562 -0.4829 -0.9668
 2442SOL     OW18784   3.598   2.896   3.824  0.5853  0.7605 -0.5418
 2442SOL    HW118785   3.589   2.837   3.748 -1.0008  0.2826  0.0304
 2442SOL    HW218786   3.517   2.882   3.872  1.5239 -1.9083  0.2584
 2443SOL     OW18787   1.616   2.506   6.124 -0.0308  0.3826  0.5624
 2443SOL    HW118788   1.522   2.498   6.137 -0.0735 -1.4186 -0.7425
 2443SOL    HW218789   1.650   2.437   6.066  1.0694 -0.1583  1.8441
 2444SOL     OW18790   1.119   0.592  14.058  0.3561  0.5422  0.2635
 2444SOL    HW118791   1.131   0.535  14.134 -0.1429 -0.3056 -0.2979
 2444SOL    HW218792   1.025   0.608  14.063  0.5641  1.9929 -0.2887
 2445SOL     OW18793   3.794   1.908   3.484 -0.3304 -0.2787  0.1126
 2445SOL    HW118794   3.769   2.000   3.479 -0.1154 -0.1381  1.5331
 2445SOL    HW218795   3.874   1.912   3.432 -0.5610  0.6590 -0.1720
 2446SOL     OW18796   0.745   0.256  12.369  0.1531 -0.1796  0.2904
 2446SOL    HW118797   0.668   0.212  12.404 -0.1232  0.8733  1.0109
 2446SOL    HW218798   0.803   0.202  12.423 -0.2051 -1.3339 -0.4754
 2447SOL     OW18799   3.972   3.910  13.155  0.3927 -0.3912 -0.1653
 2447SOL    HW118800   4.019   3.829  13.137  1.1746 -0.1598  0.8365
 2447SOL    HW218801   4.010   3.969  13.090 -2.8170  1.8544  0.0014
 2448SOL     OW18802   2.040   0.300   8.217  0.1258  0.0725 -0.3931
 2448SOL    HW118803   2.044   0.385   8.261  3.7899 -0.3782  0.0896
 2448SOL    HW218804   2.019   0.241   8.288  0.2161  0.0567 -0.3796
 2449SOL     OW18805   2.580   2.746  14.784 -0.6409  0.4744  0.3656
 2449SOL    HW118806   2.487   2.730  14.772 -0.7338 -0.3206  2.0768
 2449SOL    HW218807   2.604   2.654  14.770  0.1676  0.3663  2.4545
 2450SOL     OW18808   3.507   2.348   2.357 -0.0612 -0.2189 -0.1139
 2450SOL    HW118809   3.509   2.379   2.448 -0.4475 -0.2216 -0.1053
 2450SOL    HW218810   3.428   2.295   2.347 -1.5941  2.0581 -0.0378
 2451SOL     OW18811   0.443   2.704   6.465 -0.0815  0.0918 -0.2970
 2451SOL    HW118812   0.435   2.643   6.538  0.5875 -0.1550 -0.4299
 2451SOL    HW218813   0.505   2.769   6.497  0.5113 -1.0140  0.8147
 2452SOL     OW18814   1.507   4.105  16.024 -0.1265 -0.2898  0.1210
 2452SOL    HW118815   1.571   4.125  16.092  0.3627 -0.1316 -0.3850
 2452SOL    HW218816   1.531   4.016  15.998  2.1590  0.8467 -1.6733
 2453SOL     OW18817   3.067   3.265  10.316  0.3776  0.2196 -0.7003
 2453SOL    HW118818   3.025   3.351  10.314  0.1501  0.1292  0.7164
 2453SOL    HW218819   3.142   3.290  10.369  0.3070  1.0147 -0.9787
 2454SOL     OW18820   1.158   2.432   0.951 -0.3575 -0.0154  0.3118
 2454SOL    HW118821   1.063   2.435   0.962 -0.3823  0.5552 -0.0538
 2454SOL    HW218822   1.181   2.508   1.004 -0.7844 -0.9208  1.7807
 2455SOL     OW18823   0.943   4.675   6.369  0.1833  0.9534  0.5387
 2455SOL    HW118824   0.887   4.722   6.431 -0.4881  0.6993  0.1295
 2455SOL    HW218825   1.013   4.652   6.430 -0.5829 -0.7985  0.7676
 2456SOL     OW18826   4.279   1.057   5.662  0.6578  0.4703 -0.3989
 2456SOL    HW118827   4.227   1.049   5.582  0.2828  0.5928 -0.1698
 2456SOL    HW218828   4.366   1.082   5.632  0.6080  0.2271 -0.7427
 2457SOL     OW18829   3.700   2.354   1.709 -0.2852 -0.1525  0.6847
 2457SOL    HW118830   3.657   2.336   1.792 -0.3406 -0.8517  0.5052
 2457SOL    HW218831   3.627   2.358   1.646 -0.0171 -2.1934  0.2620
 2458SOL     OW18832   1.716   0.655  15.593 -0.1331 -0.1202  0.0857
 2458SOL    HW118833   1.701   0.602  15.672 -0.2449 -0.8339 -0.4182
 2458SOL    HW218834   1.686   0.600  15.520  1.4406 -0.6872 -0.1269
 2459SOL     OW18835   1.398   2.137   9.754  0.0429  0.1316 -0.3080
 2459SOL    HW118836   1.350   2.057   9.777  0.0117 -0.2465 -1.6454
 2459SOL    HW218837   1.488   2.110   9.771 -0.6318 -1.8208  0.1640
 2460SOL     OW18838   2.860   2.230  16.262 -0.3269 -0.0561 -0.2798
 2460SOL    HW118839   2.788   2.292  16.271 -0.9284 -0.4420 -2.5053
 2460SOL    HW218840   2.819   2.151  16.296  0.8465 -0.8996 -0.8276
 2461SOL     OW18841   0.653   3.302   6.669 -0.0706 -0.1679  0.5227
 2461SOL    HW118842   0.641   3.372   6.605  1.4379 -0.4792 -0.0959
 2461SOL    HW218843   0.667   3.357   6.745 -3.7743  0.0726  1.0264
 2462SOL     OW18844   0.928   0.443   8.759 -0.0479 -0.0352  0.1955
 2462SOL    HW118845   0.911   0.477   8.671  1.9445  0.3601 -0.0416
 2462SOL    HW218846   0.837   0.438   8.787  0.7880 -0.3509  2.9590
 2463SOL     OW18847   0.905   0.574   7.737  0.6085  0.2465 -0.4279
 2463SOL    HW118848   0.996   0.572   7.707  1.2649 -0.0667  1.5489
 2463SOL    HW218849   0.852   0.571   7.657 -0.9223  0.9835  0.5496
 2464SOL     OW18850   0.142   2.064   5.735  0.6016 -0.4711  0.0738
 2464SOL    HW118851   0.151   2.145   5.785  0.8831 -1.5878  1.8420
 2464SOL    HW218852   0.216   2.061   5.675  0.4776  1.6260 -0.1702
 2465SOL     OW18853   0.457   1.700   1.718 -0.0675  0.5417  0.4606
 2465SOL    HW118854   0.542   1.741   1.733 -0.3986  1.3638  0.1030
 2465SOL    HW218855   0.395   1.758   1.763  0.0571  1.8007 -0.9972
 2466SOL     OW18856   3.587   1.120  11.877 -0.1327  0.4258 -0.4738
 2466SOL    HW118857   3.614   1.031  11.897 -0.6917  0.4833  0.5319
 2466SOL    HW218858   3.566   1.105  11.784 -1.2774  3.1524 -0.6699
 2467SOL     OW18859   3.405   1.655   2.573  0.2031 -0.1263  0.2895
 2467SOL    HW118860   3.362   1.601   2.506 -1.6536  0.2289  1.2082
 2467SOL    HW218861   3.497   1.650   2.545  0.4187 -0.3722  1.0499
 2468SOL     OW18862   3.184   0.748   7.114  0.2024  0.7588  0.0016
 2468SOL    HW118863   3.273   0.722   7.090  0.4337  1.1753  0.4226
 2468SOL    HW218864   3.207   0.815   7.178 -0.1756  0.0250  0.9039
 2469SOL     OW18865   2.594   4.483   3.716 -0.0911  0.1317 -0.0772
 2469SOL    HW118866   2.639   4.459   3.635 -0.2095  1.5079 -0.5385
 2469SOL    HW218867   2.588   4.578   3.706  1.0518  0.2787  0.6475
 2470SOL     OW18868   0.001   2.078   9.076 -0.3319  0.1062  0.2728
 2470SOL    HW118869   0.024   2.066   9.168  3.5902 -0.3038 -0.7757
 2470SOL    HW218870   4.701   2.171   9.072  1.8185  0.6112 -0.7313
 2471SOL     OW18871   2.377   3.903  13.204  0.2508  0.0301  0.0684
 2471SOL    HW118872   2.411   3.950  13.280  1.8383 -2.0762  0.6429
 2471SOL    HW218873   2.404   3.813  13.218 -0.3197 -0.2512 -0.6238
 2472SOL     OW18874   3.254   1.636   3.278  0.4931 -0.0572  0.1912
 2472SOL    HW118875   3.336   1.592   3.298  2.3100  2.6418 -1.3407
 2472SOL    HW218876   3.250   1.703   3.346 -2.9692 -0.9484  0.9050
 2473SOL     OW18877   0.320   2.586   8.969 -0.8152  0.1793  0.0810
 2473SOL    HW118878   0.406   2.615   8.938 -0.3732 -0.0066  1.1442
 2473SOL    HW218879   0.266   2.596   8.891  1.1576 -1.7914 -1.5242
 2474SOL     OW18880   1.486   3.989   1.469 -0.3805 -0.2346  0.3449
 2474SOL    HW118881   1.441   3.906   1.477 -0.6769 -0.2535 -1.6014
 2474SOL    HW218882   1.564   3.962   1.422 -0.7477 -0.0781 -0.3571
 2475SOL     OW18883   4.699   0.712   7.394 -0.6144 -0.4645  0.0746
 2475SOL    HW118884   4.659   0.743   7.313 -0.5132  0.6162  0.4425
 2475SOL    HW218885   4.702   0.793   7.445 -0.5869 -1.7842  2.1360
 2476SOL     OW18886   2.869   0.286   5.678  0.3791 -0.1886  0.5957
 2476SOL    HW118887   2.958   0.312   5.655 -1.6246  2.6906 -3.9221
 2476SOL    HW218888   2.864   0.340   5.757 -0.2065  1.2404 -0.4022
 2477SOL     OW18889   3.551   3.340   0.775 -0.3389  0.2365  0.3409
 2477SOL    HW118890   3.480   3.285   0.808 -1.0565 -0.1025 -1.7206
 2477SOL    HW218891   3.618   3.331   0.842  1.0412 -1.8279 -1.3161
 2478SOL     OW18892   1.694   2.264   9.035 -0.1822 -0.1577 -0.0959
 2478SOL    HW118893   1.725   2.244   9.123  1.6353 -0.2646 -0.7438
 2478SOL    HW218894   1.728   2.184   8.993  3.2729 -1.1791  4.6873
 2479SOL     OW18895   0.471   0.721   5.568  0.0144 -0.2758  1.0852
 2479SOL    HW118896   0.505   0.635   5.544  0.9628  0.3797  0.0686
 2479SOL    HW218897   0.523   0.747   5.644  0.4695  0.9107  0.3604
 2480SOL     OW18898   1.106   0.965   3.619 -0.6860  0.6492 -0.7371
 2480SOL    HW118899   1.146   1.009   3.545  0.2483 -0.5269 -0.9315
 2480SOL    HW218900   1.130   0.875   3.595 -1.0723  0.4795 -0.5032
 2481SOL     OW18901   1.264   0.061   4.997 -0.2674 -0.0895  0.3504
 2481SOL    HW118902   1.252   0.095   5.086  0.6198 -0.6122  0.6748
 2481SOL    HW218903   1.357   0.041   4.982 -0.2841 -0.1347  0.3070
 2482SOL     OW18904   2.986   4.330  12.780  0.0320 -0.2761 -0.0287
 2482SOL    HW118905   3.050   4.335  12.851  1.3144  0.3881 -1.2270
 2482SOL    HW218906   2.969   4.424  12.777  0.8521 -0.1006  0.8181
 2483SOL     OW18907   0.913   3.894   1.914 -0.1106 -0.8570 -0.8199
 2483SOL    HW118908   0.984   3.922   1.972 -0.6354 -2.1878  0.4747
 2483SOL    HW218909   0.829   3.932   1.942  0.7210  1.5430 -1.6198
 2484SOL     OW18910   3.407   1.088   3.945  0.5199  0.3262  0.1060
 2484SOL    HW118911   3.394   1.111   3.852 -1.5001 -2.0203 -0.1684
 2484SOL    HW218912   3.357   1.007   3.941  1.3903 -0.2156 -0.0025
 2485SOL     OW18913   3.790   0.095  11.717  1.0778  0.6398 -0.4610
 2485SOL    HW118914   3.739   0.172  11.691 -0.0493  0.0811  0.0986
 2485SOL    HW218915   3.881   0.122  11.701  1.1081  0.9808  0.2656
 2486SOL     OW18916   2.038   3.649   7.532  0.2031  0.2134 -0.1142
 2486SOL    HW118917   1.981   3.576   7.553 -0.2340  0.2466 -1.1751
 2486SOL    HW218918   2.119   3.598   7.526  1.0688  1.3523  1.6273
 2487SOL     OW18919   4.190   4.002   9.320  0.5598 -0.2024 -0.3283
 2487SOL    HW118920   4.217   3.948   9.245  2.3315  0.0985  0.0870
 2487SOL    HW218921   4.143   4.077   9.282 -1.2948 -1.2723 -0.1526
 2488SOL     OW18922   2.161   3.861   2.840 -0.0727 -1.0121  0.4814
 2488SOL    HW118923   2.070   3.865   2.870 -0.5866 -0.2737 -1.2292
 2488SOL    HW218924   2.166   3.800   2.767 -1.5062  0.1818 -0.6051
 2489SOL     OW18925   3.810   0.692   6.771  0.3965  0.0159 -0.0286
 2489SOL    HW118926   3.852   0.722   6.852  0.2514 -1.6678  0.6705
 2489SOL    HW218927   3.878   0.635   6.735 -1.2826 -1.9804 -0.0141
 2490SOL     OW18928   3.409   2.632   3.618  0.4097  0.6331  0.1262
 2490SOL    HW118929   3.404   2.541   3.588  0.0227  0.5234  0.5152
 2490SOL    HW218930   3.400   2.686   3.540 -2.3495 -0.2660 -0.1979
 2491SOL     OW18931   1.758   1.430   7.681 -0.0368  0.3198  0.5362
 2491SOL    HW118932   1.825   1.466   7.623  0.5467 -0.5344  0.6747
 2491SOL    HW218933   1.808   1.434   7.763  1.4379 -1.6823 -0.2573
 2492SOL     OW18934   1.602   4.637   1.867 -0.1458 -0.0148 -0.3171
 2492SOL    HW118935   1.541   4.589   1.811 -1.4161 -0.0427  1.1099
 2492SOL    HW218936   1.686   4.607   1.833 -0.5339  0.1155 -1.3958
 2493SOL     OW18937   0.265   1.429  15.369  0.1387  0.2400 -0.2706
 2493SOL    HW118938   0.328   1.498  15.387  0.8489 -0.6455  0.6057
 2493SOL    HW218939   0.203   1.461  15.434 -2.1190 -0.3178 -2.1252
 2494SOL     OW18940   3.982   0.246   9.503  0.2886  0.7240  0.2611
 2494SOL    HW118941   3.955   0.236   9.594  0.3017 -1.6058  0.0244
 2494SOL    HW218942   3.978   0.157   9.468 -0.5338  0.8998 -0.0984
 2495SOL     OW18943   1.820   1.652   2.465 -0.4666  0.1615  0.2853
 2495SOL    HW118944   1.881   1.706   2.516  1.3759 -0.4786 -1.2523
 2495SOL    HW218945   1.875   1.573   2.461 -0.2651  0.4135 -1.8892
 2496SOL     OW18946   4.535   3.260   2.917  0.3451  0.1635  0.4284
 2496SOL    HW118947   4.609   3.243   2.976  1.3275  0.6834 -0.6563
 2496SOL    HW218948   4.578   3.324   2.860 -0.5901  0.5792  0.1903
 2497SOL     OW18949   4.397   3.387   9.173 -0.2131 -0.1415 -0.0451
 2497SOL    HW118950   4.336   3.429   9.112 -0.1083 -2.4616 -1.7257
 2497SOL    HW218951   4.383   3.443   9.249  0.2091 -2.4737  1.7417
 2498SOL     OW18952   4.528   2.406  13.686 -0.0298 -0.1973  0.4321
 2498SOL    HW118953   4.571   2.373  13.607 -0.2553  1.1957 -0.2744
 2498SOL    HW218954   4.437   2.382  13.668 -0.9270  2.6495  1.2416
 2499SOL     OW18955   0.341   2.487   4.827 -0.0132  0.3938 -0.3459
 2499SOL    HW118956   0.356   2.416   4.890  2.8635  1.1876 -0.1466
 2499SOL    HW218957   0.270   2.453   4.773  2.0091 -1.1423 -2.0666
 2500SOL     OW18958   2.735   3.487   7.114  0.2682 -0.6462 -0.5248
 2500SOL    HW118959   2.801   3.417   7.122  1.0645  0.1150 -0.4537
 2500SOL    HW218960   2.804   3.553   7.109 -0.7689  0.4528 -0.0583
 2501SOL     OW18961   1.002   0.727   0.064 -0.0986  0.4397 -0.8150
 2501SOL    HW118962   0.950   0.707  17.683  0.1288 -1.8450 -0.3980
 2501SOL    HW218963   0.939   0.688   0.125  1.7055  1.0570  1.4125
 2502SOL     OW18964   2.874   0.398   1.919  0.5276  0.0074 -0.3447
 2502SOL    HW118965   2.845   0.342   1.848  2.4094 -0.6577 -0.6018
 2502SOL    HW218966   2.953   0.356   1.952 -0.2128 -1.7160 -0.8106
 2503SOL     OW18967   2.304   4.165   6.127 -0.1232 -0.4058 -0.5679
 2503SOL    HW118968   2.285   4.128   6.041  0.2514  2.1760 -1.7755
 2503SOL    HW218969   2.370   4.099   6.146 -0.0956 -0.4050 -0.6613
 2504SOL     OW18970   2.793   3.524   6.482  0.0835  0.5747  0.0471
 2504SOL    HW118971   2.861   3.560   6.426  0.6961 -0.0002  0.4115
 2504SOL    HW218972   2.782   3.585   6.555 -0.0008 -1.5607  1.8307
 2505SOL     OW18973   4.156   3.804   8.201  0.1639 -0.3285  0.0682
 2505SOL    HW118974   4.158   3.725   8.255  0.7536 -1.3002 -1.3551
 2505SOL    HW218975   4.063   3.807   8.179  0.4947 -2.1953 -1.5826
 2506SOL     OW18976   0.161   4.717   5.802 -0.0812  0.2298 -0.1416
 2506SOL    HW118977   0.107   0.017   5.726  1.6436  0.3975 -1.3197
 2506SOL    HW218978   0.125   0.045   5.873  0.8195  1.3254 -0.4796
 2507SOL     OW18979   0.623   3.027   1.363  0.3275  0.1625  0.0669
 2507SOL    HW118980   0.710   3.037   1.402  0.4737  0.0983 -0.2413
 2507SOL    HW218981   0.648   2.944   1.323  0.7818  0.7755 -0.9340
 2508SOL     OW18982   0.045   0.632   9.944 -0.2925 -0.1741  0.9654
 2508SOL    HW118983   0.085   0.605  10.027  1.2535  0.5701  0.4595
 2508SOL    HW218984   0.032   0.727   9.950 -1.9132 -0.3406 -0.1309
 2509SOL     OW18985   4.304   1.579   5.288 -0.3522 -0.5681 -0.0618
 2509SOL    HW118986   4.272   1.617   5.370 -1.0189 -0.5259 -0.3428
 2509SOL    HW218987   4.234   1.601   5.226 -0.1973  0.5444  0.1570
 2510SOL     OW18988   1.857   1.629  11.602 -0.2307 -0.1288 -0.5111
 2510SOL    HW118989   1.932   1.685  11.619  0.1339 -0.5063 -0.8597
 2510SOL    HW218990   1.828   1.620  11.693 -0.2931 -0.7793 -0.5897
 2511SOL     OW18991   2.483   0.333   4.862 -0.0633 -0.3568 -0.1387
 2511SOL    HW118992   2.514   0.384   4.936 -0.5658 -2.4170  1.4607
 2511SOL    HW218993   2.478   0.403   4.796  2.5049 -0.0717 -0.0164
 2512SOL     OW18994   3.056   1.090  15.706 -0.2891  0.0390 -0.5212
 2512SOL    HW118995   2.970   1.056  15.683 -0.0818  0.3782 -1.8025
 2512SOL    HW218996   3.082   1.043  15.784 -2.4242  0.0518  0.1996
 2513SOL     OW18997   3.916   0.438   2.973 -0.0887 -0.4138  0.7876
 2513SOL    HW118998   3.865   0.484   3.040 -0.2154  0.6345 -0.0270
 2513SOL    HW218999   3.996   0.491   2.978  1.1384 -2.0217 -1.7515
 2514SOL     OW19000   2.631   1.403   7.903  0.7261  0.4622 -0.1807
 2514SOL    HW119001   2.598   1.441   7.821 -1.4116 -2.4524 -0.6651
 2514SOL    HW219002   2.579   1.460   7.960 -1.4807  0.8014 -2.4873
 2515SOL     OW19003   4.035   2.476  13.416  0.2855 -0.1569  0.2026
 2515SOL    HW119004   3.999   2.439  13.335 -1.0191 -1.2803  1.2867
 2515SOL    HW219005   3.966   2.534  13.448 -0.4432 -0.3046 -1.0818
 2516SOL     OW19006   0.235   2.336   6.398  0.5638 -0.4182 -0.5777
 2516SOL    HW119007   0.287   2.308   6.322  1.0455 -0.9124 -0.0700
 2516SOL    HW219008   0.147   2.320   6.364 -0.1353  2.8023 -0.2286
 2517SOL     OW19009   0.795   4.485   2.073 -0.5263  0.4613 -0.6139
 2517SOL    HW119010   0.831   4.418   2.015  0.0786  0.6434 -0.4391
 2517SOL    HW219011   0.712   4.445   2.099  0.9353 -2.2149 -0.1530
 2518SOL     OW19012   0.024   4.187   7.185  0.1135 -0.0725  0.5403
 2518SOL    HW119013   0.051   4.140   7.264  1.7357 -2.3439 -1.3817
 2518SOL    HW219014   4.708   4.271   7.211  0.6561  0.1790  0.5470
 2519SOL     OW19015   2.308   1.406  12.018  0.7019  0.7221 -0.0691
 2519SOL    HW119016   2.380   1.369  11.968  0.8226 -2.2075  2.2872
 2519SOL    HW219017   2.242   1.413  11.950 -1.5267  1.4564  2.1478
 2520SOL     OW19018   3.898   1.507   6.033 -0.4403  0.1288 -0.6773
 2520SOL    HW119019   3.887   1.479   6.124 -4.1789  0.1892 -1.0950
 2520SOL    HW219020   3.972   1.453   6.005  0.8870  2.0284 -0.7749
 2521SOL     OW19021   0.357   1.503   8.734 -0.0941 -0.4544 -0.3382
 2521SOL    HW119022   0.299   1.432   8.708 -0.9692  0.0776  0.1311
 2521SOL    HW219023   0.303   1.540   8.804 -1.7267 -0.5780 -1.5359
 2522SOL     OW19024   0.857   3.777   5.442  0.3259 -0.5836  0.0277
 2522SOL    HW119025   0.878   3.779   5.536 -1.8797  0.5548  0.4935
 2522SOL    HW219026   0.930   3.732   5.399  1.0759  0.6956 -0.0684
 2523SOL     OW19027   1.641   2.411   0.323 -0.1401 -0.3112  0.3383
 2523SOL    HW119028   1.651   2.504   0.342  1.5709 -0.2619 -0.7695
 2523SOL    HW219029   1.733   2.384   0.328 -0.2552 -0.5684  1.1849
 2524SOL     OW19030   3.825   2.584  11.715  0.1125  0.6124  0.1953
 2524SOL    HW119031   3.807   2.502  11.669 -2.7079  0.6180  1.2696
 2524SOL    HW219032   3.902   2.558  11.765 -0.5659 -0.1156  0.8739
 2525SOL     OW19033   0.172   0.835   1.975 -0.4381 -0.2012  0.2250
 2525SOL    HW119034   0.184   0.747   1.938 -1.2118  0.3044 -1.2477
 2525SOL    HW219035   0.078   0.844   1.958 -0.4923 -1.9517 -0.4353
 2526SOL     OW19036   1.759   1.731  10.523  0.3882 -0.7306 -0.0449
 2526SOL    HW119037   1.685   1.765  10.572  1.2577  0.6916  0.2601
 2526SOL    HW219038   1.803   1.813  10.504  0.9331 -0.6630  1.5367
 2527SOL     OW19039   4.056   2.686  15.032 -0.4416  0.1301  0.2020
 2527SOL    HW119040   4.054   2.592  15.014 -1.6103  0.2204 -0.1614
 2527SOL    HW219041   4.042   2.686  15.126  1.3222  0.6424  0.4520
 2528SOL     OW19042   3.078   1.784   2.369  0.1965 -0.9441  0.4143
 2528SOL    HW119043   3.160   1.735   2.366  1.3712  1.0159 -0.4115
 2528SOL    HW219044   3.023   1.708   2.355  1.0389 -1.1982 -1.6374
 2529SOL     OW19045   3.067   3.386   4.066  0.5492  0.4357  0.4022
 2529SOL    HW119046   3.006   3.314   4.051  0.7473  0.2858  0.3191
 2529SOL    HW219047   3.153   3.348   4.050 -0.0235 -0.2534 -1.0344
 2530SOL     OW19048   1.466   3.548   1.335 -0.1530  0.5479  0.0328
 2530SOL    HW119049   1.443   3.587   1.419 -0.9820  2.2485 -0.9843
 2530SOL    HW219050   1.553   3.511   1.349 -0.6873 -0.8359 -0.2992
 2531SOL     OW19051   3.141   3.612   1.070 -0.7398  0.1043  0.3435
 2531SOL    HW119052   3.120   3.532   1.118  2.1137  0.0339  1.4685
 2531SOL    HW219053   3.144   3.566   0.986  1.8524 -1.4224  1.2754
 2532SOL     OW19054   1.427   4.612   4.553  0.0458 -0.1329 -0.4359
 2532SOL    HW119055   1.499   4.558   4.523  0.1618  0.9806 -2.1175
 2532SOL    HW219056   1.452   4.638   4.642  1.8470 -2.1320 -0.3578
 2533SOL     OW19057   1.244   1.350   5.395  0.1312 -0.0722  0.4552
 2533SOL    HW119058   1.151   1.334   5.376  0.0526  1.4580 -0.4360
 2533SOL    HW219059   1.240   1.443   5.417  0.9016  0.4151 -1.5250
 2534SOL     OW19060   0.198   0.979  13.895 -0.8005 -0.3193  0.5102
 2534SOL    HW119061   0.282   0.969  13.848 -1.0112  1.7223 -0.2894
 2534SOL    HW219062   0.201   0.896  13.943 -2.7585  0.2432  1.5746
 2535SOL     OW19063   4.026   3.112   7.137 -0.0940  0.5248 -0.5298
 2535SOL    HW119064   4.076   3.192   7.152 -1.2799  1.2733 -0.6191
 2535SOL    HW219065   4.097   3.051   7.156 -0.4407  0.2627 -0.0703
 2536SOL     OW19066   1.473   0.419   4.529  0.0257  0.5803 -0.2201
 2536SOL    HW119067   1.560   0.394   4.498 -0.0568 -2.2813  1.8808
 2536SOL    HW219068   1.416   0.417   4.452  2.1510  0.4220 -1.7840
 2537SOL     OW19069   1.197   1.065   8.669  0.2550 -0.7378  0.2035
 2537SOL    HW119070   1.122   1.008   8.682 -0.1263 -0.2081  0.3008
 2537SOL    HW219071   1.248   1.055   8.750  0.0613  0.8495  0.5106
 2538SOL     OW19072   0.231   1.124   1.018  0.3372 -0.1286 -0.8118
 2538SOL    HW119073   0.212   1.138   1.111  3.4228  0.5718 -0.2691
 2538SOL    HW219074   0.326   1.133   1.021  0.5080 -2.1136 -0.5539
 2539SOL     OW19075   2.207   0.901   5.330  0.0140 -0.2044 -0.3629
 2539SOL    HW119076   2.239   0.939   5.249  1.6194  0.9032  0.7778
 2539SOL    HW219077   2.287   0.869   5.371  1.9307  1.8109 -2.5974
 2540SOL     OW19078   3.028   0.426   5.030 -0.6168 -0.1284  0.5978
 2540SOL    HW119079   2.958   0.460   4.975  1.9831  2.5637 -0.9502
 2540SOL    HW219080   3.014   0.335   5.003  1.0374 -0.1590 -0.1025
 2541SOL     OW19081   1.037   0.518   6.126  0.4700 -0.0680  0.1575
 2541SOL    HW119082   1.117   0.546   6.171  1.0554 -0.6432 -0.5314
 2541SOL    HW219083   0.974   0.497   6.195  0.1686  0.0187 -0.0962
 2542SOL     OW19084   2.152   0.815  13.445  0.2350  0.0377 -0.2372
 2542SOL    HW119085   2.136   0.739  13.389  0.8274 -0.8528  0.7982
 2542SOL    HW219086   2.247   0.825  13.459  0.1760 -0.3423  0.4377
 2543SOL     OW19087   2.532   3.450   6.786  0.1891  0.4492  0.4584
 2543SOL    HW119088   2.486   3.534   6.790  0.9444  0.8025  1.9391
 2543SOL    HW219089   2.469   3.400   6.839 -0.6429  0.7989 -0.2002
 2544SOL     OW19090   2.761   1.510   1.767 -0.0467 -0.5452 -0.6085
 2544SOL    HW119091   2.764   1.509   1.671  2.9949 -1.5459 -0.4864
 2544SOL    HW219092   2.670   1.533   1.786 -0.6021 -1.3727 -2.2622
 2545SOL     OW19093   0.496   3.746   4.304  0.4485 -0.6895  0.0577
 2545SOL    HW119094   0.462   3.669   4.351  0.7807 -1.6339 -1.2338
 2545SOL    HW219095   0.424   3.756   4.241  2.7083  0.5010 -2.3104
 2546SOL     OW19096   2.168   1.045  12.579 -0.1940 -0.6758 -0.4331
 2546SOL    HW119097   2.150   0.954  12.601  1.5811 -0.5557  1.5459
 2546SOL    HW219098   2.231   1.072  12.646 -1.4165 -0.1677  0.5168
 2547SOL     OW19099   3.634   0.652   8.565 -0.1032  0.2321  0.3148
 2547SOL    HW119100   3.560   0.683   8.616  0.7520 -0.2854  1.8757
 2547SOL    HW219101   3.690   0.730   8.564 -0.6118  0.6008  0.5838
 2548SOL     OW19102   2.716   2.501   6.981 -0.1791  0.3002 -0.4797
 2548SOL    HW119103   2.745   2.476   7.068  0.0669 -1.9401 -1.2199
 2548SOL    HW219104   2.755   2.589   6.978 -0.1526  0.3309  0.8852
 2549SOL     OW19105   0.329   1.234  14.039 -0.1264 -0.1557  0.2533
 2549SOL    HW119106   0.262   1.199  13.980 -1.2981  1.8793  0.3671
 2549SOL    HW219107   0.395   1.248  13.970  0.1441  1.4361  0.8313
 2550SOL     OW19108   0.592   1.334   3.147 -0.5834 -0.6359 -0.3291
 2550SOL    HW119109   0.539   1.351   3.069  0.8448 -0.5350 -1.2873
 2550SOL    HW219110   0.618   1.421   3.176  2.5712 -1.8143  0.3138
 2551SOL     OW19111   0.462   0.188   5.813  0.6114  0.1448  0.4214
 2551SOL    HW119112   0.510   0.123   5.864 -1.8167 -0.5163  1.9046
 2551SOL    HW219113   0.433   0.140   5.735 -1.3210  1.1575  0.5074
 2552SOL     OW19114   1.899   2.010  14.851  0.0351  0.2415  0.3146
 2552SOL    HW119115   1.938   1.925  14.872 -1.3264 -0.8276 -1.5202
 2552SOL    HW219116   1.821   1.979  14.804  1.1286 -0.4664 -1.0229
 2553SOL     OW19117   3.136   1.290  12.221 -0.1358 -0.3209 -0.3594
 2553SOL    HW119118   3.154   1.196  12.214 -0.7456 -0.3467 -1.6839
 2553SOL    HW219119   3.109   1.312  12.310 -1.5427 -0.5025 -0.7414
 2554SOL     OW19120   2.560   0.641   1.804  0.6909  0.0352  0.5996
 2554SOL    HW119121   2.485   0.612   1.856  0.3759 -1.0616 -0.4528
 2554SOL    HW219122   2.541   0.617   1.713  0.4075 -1.3334  1.0083
 2555SOL     OW19123   2.174   0.920   3.233 -0.1624  0.4611 -0.3564
 2555SOL    HW119124   2.221   0.961   3.306 -0.6400  0.4705 -0.0525
 2555SOL    HW219125   2.137   0.994   3.185  0.5050  0.5332 -0.7599
 2556SOL     OW19126   3.662   2.472   1.007 -0.0606 -0.8892  0.3866
 2556SOL    HW119127   3.683   2.483   1.100 -0.6795  1.0930  0.2881
 2556SOL    HW219128   3.741   2.424   0.979  2.2617  2.4905  1.1607
 2557SOL     OW19129   2.245   4.361   5.407 -0.0781  0.1610  0.1865
 2557SOL    HW119130   2.314   4.302   5.378 -1.3078 -0.2980 -1.8008
 2557SOL    HW219131   2.287   4.385   5.490  0.2582 -0.5447  0.2133
 2558SOL     OW19132   0.453   4.603   6.707 -0.2180  0.4106  0.2846
 2558SOL    HW119133   0.399   4.553   6.646  0.6457  1.4722 -1.3528
 2558SOL    HW219134   0.448   4.556   6.790 -1.0688  1.6402  0.9263
 2559SOL     OW19135   0.671   0.949   8.487  0.1630  0.0055 -0.0715
 2559SOL    HW119136   0.741   0.884   8.483 -0.0425 -0.0573 -2.4914
 2559SOL    HW219137   0.631   0.916   8.407 -0.2764  1.4311 -0.4467
 2560SOL     OW19138   1.953   3.608   2.099 -0.0414  0.4235 -0.2368
 2560SOL    HW119139   2.006   3.681   2.068 -0.6718  0.9832  0.0153
 2560SOL    HW219140   1.923   3.581   2.013 -0.8792 -0.1856  0.2420
 2561SOL     OW19141   3.004   3.037   0.319 -0.3286 -0.0527 -0.4134
 2561SOL    HW119142   2.963   3.097   0.256 -0.9656 -0.7202 -0.6302
 2561SOL    HW219143   2.940   2.966   0.326  1.0745 -1.1883  1.0757
 2562SOL     OW19144   0.243   4.328   0.181 -0.4176 -0.0731 -0.2824
 2562SOL    HW119145   0.149   4.334   0.165 -0.6359 -2.3685  0.1558
 2562SOL    HW219146   0.255   4.234   0.168 -1.9012 -0.3689  0.3805
 2563SOL     OW19147   1.296   0.984   6.571 -0.0490 -0.2090 -0.1263
 2563SOL    HW119148   1.300   1.075   6.601  1.8101 -0.1638 -0.4848
 2563SOL    HW219149   1.333   0.936   6.644  0.6489 -1.4934 -1.3149
 2564SOL     OW19150   1.038   3.412   2.228  0.4481  0.0170  0.3229
 2564SOL    HW119151   1.056   3.330   2.182 -2.1735 -0.5643  0.3076
 2564SOL    HW219152   0.990   3.462   2.162  0.6143 -0.6636 -0.3157
 2565SOL     OW19153   1.888   0.969   5.452  0.8247  0.4374 -0.2766
 2565SOL    HW119154   1.796   0.970   5.426  0.8734  2.3816 -0.3964
 2565SOL    HW219155   1.933   0.974   5.367 -0.0987 -0.1509 -0.7933
 2566SOL     OW19156   0.912   2.889   3.856  0.2030 -0.1622  0.1754
 2566SOL    HW119157   0.976   2.959   3.869 -1.6202  1.7878 -1.5898
 2566SOL    HW219158   0.945   2.838   3.931  0.2033 -0.9335 -0.3421
 2567SOL     OW19159   1.587   0.357   9.895 -0.5393 -0.3940  0.4689
 2567SOL    HW119160   1.661   0.381   9.839  0.6912 -1.8085  1.4995
 2567SOL    HW219161   1.535   0.300   9.838 -0.4542  0.0069 -0.0075
 2568SOL     OW19162   0.684   3.991   1.949  0.3844 -0.0802 -0.0369
 2568SOL    HW119163   0.626   3.924   1.913  2.0447 -1.2244 -0.5536
 2568SOL    HW219164   0.665   4.064   1.889  2.5376  0.6403  0.1768
 2569SOL     OW19165   1.604   0.183  14.022 -0.6989 -0.0766  0.1462
 2569SOL    HW119166   1.628   0.098  14.060 -0.1738 -0.1450 -0.3457
 2569SOL    HW219167   1.688   0.208  13.985 -0.5665  0.2680  0.6750
 2570SOL     OW19168   2.505   4.504   8.339 -0.7000  0.4806 -0.3792
 2570SOL    HW119169   2.497   4.590   8.379  2.6399 -0.0457  1.3908
 2570SOL    HW219170   2.600   4.510   8.335 -0.6033 -0.7173 -0.0494
 2571SOL     OW19171   0.016   3.155   6.057 -0.4211  0.4654 -0.9632
 2571SOL    HW119172   0.017   3.172   6.151 -1.7598  0.1743 -0.9054
 2571SOL    HW219173   4.690   3.074   6.055  0.9789 -0.4197 -0.3848
 2572SOL     OW19174   2.268   3.304   6.622  0.3017 -0.0341  0.0120
 2572SOL    HW119175   2.173   3.308   6.615  0.3737 -2.4474 -2.3504
 2572SOL    HW219176   2.300   3.385   6.662 -0.3378  0.2130  0.0173
 2573SOL     OW19177   2.176   2.843   4.359 -0.0963  0.1175  0.3502
 2573SOL    HW119178   2.230   2.912   4.323  1.4457 -1.5846 -0.6005
 2573SOL    HW219179   2.215   2.766   4.318  0.4333  0.2640  0.5793
 2574SOL     OW19180   1.545   2.317  11.865 -0.3542 -0.5613  0.3290
 2574SOL    HW119181   1.453   2.307  11.890 -1.1804  0.1266 -2.5106
 2574SOL    HW219182   1.565   2.398  11.912 -0.2653  0.3978 -1.3783
 2575SOL     OW19183   3.077   1.262   8.411 -0.0074 -0.5030 -0.6440
 2575SOL    HW119184   3.010   1.204   8.445 -0.9244  0.8184 -0.2154
 2575SOL    HW219185   3.158   1.228   8.450 -0.7407 -1.8699 -0.3207
 2576SOL     OW19186   1.381   0.038   7.444 -0.1594  0.3696 -0.3582
 2576SOL    HW119187   1.339   0.124   7.443  0.4598  0.6907  1.1617
 2576SOL    HW219188   1.377   0.021   7.538 -0.1741  1.0625 -0.2306
 2577SOL     OW19189   3.839   0.324   8.703  0.4735 -0.4508 -0.0224
 2577SOL    HW119190   3.928   0.355   8.717 -0.0856  0.6197  1.1315
 2577SOL    HW219191   3.802   0.321   8.791  0.3840 -3.1865 -0.1411
 2578SOL     OW19192   1.198   4.368   6.100 -0.0271  0.0016  0.2053
 2578SOL    HW119193   1.197   4.462   6.079 -1.4393  0.0324  0.3926
 2578SOL    HW219194   1.287   4.341   6.075 -1.1312 -2.5216 -1.0439
 2579SOL     OW19195   3.596   2.773  10.437  0.5410 -0.2944 -0.5430
 2579SOL    HW119196   3.659   2.812  10.498 -1.2452 -0.2141  1.2534
 2579SOL    HW219197   3.577   2.839  10.370 -0.8023  1.7134  1.8246
 2580SOL     OW19198   0.289   2.770   0.240  0.0340 -0.2244 -0.3232
 2580SOL    HW119199   0.259   2.851   0.201  0.8310  0.7530  1.0928
 2580SOL    HW219200   0.279   2.708   0.168  1.7411  0.0850 -0.8241
 2581SOL     OW19201   1.680   3.657  12.143  0.1180  0.3042 -0.0445
 2581SOL    HW119202   1.701   3.566  12.165 -4.6787 -1.0239 -0.9322
 2581SOL    HW219203   1.617   3.647  12.072  1.5921  1.4041 -1.4992
 2582SOL     OW19204   1.393   2.813   4.903  0.6506 -0.2529 -0.6654
 2582SOL    HW119205   1.462   2.870   4.867 -0.2869  0.5181 -1.2379
 2582SOL    HW219206   1.418   2.799   4.994  0.5635  1.4417 -0.3847
 2583SOL     OW19207   0.619   4.196  14.922  0.2507 -0.1956 -0.3978
 2583SOL    HW119208   0.576   4.266  14.972  3.4283  0.6947  1.1176
 2583SOL    HW219209   0.560   4.122  14.929 -0.7624  0.7598  1.0870
 2584SOL     OW19210   3.179   2.075  15.811 -0.5306  0.6495 -0.3208
 2584SOL    HW119211   3.171   2.169  15.827  1.0365  0.6725  0.3155
 2584SOL    HW219212   3.265   2.065  15.771 -0.2831 -1.7126  0.8011
 2585SOL     OW19213   0.435   3.076  10.811 -0.2862 -0.2939  0.2663
 2585SOL    HW119214   0.438   3.158  10.762  1.0005  0.3653  1.4503
 2585SOL    HW219215   0.340   3.079  10.817 -0.1236  0.3549  2.6729
 2586SOL     OW19216   2.262   4.460   7.579 -0.2313  0.1539  0.5877
 2586SOL    HW119217   2.242   4.371   7.609 -1.4625 -0.3297 -1.6231
 2586SOL    HW219218   2.219   4.512   7.647 -2.6007 -0.1277 -0.6686
 2587SOL     OW19219   1.724   0.254   0.549  0.1401  0.8473  0.6534
 2587SOL    HW119220   1.766   0.168   0.541  0.2734  1.3415 -4.0744
 2587SOL    HW219221   1.645   0.241   0.497  0.0922  0.5967  0.7865
 2588SOL     OW19222   3.897   3.224   6.107  0.2298  0.1129  0.9559
 2588SOL    HW119223   3.992   3.213   6.116 -0.0300 -1.0315  2.3517
 2588SOL    HW219224   3.878   3.313   6.135 -5.1903 -0.9401  0.7479
 2589SOL     OW19225   0.913   2.996  15.026  0.2538  0.3396 -0.2363
 2589SOL    HW119226   0.934   2.960  14.939 -0.2917  1.6324 -0.9059
 2589SOL    HW219227   0.922   3.089  15.009  1.7598 -0.1297 -2.0017
 2590SOL     OW19228   4.716   4.526  11.397  0.5036  0.5789 -0.0635
 2590SOL    HW119229   0.042   4.526  11.315  0.2030 -1.1032 -0.2559
 2590SOL    HW219230   4.627   4.527  11.362  0.1431 -1.0611  0.7860
 2591SOL     OW19231   0.951   3.719  14.304 -0.7492  0.5787  0.1837
 2591SOL    HW119232   1.036   3.754  14.329 -0.7482  0.8237 -0.1571
 2591SOL    HW219233   0.975   3.644  14.250 -2.2247 -0.7483  1.3745
 2592SOL     OW19234   1.218   0.715   1.794 -0.3838 -0.1783 -0.3794
 2592SOL    HW119235   1.282   0.644   1.794 -1.0634 -0.7920  0.8825
 2592SOL    HW219236   1.240   0.786   1.732 -0.0526  1.3708  1.5047
 2593SOL     OW19237   2.603   4.586  16.747  0.0537  0.3383 -0.2512
 2593SOL    HW119238   2.615   4.621  16.659 -2.1740  1.6975 -0.0212
 2593SOL    HW219239   2.625   4.666  16.797 -0.5824  1.3882 -1.6579
 2594SOL     OW19240   3.188   3.429   7.194 -0.4685  0.4066 -0.6436
 2594SOL    HW119241   3.253   3.473   7.140  0.2049  0.2035  0.0082
 2594SOL    HW219242   3.204   3.336   7.174 -1.1739 -0.2032  1.5890
 2595SOL     OW19243   0.982   0.834  11.014  0.1798  0.0283  0.0787
 2595SOL    HW119244   1.027   0.760  10.973  1.9343  0.6738  0.8378
 2595SOL    HW219245   1.053   0.897  11.019 -1.9103  2.3370  0.5523
 2596SOL     OW19246   0.952   4.375  12.812 -0.2523  0.3393 -0.2585
 2596SOL    HW119247   0.882   4.433  12.782 -0.4338  0.4863  0.4462
 2596SOL    HW219248   1.031   4.417  12.778  0.1260 -1.1231 -1.1463
 2597SOL     OW19249   3.434   0.236   5.273  0.2112  0.3858  0.0065
 2597SOL    HW119250   3.484   0.284   5.207  1.7655 -1.7408 -0.3613
 2597SOL    HW219251   3.345   0.268   5.261  1.1145  2.8194 -0.2326
 2598SOL     OW19252   4.659   3.559   8.831 -0.2698 -0.6209  0.6107
 2598SOL    HW119253   0.004   3.603   8.880 -0.8481  0.2597  0.6448
 2598SOL    HW219254   4.628   3.493   8.893  0.9409 -1.4304  0.3633
 2599SOL     OW19255   0.181   4.461   4.791  0.2573 -0.5134  0.1114
 2599SOL    HW119256   0.137   4.528   4.843  0.8943 -1.2769  1.6368
 2599SOL    HW219257   0.129   4.454   4.711 -1.1885 -1.1448  1.1069
 2600SOL     OW19258   4.445   2.415   7.308 -0.4016  0.3927  0.0966
 2600SOL    HW119259   4.448   2.458   7.222  1.2655  0.6124  0.2654
 2600SOL    HW219260   4.357   2.440   7.338 -1.5590  0.7441 -3.5271
 2601SOL     OW19261   0.060   4.412   4.557 -0.0692  0.1740 -0.0268
 2601SOL    HW119262   0.051   4.347   4.487  1.7282  1.6948 -1.6557
 2601SOL    HW219263   0.059   4.494   4.508  1.8626 -0.4753 -1.1630
 2602SOL     OW19264   1.592   4.045   5.786 -0.6473 -1.0884  0.0758
 2602SOL    HW119265   1.595   4.088   5.701 -0.6304 -1.4096 -0.0867
 2602SOL    HW219266   1.536   3.968   5.773 -0.0098 -1.2225 -1.8736
 2603SOL     OW19267   2.538   4.536  15.925  0.7973  0.7080  0.0171
 2603SOL    HW119268   2.553   4.631  15.916  0.6553  0.6569 -0.7959
 2603SOL    HW219269   2.489   4.532  15.843 -1.4200 -2.6372  1.5357
 2604SOL     OW19270   1.896   4.537   7.402 -0.0646 -0.2270  0.1939
 2604SOL    HW119271   1.806   4.504   7.394  0.2085 -0.6172 -1.1985
 2604SOL    HW219272   1.904   4.534   7.498  0.0793 -2.0275  0.1286
 2605SOL     OW19273   4.041   2.833   8.589 -0.0607 -0.5294 -0.2000
 2605SOL    HW119274   4.111   2.812   8.651 -0.3698  1.6674  0.8992
 2605SOL    HW219275   4.059   2.779   8.512 -0.6580  0.1010 -0.7755
 2606SOL     OW19276   4.045   0.654   1.907  0.3441 -0.2849  0.2130
 2606SOL    HW119277   4.068   0.572   1.949 -0.6983 -0.1614  1.0481
 2606SOL    HW219278   4.119   0.707   1.936  0.4160  0.4297 -1.3002
 2607SOL     OW19279   3.491   0.808  12.650  0.5167  0.4477 -0.0846
 2607SOL    HW119280   3.499   0.781  12.742  0.2087 -1.7738 -0.7091
 2607SOL    HW219281   3.469   0.729  12.601 -0.3692  0.5247  0.1871
 2608SOL     OW19282   2.098   0.241   6.862 -0.0874 -0.0143  0.0123
 2608SOL    HW119283   2.136   0.179   6.924 -1.1456 -0.5247  0.1495
 2608SOL    HW219284   2.006   0.213   6.865 -0.4351  0.9018 -2.4525
 2609SOL     OW19285   3.610   4.273  14.023 -0.4421 -0.5522  0.2243
 2609SOL    HW119286   3.537   4.227  14.063 -1.7283  1.3382  0.0570
 2609SOL    HW219287   3.683   4.222  14.058  0.5963 -2.0652 -4.2140
 2610SOL     OW19288   4.110   4.116   6.333  0.7250 -0.0398 -0.1972
 2610SOL    HW119289   4.175   4.089   6.398 -0.5904  1.2379  1.6626
 2610SOL    HW219290   4.030   4.085   6.374  1.2521 -1.4011 -0.1981
 2611SOL     OW19291   1.074   1.495   3.671  0.0437  0.2019 -0.1146
 2611SOL    HW119292   1.037   1.429   3.612 -0.3651  0.0624  0.2971
 2611SOL    HW219293   1.129   1.449   3.735  0.1478 -0.8635 -0.9635
 2612SOL     OW19294   1.945   0.194   7.990 -0.1524  0.1087  0.3357
 2612SOL    HW119295   1.940   0.253   7.914 -0.2680 -0.3456 -0.0078
 2612SOL    HW219296   1.973   0.248   8.064  3.9014  1.6990 -2.3468
 2613SOL     OW19297   1.387   3.832   5.684 -0.1474 -0.3971  0.7357
 2613SOL    HW119298   1.350   3.877   5.608 -0.6357 -1.0727  0.5752
 2613SOL    HW219299   1.318   3.774   5.715  0.2470 -1.2047  0.1109
 2614SOL     OW19300   0.454   4.452   4.076  0.1015  0.4624  0.5668
 2614SOL    HW119301   0.456   4.392   4.002 -0.7970  0.3219  0.6551
 2614SOL    HW219302   0.364   4.442   4.107 -0.7506 -0.8132 -2.3300
 2615SOL     OW19303   3.622   2.711  11.885  0.2906 -0.1257  0.4410
 2615SOL    HW119304   3.650   2.802  11.892 -0.2266 -0.1440  2.6470
 2615SOL    HW219305   3.678   2.670  11.819 -0.6829  3.1429 -2.4696
 2616SOL     OW19306   4.424   3.161  13.077  0.3412 -0.1355  0.4430
 2616SOL    HW119307   4.389   3.238  13.123  1.4122 -0.1007  1.2226
 2616SOL    HW219308   4.344   3.109  13.085  0.6019 -0.7556 -1.0321
 2617SOL     OW19309   1.938   4.133  12.440 -0.0601  0.7741 -0.2692
 2617SOL    HW119310   1.935   4.186  12.520 -0.7217 -2.2104  1.6748
 2617SOL    HW219311   1.899   4.193  12.377  2.0204  0.8299 -1.4656
 2618SOL     OW19312   1.488   0.670   3.622  0.1541 -0.3282 -0.5054
 2618SOL    HW119313   1.497   0.691   3.715 -2.7520 -0.1755 -0.2473
 2618SOL    HW219314   1.471   0.576   3.629  0.0483 -0.1203  2.1412
 2619SOL     OW19315   1.674   1.505   9.371  0.3473  0.2971  0.3421
 2619SOL    HW119316   1.750   1.504   9.429 -0.9063 -0.4286  1.9861
 2619SOL    HW219317   1.600   1.510   9.433  2.9836  0.9202  3.4335
 2620SOL     OW19318   2.146   2.957   8.013 -0.2194 -0.4567 -0.6376
 2620SOL    HW119319   2.157   2.891   8.082  0.0785  0.5973  0.3222
 2620SOL    HW219320   2.052   2.948   7.997  0.0945  0.2459 -2.8747
 2621SOL     OW19321   2.215   1.549  16.959  0.1870  0.5611 -0.6527
 2621SOL    HW119322   2.169   1.568  17.040 -0.3404  0.0078 -0.8274
 2621SOL    HW219323   2.250   1.636  16.938 -0.4634  0.5934 -1.6029
 2622SOL     OW19324   1.623   0.771   5.046  0.2088 -0.2654 -0.0782
 2622SOL    HW119325   1.709   0.762   5.087 -0.5059  3.5176  2.2654
 2622SOL    HW219326   1.579   0.788   5.129  1.1852  2.6174 -0.1604
 2623SOL     OW19327   3.483   4.240   5.333 -0.3573 -0.2644  0.0297
 2623SOL    HW119328   3.445   4.214   5.250 -1.0548 -0.8493  0.5328
 2623SOL    HW219329   3.411   4.272   5.387 -1.1315 -0.2087 -1.0395
 2624SOL     OW19330   3.218   0.259  15.115 -0.5964  0.1132 -0.1926
 2624SOL    HW119331   3.184   0.319  15.049 -0.0520  1.0391  0.3723
 2624SOL    HW219332   3.278   0.320  15.156 -0.7808 -0.5400  1.0699
 2625SOL     OW19333   4.310   2.511   3.058  0.4457 -0.0015  0.0023
 2625SOL    HW119334   4.346   2.423   3.054 -0.0285 -0.2656  1.5953
 2625SOL    HW219335   4.331   2.528   3.150 -1.6372 -0.0038  0.4790
 2626SOL     OW19336   3.431   3.937   0.287 -0.7390  0.3185 -0.2832
 2626SOL    HW119337   3.510   3.938   0.340 -1.2582  1.9505  0.4546
 2626SOL    HW219338   3.451   3.880   0.212  1.5328  1.7899 -0.7948
 2627SOL     OW19339   3.792   3.594  11.688  0.0140  0.6148 -0.9720
 2627SOL    HW119340   3.828   3.620  11.603 -0.7031  0.9643 -1.1688
 2627SOL    HW219341   3.697   3.600  11.673 -0.0907  0.1421 -0.5198
 2628SOL     OW19342   3.518   1.868  16.235 -0.5861 -0.4708 -0.1766
 2628SOL    HW119343   3.507   1.946  16.181 -2.4429 -0.3682  0.3548
 2628SOL    HW219344   3.555   1.809  16.169  2.3245  1.6437 -0.4338
 2629SOL     OW19345   2.073   4.135   4.527 -0.3456 -0.1678 -0.5606
 2629SOL    HW119346   1.991   4.131   4.577 -0.8676  1.4640 -1.2583
 2629SOL    HW219347   2.118   4.053   4.545 -0.3383 -0.2568 -0.9935
 2630SOL     OW19348   2.673   4.546   6.835  0.4126  0.4592 -0.1950
 2630SOL    HW119349   2.667   4.626   6.888 -0.1233  0.0650  0.3428
 2630SOL    HW219350   2.603   4.497   6.878  1.7794  0.1177  1.6548
 2631SOL     OW19351   3.066   2.790   4.035 -0.3678  0.2316 -0.3505
 2631SOL    HW119352   3.107   2.731   4.098  0.5771  0.9153 -0.3303
 2631SOL    HW219353   3.082   2.738   3.956  1.1551  0.9405 -0.5150
 2632SOL     OW19354   1.169   1.310   9.944 -0.5442  0.3551  0.0161
 2632SOL    HW119355   1.235   1.275   9.884 -1.0609  0.7444 -0.7730
 2632SOL    HW219356   1.196   1.402   9.944  1.2651 -0.1799  0.0349
 2633SOL     OW19357   3.628   3.312   5.236 -0.2747 -0.4421 -0.4480
 2633SOL    HW119358   3.543   3.301   5.279 -0.7601 -1.6950 -1.7495
 2633SOL    HW219359   3.593   3.346   5.154  0.7751 -0.5757 -0.9470
 2634SOL     OW19360   2.857   1.502  12.617  0.0179  0.5229  0.4658
 2634SOL    HW119361   2.850   1.552  12.535 -0.4542  0.6853  0.6076
 2634SOL    HW219362   2.771   1.489  12.655 -1.0481  0.7252 -1.8842
 2635SOL     OW19363   3.974   1.824   1.908 -0.4218 -0.4839  0.5038
 2635SOL    HW119364   4.062   1.861   1.922 -0.2164 -0.1646 -1.6558
 2635SOL    HW219365   3.975   1.814   1.813  4.0257 -0.0962  0.5159
 2636SOL     OW19366   1.740   1.822   5.101 -0.3005  0.5537 -0.7552
 2636SOL    HW119367   1.773   1.801   5.014  0.7730  1.9012 -0.6671
 2636SOL    HW219368   1.645   1.808   5.091 -0.2324 -0.1112 -0.4783
 2637SOL     OW19369   4.180   2.296  13.113  0.0258  0.5771 -0.2014
 2637SOL    HW119370   4.093   2.336  13.115 -1.0033 -1.8192  2.8809
 2637SOL    HW219371   4.158   2.202  13.111 -0.3787  0.6819 -0.6459
 2638SOL     OW19372   0.000   2.738  12.345 -0.1211 -0.1852  0.1958
 2638SOL    HW119373   4.702   2.674  12.278 -2.6538  3.4924 -2.4481
 2638SOL    HW219374   4.701   2.703  12.431 -1.1930 -1.9646 -0.8203
 2639SOL     OW19375   0.604   3.540   6.521  0.5156 -0.5096  0.1163
 2639SOL    HW119376   0.697   3.555   6.504  0.3012  2.4202  1.6436
 2639SOL    HW219377   0.571   3.625   6.548 -0.5316 -1.3116  1.3722
 2640SOL     OW19378   2.574   4.027   8.180 -0.3883 -0.7563 -0.2920
 2640SOL    HW119379   2.493   4.063   8.143 -0.2374  0.1770  0.3022
 2640SOL    HW219380   2.587   4.094   8.247 -1.5299  0.4606 -1.2791
 2641SOL     OW19381   0.506   1.667   1.315  0.2825  0.2954  0.1807
 2641SOL    HW119382   0.558   1.720   1.376 -1.9348  2.9688 -0.2778
 2641SOL    HW219383   0.568   1.637   1.248  2.9856  0.0334  2.8173
 2642SOL     OW19384   3.166   3.835   8.883  0.4481  1.0715 -0.6052
 2642SOL    HW119385   3.135   3.764   8.827  0.2328  1.2184 -0.6731
 2642SOL    HW219386   3.261   3.835   8.868  0.5543  0.8292  0.0543
 2643SOL     OW19387   3.375   3.023   5.948 -0.2435  0.0839  0.1025
 2643SOL    HW119388   3.419   3.089   5.894 -1.9285  1.8325  0.8400
 2643SOL    HW219389   3.402   3.043   6.038  0.4831 -1.7001  0.2796
 2644SOL     OW19390   2.613   3.311   5.365  0.0145 -0.0412 -0.0500
 2644SOL    HW119391   2.688   3.361   5.334 -0.7868  1.1332 -0.0682
 2644SOL    HW219392   2.653   3.224   5.372  1.6413  0.8095  1.0425
 2645SOL     OW19393   1.191   2.829   9.234 -0.2502 -0.3600 -0.5429
 2645SOL    HW119394   1.173   2.876   9.316  1.2492 -1.0263  0.1688
 2645SOL    HW219395   1.175   2.896   9.168 -1.7750 -1.2825 -1.1117
 2646SOL     OW19396   3.207   0.515   1.955 -0.5124  0.1829 -0.1144
 2646SOL    HW119397   3.164   0.436   1.987  0.6081  0.3122  1.7211
 2646SOL    HW219398   3.203   0.510   1.860 -1.8569 -0.9861  0.0032
 2647SOL     OW19399   2.607   1.840  16.151  0.8093 -0.0061  0.6905
 2647SOL    HW119400   2.587   1.880  16.066  0.3977  2.3239  1.8886
 2647SOL    HW219401   2.610   1.921  16.202  0.3018 -0.0460  0.7890
 2648SOL     OW19402   2.762   3.739   4.947 -0.1419  0.4877 -0.9306
 2648SOL    HW119403   2.801   3.662   4.988 -0.3736  0.7189 -0.2638
 2648SOL    HW219404   2.808   3.744   4.864  2.2491 -1.3075  0.3008
 2649SOL     OW19405   3.071   3.220  14.051 -0.8564 -0.4012 -0.5586
 2649SOL    HW119406   3.126   3.286  14.095 -1.4301 -2.2211  2.8268
 2649SOL    HW219407   3.130   3.146  14.040  1.0555  0.6839  2.3480
 2650SOL     OW19408   1.527   4.090   4.552 -0.1839  0.4389 -1.3667
 2650SOL    HW119409   1.438   4.087   4.587  0.4615  0.1498  0.2697
 2650SOL    HW219410   1.561   4.164   4.603  1.5900 -0.1490 -1.6796
 2651SOL     OW19411   3.446   0.560   0.199 -0.3410 -0.3488 -0.2733
 2651SOL    HW119412   3.450   0.592   0.289  0.4620  1.1696 -0.8482
 2651SOL    HW219413   3.385   0.620   0.156 -1.0885 -1.7717 -1.2270
 2652SOL     OW19414   2.041   4.156   6.621 -0.4027  0.1695 -0.1776
 2652SOL    HW119415   2.124   4.108   6.623 -0.0688  0.7350 -0.5774
 2652SOL    HW219416   1.999   4.103   6.553  1.3002  0.1366 -1.2155
 2653SOL     OW19417   1.208   2.216   7.776 -0.1966 -0.0633 -0.0356
 2653SOL    HW119418   1.216   2.203   7.870 -1.2777  1.5893  0.2819
 2653SOL    HW219419   1.197   2.123   7.754  0.5228  0.5868 -3.2273
 2654SOL     OW19420   3.354   4.090  10.147 -0.1708 -0.4755 -0.0028
 2654SOL    HW119421   3.413   4.067  10.074  0.0740 -1.8975  0.6336
 2654SOL    HW219422   3.315   4.174  10.123 -0.1385 -1.2691 -2.8077
 2655SOL     OW19423   0.704   0.583   6.898  0.5086  0.1228 -0.3567
 2655SOL    HW119424   0.659   0.626   6.971  0.8177 -1.3898  0.7249
 2655SOL    HW219425   0.689   0.489   6.906 -2.2589  0.7861  2.3264
 2656SOL     OW19426   3.725   0.511   5.189  0.3727  0.4113 -0.1594
 2656SOL    HW119427   3.630   0.499   5.193  0.4313 -0.0895 -0.2556
 2656SOL    HW219428   3.734   0.601   5.156 -2.1226  0.4815 -0.5829
 2657SOL     OW19429   1.962   1.672   9.545  0.1267  0.3765  0.3731
 2657SOL    HW119430   1.952   1.765   9.526  0.6900  0.7523  1.9377
 2657SOL    HW219431   2.055   1.657   9.531 -0.0720  0.2376 -0.8166
 2658SOL     OW19432   2.167   2.940   5.760 -0.0441  0.0723 -0.3137
 2658SOL    HW119433   2.078   2.919   5.788 -0.1876  0.7461 -0.2674
 2658SOL    HW219434   2.214   2.884   5.821  1.7013  1.2922 -0.5282
 2659SOL     OW19435   2.789   1.779  15.564  0.2096 -0.0624 -0.2153
 2659SOL    HW119436   2.851   1.849  15.544 -2.5514  2.4599  0.0483
 2659SOL    HW219437   2.806   1.768  15.657 -0.6399  1.7478  0.1604
 2660SOL     OW19438   2.063   2.655   9.846 -0.0830 -0.1282  0.1848
 2660SOL    HW119439   2.029   2.676   9.759  1.2542  0.5531 -0.1563
 2660SOL    HW219440   2.025   2.568   9.861  1.1865 -0.3537  2.0759
 2661SOL     OW19441   4.615   2.025   8.084  0.3173  0.0156  0.2971
 2661SOL    HW119442   4.602   2.089   8.155  4.5141 -0.4327  1.4820
 2661SOL    HW219443   4.525   1.999   8.062 -0.2733  1.6161  0.8236
 2662SOL     OW19444   1.557   1.376   7.047 -0.1776  0.1988  0.3289
 2662SOL    HW119445   1.492   1.336   7.105 -1.4943  0.8996 -0.6645
 2662SOL    HW219446   1.608   1.425   7.111  0.5071  0.0159 -0.0808
 2663SOL     OW19447   1.784   4.167  16.158  0.7142 -0.5221 -0.0979
 2663SOL    HW119448   1.850   4.130  16.216  0.9006 -0.3037 -0.1731
 2663SOL    HW219449   1.850   4.193  16.095 -0.1601  0.7611 -0.4750
 2664SOL     OW19450   1.791   1.212  13.130  0.3704 -0.3558  0.0083
 2664SOL    HW119451   1.751   1.132  13.097  0.0732 -0.4257  0.5203
 2664SOL    HW219452   1.749   1.268  13.066  1.9965 -2.3459 -2.8097
 2665SOL     OW19453   1.468   2.361   7.770 -0.2789  0.0952  0.3951
 2665SOL    HW119454   1.400   2.299   7.795 -1.3578  1.0063 -0.2601
 2665SOL    HW219455   1.444   2.429   7.834 -2.0471 -1.0997  1.0150
 2666SOL     OW19456   1.388   3.134   1.787  0.6184  0.0469  0.0317
 2666SOL    HW119457   1.476   3.115   1.755  1.0688  0.3239  1.0878
 2666SOL    HW219458   1.358   3.052   1.825 -0.2632  1.3771  2.2247
 2667SOL     OW19459   3.453   2.107  16.114 -0.1535 -0.3072 -0.0757
 2667SOL    HW119460   3.503   2.169  16.168  0.3099 -1.7076  1.0850
 2667SOL    HW219461   3.365   2.143  16.127  0.4020  0.9092  0.3314
 2668SOL     OW19462   1.891   3.416   7.516 -0.1166  0.0635  0.4470
 2668SOL    HW119463   1.965   3.356   7.517  0.1390  0.3606 -1.8530
 2668SOL    HW219464   1.828   3.392   7.448  0.4737 -3.8969  1.3371
 2669SOL     OW19465   3.395   4.574   4.185 -0.1376 -0.4315  0.0753
 2669SOL    HW119466   3.394   4.501   4.122 -0.3449 -0.8368  0.5505
 2669SOL    HW219467   3.308   4.559   4.223 -0.5285  0.5052 -0.4486
 2670SOL     OW19468   0.765   0.966   7.245 -0.4009 -0.1634 -0.2039
 2670SOL    HW119469   0.805   0.923   7.168  2.0581  0.0001  0.9933
 2670SOL    HW219470   0.682   0.919   7.249 -0.4497 -0.0800 -0.2574
 2671SOL     OW19471   0.934   2.515   5.036 -0.0825 -0.0779 -0.1030
 2671SOL    HW119472   0.886   2.433   5.029 -2.4344  1.1097  2.1151
 2671SOL    HW219473   0.939   2.511   5.131 -1.8216  1.4850  0.0571
 2672SOL     OW19474   4.375   1.192   0.781  0.2390  0.0571  0.1516
 2672SOL    HW119475   4.319   1.139   0.725  0.1072 -0.0728  0.4069
 2672SOL    HW219476   4.338   1.280   0.778  0.4686  0.2212  1.8434
 2673SOL     OW19477   4.008   3.593   3.142 -0.7474  0.6369 -0.1484
 2673SOL    HW119478   3.939   3.573   3.079 -0.2665 -2.1154  0.1995
 2673SOL    HW219479   4.080   3.581   3.081 -2.8943 -0.4366 -2.4431
 2674SOL     OW19480   4.439   4.161   6.054 -0.3530 -0.1603  0.5625
 2674SOL    HW119481   4.346   4.151   6.037  0.3593  0.5469 -3.7403
 2674SOL    HW219482   4.454   4.127   6.142 -1.3446  0.0811  0.8227
 2675SOL     OW19483   0.371   3.707  13.718  0.1070  0.4473  0.1742
 2675SOL    HW119484   0.392   3.724  13.810 -1.1404  0.2299  0.4988
 2675SOL    HW219485   0.329   3.621  13.719  2.4431 -0.6837  2.4145
 2676SOL     OW19486   4.093   4.686   3.616  0.6772  0.1293  0.1337
 2676SOL    HW119487   4.127   0.013   3.689 -0.1022 -1.3250  1.5235
 2676SOL    HW219488   4.047   4.619   3.667  4.0942 -1.5341  0.9717
 2677SOL     OW19489   4.035   1.462   1.354 -0.7994  0.2640  0.0052
 2677SOL    HW119490   3.952   1.511   1.350 -0.8618  0.1135 -0.4535
 2677SOL    HW219491   4.008   1.418   1.435  1.2001 -0.8855  0.0341
 2678SOL     OW19492   2.937   0.046   8.684  0.0249  0.2465 -0.3727
 2678SOL    HW119493   2.960   0.061   8.593 -0.5487 -2.4766 -0.9924
 2678SOL    HW219494   2.973   0.116   8.738  2.7774 -1.6725  0.2705
 2679SOL     OW19495   0.657   2.188   0.821  0.5221 -0.6845 -0.8027
 2679SOL    HW119496   0.595   2.123   0.855  0.6121 -0.3572 -0.0107
 2679SOL    HW219497   0.594   2.245   0.776  1.1920  0.3683 -0.3946
 2680SOL     OW19498   0.842   2.969   5.277 -0.2264 -0.4668  0.4688
 2680SOL    HW119499   0.917   3.003   5.327  0.2607  0.3549 -0.8070
 2680SOL    HW219500   0.764   3.017   5.305 -0.3603 -0.2605 -0.2474
 2681SOL     OW19501   4.001   0.703   8.901  0.3957 -0.7229 -0.2952
 2681SOL    HW119502   4.003   0.652   8.820 -0.5659 -2.1351  0.5679
 2681SOL    HW219503   4.087   0.743   8.888  0.7684 -0.9469  1.4456
 2682SOL     OW19504   4.253   0.287   4.281 -0.5540 -0.7544  0.1038
 2682SOL    HW119505   4.201   0.366   4.267  0.4743  0.3016  2.1757
 2682SOL    HW219506   4.201   0.255   4.355 -0.9599 -1.7704 -0.6154
 2683SOL     OW19507   2.178   2.407  11.604 -0.6680  0.0601 -0.7112
 2683SOL    HW119508   2.152   2.447  11.687  1.8421  1.6675 -0.7008
 2683SOL    HW219509   2.091   2.386  11.570 -1.7360  0.9084  1.4677
 2684SOL     OW19510   0.934   1.233   9.831  0.2751 -0.3940  0.1840
 2684SOL    HW119511   1.017   1.268   9.864 -0.0818  0.1055  0.5405
 2684SOL    HW219512   0.921   1.144   9.864 -0.5239 -0.7113 -0.9612
 2685SOL     OW19513   0.236   4.195   6.022 -0.3546 -0.3655  0.0915
 2685SOL    HW119514   0.167   4.148   6.069  0.0101 -0.2412  0.7423
 2685SOL    HW219515   0.190   4.219   5.941 -2.5672 -2.8871  0.6111
 2686SOL     OW19516   0.705   1.572  13.875  0.0560  0.6142  0.5635
 2686SOL    HW119517   0.766   1.616  13.815  0.8300 -3.0456 -1.2863
 2686SOL    HW219518   0.751   1.491  13.893  0.2495  0.7650  0.7509
 2687SOL     OW19519   1.203   3.539   5.003 -0.1872 -0.2154  0.3074
 2687SOL    HW119520   1.158   3.494   4.931  1.3286 -0.5218 -0.4559
 2687SOL    HW219521   1.250   3.468   5.048  0.4109  1.2626  2.0048
 2688SOL     OW19522   2.899   4.514   9.026  0.4973 -0.2782 -0.3151
 2688SOL    HW119523   2.846   4.502   9.105 -0.0464 -0.8667 -0.7632
 2688SOL    HW219524   2.833   4.488   8.962  0.1034  2.0536 -0.8762
 2689SOL     OW19525   0.999   1.559   7.987 -0.5498 -0.1129  0.1848
 2689SOL    HW119526   1.076   1.612   7.970 -1.2103  0.4944 -0.8730
 2689SOL    HW219527   0.946   1.627   8.029 -0.2925  0.6831 -0.8133
 2690SOL     OW19528   2.192   3.112   6.349 -0.2827  0.6990 -0.3790
 2690SOL    HW119529   2.130   3.039   6.340  0.5978 -0.2294  1.2673
 2690SOL    HW219530   2.234   3.101   6.263 -0.4625  2.3942 -0.6911
 2691SOL     OW19531   3.783   0.103   5.063 -0.2234 -0.3002  0.2705
 2691SOL    HW119532   3.799   0.044   5.137 -0.5041 -0.5126  0.1638
 2691SOL    HW219533   3.819   0.185   5.096  1.5410 -0.8757 -0.2284
 2692SOL     OW19534   4.392   1.883   1.253  0.1161  0.0154  0.4441
 2692SOL    HW119535   4.336   1.922   1.186 -1.3137 -3.5171 -0.3893
 2692SOL    HW219536   4.337   1.900   1.330 -1.5369  2.0602 -1.2056
 2693SOL     OW19537   3.255   0.482   3.067  0.0875  0.1459  0.4984
 2693SOL    HW119538   3.351   0.485   3.075  0.2279  0.5071 -1.2251
 2693SOL    HW219539   3.262   0.450   2.977  4.5676 -0.0858  0.9004
 2694SOL     OW19540   1.611   2.912  10.758 -0.7272 -0.4010 -0.1270
 2694SOL    HW119541   1.690   2.921  10.810 -1.7553 -0.7272  1.4715
 2694SOL    HW219542   1.583   2.822  10.773 -0.3310 -0.4258  0.4484
 2695SOL     OW19543   2.991   1.220  11.978  0.0647 -0.6153 -0.3925
 2695SOL    HW119544   3.042   1.202  12.057  0.9951 -0.8701 -1.0466
 2695SOL    HW219545   2.917   1.260  12.023 -0.4378 -1.7555 -0.1991
 2696SOL     OW19546   2.549   3.038   5.909  0.0298  0.0518 -0.0050
 2696SOL    HW119547   2.568   2.948   5.883  2.7013  0.0327  2.0573
 2696SOL    HW219548   2.538   3.030   6.003  0.8695 -1.8561 -0.0538
 2697SOL     OW19549   0.041   3.105  13.857 -0.6404 -0.3392  0.0521
 2697SOL    HW119550   0.006   3.114  13.768  0.3599  1.6084 -0.1335
 2697SOL    HW219551   0.005   3.019  13.877 -0.1711 -0.4405  0.4497
 2698SOL     OW19552   1.730   4.694  14.504 -0.4351  0.4695  0.5211
 2698SOL    HW119553   1.734   0.023  14.424 -1.8477 -0.1026  0.0769
 2698SOL    HW219554   1.639   4.705  14.535 -0.1837 -0.8284  1.7308
 2699SOL     OW19555   3.648   0.545   8.014 -0.1614  0.2134 -0.1295
 2699SOL    HW119556   3.653   0.608   7.942 -0.6456 -0.3470 -0.6458
 2699SOL    HW219557   3.628   0.606   8.085  0.0279 -1.3365  1.2529
 2700SOL     OW19558   0.548   2.898   7.471 -0.0562  0.8274 -0.9641
 2700SOL    HW119559   0.508   2.811   7.481  1.2495  0.2827 -0.3226
 2700SOL    HW219560   0.499   2.919   7.391 -1.7990  1.6040  0.3174
 2701SOL     OW19561   2.657   2.958   3.403  0.2031 -0.2640  0.6584
 2701SOL    HW119562   2.658   3.010   3.483  0.3112  0.1168  0.4117
 2701SOL    HW219563   2.737   2.908   3.417  0.2149 -0.3733  0.1867
 2702SOL     OW19564   3.821   0.271   0.591 -0.1021  0.4163 -0.7205
 2702SOL    HW119565   3.831   0.179   0.615  0.9800  1.0760  1.3724
 2702SOL    HW219566   3.868   0.310   0.665 -2.5494  0.1017  1.0056
 2703SOL     OW19567   2.255   0.566   0.882 -0.8250  0.2120  0.0778
 2703SOL    HW119568   2.300   0.635   0.930  0.1674 -0.3606 -0.0197
 2703SOL    HW219569   2.163   0.575   0.909  0.5268  0.7678  4.5917
 2704SOL     OW19570   2.428   4.451  12.735  0.8572 -0.1417  0.0899
 2704SOL    HW119571   2.494   4.471  12.669  2.2056 -1.0566  1.1626
 2704SOL    HW219572   2.465   4.373  12.775  1.4350 -0.9151 -1.9677
 2705SOL     OW19573   3.270   2.439   7.657  0.5689 -0.1087  0.5718
 2705SOL    HW119574   3.215   2.409   7.585 -0.0051 -3.6190  2.4829
 2705SOL    HW219575   3.358   2.425   7.622  1.1402  2.2817  1.0759
 2706SOL     OW19576   2.887   2.207  16.922 -0.2152 -0.2466 -0.1181
 2706SOL    HW119577   2.883   2.300  16.945  0.6201 -0.1244 -0.4707
 2706SOL    HW219578   2.800   2.186  16.957  0.8787 -0.9333  2.1542
 2707SOL     OW19579   4.130   0.942   9.171 -0.2513 -0.7569 -0.0543
 2707SOL    HW119580   4.037   0.926   9.188 -0.3977 -1.9836 -2.0558
 2707SOL    HW219581   4.128   1.029   9.132 -1.1449 -0.3499  0.8928
 2708SOL     OW19582   1.971   0.802  13.649  0.4019 -0.1201 -0.1250
 2708SOL    HW119583   1.894   0.849  13.617 -0.9386 -2.9279 -1.0074
 2708SOL    HW219584   2.040   0.821  13.586  0.6780  0.7820  0.4488
 2709SOL     OW19585   0.081   1.801   4.090  0.5113  0.6161  1.0894
 2709SOL    HW119586   0.157   1.830   4.040  1.7130 -0.9084  2.0438
 2709SOL    HW219587   0.111   1.718   4.127 -1.9697 -1.0406 -0.5694
 2710SOL     OW19588   3.847   3.714  15.128 -0.3537  0.1330  0.0612
 2710SOL    HW119589   3.908   3.773  15.173  0.1522  0.6155 -1.2467
 2710SOL    HW219590   3.826   3.651  15.196 -0.8117  1.0245  0.7511
 2711SOL     OW19591   0.357   3.497   0.909 -0.0597 -0.1260  0.3397
 2711SOL    HW119592   0.263   3.490   0.890  0.2606 -0.6998 -0.9993
 2711SOL    HW219593   0.395   3.498   0.821 -0.6136 -0.4625  0.0956
 2712SOL     OW19594   3.221   1.413   5.258 -0.0348  0.6811 -0.0837
 2712SOL    HW119595   3.182   1.404   5.345 -0.1499 -0.4601 -0.2611
 2712SOL    HW219596   3.150   1.430   5.197  0.5897 -1.2878 -1.3503
 2713SOL     OW19597   3.639   1.667   4.645  0.1563 -0.3658  0.1746
 2713SOL    HW119598   3.670   1.619   4.568 -1.1035 -0.1537 -0.4553
 2713SOL    HW219599   3.547   1.677   4.625  0.9463  0.7292 -2.8071
 2714SOL     OW19600   1.379   3.735   1.554 -0.3988 -0.1628  0.3222
 2714SOL    HW119601   1.389   3.712   1.647 -1.1233  0.2482  0.5033
 2714SOL    HW219602   1.289   3.711   1.532  0.3013 -3.4390  1.0152
 2715SOL     OW19603   0.953   2.094   9.421  0.6901 -0.4043 -0.1132
 2715SOL    HW119604   0.922   2.179   9.390  2.9305 -0.1307 -1.5863
 2715SOL    HW219605   0.969   2.103   9.515  0.8263  1.2175 -0.2851
 2716SOL     OW19606   1.270   4.209   6.563 -0.2287 -0.0899  0.0372
 2716SOL    HW119607   1.329   4.216   6.488 -0.2158 -0.2839  0.0305
 2716SOL    HW219608   1.191   4.233   6.515  0.0164 -1.3702 -0.9894
 2717SOL     OW19609   2.355   0.244   7.275  0.1207 -0.0650  0.1378
 2717SOL    HW119610   2.314   0.186   7.339 -0.1715  0.1950  0.1892
 2717SOL    HW219611   2.316   0.330   7.291  1.1781  0.0999  1.8207
 2718SOL     OW19612   4.039   1.764  10.004 -0.0786  0.0412  0.6289
 2718SOL    HW119613   4.011   1.769   9.913 -1.4280 -1.6441  0.9389
 2718SOL    HW219614   3.987   1.835  10.043 -0.8430  0.6744 -1.5438
 2719SOL     OW19615   4.649   3.806  12.829  0.2469 -0.4731  0.1303
 2719SOL    HW119616   4.671   3.891  12.791  0.0986 -1.0023 -1.1539
 2719SOL    HW219617   4.658   3.755  12.748  0.6989 -1.5316  0.8506
 2720SOL     OW19618   1.737   1.784   8.531  0.1645 -0.5267  0.1624
 2720SOL    HW119619   1.710   1.876   8.537  1.8100 -0.0966  0.7852
 2720SOL    HW219620   1.651   1.744   8.548 -0.2461 -0.6056 -2.0448
 2721SOL     OW19621   0.335   2.447  10.399  0.4113 -1.0180 -0.1658
 2721SOL    HW119622   0.370   2.533  10.423  0.1045 -1.2484  1.1314
 2721SOL    HW219623   0.362   2.395  10.475  0.4367  0.9999  1.2402
 2722SOL     OW19624   4.073   0.671   2.371 -0.2744 -0.4612 -0.1086
 2722SOL    HW119625   4.124   0.752   2.375  0.0177 -0.5186 -2.8196
 2722SOL    HW219626   4.006   0.700   2.309 -0.9944  0.6159  1.1498
 2723SOL     OW19627   1.525   0.069   7.975 -0.3257 -0.5998  0.8572
 2723SOL    HW119628   1.539   4.703   8.005  2.3387 -0.3401  0.3972
 2723SOL    HW219629   1.604   0.081   7.923 -0.9456  2.5497  0.6214
 2724SOL     OW19630   3.597   1.342   4.505  0.4046  0.0082 -0.4110
 2724SOL    HW119631   3.635   1.396   4.435 -0.3487  1.0645  0.0162
 2724SOL    HW219632   3.656   1.360   4.578 -2.5536  0.2146  1.8905
 2725SOL     OW19633   1.871   3.255   1.013 -0.3679 -0.0376 -0.1195
 2725SOL    HW119634   1.804   3.258   0.945  0.9676 -0.9363 -1.4846
 2725SOL    HW219635   1.928   3.190   0.971  1.3407  0.2413  1.7521
 2726SOL     OW19636   2.239   0.977   7.482 -0.6727  0.0249 -0.2769
 2726SOL    HW119637   2.210   0.986   7.391  0.5963  1.8280 -0.5029
 2726SOL    HW219638   2.186   0.901   7.505 -0.9167  0.0446 -0.7784
 2727SOL     OW19639   1.837   4.483  12.236 -0.0310  0.3531  0.1308
 2727SOL    HW119640   1.903   4.493  12.304  1.9139 -1.2718 -1.5072
 2727SOL    HW219641   1.877   4.418  12.178  0.4759  2.3761 -1.7650
 2728SOL     OW19642   2.861   2.739   4.708  0.2539  0.1391  0.3096
 2728SOL    HW119643   2.793   2.698   4.653  0.1388  0.1884  0.4139
 2728SOL    HW219644   2.838   2.693   4.789  2.0279  0.6198  1.0630
 2729SOL     OW19645   2.927   2.112   6.458  0.2564  0.1209  0.9220
 2729SOL    HW119646   2.925   2.204   6.431  0.4142  0.0290  0.6087
 2729SOL    HW219647   2.858   2.098   6.524  1.9631  1.8220  3.1043
 2730SOL     OW19648   4.666   0.784   1.040  0.0812  0.1380  0.0326
 2730SOL    HW119649   4.604   0.713   1.021 -0.0928 -0.0434  1.3154
 2730SOL    HW219650   4.615   0.833   1.105 -0.0740 -1.5689  1.1974
 2731SOL     OW19651   1.807   0.452  16.323 -0.7077  0.6603 -0.1539
 2731SOL    HW119652   1.772   0.364  16.336  2.1224 -0.2292  1.3207
 2731SOL    HW219653   1.858   0.434  16.244 -0.6198 -3.0579  0.7691
 2732SOL     OW19654   1.860   2.554   4.850  0.1367 -0.5058  0.4113
 2732SOL    HW119655   1.817   2.575   4.767 -3.4342 -1.3256  2.0782
 2732SOL    HW219656   1.798   2.601   4.905  0.9871  0.2879  0.6968
 2733SOL     OW19657   2.846   0.088   4.466  0.2714  0.3507  0.1525
 2733SOL    HW119658   2.869   0.179   4.449 -4.1514  1.0133 -2.3022
 2733SOL    HW219659   2.913   0.037   4.421  0.3286  0.6045 -0.0515
 2734SOL     OW19660   0.710   4.692   6.892  0.0660  0.1167  0.0310
 2734SOL    HW119661   0.634   4.636   6.909  0.8375 -1.4328 -1.5713
 2734SOL    HW219662   0.773   4.682   6.963  1.1851 -1.2004 -1.1197
 2735SOL     OW19663   0.435   4.068   5.852 -0.2102 -0.4275 -0.0889
 2735SOL    HW119664   0.490   3.995   5.879  1.8346  0.4707 -1.7688
 2735SOL    HW219665   0.375   4.082   5.926 -1.0565  0.6185 -0.9661
 2736SOL     OW19666   2.706   2.147   4.388  0.6641  0.2717 -0.3389
 2736SOL    HW119667   2.682   2.129   4.298  2.1051  0.9158 -0.8476
 2736SOL    HW219668   2.624   2.187   4.418 -0.5476 -0.3432 -2.8304
 2737SOL     OW19669   3.587   1.862   3.884  0.0960 -0.4639 -0.3180
 2737SOL    HW119670   3.617   1.838   3.796  0.7681  1.0397 -0.5005
 2737SOL    HW219671   3.567   1.955   3.870 -2.1984 -0.8780  0.3555
 2738SOL     OW19672   3.506   3.700   3.814 -0.0758 -0.1724 -0.7056
 2738SOL    HW119673   3.511   3.795   3.825 -0.3263 -0.0731 -1.4481
 2738SOL    HW219674   3.445   3.663   3.879  0.6972 -1.3634 -0.6515
 2739SOL     OW19675   2.270   2.684  10.220  0.1343 -0.5279  0.7776
 2739SOL    HW119676   2.323   2.761  10.200 -1.1206  0.2981  0.6692
 2739SOL    HW219677   2.314   2.635  10.289  0.0654 -0.3417  0.9528
 2740SOL     OW19678   1.460   2.528   8.025  0.8003  0.4355 -0.0344
 2740SOL    HW119679   1.419   2.540   8.111  0.9814 -0.7601  0.2158
 2740SOL    HW219680   1.549   2.502   8.050  1.2500  0.5516 -1.5225
 2741SOL     OW19681   2.258   0.722  12.469  0.1771  0.2411 -0.0533
 2741SOL    HW119682   2.192   0.745  12.534  0.9350  0.5759  0.5950
 2741SOL    HW219683   2.326   0.787  12.484 -0.7429  1.0789  0.5096
 2742SOL     OW19684   3.773   3.019   3.109 -0.0060  0.2283 -0.3315
 2742SOL    HW119685   3.747   3.085   3.173  1.0913  0.1939  0.1351
 2742SOL    HW219686   3.800   3.077   3.037  0.6670  0.1971 -0.1047
 2743SOL     OW19687   0.320   2.138   7.974 -0.3670  0.2101 -0.4487
 2743SOL    HW119688   0.388   2.078   8.004 -2.5264 -0.1646  3.6418
 2743SOL    HW219689   0.243   2.088   8.002 -1.0655  0.6199 -1.5948
 2744SOL     OW19690   3.979   3.114   8.207  0.0379 -0.0353 -0.5987
 2744SOL    HW119691   4.033   3.035   8.210 -2.0965 -1.4422  0.8084
 2744SOL    HW219692   3.902   3.085   8.255  0.8285 -1.9308 -0.4718
 2745SOL     OW19693   2.033   2.830   6.715 -0.3656 -0.5167 -0.3919
 2745SOL    HW119694   2.090   2.904   6.693  0.4638 -0.1637  3.0222
 2745SOL    HW219695   2.031   2.781   6.633 -0.5248 -1.0521 -0.0671
 2746SOL     OW19696   3.053   0.294   6.436 -0.1378  0.2353 -0.5451
 2746SOL    HW119697   3.135   0.245   6.437  0.1754  0.7891  1.1954
 2746SOL    HW219698   3.077   0.382   6.465  1.2947  0.4828 -2.4678
 2747SOL     OW19699   0.601   2.033   3.491  0.8339  0.7325  0.0048
 2747SOL    HW119700   0.569   2.119   3.462 -0.6921  0.5691  1.1913
 2747SOL    HW219701   0.615   2.049   3.584 -2.7942  0.9540  0.5167
 2748SOL     OW19702   0.105   2.512  11.666 -0.0488  0.3910 -0.3112
 2748SOL    HW119703   0.152   2.593  11.686  1.8274 -0.7459 -0.0994
 2748SOL    HW219704   0.176   2.454  11.636 -0.1739 -0.4868  1.1142
 2749SOL     OW19705   2.786   3.982  10.268 -0.0824  0.2320  0.0892
 2749SOL    HW119706   2.722   4.020  10.209 -0.9049  1.1175  1.5636
 2749SOL    HW219707   2.839   3.935  10.204 -1.8290 -2.8111  0.8892
 2750SOL     OW19708   2.236   3.830   3.118 -0.4929  0.6759  0.2139
 2750SOL    HW119709   2.197   3.821   3.032 -2.1267  0.8874  0.9296
 2750SOL    HW219710   2.329   3.836   3.096 -0.4573  0.0414  0.2028
 2751SOL     OW19711   0.173   2.843   7.567  0.4935 -0.3396  0.2506
 2751SOL    HW119712   0.237   2.780   7.537  1.3061  0.0006  1.2898
 2751SOL    HW219713   0.216   2.929   7.564 -1.3395  0.5905  0.5036
 2752SOL     OW19714   2.464   2.333   4.390 -0.6046 -0.0125 -0.1600
 2752SOL    HW119715   2.402   2.392   4.434 -0.2295  1.2602 -1.3333
 2752SOL    HW219716   2.419   2.328   4.306 -0.4335  1.6907 -0.3490
 2753SOL     OW19717   4.316   0.574  16.875  0.1217 -0.3475  0.6473
 2753SOL    HW119718   4.252   0.628  16.827  0.5331  1.5223  2.2364
 2753SOL    HW219719   4.395   0.619  16.846 -1.8102  0.4516 -3.4415
 2754SOL     OW19720   0.675   2.836   2.382  0.1356  0.0127  0.0374
 2754SOL    HW119721   0.585   2.857   2.358  0.3597 -0.2418 -1.0043
 2754SOL    HW219722   0.662   2.813   2.474 -0.6901 -1.2549 -0.4057
 2755SOL     OW19723   2.318   3.434   2.126 -0.3966  0.2326  0.7709
 2755SOL    HW119724   2.319   3.492   2.050 -1.4146 -2.0878 -1.0289
 2755SOL    HW219725   2.371   3.360   2.096 -1.3939 -1.4900  3.2449
 2756SOL     OW19726   4.030   0.274  11.368 -0.3340 -0.0481  0.0494
 2756SOL    HW119727   3.995   0.329  11.438  0.0989  0.0643  0.1816
 2756SOL    HW219728   4.118   0.255  11.401 -0.5383  1.0891  1.2746
 2757SOL     OW19729   1.804   4.225   3.929  0.5999  0.3960 -0.3365
 2757SOL    HW119730   1.873   4.180   3.881  0.7744  0.2389  0.0617
 2757SOL    HW219731   1.822   4.215   4.022 -2.8873 -0.4238  0.2371
 2758SOL     OW19732   0.026   3.744   5.614 -0.4874  0.1796 -0.0572
 2758SOL    HW119733   4.674   3.802   5.608  0.6217  1.7622  1.2247
 2758SOL    HW219734   0.080   3.798   5.672 -0.5088 -0.6936  0.7603
 2759SOL     OW19735   3.060   3.136   8.461 -0.0222 -0.0687 -0.0796
 2759SOL    HW119736   3.039   3.210   8.404 -0.3888 -0.9937 -1.1552
 2759SOL    HW219737   2.977   3.096   8.483 -0.8214  1.1699 -0.8156
 2760SOL     OW19738   0.496   0.619   7.429 -0.4435  0.1332  0.0011
 2760SOL    HW119739   0.431   0.633   7.499 -1.1833 -1.2284 -0.4233
 2760SOL    HW219740   0.441   0.604   7.352  0.7152 -1.5765 -0.4792
 2761SOL     OW19741   1.827   1.921   3.764  0.3363  0.5999  0.4820
 2761SOL    HW119742   1.746   1.870   3.763  1.1157 -0.6186 -1.7612
 2761SOL    HW219743   1.881   1.885   3.693  1.5397  0.3864  1.5127
 2762SOL     OW19744   2.310   0.887   5.676  0.1316  0.0391  0.2555
 2762SOL    HW119745   2.258   0.955   5.634 -0.6009 -0.4991  0.2888
 2762SOL    HW219746   2.298   0.817   5.612 -0.6277  0.2400  0.1671
 2763SOL     OW19747   4.545   0.489  16.445 -0.4161 -0.5807 -0.4134
 2763SOL    HW119748   4.490   0.440  16.506 -0.2876 -0.3272 -0.0936
 2763SOL    HW219749   4.479   0.552  16.416  0.6549  0.3864 -0.7184
 2764SOL     OW19750   4.614   0.657   4.038  0.1666 -0.2722  0.4386
 2764SOL    HW119751   4.550   0.694   3.978 -0.8933 -0.0728  1.6994
 2764SOL    HW219752   4.617   0.566   4.009 -0.5288 -0.3895  0.7403
 2765SOL     OW19753   1.215   2.401   8.956 -0.1185 -0.2355  0.2021
 2765SOL    HW119754   1.158   2.476   8.942 -0.5456 -0.7743 -0.9435
 2765SOL    HW219755   1.195   2.364   8.870  1.2627 -1.7098  0.5203
 2766SOL     OW19756   2.041   2.973   5.000 -0.1101 -0.2924  0.4775
 2766SOL    HW119757   2.136   2.957   4.999 -0.4361 -2.2621  1.6472
 2766SOL    HW219758   2.021   3.049   5.055  0.3985  0.6309 -0.6133
 2767SOL     OW19759   2.018   1.444  16.837 -0.3315 -0.0710 -0.6549
 2767SOL    HW119760   2.054   1.356  16.824  1.1635  0.4096  0.2438
 2767SOL    HW219761   2.086   1.482  16.891 -0.5809 -0.6324  0.0535
 2768SOL     OW19762   3.318   1.429   5.795 -0.2666  0.1137 -0.1477
 2768SOL    HW119763   3.381   1.380   5.848 -1.8285 -0.9448  0.7189
 2768SOL    HW219764   3.266   1.451   5.872  0.4644 -0.5061  0.5185
 2769SOL     OW19765   2.023   0.551   0.611  0.2225 -0.6371 -0.6237
 2769SOL    HW119766   2.043   0.458   0.620  1.4365 -0.5097 -2.0825
 2769SOL    HW219767   1.990   0.559   0.521  2.6634 -1.9120 -1.6398
 2770SOL     OW19768   2.490   3.395  16.636 -0.0211  0.2011 -0.0646
 2770SOL    HW119769   2.396   3.401  16.619 -0.3902 -0.6022  1.7388
 2770SOL    HW219770   2.511   3.468  16.694  0.2135 -0.0649  0.1843
 2771SOL     OW19771   3.369   2.893   1.366 -0.2759  0.3298  0.3255
 2771SOL    HW119772   3.405   2.818   1.413 -1.2469 -0.4434 -0.1569
 2771SOL    HW219773   3.337   2.948   1.438  0.1178  0.1547  0.6324
 2772SOL     OW19774   0.274   0.939   8.184  0.4725  0.2061 -0.1549
 2772SOL    HW119775   0.289   0.863   8.129 -0.4447 -0.2885  0.2710
 2772SOL    HW219776   0.296   1.012   8.127  0.4679 -0.0726 -0.5112
 2773SOL     OW19777   0.364   0.542   6.226  0.0609 -0.0105  0.3718
 2773SOL    HW119778   0.386   0.621   6.177 -2.1072  0.7744  0.6909
 2773SOL    HW219779   0.425   0.538   6.300  0.2019 -2.1351  0.1476
 2774SOL     OW19780   2.086   1.925   8.118  0.4751 -0.7441  0.0240
 2774SOL    HW119781   2.033   1.996   8.082  0.5108 -0.2745  0.9027
 2774SOL    HW219782   2.017   1.859   8.122 -0.0304 -0.3904 -2.7437
 2775SOL     OW19783   2.238   4.607   2.534 -0.3201 -0.4660  0.4202
 2775SOL    HW119784   2.216   4.550   2.460 -0.3869  0.4912 -0.2935
 2775SOL    HW219785   2.182   4.682   2.513 -0.6269 -0.2236  2.1406
 2776SOL     OW19786   0.018   0.246  14.217 -0.2867  0.2730  0.3240
 2776SOL    HW119787   4.718   0.156  14.240  0.1316  0.5025  1.6599
 2776SOL    HW219788   4.671   0.296  14.257  0.4686 -0.2270  2.2493
 2777SOL     OW19789   2.694   4.519  15.478 -0.4266  0.2489 -0.4633
 2777SOL    HW119790   2.605   4.545  15.502 -0.6476 -1.4936  0.6677
 2777SOL    HW219791   2.693   4.507  15.383  0.1534  0.1543 -0.4571
 2778SOL     OW19792   3.894   3.881  14.239 -0.3313  0.0822 -0.9639
 2778SOL    HW119793   3.935   3.836  14.312 -0.9222 -0.7380 -1.1351
 2778SOL    HW219794   3.975   3.898  14.191  1.0349 -3.2963  0.1767
 2779SOL     OW19795   0.849   0.771  16.014 -0.0440  0.2366 -0.1374
 2779SOL    HW119796   0.925   0.780  15.956 -0.2913 -2.5192 -0.8914
 2779SOL    HW219797   0.899   0.764  16.095  0.2411  1.1087 -0.2331
 2780SOL     OW19798   0.477   4.208  10.739  0.6437 -0.3855  0.0320
 2780SOL    HW119799   0.423   4.147  10.788 -1.0402 -0.6952 -2.1916
 2780SOL    HW219800   0.490   4.281  10.800 -2.7308  0.3057 -0.0765
 2781SOL     OW19801   3.906   3.366   4.986 -0.3550 -0.3462 -0.0214
 2781SOL    HW119802   3.869   3.277   4.993 -2.0232  0.2874 -0.7750
 2781SOL    HW219803   3.963   3.369   5.063 -0.0791 -0.4871 -0.2201
 2782SOL     OW19804   4.138   0.617   2.948 -0.3140 -0.1431 -0.2783
 2782SOL    HW119805   4.219   0.602   2.997 -1.2593 -0.5683  1.1703
 2782SOL    HW219806   4.128   0.712   2.954 -0.6232 -0.1636 -0.4659
 2783SOL     OW19807   3.586   1.779   6.094  0.1979  0.2793  0.2657
 2783SOL    HW119808   3.674   1.784   6.057 -0.8370 -0.1132 -2.2946
 2783SOL    HW219809   3.563   1.872   6.094  1.6484  0.6446 -1.6391
 2784SOL     OW19810   0.592   3.937  10.467  0.6676 -0.0078  1.0968
 2784SOL    HW119811   0.661   3.908  10.408  0.8002 -0.8429  1.6650
 2784SOL    HW219812   0.565   3.847  10.486  0.0295 -0.5742 -2.5886
 2785SOL     OW19813   2.656   3.186   8.334  0.3805 -0.0349  0.5429
 2785SOL    HW119814   2.672   3.124   8.405  0.0442 -0.4459  0.2552
 2785SOL    HW219815   2.729   3.169   8.275 -1.6291  0.6189 -2.0894
 2786SOL     OW19816   1.647   0.076   8.746  0.3171 -0.2169 -0.1781
 2786SOL    HW119817   1.671   0.055   8.655 -0.9168 -0.2387 -0.4906
 2786SOL    HW219818   1.583   0.147   8.744  0.4622 -0.0786  0.1445
 2787SOL     OW19819   2.837   2.762   3.456  0.0427 -1.0938  0.1205
 2787SOL    HW119820   2.813   2.674   3.484 -0.6449 -0.7980  0.4611
 2787SOL    HW219821   2.921   2.779   3.499  0.5813 -3.2077 -0.1173
 2788SOL     OW19822   1.221   2.941   0.301 -0.0622 -0.3295 -0.2617
 2788SOL    HW119823   1.220   3.004   0.373 -0.3443  2.0838 -2.3824
 2788SOL    HW219824   1.168   2.872   0.341 -0.9690  1.1771  1.1669
 2789SOL     OW19825   0.467   2.649   8.435  0.0545  1.0488  0.3783
 2789SOL    HW119826   0.405   2.718   8.457  1.0634  2.0032  0.1898
 2789SOL    HW219827   0.484   2.669   8.343 -3.2494  1.7428 -0.0685
 2790SOL     OW19828   1.880   1.990  10.551  0.5315 -0.9980 -0.5209
 2790SOL    HW119829   1.794   2.026  10.530 -0.2395 -3.8449 -2.2824
 2790SOL    HW219830   1.889   2.017  10.643 -1.4903 -0.8365 -0.3760
 2791SOL     OW19831   2.352   4.707  15.115 -0.1980 -0.2948 -0.1589
 2791SOL    HW119832   2.403   0.063  15.116 -1.0991  0.2714  1.2264
 2791SOL    HW219833   2.337   4.691  15.022  0.4023 -0.6273 -0.1955
 2792SOL     OW19834   0.654   1.256   9.832 -0.0142 -0.3254  0.3991
 2792SOL    HW119835   0.736   1.274   9.880  0.2160  0.4926 -0.3110
 2792SOL    HW219836   0.640   1.343   9.795  1.0235  0.7659  2.5175
 2793SOL     OW19837   4.447   1.108   7.504  0.1541  0.0576 -0.0380
 2793SOL    HW119838   4.465   1.152   7.421  1.3241  0.2344  0.3125
 2793SOL    HW219839   4.501   1.162   7.562  2.8440  0.9776 -3.4098
 2794SOL     OW19840   3.566   4.611  16.086 -0.4669 -0.0878 -0.1692
 2794SOL    HW119841   3.493   4.559  16.053 -1.7180  1.6633 -0.0955
 2794SOL    HW219842   3.573   4.684  16.026  0.8500 -0.0926 -0.0373
 2795SOL     OW19843   2.542   0.975  13.397 -0.1672  0.2712 -0.2064
 2795SOL    HW119844   2.618   1.013  13.441  0.8887 -1.1549 -0.8251
 2795SOL    HW219845   2.529   0.888  13.435 -1.0546  1.4196  2.1812
 2796SOL     OW19846   0.817   0.896  14.023  0.3600  0.6805  0.0379
 2796SOL    HW119847   0.906   0.928  14.039  0.2918  2.8590 -3.9668
 2796SOL    HW219848   0.765   0.945  14.086  1.6425 -0.5766  2.0831
 2797SOL     OW19849   1.157   1.233   3.771  0.2200 -0.0381 -0.2543
 2797SOL    HW119850   1.135   1.207   3.681  0.4100 -0.8218 -0.0762
 2797SOL    HW219851   1.116   1.160   3.817 -1.5862  0.8715 -0.4131
 2798SOL     OW19852   2.500   2.003   3.069  0.5259 -0.0180  0.6026
 2798SOL    HW119853   2.422   2.041   3.110  1.3527  0.7612  1.4240
 2798SOL    HW219854   2.519   1.932   3.131 -0.9051 -1.0219 -0.1194
 2799SOL     OW19855   3.943   1.965  15.071  0.1695  0.6085  0.1022
 2799SOL    HW119856   3.914   2.050  15.103 -1.3568 -0.3517  1.2669
 2799SOL    HW219857   3.859   1.933  15.037 -0.5893 -0.3709  2.9165
 2800SOL     OW19858   1.629   2.448  11.629 -0.0171  0.0532  0.0891
 2800SOL    HW119859   1.589   2.366  11.659  1.3604  0.0181  1.8379
 2800SOL    HW219860   1.723   2.440  11.650 -0.2376 -0.4491  0.8845
 2801SOL     OW19861   2.045   1.254   3.549 -0.5721 -0.3758  0.3745
 2801SOL    HW119862   2.060   1.188   3.481 -0.4020 -0.9242  0.9346
 2801SOL    HW219863   2.069   1.335   3.505 -0.5893  0.0748  1.1957
 2802SOL     OW19864   1.583   4.430   6.190 -0.5450 -0.3070  0.2183
 2802SOL    HW119865   1.534   4.360   6.147  0.1347  0.2108 -1.3902
 2802SOL    HW219866   1.650   4.379   6.236  1.6544  1.9501 -0.4894
 2803SOL     OW19867   1.051   2.568  17.065  0.1136 -0.0823 -0.5290
 2803SOL    HW119868   1.075   2.478  17.042 -1.4127 -1.1879  2.2012
 2803SOL    HW219869   1.106   2.569  17.144  0.9098  1.2344 -1.0982
 2804SOL     OW19870   4.514   0.174   2.812  0.2963 -0.5001  0.4928
 2804SOL    HW119871   4.522   0.173   2.907 -1.2614 -0.5311  0.6235
 2804SOL    HW219872   4.602   0.146   2.789 -0.2396 -0.6038 -1.5053
 2805SOL     OW19873   1.597   2.545   1.811 -0.1811  0.0788 -0.0687
 2805SOL    HW119874   1.588   2.625   1.759 -3.3899 -0.8636 -0.9634
 2805SOL    HW219875   1.588   2.481   1.741  0.4070 -0.0539 -0.0263
 2806SOL     OW19876   3.683   1.293   3.008 -0.3455 -0.2897  0.4964
 2806SOL    HW119877   3.759   1.336   3.046  1.3234 -0.4443 -2.6363
 2806SOL    HW219878   3.715   1.257   2.925  1.3759 -0.2755  1.1557
 2807SOL     OW19879   2.522   1.992   5.569  0.4615  0.3204 -0.2251
 2807SOL    HW119880   2.609   2.006   5.533  0.0753  1.2508 -0.8068
 2807SOL    HW219881   2.541   1.932   5.641 -0.8167  0.1759 -0.0126
 2808SOL     OW19882   0.393   0.419   8.679  0.1015 -0.5972  0.1133
 2808SOL    HW119883   0.446   0.499   8.672 -0.3856 -0.2734  0.1141
 2808SOL    HW219884   0.318   0.447   8.732  0.5457  0.4150  0.2114
 2809SOL     OW19885   0.095   2.130   2.053 -0.1846 -0.0890 -0.0988
 2809SOL    HW119886   0.063   2.176   1.975  1.3280 -2.3750 -2.0233
 2809SOL    HW219887   0.045   2.182   2.117 -0.8763  0.7941 -1.3456
 2810SOL     OW19888   4.184   3.530   5.127 -0.6553  0.2173 -0.6548
 2810SOL    HW119889   4.189   3.595   5.057 -1.5423  0.4487 -0.4987
 2810SOL    HW219890   4.146   3.587   5.194  1.9316  0.3159  0.7394
 2811SOL     OW19891   3.575   2.363  15.616 -0.4745 -0.6194  0.2780
 2811SOL    HW119892   3.635   2.365  15.691  1.4566 -0.1738 -1.2908
 2811SOL    HW219893   3.575   2.274  15.583 -1.7011 -0.3551 -0.4043
 2812SOL     OW19894   4.279   1.636   8.700 -0.3068 -0.5407  0.4330
 2812SOL    HW119895   4.205   1.658   8.643 -0.1138  0.7942  0.6814
 2812SOL    HW219896   4.275   1.709   8.762 -0.4782 -0.9911  0.9531
 2813SOL     OW19897   3.683   0.614  13.614 -0.5757  0.6989 -0.3124
 2813SOL    HW119898   3.706   0.688  13.669  1.0144  1.1251 -1.5625
 2813SOL    HW219899   3.604   0.586  13.661  1.0971 -2.1180  0.8267
 2814SOL     OW19900   2.119   4.537  15.612  0.0185 -0.0002  0.2972
 2814SOL    HW119901   2.025   4.550  15.602 -0.4158 -2.2015  1.5436
 2814SOL    HW219902   2.160   4.557  15.527  0.9948 -0.1084  0.7406
 2815SOL     OW19903   4.110   2.789  10.234 -0.8276  0.3316  0.2806
 2815SOL    HW119904   4.015   2.795  10.222 -0.7522  1.5147  0.2303
 2815SOL    HW219905   4.116   2.728  10.308 -1.5007 -0.2899 -0.1789
 2816SOL     OW19906   3.553   4.547   3.242  0.1605  0.7356 -0.0885
 2816SOL    HW119907   3.590   4.499   3.168  1.2620  1.0247  0.2764
 2816SOL    HW219908   3.533   4.475   3.303  0.0833  0.8071 -0.0299
 2817SOL     OW19909   0.262   3.773   9.208  0.5079  0.1122  0.2201
 2817SOL    HW119910   0.203   3.757   9.281  1.5215 -2.0056  0.5775
 2817SOL    HW219911   0.206   3.748   9.135 -0.1087  0.0203  0.7306
 2818SOL     OW19912   0.951   1.302   7.859  0.1567  0.1775 -0.1905
 2818SOL    HW119913   1.020   1.253   7.814  0.2365  0.4561 -0.3694
 2818SOL    HW219914   1.000   1.379   7.887  1.5067 -0.5371 -0.5784
 2819SOL     OW19915   3.872   0.748   9.511 -0.5991  0.2428  0.0772
 2819SOL    HW119916   3.881   0.676   9.449 -1.8931  0.8583 -0.8151
 2819SOL    HW219917   3.782   0.726   9.535  0.7555 -3.5033  1.6606
 2820SOL     OW19918   0.889   0.133  11.275 -0.2673 -0.1024 -0.5041
 2820SOL    HW119919   0.921   0.201  11.334  0.6110 -0.5331 -0.4808
 2820SOL    HW219920   0.854   0.192  11.209  0.3746 -0.9999 -1.6487
 2821SOL     OW19921   2.824   2.713   1.309  0.1068  0.0658 -0.0134
 2821SOL    HW119922   2.867   2.797   1.293  1.8389 -1.1373 -1.6101
 2821SOL    HW219923   2.820   2.675   1.221  0.5494  0.4772 -0.2123
 2822SOL     OW19924   3.116   3.170  16.016 -0.6131  0.3126 -0.0362
 2822SOL    HW119925   3.075   3.137  16.096  2.1769 -1.7345  0.5205
 2822SOL    HW219926   3.090   3.098  15.958  1.4387 -0.2114 -0.2895
 2823SOL     OW19927   3.601   0.768   2.671  0.2813 -0.2703 -0.0713
 2823SOL    HW119928   3.693   0.743   2.683  0.4167  1.0273  1.6032
 2823SOL    HW219929   3.614   0.861   2.690 -0.2105 -0.4367  1.0850
 2824SOL     OW19930   1.956   0.714   6.729 -0.0951 -0.6391  0.3004
 2824SOL    HW119931   2.015   0.655   6.775 -0.5795 -0.7971  0.7126
 2824SOL    HW219932   1.975   0.796   6.776  3.8330 -0.2380 -1.9338
 2825SOL     OW19933   1.520   4.570   8.807  0.0007 -0.6307 -0.6188
 2825SOL    HW119934   1.572   4.649   8.792  1.5191 -1.3456  0.8695
 2825SOL    HW219935   1.467   4.599   8.881  0.6207 -1.3588  0.1140
 2826SOL     OW19936   2.698   4.311  15.950  0.4513 -0.4368  0.2591
 2826SOL    HW119937   2.636   4.260  15.898  1.1674 -1.5822  0.5303
 2826SOL    HW219938   2.652   4.393  15.935  2.5486  0.7536  0.3976
 2827SOL     OW19939   1.444   2.326   6.771 -0.3112  0.9052 -0.9094
 2827SOL    HW119940   1.428   2.296   6.681  1.4632 -0.5704 -0.7424
 2827SOL    HW219941   1.535   2.300   6.788 -0.8326  0.6032  1.3945
 2828SOL     OW19942   1.930   0.630  16.728  0.3372 -0.1958  0.3653
 2828SOL    HW119943   1.984   0.641  16.650  1.5751 -0.7940  1.1447
 2828SOL    HW219944   1.866   0.564  16.702  0.0998  0.5611 -0.9729
 2829SOL     OW19945   1.200   3.495   8.053  0.0958 -0.0697 -0.4436
 2829SOL    HW119946   1.244   3.411   8.038  0.7666  0.1235  0.4315
 2829SOL    HW219947   1.120   3.471   8.100  0.4755 -1.1944 -0.3789
 2830SOL     OW19948   2.148   1.510  15.170 -0.2449 -0.1820 -0.2028
 2830SOL    HW119949   2.089   1.450  15.124  0.5896  1.5830 -3.5769
 2830SOL    HW219950   2.233   1.467  15.156 -0.2021 -0.2596  0.2931
 2831SOL     OW19951   0.378   0.345   2.800  0.1495  0.0445 -0.0753
 2831SOL    HW119952   0.283   0.356   2.805  0.2842  1.0119  0.3645
 2831SOL    HW219953   0.400   0.437   2.786  0.4636 -0.3407 -2.1521
 2832SOL     OW19954   4.493   4.673   3.956 -0.0443  0.1965  0.3896
 2832SOL    HW119955   4.548   4.672   4.035  0.7191 -0.8183 -0.1468
 2832SOL    HW219956   4.406   4.681   3.995 -0.5660  2.1217 -1.1909
 2833SOL     OW19957   0.644   4.640  11.670  0.3099 -0.1581  0.0766
 2833SOL    HW119958   0.597   4.661  11.589 -1.9907  2.6378  2.1244
 2833SOL    HW219959   0.678   4.556  11.639 -0.0045  0.1025 -0.9778
 2834SOL     OW19960   3.886   2.788   1.112  0.2533  0.3049 -0.3375
 2834SOL    HW119961   3.832   2.769   1.188  2.8522 -4.1447  0.3960
 2834SOL    HW219962   3.844   2.859   1.064  2.0830  1.4790 -0.1940
 2835SOL     OW19963   2.013   1.965   3.522  0.4124  0.5213 -0.1740
 2835SOL    HW119964   2.088   1.996   3.471 -0.1015 -1.0112 -1.8854
 2835SOL    HW219965   1.958   2.043   3.510 -2.2546 -1.2175  0.9214
 2836SOL     OW19966   1.380   3.411   5.166  0.0144 -0.0759 -0.1140
 2836SOL    HW119967   1.395   3.407   5.261  1.1189 -0.1022 -0.2849
 2836SOL    HW219968   1.457   3.361   5.138 -0.0230 -1.0057  1.3893
 2837SOL     OW19969   2.175   3.992   6.988 -0.2279  0.1459  0.0363
 2837SOL    HW119970   2.144   3.902   7.001 -0.5435  0.4582  1.4816
 2837SOL    HW219971   2.260   3.976   7.030 -0.0189 -2.6064 -1.4509
 2838SOL     OW19972   4.275   0.587   6.972  0.4708  0.0312  0.1024
 2838SOL    HW119973   4.183   0.611   6.967  0.7168  1.2554  1.4649
 2838SOL    HW219974   4.311   0.649   7.036  2.5728 -0.5862 -0.4911
 2839SOL     OW19975   4.336   0.319  11.373  0.6604  0.0023  0.0724
 2839SOL    HW119976   4.310   0.346  11.461 -1.1046 -3.9738  0.8033
 2839SOL    HW219977   4.300   0.389  11.319 -1.6480 -0.6384  0.7979
 2840SOL     OW19978   4.083   0.333   7.455 -0.7051  0.2653  0.3963
 2840SOL    HW119979   4.005   0.382   7.428  0.1483  0.0161 -2.5541
 2840SOL    HW219980   4.095   0.368   7.543 -0.1268  2.6400 -0.5960
 2841SOL     OW19981   1.637   2.659   0.700 -0.4244 -0.4175  0.6904
 2841SOL    HW119982   1.691   2.581   0.689  1.0302  0.9610 -1.8307
 2841SOL    HW219983   1.662   2.708   0.622  0.9642 -1.3474  0.5480
 2842SOL     OW19984   1.077   0.929  14.138 -0.4797  0.4269 -0.2706
 2842SOL    HW119985   1.168   0.922  14.165 -0.2268  0.4199 -1.1429
 2842SOL    HW219986   1.040   0.864  14.198 -3.2376  0.9666 -1.4045
 2843SOL     OW19987   2.231   1.857   0.619 -0.0168 -1.3082 -0.4364
 2843SOL    HW119988   2.156   1.895   0.663  0.0513 -1.1737 -0.4350
 2843SOL    HW219989   2.238   1.936   0.565  0.5610  1.4885  3.8017
 2844SOL     OW19990   0.700   0.038   2.178  0.7054  0.5643  0.1390
 2844SOL    HW119991   0.628   0.001   2.126  0.3205 -0.1279  1.1827
 2844SOL    HW219992   0.767   4.694   2.169  0.1823  0.2316 -1.2945
 2845SOL     OW19993   0.814   1.061   1.715  0.3748 -0.4631 -0.1714
 2845SOL    HW119994   0.838   1.099   1.799  0.7732 -0.1733 -0.4115
 2845SOL    HW219995   0.900   1.052   1.675  1.5081  0.4751  2.0990
 2846SOL     OW19996   1.290   4.474   2.101 -0.5203  0.6767 -0.0254
 2846SOL    HW119997   1.336   4.395   2.071 -0.7370  0.9663 -1.1142
 2846SOL    HW219998   1.203   4.436   2.113  0.9848 -3.2431 -1.4046
 2847SOL     OW19999   0.627   2.628  10.932  0.3190 -0.1087  0.1670
 2847SOL    HW120000   0.651   2.613  11.023 -0.9608 -0.4563  0.4386
 2847SOL    HW220001   0.569   2.704  10.933 -0.1117 -0.4127 -1.9912
 2848SOL     OW20002   2.358   0.037  16.589 -0.0677  0.6201 -0.2721
 2848SOL    HW120003   2.435   4.717  16.552  0.4840 -0.4419  2.0870
 2848SOL    HW220004   2.284   4.721  16.544  1.3622 -0.3659 -1.7880
 2849SOL     OW20005   1.905   2.155  12.432 -0.1323 -0.1851 -0.3643
 2849SOL    HW120006   1.848   2.210  12.485 -1.2027 -0.5632 -1.1001
 2849SOL    HW220007   1.856   2.072  12.438 -0.4316 -0.1548 -2.1350
 2850SOL     OW20008   1.322   0.412  16.810  0.4271 -0.2290  0.3415
 2850SOL    HW120009   1.371   0.494  16.798  0.1324  0.3113  2.9030
 2850SOL    HW220010   1.249   0.425  16.871  0.1522 -1.5995  0.3032
 2851SOL     OW20011   1.654   0.312   2.126  0.4410 -0.6564  0.0287
 2851SOL    HW120012   1.693   0.227   2.108 -1.0748 -1.4574  0.4879
 2851SOL    HW220013   1.729   0.371   2.122 -0.3092  0.1446 -1.9617
 2852SOL     OW20014   3.509   2.885   5.435  0.0987 -0.2371 -0.4640
 2852SOL    HW120015   3.478   2.914   5.520  2.9127  0.8834  0.1736
 2852SOL    HW220016   3.594   2.928   5.425  1.2544 -2.2373  0.7133
 2853SOL     OW20017   3.328   4.352   1.447  0.5102  0.1252 -0.4007
 2853SOL    HW120018   3.323   4.256   1.443  1.7948  0.1174 -2.0477
 2853SOL    HW220019   3.346   4.370   1.539  0.5525 -1.5596 -0.0819
 2854SOL     OW20020   3.492   1.747   7.824 -0.1244  0.2044  0.2431
 2854SOL    HW120021   3.551   1.794   7.766 -0.8992 -0.3162 -0.9485
 2854SOL    HW220022   3.435   1.817   7.857  1.7999  3.1604 -2.7393
 2855SOL     OW20023   0.154   3.441   7.630  0.7322 -0.3109 -0.1536
 2855SOL    HW120024   0.189   3.451   7.719  0.0722  1.5347 -0.1147
 2855SOL    HW220025   0.080   3.379   7.636  1.4805 -1.1404  0.5310
 2856SOL     OW20026   4.715   4.663   7.070  0.7966  0.6436  0.0643
 2856SOL    HW120027   0.042   4.688   7.147  1.5861 -1.3438  0.1971
 2856SOL    HW220028   4.698   0.027   7.035 -0.1700  0.2085 -0.5601
 2857SOL     OW20029   3.328   3.527   4.781  0.1014  0.0972 -0.6800
 2857SOL    HW120030   3.289   3.609   4.750  0.5628  0.2073 -0.9791
 2857SOL    HW220031   3.294   3.458   4.724  1.4621 -1.7321  0.7433
 2858SOL     OW20032   1.977   4.160   8.164  0.8522  0.0867  0.2687
 2858SOL    HW120033   1.966   4.202   8.250 -2.5133  0.6801 -0.4524
 2858SOL    HW220034   2.021   4.078   8.185 -0.1273 -0.3112  0.7595
 2859SOL     OW20035   4.201   2.107   0.755  0.6528 -0.3284 -0.4078
 2859SOL    HW120036   4.285   2.115   0.709 -1.1618 -3.0240 -4.2058
 2859SOL    HW220037   4.184   2.198   0.728 -1.0892 -0.7057 -0.5951
 2860SOL     OW20038   1.807   1.191  11.026 -0.0660 -0.3138  0.3578
 2860SOL    HW120039   1.815   1.245  11.104  1.5314  0.2031 -0.1456
 2860SOL    HW220040   1.894   1.195  10.984 -0.4330 -0.6509 -0.4376
 2861SOL     OW20041   3.985   4.346  17.336 -0.3687 -0.2828  0.7777
 2861SOL    HW120042   3.919   4.398  17.382 -2.2038 -1.6753 -0.2731
 2861SOL    HW220043   4.056   4.353  17.400 -0.3235  1.8140  0.4728
 2862SOL     OW20044   0.493   2.617   6.180  0.6889  0.3069 -0.4360
 2862SOL    HW120045   0.452   2.660   6.254 -0.2846  0.4846 -1.0761
 2862SOL    HW220046   0.576   2.610   6.227  0.8820  1.1620 -0.6466
 2863SOL     OW20047   3.937   3.502   2.580 -0.6663  0.7595 -0.1267
 2863SOL    HW120048   3.928   3.586   2.536  1.5380  0.6407 -0.8278
 2863SOL    HW220049   4.031   3.494   2.564 -1.0521 -1.8542 -1.1140
 2864SOL     OW20050   3.618   4.438   3.671 -0.1237 -0.2653 -0.2255
 2864SOL    HW120051   3.704   4.461   3.636  1.0030 -2.1486  1.2797
 2864SOL    HW220052   3.594   4.529   3.684  1.1618 -0.4959  3.9575
 2865SOL     OW20053   4.685   2.889  13.976  0.3937  0.3730 -0.2400
 2865SOL    HW120054   4.676   2.889  14.071  0.2151 -1.4510 -0.2455
 2865SOL    HW220055   4.720   2.804  13.950  2.1987  1.5026 -1.4663
 2866SOL     OW20056   4.120   2.376  10.575  0.1920  0.0421 -0.1972
 2866SOL    HW120057   4.178   2.395  10.649  0.4954 -2.0350  0.1185
 2866SOL    HW220058   4.032   2.379  10.613  0.7899 -0.4491  1.2532
 2867SOL     OW20059   4.584   0.695   3.528  0.7587  0.4383  0.4013
 2867SOL    HW120060   4.589   0.718   3.621  1.7645 -1.6638  0.8656
 2867SOL    HW220061   4.498   0.728   3.502  0.9183  1.8696  1.7278
 2868SOL     OW20062   3.559   4.390   2.194  0.2138  0.5713 -0.4756
 2868SOL    HW120063   3.576   4.418   2.284 -0.4279 -2.5816  0.6309
 2868SOL    HW220064   3.643   4.411   2.153  1.6965 -1.4046  1.5656
 2869SOL     OW20065   0.112   1.712   6.158 -0.0713 -0.0729 -0.0398
 2869SOL    HW120066   0.207   1.722   6.152 -0.2579  0.9562 -1.1415
 2869SOL    HW220067   0.085   1.776   6.092 -0.3406 -2.2142 -2.0089
 2870SOL     OW20068   2.112   2.858   3.707  0.1536 -0.1333 -0.4754
 2870SOL    HW120069   2.166   2.900   3.775  2.1942  0.6021 -2.5338
 2870SOL    HW220070   2.025   2.892   3.725 -0.2007  0.3341 -3.0216
 2871SOL     OW20071   4.493   4.395   7.996 -0.7413  0.3748  0.0456
 2871SOL    HW120072   4.472   4.488   7.995 -3.1065 -0.1803 -3.0371
 2871SOL    HW220073   4.494   4.363   8.086  0.7407 -3.2468 -1.2467
 2872SOL     OW20074   4.426   1.163   5.995  0.1948  0.1953  0.3417
 2872SOL    HW120075   4.439   1.068   5.991  3.0962  0.6352 -0.6575
 2872SOL    HW220076   4.516   1.192   5.988 -0.2999  2.1711  2.0505
 2873SOL     OW20077   2.697   1.574  12.144  0.3610 -0.2468 -0.0531
 2873SOL    HW120078   2.703   1.479  12.150  2.7492  0.0199  1.4804
 2873SOL    HW220079   2.668   1.595  12.055 -2.4618 -0.5788  0.7679
 2874SOL     OW20080   3.165   0.359   5.255 -0.4494 -0.4108  0.7658
 2874SOL    HW120081   3.122   0.422   5.313 -1.3908  1.0230 -1.4819
 2874SOL    HW220082   3.127   0.374   5.169 -0.1439  1.8149  1.0166
 2875SOL     OW20083   4.129   3.027   9.779  0.0517 -0.1010  0.0508
 2875SOL    HW120084   4.152   2.998   9.691 -2.4665 -0.4812 -0.4789
 2875SOL    HW220085   4.033   3.028   9.774  0.0441  0.9017  0.3049
 2876SOL     OW20086   0.081   2.607   0.704 -0.3702  0.9098 -0.0266
 2876SOL    HW120087   0.048   2.683   0.656  0.1175  1.2195  0.1248
 2876SOL    HW220088   0.005   2.558   0.734  0.9700 -0.7536  0.6449
 2877SOL     OW20089   2.333   0.045   9.320  0.0459 -0.5190  0.0970
 2877SOL    HW120090   2.250   0.045   9.368 -0.0735  2.7078 -0.1595
 2877SOL    HW220091   2.367   0.125   9.361 -1.3521  1.4122 -2.5700
 2878SOL     OW20092   3.249   3.487  14.692 -0.1979  0.0171  0.3583
 2878SOL    HW120093   3.250   3.575  14.653 -2.1546  0.7174  1.9033
 2878SOL    HW220094   3.180   3.481  14.757 -1.3443  0.2668 -0.8469
 2879SOL     OW20095   3.219   2.992  14.112 -0.5413 -0.5072  0.3026
 2879SOL    HW120096   3.293   2.952  14.159  0.1503 -1.5115 -1.6148
 2879SOL    HW220097   3.236   2.950  14.027  1.4290  0.5172  0.1799
 2880SOL     OW20098   4.556   1.884  14.675  0.4727  0.2350  0.4673
 2880SOL    HW120099   4.638   1.898  14.628  0.6852  1.9863  1.3590
 2880SOL    HW220100   4.606   1.843  14.745  0.3483  1.3948  1.2485
 2881SOL     OW20101   4.327   1.819   7.801 -0.0795 -0.4679 -0.1859
 2881SOL    HW120102   4.270   1.754   7.760  2.8434 -2.0880 -1.6846
 2881SOL    HW220103   4.370   1.852   7.723  0.1867  0.3243  0.2940
 2882SOL     OW20104   3.149   4.695   0.691 -0.4255  0.0356  0.1261
 2882SOL    HW120105   3.080   4.669   0.751  1.0995 -1.9519  1.0364
 2882SOL    HW220106   3.202   0.030   0.746  0.5686  1.3096 -2.1633
 2883SOL     OW20107   1.561   3.500   8.319 -0.0972  0.1888 -0.4232
 2883SOL    HW120108   1.476   3.457   8.328  1.0098 -1.5099  1.7660
 2883SOL    HW220109   1.627   3.450   8.367  0.3685  0.7345 -0.4935
 2884SOL     OW20110   2.263   0.098   4.056  0.0429  0.3230  0.1934
 2884SOL    HW120111   2.300   0.179   4.021  0.2219 -0.6054 -1.7593
 2884SOL    HW220112   2.254   0.119   4.149 -1.6136  0.5889 -0.0299
 2885SOL     OW20113   4.369   1.504   3.388 -0.1854  0.0215  0.4062
 2885SOL    HW120114   4.460   1.495   3.359 -0.8281 -1.1686 -1.2833
 2885SOL    HW220115   4.326   1.503   3.302  2.4139  1.1502 -0.9075
 2886SOL     OW20116   4.410   3.102   3.108 -0.1667 -0.7839  0.4527
 2886SOL    HW120117   4.395   3.196   3.097 -0.5798 -1.1776 -2.3650
 2886SOL    HW220118   4.505   3.095   3.098 -0.3241 -0.9308 -0.9367
 2887SOL     OW20119   2.364   2.718   6.586 -0.0475 -0.3179  0.1590
 2887SOL    HW120120   2.347   2.730   6.679  1.0652  0.8017  0.2110
 2887SOL    HW220121   2.423   2.643   6.590  0.7670  0.3645  0.6649
 2888SOL     OW20122   0.176   1.246   3.811 -0.7153  0.1412 -0.1687
 2888SOL    HW120123   0.163   1.152   3.823  0.3046 -0.4510 -3.4912
 2888SOL    HW220124   0.210   1.263   3.899 -0.8269  0.7543 -0.2445
 2889SOL     OW20125   1.715   3.392   6.614 -0.2768 -0.2884 -0.4764
 2889SOL    HW120126   1.632   3.403   6.661 -0.0211  4.2515 -1.0458
 2889SOL    HW220127   1.710   3.446   6.535  2.4243  1.0451  0.2952
 2890SOL     OW20128   0.369   1.147   7.976  0.0934  0.4155 -0.2061
 2890SOL    HW120129   0.386   1.234   8.011  3.3536 -0.0127 -0.6650
 2890SOL    HW220130   0.462   1.126   7.963  0.4153  1.3104  0.6842
 2891SOL     OW20131   3.605   2.730  13.852  0.1511 -0.2622 -0.1850
 2891SOL    HW120132   3.655   2.707  13.930  0.5375 -0.4232 -0.4781
 2891SOL    HW220133   3.526   2.677  13.852  1.0161 -1.5792  3.1891
 2892SOL     OW20134   0.699   3.970  10.081 -1.1864  0.5485 -1.4140
 2892SOL    HW120135   0.694   3.875  10.070 -3.7087  0.2018  2.6902
 2892SOL    HW220136   0.608   3.986  10.103 -0.4073  0.0110  2.3002
 2893SOL     OW20137   1.576   2.930   7.260  0.0920 -0.4466 -0.9495
 2893SOL    HW120138   1.651   2.942   7.201 -0.0177  0.3947 -0.9274
 2893SOL    HW220139   1.518   2.992   7.215 -0.2483  0.3372  0.5680
 2894SOL     OW20140   1.852   2.223   8.677  0.8092  0.0674  0.0646
 2894SOL    HW120141   1.841   2.299   8.735 -1.3892 -0.1844 -0.0003
 2894SOL    HW220142   1.935   2.187   8.707  0.6161  0.7026  1.3574
 2895SOL     OW20143   3.794   1.334   1.439  0.0875 -0.4140  0.2982
 2895SOL    HW120144   3.725   1.400   1.438 -0.1150 -0.6190  0.5919
 2895SOL    HW220145   3.782   1.302   1.529 -1.4007  1.3529  0.7296
 2896SOL     OW20146   0.826   4.010   4.660  0.1594  0.2737 -0.2638
 2896SOL    HW120147   0.815   3.918   4.635 -3.3159  1.0030 -1.5386
 2896SOL    HW220148   0.814   4.013   4.755 -0.2816  0.0183 -0.3096
 2897SOL     OW20149   1.256   4.500   2.451 -0.0999 -0.3817 -0.1812
 2897SOL    HW120150   1.171   4.470   2.482 -0.0748  0.6070  0.8681
 2897SOL    HW220151   1.315   4.425   2.455  0.7939  0.3768  0.8021
 2898SOL     OW20152   2.718   1.078   0.753  0.2817 -0.0181 -0.2607
 2898SOL    HW120153   2.791   1.101   0.811 -0.4243 -1.1094  1.0558
 2898SOL    HW220154   2.708   1.158   0.701 -0.7682 -0.1888 -0.3088
 2899SOL     OW20155   3.231   0.372   5.955 -0.1874  0.9181 -0.5735
 2899SOL    HW120156   3.274   0.443   6.003 -1.0052 -0.3107  1.9218
 2899SOL    HW220157   3.267   0.289   5.983  1.5806  2.0589  0.5321
 2900SOL     OW20158   3.607   4.243   7.276 -0.1412 -0.0324  0.2755
 2900SOL    HW120159   3.660   4.289   7.340 -0.4947 -1.0336  1.2902
 2900SOL    HW220160   3.559   4.316   7.236  1.1829 -0.1106 -1.4312
 2901SOL     OW20161   2.397   4.569   5.157  0.2245 -0.0511  0.1424
 2901SOL    HW120162   2.428   4.599   5.243 -1.6224  1.6056  0.2293
 2901SOL    HW220163   2.354   4.650   5.132  0.7645  0.5225  1.0870
 2902SOL     OW20164   2.154   3.653   1.205  0.1436 -0.4807 -0.6792
 2902SOL    HW120165   2.118   3.565   1.197  0.5635 -0.6261 -0.9345
 2902SOL    HW220166   2.208   3.664   1.127  0.6627  0.3358 -0.2132
 2903SOL     OW20167   2.563   0.278   5.354 -0.0205  0.1396  0.4581
 2903SOL    HW120168   2.498   0.264   5.423  0.9989 -3.1673  0.7758
 2903SOL    HW220169   2.598   0.189   5.353  2.7433  1.2016  2.3604
 2904SOL     OW20170   2.629   2.441  14.704 -0.5697 -0.7081 -0.0352
 2904SOL    HW120171   2.598   2.387  14.777 -1.7410  1.1013  0.7984
 2904SOL    HW220172   2.558   2.435  14.640  1.0252  1.5340 -2.0183
 2905SOL     OW20173   1.392   2.712  10.752 -0.8875  0.1634 -0.3014
 2905SOL    HW120174   1.413   2.752  10.668  1.0859 -2.1659 -0.9260
 2905SOL    HW220175   1.300   2.690  10.736 -0.9726  2.1636 -2.5091
 2906SOL     OW20176   1.603   3.753  10.281 -0.1626 -0.1240  0.1988
 2906SOL    HW120177   1.680   3.794  10.320  0.3088  0.1641 -1.0245
 2906SOL    HW220178   1.620   3.773  10.189 -0.4911  2.1215  0.6448
 2907SOL     OW20179   0.547   3.302   3.305  0.1593  0.7344 -0.2219
 2907SOL    HW120180   0.560   3.353   3.385  1.9664 -0.8050  0.4703
 2907SOL    HW220181   0.637   3.270   3.297 -0.0761 -0.1502  0.6595
 2908SOL     OW20182   0.030   1.483   2.653  0.1968  0.8232 -0.0466
 2908SOL    HW120183   0.087   1.486   2.729  1.5648  0.5150 -1.0600
 2908SOL    HW220184   0.023   1.391   2.627 -0.8354  1.1120 -0.8247
 2909SOL     OW20185   1.651   2.633   5.015  0.2769 -0.4727  0.2041
 2909SOL    HW120186   1.609   2.702   5.066  0.3767  0.6506 -1.2164
 2909SOL    HW220187   1.575   2.584   4.985  0.4538  0.2462 -1.3938
 2910SOL     OW20188   2.884   3.572   1.300 -0.8582 -0.1042  0.0331
 2910SOL    HW120189   2.868   3.657   1.259 -1.9886  0.5533  1.8489
 2910SOL    HW220190   2.941   3.585   1.376 -3.4537  3.5548  1.3130
 2911SOL     OW20191   0.772   1.014  11.135 -0.4653  0.0475 -0.1094
 2911SOL    HW120192   0.797   1.037  11.046 -2.0883  1.9570 -0.0817
 2911SOL    HW220193   0.821   0.932  11.144  0.6119  0.6428 -0.5757
 2912SOL     OW20194   4.039   0.853   3.003  0.6454  0.2342  0.4157
 2912SOL    HW120195   3.969   0.822   3.061  0.0956  0.8469  0.0791
 2912SOL    HW220196   3.983   0.904   2.944  0.8988  0.1499  0.1037
 2913SOL     OW20197   3.230   2.713   5.773  0.5955 -0.1401  0.3107
 2913SOL    HW120198   3.310   2.675   5.810 -0.9337 -2.9648  0.7619
 2913SOL    HW220199   3.241   2.808   5.775  1.2197 -0.2077 -0.3381
 2914SOL     OW20200   3.112   3.779   4.982 -0.1770 -0.2813  0.2662
 2914SOL    HW120201   3.155   3.777   4.896  1.8342  1.1555  1.2287
 2914SOL    HW220202   3.102   3.684   4.986  1.0251 -0.2832  3.4342
 2915SOL     OW20203   0.142   2.490  17.639  0.6581  0.1922  0.4171
 2915SOL    HW120204   0.220   2.545  17.640  0.8477 -0.0585 -1.2320
 2915SOL    HW220205   0.118   2.483  17.546  1.8584 -2.4806  0.3188
 2916SOL     OW20206   4.408   0.163   8.857 -0.8013 -0.0537 -0.6434
 2916SOL    HW120207   4.412   0.078   8.812  1.6524 -0.3576  0.1637
 2916SOL    HW220208   4.361   0.215   8.792 -0.8317 -1.8234 -2.0521
 2917SOL     OW20209   0.364   0.317   7.475  0.0837 -0.0916 -0.0945
 2917SOL    HW120210   0.283   0.337   7.522  0.0531  0.2675 -0.2953
 2917SOL    HW220211   0.423   0.357   7.539 -0.1687  1.1159 -0.6176
 2918SOL     OW20212   1.609   0.911   7.747 -0.6658  0.2045 -0.1646
 2918SOL    HW120213   1.584   0.869   7.664 -1.7919  1.6119 -0.5287
 2918SOL    HW220214   1.612   1.004   7.726 -0.8033 -0.0254 -1.2302
 2919SOL     OW20215   1.963   2.032   7.404  0.2499  0.2058 -0.5219
 2919SOL    HW120216   1.889   2.092   7.412  0.3441  0.2511  0.0235
 2919SOL    HW220217   1.918   1.960   7.448 -2.4533  1.7150 -0.7900
 2920SOL     OW20218   0.277   1.498   1.319  0.5046  0.2212  0.3707
 2920SOL    HW120219   0.348   1.555   1.348  0.2474  1.0325 -0.5949
 2920SOL    HW220220   0.199   1.520   1.370  0.2304  2.2544 -0.8978
 2921SOL     OW20221   3.428   2.191   2.857 -0.1207 -0.0839  0.1323
 2921SOL    HW120222   3.357   2.132   2.880 -1.5124  1.2214 -0.8097
 2921SOL    HW220223   3.386   2.276   2.858 -0.0689 -0.0311 -2.5503
 2922SOL     OW20224   4.031   4.106   1.122 -0.4002  0.1330 -0.1339
 2922SOL    HW120225   4.016   4.200   1.121  1.7102  0.4829  0.6996
 2922SOL    HW220226   4.077   4.089   1.039  1.5592 -0.0437  1.0020
 2923SOL     OW20227   0.673   2.307   6.514 -0.4887  0.3514  0.1077
 2923SOL    HW120228   0.612   2.240   6.544  1.2442  0.0838  2.9624
 2923SOL    HW220229   0.756   2.266   6.536 -0.5990 -0.7069 -1.4508
 2924SOL     OW20230   2.272   1.504  16.693  0.0907 -0.1653  0.3048
 2924SOL    HW120231   2.247   1.597  16.691 -0.6912 -0.3699  0.5061
 2924SOL    HW220232   2.246   1.474  16.780  0.4176 -1.1284  0.0712
 2925SOL     OW20233   1.784   3.347  16.373 -0.1808 -0.0993  0.1744
 2925SOL    HW120234   1.718   3.301  16.425 -0.0233  1.1565  1.4839
 2925SOL    HW220235   1.759   3.332  16.282 -2.3962  0.1494  0.7367
 2926SOL     OW20236   1.339   0.661  11.552 -0.2050  0.4132  0.1606
 2926SOL    HW120237   1.320   0.752  11.572 -1.5142  0.0105  0.7502
 2926SOL    HW220238   1.401   0.678  11.481  0.6812 -1.6236  0.4658
 2927SOL     OW20239   0.564   1.843   6.275 -0.2355 -0.3086 -0.2853
 2927SOL    HW120240   0.657   1.859   6.291 -0.6419 -0.0615  1.8924
 2927SOL    HW220241   0.556   1.757   6.317 -1.4884  0.9141  2.0123
 2928SOL     OW20242   0.727   2.575  17.500 -0.2594 -0.3667 -0.7156
 2928SOL    HW120243   0.735   2.567  17.595 -2.4236  0.0359 -0.5044
 2928SOL    HW220244   0.636   2.545  17.492  1.0046 -4.0030 -1.4026
 2929SOL     OW20245   1.543   1.365   5.525 -0.1170  0.0265 -0.9682
 2929SOL    HW120246   1.557   1.339   5.434  0.2789 -0.1906 -0.8484
 2929SOL    HW220247   1.626   1.340   5.567  0.6084 -0.6012 -2.7601
 2930SOL     OW20248   4.701   0.157   3.357 -0.2490 -0.5259 -0.3564
 2930SOL    HW120249   0.065   0.195   3.348  0.2847 -1.8222 -0.5863
 2930SOL    HW220250   4.668   0.198   3.437 -0.7396  0.0183 -0.8346
 2931SOL     OW20251   2.082   3.773   8.389 -0.8687  0.0932  0.0675
 2931SOL    HW120252   2.011   3.712   8.367  2.4066 -3.6414  0.0121
 2931SOL    HW220253   2.058   3.787   8.481 -0.6172 -0.1137  0.1612
 2932SOL     OW20254   0.769   0.327   8.050 -0.1259  0.3222 -0.0128
 2932SOL    HW120255   0.784   0.238   8.083  0.7646 -0.3130 -2.1647
 2932SOL    HW220256   0.817   0.326   7.967 -0.1224 -0.7632  0.0002
 2933SOL     OW20257   2.710   3.832   7.200  0.0846 -0.0168 -0.3156
 2933SOL    HW120258   2.633   3.853   7.252  0.0517 -2.1858  0.5430
 2933SOL    HW220259   2.680   3.815   7.110  1.2060  0.8635 -0.8599
 2934SOL     OW20260   0.564   4.194   9.264  0.4796  0.1188 -0.0381
 2934SOL    HW120261   0.525   4.122   9.214 -1.2053  0.9425  0.0665
 2934SOL    HW220262   0.521   4.176   9.348  1.5715  1.8915  0.9033
 2935SOL     OW20263   1.659   3.703  12.803 -0.2119  0.3420 -0.3775
 2935SOL    HW120264   1.638   3.757  12.879 -0.7882 -0.7421  0.2382
 2935SOL    HW220265   1.752   3.692  12.819  0.1662  1.8258 -1.5681
 2936SOL     OW20266   4.637   3.145   2.306  0.8163 -0.1015  0.2543
 2936SOL    HW120267   4.603   3.230   2.279  1.2032  0.9719  3.1494
 2936SOL    HW220268   4.568   3.115   2.365  0.9999 -2.0910 -0.5613
 2937SOL     OW20269   1.221   1.450   7.673 -0.1678 -0.5215 -0.4827
 2937SOL    HW120270   1.256   1.422   7.757 -0.5496 -0.8635 -0.4409
 2937SOL    HW220271   1.192   1.367   7.635 -2.4929  0.6170 -1.2196
 2938SOL     OW20272   2.795   3.091   5.427  0.3311 -0.5067 -0.5235
 2938SOL    HW120273   2.836   3.022   5.480 -1.7020 -0.5695  0.9932
 2938SOL    HW220274   2.869   3.148   5.406  0.7338 -1.1058 -0.7346
 2939SOL     OW20275   4.242   4.525   5.316  0.5174 -0.2961  0.3416
 2939SOL    HW120276   4.264   4.500   5.406  0.2458  1.2469  0.8397
 2939SOL    HW220277   4.270   4.617   5.312 -0.5292 -0.1873 -4.1502
 2940SOL     OW20278   0.937   4.369   6.229 -0.2582 -0.0125 -0.0518
 2940SOL    HW120279   0.895   4.330   6.152  0.3742 -1.2073  0.2120
 2940SOL    HW220280   1.018   4.404   6.192 -0.9992  2.2865  0.4985
 2941SOL     OW20281   3.643   2.725   7.529  0.6268  0.2669 -0.3649
 2941SOL    HW120282   3.606   2.810   7.504  2.0884  1.4537  1.5362
 2941SOL    HW220283   3.638   2.742   7.624  0.7348  2.7465 -0.8093
 2942SOL     OW20284   3.986   2.657  10.706 -0.2038 -0.4393  0.6528
 2942SOL    HW120285   4.032   2.640  10.624  1.2754 -0.8676  1.5678
 2942SOL    HW220286   4.044   2.622  10.774  0.0614 -0.7989  0.2423
 2943SOL     OW20287   1.803   2.501  11.301 -0.4389 -0.3027  0.0347
 2943SOL    HW120288   1.802   2.409  11.275 -2.2946 -1.1032  2.9733
 2943SOL    HW220289   1.724   2.530  11.256 -0.7463  0.0359  0.7857
 2944SOL     OW20290   0.062   0.542  13.131  0.2243  0.5039 -0.2743
 2944SOL    HW120291   0.022   0.479  13.071  1.4694 -0.2812 -0.2874
 2944SOL    HW220292   0.154   0.552  13.106  0.0067 -1.7392 -2.0408
 2945SOL     OW20293   1.977   4.560  15.346 -0.1621 -0.0001 -0.1126
 2945SOL    HW120294   1.929   4.586  15.268  1.5862  1.1588 -0.8038
 2945SOL    HW220295   1.947   4.471  15.361 -2.5256  0.7913 -0.1801
 2946SOL     OW20296   1.689   0.203  14.331  0.2373  0.1921  0.3683
 2946SOL    HW120297   1.751   0.250  14.387 -0.1007 -0.8530  1.6183
 2946SOL    HW220298   1.729   0.216  14.245  0.9247 -0.6334  0.5625
 2947SOL     OW20299   0.712   1.980   2.167 -0.0827  0.3009  0.3669
 2947SOL    HW120300   0.798   2.003   2.131 -0.3020  0.3045 -0.1519
 2947SOL    HW220301   0.662   1.986   2.085  0.7858  0.7465 -0.1291
 2948SOL     OW20302   3.663   1.808   2.647  0.1516 -0.1856 -0.1187
 2948SOL    HW120303   3.603   1.882   2.661  1.8870  1.3777 -0.9195
 2948SOL    HW220304   3.747   1.853   2.653  0.6321 -1.0053 -0.7086
 2949SOL     OW20305   3.051   4.713  16.287 -0.3556  0.4584  0.2874
 2949SOL    HW120306   2.991   0.013  16.216  0.8108  0.0386 -0.8473
 2949SOL    HW220307   3.110   4.658  16.235 -2.1119 -1.4007  0.2392
 2950SOL     OW20308   1.311   2.412   6.205  0.3195  0.1521 -0.2815
 2950SOL    HW120309   1.273   2.329   6.235 -0.5988 -0.1823 -2.3993
 2950SOL    HW220310   1.237   2.471   6.190 -0.7476 -0.4006  2.8593
 2951SOL     OW20311   4.312   3.763   7.376 -0.1761 -0.2467  0.7308
 2951SOL    HW120312   4.296   3.806   7.460  3.0214 -1.2095  1.8319
 2951SOL    HW220313   4.380   3.710   7.417  0.5163 -0.9878 -1.3652
 2952SOL     OW20314   1.835   2.164   9.308 -0.7522 -0.1546  0.2179
 2952SOL    HW120315   1.886   2.132   9.233 -0.7338  2.3632 -0.8585
 2952SOL    HW220316   1.886   2.224   9.362  1.1326 -2.0784  0.5506
 2953SOL     OW20317   1.070   3.856  10.777  0.1851 -0.1248 -0.1513
 2953SOL    HW120318   1.031   3.882  10.694  0.3695  0.0341 -0.1883
 2953SOL    HW220319   1.102   3.770  10.751 -0.1598  0.1660 -1.5612
 2954SOL     OW20320   2.377   1.574   9.743  0.1274  0.5083 -0.2394
 2954SOL    HW120321   2.340   1.584   9.656  1.0534 -1.9320 -0.9231
 2954SOL    HW220322   2.394   1.662   9.777 -0.6350  0.9559 -1.0252
 2955SOL     OW20323   1.174   1.563   7.006 -0.1303 -0.8763  0.0875
 2955SOL    HW120324   1.140   1.652   6.999  0.2511 -0.7299  0.1191
 2955SOL    HW220325   1.188   1.556   7.100  3.6460  0.6673 -0.3567
 2956SOL     OW20326   3.675   2.789   1.326  0.0737 -0.2858  0.0426
 2956SOL    HW120327   3.616   2.750   1.389  1.4727  3.5242  3.6864
 2956SOL    HW220328   3.698   2.866   1.378  0.0326 -0.3291  0.1242
 2957SOL     OW20329   1.441   3.331   1.050  0.0132  0.2197 -0.1615
 2957SOL    HW120330   1.515   3.316   1.108  0.0064  2.0926  0.3218
 2957SOL    HW220331   1.369   3.324   1.112 -0.2482 -1.7779 -0.6926
 2958SOL     OW20332   2.110   0.369  14.496 -0.3198  0.0246 -0.2134
 2958SOL    HW120333   2.164   0.295  14.468  0.9479  0.7701  0.2539
 2958SOL    HW220334   2.028   0.324  14.518 -0.2301 -0.6776 -1.3355
 2959SOL     OW20335   2.296   1.812   6.352  0.4764  0.1870 -0.1675
 2959SOL    HW120336   2.347   1.741   6.392 -0.5141 -0.1949  0.4199
 2959SOL    HW220337   2.321   1.879   6.416  0.4880  1.1101 -1.1587
 2960SOL     OW20338   1.370   2.510   7.561 -0.5022 -0.3662  0.0770
 2960SOL    HW120339   1.382   2.602   7.583  0.5334 -0.2342 -1.0599
 2960SOL    HW220340   1.404   2.471   7.642 -2.1282  0.3274  1.0905
 2961SOL     OW20341   1.271   3.842  11.726  0.2382  0.5014  0.1239
 2961SOL    HW120342   1.236   3.900  11.659  0.8085 -0.4300 -0.9683
 2961SOL    HW220343   1.364   3.859  11.738 -0.0084 -0.8217  4.2660
 2962SOL     OW20344   2.021   1.714   3.627 -0.1109 -0.0170 -0.4462
 2962SOL    HW120345   1.950   1.701   3.564 -0.2170  1.8095 -0.7015
 2962SOL    HW220346   2.065   1.791   3.592  2.1510 -1.8051 -1.5429
 2963SOL     OW20347   1.501   3.374   4.902  0.2002  0.2713 -0.0634
 2963SOL    HW120348   1.427   3.319   4.930 -0.8346  0.6626 -2.0485
 2963SOL    HW220349   1.489   3.397   4.810  0.8016 -1.1312 -0.4857
 2964SOL     OW20350   1.972   0.740   4.701 -0.1254 -0.4873  0.2347
 2964SOL    HW120351   2.060   0.763   4.674  0.1396 -0.1893  1.3844
 2964SOL    HW220352   1.941   0.821   4.740 -1.0747 -0.9621  0.4746
 2965SOL     OW20353   3.024   4.698   1.685  0.0776  0.1412  0.3044
 2965SOL    HW120354   2.972   0.011   1.756  0.5486  3.5904 -1.1328
 2965SOL    HW220355   2.990   4.608   1.685 -1.2943  0.6585  0.3765
 2966SOL     OW20356   4.217   1.169   7.096  0.0526 -0.7188  0.1627
 2966SOL    HW120357   4.252   1.148   7.010  0.9172  1.2456  0.0208
 2966SOL    HW220358   4.188   1.260   7.086 -0.2006 -0.8437 -0.2143
 2967SOL     OW20359   1.433   1.548   6.146  0.6602 -0.1271  0.0733
 2967SOL    HW120360   1.374   1.490   6.194  1.0784 -0.4068  0.2501
 2967SOL    HW220361   1.432   1.614   6.215 -2.2678 -1.7292  1.5919
 2968SOL     OW20362   0.447   4.247   1.908 -0.4470 -0.3382  0.5561
 2968SOL    HW120363   0.381   4.201   1.961 -1.6201  0.0207 -0.5885
 2968SOL    HW220364   0.391   4.310   1.862  1.5009  1.6912  0.9528
 2969SOL     OW20365   1.041   4.197   6.395 -0.0009  0.0451 -0.0436
 2969SOL    HW120366   1.041   4.108   6.357  0.8566  0.4744 -1.0490
 2969SOL    HW220367   1.023   4.255   6.321  1.0980  1.1414  0.5584
 2970SOL     OW20368   3.961   3.971   7.302  0.2877 -0.7177  0.1097
 2970SOL    HW120369   3.877   3.972   7.349  1.1218  0.6646  1.5411
 2970SOL    HW220370   4.011   4.047   7.330 -1.1166  0.2513 -0.0506
 2971SOL     OW20371   1.879   3.794   6.129  0.3331 -0.0654  0.2362
 2971SOL    HW120372   1.827   3.714   6.142 -0.8021  0.8753  1.4797
 2971SOL    HW220373   1.814   3.864   6.120  1.8729  1.0888 -1.7759
 2972SOL     OW20374   2.832   0.254   7.276  0.9293 -0.4413  0.6990
 2972SOL    HW120375   2.896   0.313   7.316 -0.2174  1.9631 -0.9395
 2972SOL    HW220376   2.881   0.172   7.275 -0.7304 -1.4273 -0.1442
 2973SOL     OW20377   0.449   2.405   8.123  0.5490 -0.2882 -0.2261
 2973SOL    HW120378   0.456   2.311   8.138  0.4171 -0.4214 -0.9892
 2973SOL    HW220379   0.387   2.429   8.191 -2.0148 -1.8784 -2.0126
 2974SOL     OW20380   1.081   3.296  11.713 -0.2593  0.0788  0.3450
 2974SOL    HW120381   1.019   3.360  11.749  0.2249 -0.3798  2.0042
 2974SOL    HW220382   1.022   3.221  11.705  0.2349 -0.1924 -0.6635
 2975SOL     OW20383   3.430   2.313  15.232  0.0949  0.3445  0.0223
 2975SOL    HW120384   3.404   2.405  15.235 -2.9087 -0.4291 -1.9069
 2975SOL    HW220385   3.512   2.319  15.281 -1.1686 -0.7846  2.2400
 2976SOL     OW20386   2.706   2.026  11.921  0.4825 -0.5926  0.0494
 2976SOL    HW120387   2.675   1.937  11.904 -0.0537 -0.0055 -2.1371
 2976SOL    HW220388   2.766   2.006  11.992  0.4988  0.2222  0.2631
 2977SOL     OW20389   2.436   4.644   8.068  0.2135 -0.2814  0.6817
 2977SOL    HW120390   2.405   4.616   8.155  2.1168  1.6448  1.9716
 2977SOL    HW220391   2.359   4.690   8.035  1.6456  1.1903 -0.6230
 2978SOL     OW20392   3.453   0.852   4.400  0.2780 -0.3865  0.1429
 2978SOL    HW120393   3.367   0.863   4.442  0.0305 -1.1744 -0.1619
 2978SOL    HW220394   3.479   0.944   4.405  0.6913 -0.6258  2.6135
 2979SOL     OW20395   1.375   2.568   2.733 -0.2104  0.2440  0.1692
 2979SOL    HW120396   1.292   2.613   2.715  0.5381  0.4707 -2.6123
 2979SOL    HW220397   1.388   2.519   2.652 -1.0067 -1.4806  1.0690
 2980SOL     OW20398   2.737   3.105   2.119 -0.4913  0.2273  0.0341
 2980SOL    HW120399   2.799   3.034   2.136 -1.8268 -0.6156  1.3785
 2980SOL    HW220400   2.654   3.076   2.156 -0.1017 -0.7397  0.1763
 2981SOL     OW20401   2.844   1.763   1.491 -0.2089  0.2774 -0.0996
 2981SOL    HW120402   2.895   1.769   1.572  1.8117 -0.8109 -1.2901
 2981SOL    HW220403   2.790   1.842   1.493 -1.6289 -0.6778 -0.2163
 2982SOL     OW20404   3.884   2.173   2.596 -0.3541 -0.2850  0.1031
 2982SOL    HW120405   3.912   2.248   2.545  1.3085  0.1096  1.6122
 2982SOL    HW220406   3.896   2.100   2.535  0.6765 -0.8602  0.9940
 2983SOL     OW20407   0.605   2.482   9.494  0.3829 -0.3322  0.2317
 2983SOL    HW120408   0.678   2.543   9.498  1.2727 -1.4041  0.2616
 2983SOL    HW220409   0.642   2.399   9.466  0.9848  0.2963 -0.8049
 2984SOL     OW20410   3.240   3.762   5.288  0.1095  0.4330 -0.5016
 2984SOL    HW120411   3.277   3.718   5.212  0.7942 -0.0425  0.1167
 2984SOL    HW220412   3.309   3.822   5.316  0.8561  0.1760 -1.8438
 2985SOL     OW20413   2.081   3.467  16.350 -0.2610  0.2597  0.7330
 2985SOL    HW120414   2.095   3.373  16.362  0.9289  0.2908 -0.3653
 2985SOL    HW220415   1.987   3.475  16.364 -0.2652  0.7045  0.4466
 2986SOL     OW20416   3.701   2.012  11.707  0.3246  1.0369  0.6895
 2986SOL    HW120417   3.653   2.095  11.706  0.4367  1.1315  2.8434
 2986SOL    HW220418   3.624   1.958  11.688  2.2691 -1.3082 -0.5070
 2987SOL     OW20419   1.709   1.389   8.017  0.4345 -0.0648  0.4463
 2987SOL    HW120420   1.728   1.297   8.035  2.5484 -0.0864 -1.8743
 2987SOL    HW220421   1.795   1.428   8.036  0.8128 -0.3694 -0.6864
 2988SOL     OW20422   1.194   3.967  13.687 -0.2057 -0.3356 -0.5118
 2988SOL    HW120423   1.211   3.904  13.617  1.2682 -0.3275 -0.1576
 2988SOL    HW220424   1.281   3.997  13.713 -1.0105  1.2699  0.4021
 2989SOL     OW20425   2.334   4.388   3.210  0.2142  0.0836 -0.4877
 2989SOL    HW120426   2.313   4.347   3.125 -2.1272  0.7743 -0.2461
 2989SOL    HW220427   2.268   4.456   3.221 -1.0446 -1.0612 -0.9349
 2990SOL     OW20428   2.819   1.153  11.071  0.3525 -0.4019  0.6596
 2990SOL    HW120429   2.726   1.140  11.091  0.3145  2.4399  2.3321
 2990SOL    HW220430   2.826   1.249  11.069 -0.0062 -0.4091 -0.5886
 2991SOL     OW20431   0.811   3.925  15.879  0.5072 -0.0692 -0.4858
 2991SOL    HW120432   0.752   3.893  15.811 -0.2217  2.0424 -0.8274
 2991SOL    HW220433   0.778   3.879  15.957 -0.3934  0.9703 -0.2654
 2992SOL     OW20434   3.105   2.245   2.901  0.5284 -0.5054  0.0802
 2992SOL    HW120435   3.108   2.256   2.996 -0.2255  2.2870 -0.2202
 2992SOL    HW220436   3.103   2.150   2.895  2.3938 -0.5373 -0.1116
 2993SOL     OW20437   0.043   0.292  16.655  0.4441  0.0759 -0.1362
 2993SOL    HW120438   0.095   0.224  16.613 -0.1671 -2.4864  3.2532
 2993SOL    HW220439   0.053   0.363  16.592  0.8926 -0.8662 -1.1321
 2994SOL     OW20440   1.311   1.680   3.304  0.6133 -0.0330 -0.6192
 2994SOL    HW120441   1.391   1.658   3.352 -0.0761  1.0923  1.0811
 2994SOL    HW220442   1.347   1.744   3.243 -1.6971  1.0095 -0.8759
 2995SOL     OW20443   2.444   4.373   0.674 -0.2124  0.1565  0.0852
 2995SOL    HW120444   2.395   4.345   0.596 -0.1359 -0.7351  0.3532
 2995SOL    HW220445   2.484   4.446   0.626  2.0180 -0.1242  1.5053
 2996SOL     OW20446   3.182   2.622  14.055 -0.2122  0.0605  0.0591
 2996SOL    HW120447   3.224   2.670  14.127  1.9540 -4.0985  1.5989
 2996SOL    HW220448   3.254   2.602  13.996  1.0388 -1.5660  2.1571
 2997SOL     OW20449   1.002   1.214   8.914  0.4844 -0.5350 -0.1942
 2997SOL    HW120450   1.080   1.164   8.940  2.1558  1.4799 -1.3698
 2997SOL    HW220451   0.926   1.181   8.963 -1.4212  2.1665 -1.3438
 2998SOL     OW20452   0.147   0.491   3.130  0.6015 -0.7872  0.5866
 2998SOL    HW120453   0.083   0.477   3.060  1.2951  1.3901 -0.5054
 2998SOL    HW220454   0.094   0.513   3.206  1.0598  0.8353  0.4296
 2999SOL     OW20455   2.616   0.570   9.835 -0.7665  0.0331  0.2185
 2999SOL    HW120456   2.525   0.545   9.819 -0.0067 -4.2741  2.4548
 2999SOL    HW220457   2.630   0.522   9.917  0.3884 -2.1748 -1.2596
 3000SOL     OW20458   1.302   4.028   2.607 -0.0424 -0.3305 -0.5609
 3000SOL    HW120459   1.256   4.035   2.690  2.0245  0.3548  0.5118
 3000SOL    HW220460   1.381   3.979   2.630 -0.4311 -0.4817  0.4667
 3001SOL     OW20461   0.607   1.912   4.772 -0.0070  0.1809  0.1635
 3001SOL    HW120462   0.549   1.839   4.751  0.2430 -0.8418  3.0081
 3001SOL    HW220463   0.621   1.935   4.681  2.0252  0.5881  0.5823
 3002SOL     OW20464   4.445   0.802   8.180  0.0725 -0.2490  0.1051
 3002SOL    HW120465   4.445   0.735   8.249 -0.1339  0.1665  0.5038
 3002SOL    HW220466   4.457   0.876   8.240 -0.6559 -0.5508  0.6207
 3003SOL     OW20467   2.218   2.712   8.186 -0.0236 -0.2107  0.2960
 3003SOL    HW120468   2.138   2.691   8.235  0.5034 -1.0442  0.7954
 3003SOL    HW220469   2.279   2.643   8.211 -1.2115 -1.2246  0.4368
 3004SOL     OW20470   0.471   0.808  11.306 -0.4650  0.1765 -0.1320
 3004SOL    HW120471   0.541   0.873  11.300  0.3836 -0.7236  0.1896
 3004SOL    HW220472   0.515   0.732  11.342  0.7906  0.7828 -0.3755
 3005SOL     OW20473   2.854   2.872   2.328 -0.1679 -0.2809 -0.1026
 3005SOL    HW120474   2.872   2.821   2.249 -2.4155 -1.6965  0.2823
 3005SOL    HW220475   2.759   2.860   2.327 -0.0957 -0.7821 -1.9652
 3006SOL     OW20476   1.158   4.301   1.720  0.3452  0.1674 -0.3828
 3006SOL    HW120477   1.077   4.251   1.707 -0.2045  1.0463 -0.3162
 3006SOL    HW220478   1.227   4.239   1.695  0.8574  0.2212  0.8813
 3007SOL     OW20479   3.880   1.694   3.096  0.4791  1.0425  0.8526
 3007SOL    HW120480   3.889   1.773   3.149 -0.7769  2.7752 -1.5289
 3007SOL    HW220481   3.930   1.702   3.015 -0.3958 -1.5421  0.0698
 3008SOL     OW20482   0.665   1.106  10.329 -0.1548  0.1007 -0.4750
 3008SOL    HW120483   0.583   1.137  10.292  0.6211  0.6256 -1.7819
 3008SOL    HW220484   0.727   1.118  10.256  0.0105 -3.2698 -0.8928
 3009SOL     OW20485   2.835   3.241  15.003  0.4049 -0.5534  0.1415
 3009SOL    HW120486   2.863   3.185  14.930 -2.9031 -1.5096 -0.4302
 3009SOL    HW220487   2.917   3.289  15.005 -0.8406  1.6781 -1.7114
 3010SOL     OW20488   1.211   3.005   1.398  0.5143  0.3365  0.5323
 3010SOL    HW120489   1.202   2.981   1.491 -1.5847  0.6717  0.3971
 3010SOL    HW220490   1.126   3.042   1.376  1.4793  0.7299 -2.4533
 3011SOL     OW20491   1.465   0.785   6.369 -0.2344 -0.1190  0.8559
 3011SOL    HW120492   1.496   0.863   6.414  5.3878 -1.1584 -1.2506
 3011SOL    HW220493   1.466   0.714   6.433  3.6144 -0.0995  0.7784
 3012SOL     OW20494   0.954   2.244   6.597  0.0006 -0.2816 -0.2373
 3012SOL    HW120495   0.981   2.325   6.640  1.2851 -0.9644  0.2601
 3012SOL    HW220496   1.041   2.206   6.589  0.0879 -0.3617  0.9820
 3013SOL     OW20497   0.013   2.622   4.042 -0.0601 -0.1269 -0.2845
 3013SOL    HW120498   4.679   2.608   4.117 -0.9601  2.1534 -0.5616
 3013SOL    HW220499   4.703   2.705   4.008  0.3171  0.8571  1.7630
 3014SOL     OW20500   0.231   1.117   5.128 -0.2050 -0.2882  0.1259
 3014SOL    HW120501   0.159   1.061   5.099 -1.2053  1.7288 -1.3101
 3014SOL    HW220502   0.193   1.203   5.113 -1.8737 -1.2897 -1.3752
 3015SOL     OW20503   4.315   2.675  10.837 -0.2754  0.1123  0.3131
 3015SOL    HW120504   4.368   2.655  10.914 -0.7576  1.9338  1.1213
 3015SOL    HW220505   4.299   2.586  10.807 -1.3953  0.0920  0.9343
 3016SOL     OW20506   2.346   0.864  14.445  0.1863  0.2628  0.0368
 3016SOL    HW120507   2.286   0.864  14.371 -0.3930 -1.0430  0.5188
 3016SOL    HW220508   2.298   0.801  14.498  1.7197 -1.8324 -1.0493
 3017SOL     OW20509   0.958   2.143  13.471  0.0266  0.1801  0.0582
 3017SOL    HW120510   0.928   2.193  13.394 -1.1654 -1.2515 -0.3906
 3017SOL    HW220511   1.026   2.201  13.504 -0.2547 -0.0160  0.9672
 3018SOL     OW20512   3.849   2.635   8.860 -0.0191  0.1264 -0.0021
 3018SOL    HW120513   3.894   2.667   8.938 -0.1021  2.7063 -1.0147
 3018SOL    HW220514   3.772   2.598   8.903  0.7146 -0.4629  0.7983
 3019SOL     OW20515   0.508   3.509   7.844  0.0189  0.1746  0.0680
 3019SOL    HW120516   0.521   3.567   7.918 -0.3244 -1.3049  1.2830
 3019SOL    HW220517   0.413   3.503   7.835  0.1605 -4.1395  1.3093
 3020SOL     OW20518   4.004   4.248  11.824 -0.0207  0.2398  0.3184
 3020SOL    HW120519   3.932   4.187  11.808 -0.9666  1.1427  1.1077
 3020SOL    HW220520   3.953   4.329  11.824  0.8963  0.8187  0.2223
 3021SOL     OW20521   3.486   0.649   3.241  0.1422 -0.1644  0.3449
 3021SOL    HW120522   3.407   0.703   3.239  1.1550  1.2744 -0.5821
 3021SOL    HW220523   3.468   0.630   3.333 -1.7916 -0.6601 -0.1250
 3022SOL     OW20524   0.155   3.601   4.617 -0.0249  0.4974 -0.1866
 3022SOL    HW120525   0.114   3.538   4.676  0.9963 -1.3208 -1.3866
 3022SOL    HW220526   0.113   3.588   4.532  1.2694  0.0109 -0.7592
 3023SOL     OW20527   0.350   2.014   7.234 -0.6881 -0.4228 -0.2885
 3023SOL    HW120528   0.291   2.079   7.272 -1.2205  0.2263 -2.2293
 3023SOL    HW220529   0.396   1.988   7.314 -0.1329 -1.5681 -0.9724
 3024SOL     OW20530   2.277   2.960   1.849 -0.7218  0.1240 -0.4106
 3024SOL    HW120531   2.216   2.939   1.920  0.2611 -0.6637  0.1897
 3024SOL    HW220532   2.223   3.019   1.796 -0.8314  1.2525  0.9548
 3025SOL     OW20533   1.715   1.663   5.587 -0.5372 -0.7621  0.1848
 3025SOL    HW120534   1.753   1.619   5.512 -2.0851  1.6071 -1.9877
 3025SOL    HW220535   1.621   1.644   5.585 -0.5872 -0.1421 -3.1872
 3026SOL     OW20536   0.460   2.267   6.859 -0.1305 -0.3263 -0.8089
 3026SOL    HW120537   0.480   2.334   6.924 -1.6672  1.1797 -1.8739
 3026SOL    HW220538   0.398   2.324   6.813  0.3997 -0.1912 -1.3498
 3027SOL     OW20539   3.620   3.992   3.232 -1.4727  0.4100  0.1440
 3027SOL    HW120540   3.687   4.038   3.283 -1.8192  3.8398 -2.4846
 3027SOL    HW220541   3.637   4.029   3.145 -0.8763 -3.1570 -1.2573
 3028SOL     OW20542   1.887   0.244   6.343 -0.7262  0.0856 -0.3524
 3028SOL    HW120543   1.806   0.226   6.295 -0.6966 -0.0415 -0.3555
 3028SOL    HW220544   1.955   0.250   6.275  0.1017 -2.2878  0.2749
 3029SOL     OW20545   2.312   0.596  14.504  0.4049  0.1846  0.4045
 3029SOL    HW120546   2.388   0.579  14.560 -0.8432  1.4840  2.5240
 3029SOL    HW220547   2.254   0.524  14.531  0.4632  0.0194  0.0860
 3030SOL     OW20548   3.712   4.326  13.183  0.0165 -0.2385  0.0931
 3030SOL    HW120549   3.802   4.312  13.152  0.3273  2.4281 -0.2117
 3030SOL    HW220550   3.686   4.244  13.225 -1.4674  0.8419  1.2642
 3031SOL     OW20551   3.466   4.400   9.810  0.6891  0.0944 -0.4343
 3031SOL    HW120552   3.437   4.450   9.886  1.1369 -0.6293  0.2100
 3031SOL    HW220553   3.509   4.471   9.761 -3.3533  1.7167 -1.6047
 3032SOL     OW20554   4.419   0.589   8.337 -0.5164  0.0399 -0.3781
 3032SOL    HW120555   4.331   0.577   8.373 -0.7359  0.7643 -0.6800
 3032SOL    HW220556   4.426   0.507   8.289  0.4256  0.8063 -1.5590
 3033SOL     OW20557   1.135   1.632   7.257 -0.1101  0.2712  0.4322
 3033SOL    HW120558   1.086   1.562   7.301 -1.1061  0.6875 -0.0254
 3033SOL    HW220559   1.127   1.708   7.315  2.6715  0.6749  0.2625
 3034SOL     OW20560   3.387   3.206   2.412  0.6906  1.0306 -0.3186
 3034SOL    HW120561   3.392   3.132   2.351 -0.1573  2.0448 -1.6088
 3034SOL    HW220562   3.471   3.246   2.392  0.2217  1.1963 -1.9058
 3035SOL     OW20563   3.260   0.852   3.902 -0.3825  0.0097 -0.2659
 3035SOL    HW120564   3.275   0.760   3.926 -1.7421 -0.2866 -0.5539
 3035SOL    HW220565   3.236   0.834   3.811  0.9307 -2.1085 -0.2060
 3036SOL     OW20566   0.360   1.499   6.947 -0.5845  0.1900 -0.1743
 3036SOL    HW120567   0.401   1.425   6.903  2.0662  0.9239  1.0250
 3036SOL    HW220568   0.413   1.574   6.920 -0.7371  0.4628  0.2640
 3037SOL     OW20569   0.881   3.362  15.146  0.0441 -0.3149  0.6636
 3037SOL    HW120570   0.934   3.369  15.226 -1.8334  0.5444  1.8355
 3037SOL    HW220571   0.939   3.317  15.085 -0.2091 -0.2300  0.3646
 3038SOL     OW20572   3.833   1.040  12.316  0.0354  0.2242  0.4066
 3038SOL    HW120573   3.798   1.083  12.238  1.5806  1.5011  0.4114
 3038SOL    HW220574   3.758   1.054  12.373  0.0123  0.8339  0.2284
 3039SOL     OW20575   2.781   1.138   3.234 -0.1033 -0.4111 -0.4013
 3039SOL    HW120576   2.813   1.086   3.309  1.3227  0.5925 -0.3035
 3039SOL    HW220577   2.863   1.174   3.199 -0.4000  0.2023 -0.4587
 3040SOL     OW20578   0.946   0.740  10.652 -0.0560 -0.1448 -0.1400
 3040SOL    HW120579   0.865   0.790  10.642 -1.3874 -1.8597  2.2825
 3040SOL    HW220580   1.001   0.800  10.600 -0.6869 -0.4878 -1.1965
 3041SOL     OW20581   2.567   2.124  16.574  0.8305  0.2877 -0.1798
 3041SOL    HW120582   2.595   2.037  16.603  1.4956  0.2777 -0.8385
 3041SOL    HW220583   2.472   2.113  16.576  0.8776  0.6844  3.8473
 3042SOL     OW20584   4.541   3.794   4.204  0.1527  0.3698  0.1090
 3042SOL    HW120585   4.600   3.735   4.157 -0.0274  1.3547 -1.3264
 3042SOL    HW220586   4.464   3.737   4.203 -0.0718  0.6407  2.5583
 3043SOL     OW20587   1.573   2.739   2.869  0.9480 -0.4947  0.3320
 3043SOL    HW120588   1.510   2.696   2.811  0.9137  1.0649 -0.8076
 3043SOL    HW220589   1.520   2.773   2.941 -0.0282  2.7523 -1.9052
 3044SOL     OW20590   0.339   3.920   3.622  0.2630 -0.1541  0.4888
 3044SOL    HW120591   0.347   3.825   3.615  0.5876 -0.1158  0.3182
 3044SOL    HW220592   0.344   3.935   3.716 -1.5494 -1.4862  0.8062
 3045SOL     OW20593   2.581   1.251   7.383  0.0473 -0.3406 -0.0154
 3045SOL    HW120594   2.589   1.346   7.378 -2.4289 -0.0480  1.8139
 3045SOL    HW220595   2.499   1.242   7.432 -0.3499  0.9003 -0.4748
 3046SOL     OW20596   0.688   1.607   3.985 -0.1126  0.5180  0.1164
 3046SOL    HW120597   0.672   1.545   4.057 -0.2267 -3.2401 -3.1425
 3046SOL    HW220598   0.597   1.601   3.955 -0.3222 -0.6395  0.9272
 3047SOL     OW20599   0.103   4.688   4.472  0.0739 -0.1445  0.4841
 3047SOL    HW120600   0.136   0.052   4.490  0.1381  0.3673 -2.1178
 3047SOL    HW220601   0.107   4.698   4.377  0.0661 -1.7755  0.3291
 3048SOL     OW20602   2.175   2.186   7.456  0.6124  0.2696  0.2314
 3048SOL    HW120603   2.105   2.121   7.449 -0.1553  0.9528  1.7293
 3048SOL    HW220604   2.189   2.197   7.362 -0.5500  0.7157  0.1088
 3049SOL     OW20605   4.211   3.601   7.154 -0.2953  0.0807 -0.3186
 3049SOL    HW120606   4.283   3.554   7.112 -1.0092 -0.4310 -0.9688
 3049SOL    HW220607   4.250   3.632   7.236  0.2030  1.6243 -1.1500
 3050SOL     OW20608   2.550   0.906   5.119 -0.1106 -0.0164  0.0506
 3050SOL    HW120609   2.629   0.924   5.170  0.2257  1.2203 -0.9161
 3050SOL    HW220610   2.573   0.882   5.030 -1.3261  1.4733 -0.6651
 3051SOL     OW20611   1.506   2.257   6.471  0.2715  0.6639  0.1317
 3051SOL    HW120612   1.565   2.314   6.422 -0.9541  0.0955 -2.0338
 3051SOL    HW220613   1.561   2.180   6.482  1.1595  1.3307  0.3658
 3052SOL     OW20614   0.082   2.483  13.443 -0.1258  0.8725 -0.4710
 3052SOL    HW120615   0.109   2.505  13.354 -1.6840  1.5921 -0.7632
 3052SOL    HW220616   0.096   2.557  13.502 -0.3993  0.9257 -0.4707
 3053SOL     OW20617   1.612   0.241   7.015  0.0575  0.3267  0.9972
 3053SOL    HW120618   1.681   0.217   6.953  0.3125 -0.8152  1.7208
 3053SOL    HW220619   1.543   0.271   6.956  2.6752  1.0160 -1.7179
 3054SOL     OW20620   2.180   0.163  17.335 -0.1448  0.0655  0.2124
 3054SOL    HW120621   2.196   0.153  17.242  0.8016  1.3149  0.2547
 3054SOL    HW220622   2.171   0.073  17.367  0.7492 -0.1705 -0.1990
 3055SOL     OW20623   1.304   2.519   8.271 -0.7884  0.2746 -0.0900
 3055SOL    HW120624   1.209   2.505   8.266 -1.1948  2.3815  1.5590
 3055SOL    HW220625   1.317   2.475   8.354  0.8524  0.8022 -0.0763
 3056SOL     OW20626   4.381   0.911  15.269 -0.4306  0.1843 -0.1504
 3056SOL    HW120627   4.286   0.905  15.280  0.0170 -1.4846  2.9425
 3056SOL    HW220628   4.384   0.981  15.204  1.0657 -2.1035 -2.5643
 3057SOL     OW20629   0.546   0.636   8.631 -0.5986  0.3698  0.1094
 3057SOL    HW120630   0.621   0.678   8.674  0.7257 -0.4972 -1.3607
 3057SOL    HW220631   0.592   0.601   8.555 -0.3080  1.7265 -0.3507
 3058SOL     OW20632   4.478   3.849   4.598  0.2761 -0.3387  0.5511
 3058SOL    HW120633   4.493   3.777   4.659  0.0047 -0.8866 -0.0252
 3058SOL    HW220634   4.417   3.901   4.649 -0.0151  1.0155 -1.1581
 3059SOL     OW20635   1.470   2.517  10.904 -0.1304 -0.0408  0.2450
 3059SOL    HW120636   1.393   2.469  10.876  0.8003 -1.5736  0.3296
 3059SOL    HW220637   1.462   2.594  10.847  0.8758  0.0156  0.1709
 3060SOL     OW20638   4.339   0.387   2.565 -0.4685  0.1390 -0.5833
 3060SOL    HW120639   4.261   0.333   2.558  0.4539 -1.0838 -1.3612
 3060SOL    HW220640   4.327   0.455   2.498  0.1979  0.0868 -0.7529
 3061SOL     OW20641   1.949   3.175  15.078  0.1692 -0.4077 -0.7027
 3061SOL    HW120642   2.031   3.131  15.055 -0.3367 -1.4294 -0.5865
 3061SOL    HW220643   1.901   3.100  15.113 -1.3750  0.5162 -0.8626
 3062SOL     OW20644   1.770   2.777   8.237  0.2560 -0.0748 -0.5916
 3062SOL    HW120645   1.724   2.799   8.318  2.7666  0.3017  0.7228
 3062SOL    HW220646   1.785   2.867   8.208 -1.2292  0.1523 -0.6470
 3063SOL     OW20647   0.341   4.089  14.931  0.5679  0.0435  0.3347
 3063SOL    HW120648   0.386   4.122  15.008 -1.8423  0.6789  1.4832
 3063SOL    HW220649   0.283   4.163  14.911  0.2442 -1.1206 -3.0725
 3064SOL     OW20650   4.584   2.608   4.262  0.1789 -0.0997  0.3436
 3064SOL    HW120651   4.612   2.681   4.317  2.3275 -1.2674  0.8077
 3064SOL    HW220652   4.498   2.640   4.236  0.0770 -0.8695 -0.2836
 3065SOL     OW20653   0.863   1.895   5.184 -0.0754  0.1144 -0.2244
 3065SOL    HW120654   0.919   1.960   5.142 -0.4063  2.1131  2.3684
 3065SOL    HW220655   0.853   1.830   5.115 -1.0936 -0.7767  0.7576
 3066SOL     OW20656   1.652   0.535   6.318  0.2317 -0.4424  0.4232
 3066SOL    HW120657   1.601   0.480   6.377 -0.5964  1.0338  1.1005
 3066SOL    HW220658   1.704   0.581   6.384 -0.6512 -2.6843  2.6872
 3067SOL     OW20659   1.397   2.533  15.970  0.3226  0.4478 -0.7169
 3067SOL    HW120660   1.337   2.485  16.028 -1.2957 -0.3215 -3.0347
 3067SOL    HW220661   1.436   2.603  16.022 -1.1430  0.3293  0.5443
 3068SOL     OW20662   3.841   0.982  12.920 -0.1055  0.1900  1.0253
 3068SOL    HW120663   3.772   1.017  12.976  0.1550 -0.9642  2.0831
 3068SOL    HW220664   3.795   0.984  12.837  1.2156 -0.5298  0.2731
 3069SOL     OW20665   2.528   1.338   6.253  0.3599  0.2449  0.1528
 3069SOL    HW120666   2.435   1.318   6.238  0.0887  2.0969 -0.6158
 3069SOL    HW220667   2.560   1.347   6.164 -2.5630  0.0279 -0.9266
 3070SOL     OW20668   0.906   0.133  12.550  0.1128  0.2908 -0.3359
 3070SOL    HW120669   0.968   0.205  12.537  0.9540 -0.8248 -2.4840
 3070SOL    HW220670   0.901   0.138  12.645  3.0381 -0.1547 -0.1638
 3071SOL     OW20671   1.412   2.413   0.174 -0.1052  0.3044 -0.2114
 3071SOL    HW120672   1.421   2.507   0.164  0.2822  0.2926  0.0100
 3071SOL    HW220673   1.498   2.394   0.213  0.2683  0.3026 -1.0395
 3072SOL     OW20674   3.307   0.329   4.107  0.2608 -0.7577 -0.4870
 3072SOL    HW120675   3.376   0.317   4.173  1.1320 -0.8897 -1.4168
 3072SOL    HW220676   3.292   0.236   4.089 -1.2133 -0.1365 -2.4224
 3073SOL     OW20677   3.444   4.318   4.840  0.4018  0.2056 -0.2376
 3073SOL    HW120678   3.350   4.320   4.826  0.5326 -0.4165 -1.2306
 3073SOL    HW220679   3.476   4.329   4.750 -0.1183  0.4484 -0.3875
 3074SOL     OW20680   0.042   2.469   0.405 -0.0788  0.2897 -0.1467
 3074SOL    HW120681   0.017   2.559   0.428  1.2102  0.5164  0.3855
 3074SOL    HW220682   4.691   2.447   0.350  1.0010 -0.2162 -1.3903
 3075SOL     OW20683   3.022   1.771  16.594  0.0863  0.1812  0.6060
 3075SOL    HW120684   3.013   1.752  16.687  0.9989 -1.6469  0.3283
 3075SOL    HW220685   3.097   1.830  16.596 -1.2974  1.9254  0.7160
 3076SOL     OW20686   3.769   4.494   9.254 -0.0577  0.5635  0.2394
 3076SOL    HW120687   3.847   4.530   9.297 -0.2143  1.4403 -0.2077
 3076SOL    HW220688   3.775   4.406   9.290 -1.1963 -1.0612 -3.5464
 3077SOL     OW20689   1.386   3.751  11.293  0.0642 -0.0323  0.0184
 3077SOL    HW120690   1.316   3.807  11.258 -2.3795 -1.7978  2.1348
 3077SOL    HW220691   1.326   3.681  11.319 -1.4265  1.5778  0.9272
 3078SOL     OW20692   4.408   2.013  10.940 -0.1543 -0.4362  0.0314
 3078SOL    HW120693   4.394   2.081  10.874  0.9191  0.5205  0.7832
 3078SOL    HW220694   4.451   2.069  11.005 -0.6703 -0.8235  0.6956
 3079SOL     OW20695   2.176   2.168   6.597 -0.3171 -0.1805  0.6910
 3079SOL    HW120696   2.254   2.113   6.595  1.1652  1.9294  0.3560
 3079SOL    HW220697   2.195   2.238   6.535  1.5481  0.1166  1.5837
 3080SOL     OW20698   3.998   3.528  12.497  0.0024  0.1966  0.2180
 3080SOL    HW120699   3.973   3.454  12.441  3.4547  0.4388 -1.6054
 3080SOL    HW220700   3.918   3.580  12.494  0.3229  0.7173  0.7989
 3081SOL     OW20701   1.249   3.447  14.568 -0.1253  0.3507 -0.2060
 3081SOL    HW120702   1.210   3.529  14.538  0.1725  0.5938  0.0629
 3081SOL    HW220703   1.285   3.469  14.654  2.1066  0.3991 -1.1555
 3082SOL     OW20704   4.719   3.723   6.246 -0.2425 -0.0760  0.0407
 3082SOL    HW120705   4.718   3.627   6.253  0.1120 -0.0201  0.7798
 3082SOL    HW220706   4.658   3.747   6.315 -1.6896 -0.6488 -1.0259
 3083SOL     OW20707   0.951   2.386   8.049 -0.6250  0.1150  0.1497
 3083SOL    HW120708   0.920   2.378   7.959 -2.3276  0.1518  0.7257
 3083SOL    HW220709   0.864   2.389   8.089  0.1018  0.3966  1.7116
 3084SOL     OW20710   3.692   0.244  13.121  0.2037  0.3911  0.1984
 3084SOL    HW120711   3.679   0.169  13.063  3.6066 -0.1766  0.1839
 3084SOL    HW220712   3.676   0.203  13.207 -3.1422  1.3462  0.0565
 3085SOL     OW20713   4.340   0.548   2.175  0.5380  0.6814  0.7595
 3085SOL    HW120714   4.379   0.585   2.096  1.8706  2.5968  2.2913
 3085SOL    HW220715   4.355   0.617   2.240 -0.5876  1.4132  0.2472
 3086SOL     OW20716   2.229   3.935   4.220 -0.2311  0.4075  0.4653
 3086SOL    HW120717   2.146   3.889   4.204  0.7383 -0.7260 -1.3270
 3086SOL    HW220718   2.193   4.024   4.216  0.0393  0.5055  0.2391
 3087SOL     OW20719   3.327   2.496   6.844 -0.3469 -0.0112 -0.1617
 3087SOL    HW120720   3.322   2.552   6.767  0.8771  0.1323 -0.1428
 3087SOL    HW220721   3.399   2.534   6.894  0.1038  1.6747 -2.1031
 3088SOL     OW20722   4.374   1.406   8.810 -0.2189  0.4087  0.1724
 3088SOL    HW120723   4.332   1.482   8.771 -0.2403 -0.2471 -1.0993
 3088SOL    HW220724   4.329   1.334   8.766 -0.6268  1.7314 -1.5624
 3089SOL     OW20725   2.153   3.987   7.862  0.2095  0.1828 -0.3045
 3089SOL    HW120726   2.178   4.027   7.945  2.0807 -2.4606  0.4169
 3089SOL    HW220727   2.082   4.048   7.840  0.2232  1.0657  2.1402
 3090SOL     OW20728   1.110   2.763  10.637 -0.4646 -0.2642 -0.4455
 3090SOL    HW120729   1.096   2.739  10.545  1.4946  2.0426 -1.3507
 3090SOL    HW220730   1.037   2.825  10.645  0.1139  0.3808 -0.1939
 3091SOL     OW20731   0.500   0.970   5.397  0.4600  0.0565 -0.3040
 3091SOL    HW120732   0.451   0.901   5.444 -1.1970  0.7507 -1.0083
 3091SOL    HW220733   0.425   1.024   5.373  0.5608  0.1816 -0.3356
 3092SOL     OW20734   2.421   2.766   6.143 -0.3097  0.0728  0.0924
 3092SOL    HW120735   2.503   2.733   6.180  0.3619 -0.2308 -1.6567
 3092SOL    HW220736   2.427   2.851   6.187 -2.3370  1.1642 -1.7763
 3093SOL     OW20737   3.436   1.347   2.799 -0.0309  0.2020 -0.0799
 3093SOL    HW120738   3.463   1.314   2.713  1.3140  0.6550  0.1664
 3093SOL    HW220739   3.342   1.366   2.797 -0.2480 -0.9167 -0.2417
 3094SOL     OW20740   2.816   1.176   2.350 -0.0113  0.0127 -0.4139
 3094SOL    HW120741   2.767   1.247   2.310  0.5421  0.7876  0.2939
 3094SOL    HW220742   2.760   1.109   2.311  1.3361 -0.8449 -0.8609
 3095SOL     OW20743   1.874   1.107   2.306  0.4233  0.1010  0.5528
 3095SOL    HW120744   1.956   1.154   2.290  0.7317 -0.9804 -1.1646
 3095SOL    HW220745   1.888   1.035   2.243  0.2233  0.7133 -0.1867
 3096SOL     OW20746   2.494   4.710   5.374 -0.2423  0.3280  0.7054
 3096SOL    HW120747   2.426   0.049   5.398 -0.5276 -0.3213  1.5630
 3096SOL    HW220748   2.528   4.682   5.459 -1.4084 -0.4218  0.9256
 3097SOL     OW20749   0.020   0.830   0.625  0.0968  0.2508  0.2522
 3097SOL    HW120750   4.703   0.913   0.600 -0.6611  0.1916  1.2763
 3097SOL    HW220751   0.073   0.861   0.698 -1.0686 -1.2498  1.7430
 3098SOL     OW20752   1.885   1.366   6.597 -0.4800 -0.1002 -0.5051
 3098SOL    HW120753   1.843   1.316   6.527  1.9014 -1.5707 -0.8748
 3098SOL    HW220754   1.965   1.318   6.614 -0.8154 -0.7291 -0.7127
 3099SOL     OW20755   1.576   1.451   2.963 -0.2848  0.2820  0.1136
 3099SOL    HW120756   1.559   1.417   3.051  0.0812 -2.6551 -0.9514
 3099SOL    HW220757   1.484   1.477   2.954 -0.4145  0.3458  1.5116
 3100SOL     OW20758   1.057   3.138   8.776  0.4060  0.0705  0.3576
 3100SOL    HW120759   1.034   3.201   8.708 -1.4508 -0.1492  0.8009
 3100SOL    HW220760   1.067   3.053   8.735 -1.9933  0.0610 -0.2051
 3101SOL     OW20761   0.590   3.191  12.615  0.2234 -0.1076  0.9030
 3101SOL    HW120762   0.527   3.216  12.683  1.9524  0.4049  2.3145
 3101SOL    HW220763   0.545   3.224  12.537  0.9178 -1.2009  0.0451
 3102SOL     OW20764   4.225   2.777   4.508 -0.1723  0.2504 -0.1788
 3102SOL    HW120765   4.294   2.783   4.573 -0.6142  0.5382  0.2604
 3102SOL    HW220766   4.171   2.854   4.527  0.3984 -0.0428  2.5107
 3103SOL     OW20767   4.362   2.784   4.261  0.5711 -0.4628 -0.0243
 3103SOL    HW120768   4.320   2.863   4.226 -0.0927 -0.0427  1.7327
 3103SOL    HW220769   4.307   2.770   4.338 -3.0485  1.6287 -2.2614
 3104SOL     OW20770   4.611   4.430   7.259 -0.2884 -0.4084 -0.2267
 3104SOL    HW120771   4.599   4.445   7.353 -1.2559  2.1595 -0.7715
 3104SOL    HW220772   4.659   4.507   7.228 -2.3464  1.0984  0.3403
 3105SOL     OW20773   0.526   3.337   6.998 -0.1130  0.4054  0.0539
 3105SOL    HW120774   0.460   3.288   6.950  0.3992 -0.5851  0.3581
 3105SOL    HW220775   0.517   3.422   6.955  1.5501 -0.4142 -1.9320
 3106SOL     OW20776   2.703   4.384  10.986 -0.3656 -0.4726  0.6370
 3106SOL    HW120777   2.658   4.456  11.030  0.8233  0.7857 -0.2288
 3106SOL    HW220778   2.751   4.342  11.057  0.6231 -0.3385  0.0441
 3107SOL     OW20779   3.752   0.747   7.435 -0.3308  0.5209  0.4461
 3107SOL    HW120780   3.685   0.737   7.367 -0.4013  2.1573  0.2788
 3107SOL    HW220781   3.705   0.730   7.517 -0.3486  0.2371  0.3769
 3108SOL     OW20782   1.476   1.593  14.351 -0.1313  1.0104 -0.0613
 3108SOL    HW120783   1.459   1.651  14.278  1.2606  0.2003 -1.0231
 3108SOL    HW220784   1.450   1.512  14.307 -0.8385  1.0738  0.2378
 3109SOL     OW20785   2.239   2.303   2.063  0.4206 -0.1344  0.1660
 3109SOL    HW120786   2.189   2.238   2.013  1.0497 -0.0932 -0.5113
 3109SOL    HW220787   2.163   2.351   2.095  1.0757  0.0018  1.5034
 3110SOL     OW20788   3.467   1.666  17.066 -0.6787  0.6690  0.0337
 3110SOL    HW120789   3.470   1.689  17.159 -1.7978  0.7855  0.0433
 3110SOL    HW220790   3.557   1.636  17.049 -0.8646  0.8240 -1.1984
 3111SOL     OW20791   3.776   1.671   6.834  0.4710  0.2941  0.2378
 3111SOL    HW120792   3.827   1.590   6.839 -1.3559 -0.7780  1.3193
 3111SOL    HW220793   3.835   1.733   6.877  0.2543 -0.3784  1.4908
 3112SOL     OW20794   1.734   2.219   4.645 -0.7046  0.3723 -0.5371
 3112SOL    HW120795   1.727   2.131   4.609  1.6001 -1.6411  3.9738
 3112SOL    HW220796   1.643   2.235   4.670  0.2571  1.7543  2.0820
 3113SOL     OW20797   1.834   0.738   8.172  0.2125 -0.6237  0.1256
 3113SOL    HW120798   1.905   0.800   8.156 -1.7351  1.6025  0.0840
 3113SOL    HW220799   1.760   0.788   8.137  0.2991  0.6529  1.7351
 3114SOL     OW20800   2.674   1.465  11.862 -0.2394 -0.8183 -0.1246
 3114SOL    HW120801   2.594   1.414  11.870  0.0414 -1.0385  1.1909
 3114SOL    HW220802   2.720   1.404  11.805  0.3166  0.7368 -1.3566
 3115SOL     OW20803   3.478   3.469   2.512  0.2287  0.6568  0.3066
 3115SOL    HW120804   3.461   3.563   2.502  0.8640  0.3107 -4.2898
 3115SOL    HW220805   3.557   3.464   2.567 -0.6757 -1.9949  1.3363
 3116SOL     OW20806   2.784   4.431   7.188 -0.2372  0.1121  0.0137
 3116SOL    HW120807   2.750   4.502   7.243 -2.0579 -1.0058  0.3427
 3116SOL    HW220808   2.758   4.348   7.229  0.3793 -0.2210 -0.2652
 3117SOL     OW20809   0.868   1.662  13.668 -0.0269  0.4802  0.5053
 3117SOL    HW120810   0.863   1.752  13.701 -0.3843  0.7412 -0.2695
 3117SOL    HW220811   0.871   1.683  13.575 -0.9736  3.1798  1.0938
 3118SOL     OW20812   0.767   1.921  10.637  0.5814  0.0312  0.6324
 3118SOL    HW120813   0.785   1.829  10.656  0.4326 -0.3419 -1.0343
 3118SOL    HW220814   0.775   1.927  10.542 -0.6031 -0.1321  0.5199
 3119SOL     OW20815   1.108   4.639   6.140 -0.3988  0.0368  0.3365
 3119SOL    HW120816   1.189   4.679   6.172  0.1818  0.9357 -2.2253
 3119SOL    HW220817   1.045   4.649   6.212 -0.0783  1.7233  0.4028
 3120SOL     OW20818   2.554   2.597  10.760 -0.1892  0.0376 -0.1776
 3120SOL    HW120819   2.509   2.578  10.677 -1.9348  1.8848  0.3511
 3120SOL    HW220820   2.571   2.691  10.751 -1.3434 -0.0161 -3.1651
 3121SOL     OW20821   1.133   0.793   4.047  0.1165  0.1491  0.5737
 3121SOL    HW120822   1.047   0.761   4.074  0.0003 -0.0921 -0.0990
 3121SOL    HW220823   1.183   0.806   4.128 -0.5157 -3.9744  1.6045
 3122SOL     OW20824   3.978   4.521   5.208  0.9333  0.6104 -0.8036
 3122SOL    HW120825   4.063   4.511   5.251  0.4334 -0.2870 -0.0232
 3122SOL    HW220826   3.950   4.603   5.248  1.6432  0.0383  0.8840
 3123SOL     OW20827   0.378   4.450   9.402 -0.1391 -0.1255  0.2186
 3123SOL    HW120828   0.448   4.451   9.468  0.3315 -5.9084 -0.2016
 3123SOL    HW220829   0.300   4.421   9.450  1.3786 -2.7353  1.0757
 3124SOL     OW20830   1.224   3.166  16.816  0.1083  0.1327  0.5165
 3124SOL    HW120831   1.232   3.100  16.747  4.6180 -0.6529  1.8216
 3124SOL    HW220832   1.303   3.217  16.801  0.6218  0.1426  3.1414
 3125SOL     OW20833   1.105   4.523   8.106  0.5079 -0.6242 -0.0826
 3125SOL    HW120834   1.029   4.564   8.147 -0.1747 -1.1107 -0.8576
 3125SOL    HW220835   1.084   4.543   8.014  1.9043  3.2762  0.4666
 3126SOL     OW20836   1.865   0.067   3.929  0.1243 -0.6883 -0.0858
 3126SOL    HW120837   1.785   0.052   3.979  1.2921 -1.5983  1.5101
 3126SOL    HW220838   1.833   0.038   3.844  0.0792  3.7815 -1.6144
 3127SOL     OW20839   0.150   0.865  10.938  0.2349 -0.2064 -0.3669
 3127SOL    HW120840   0.140   0.822  10.854  0.5935 -0.9168 -0.0426
 3127SOL    HW220841   0.239   0.899  10.934 -0.0567  0.6371  0.3288
 3128SOL     OW20842   4.549   2.273   5.110 -0.5112 -0.2124 -0.3516
 3128SOL    HW120843   4.578   2.258   5.020 -0.2432 -1.1853 -0.1029
 3128SOL    HW220844   4.530   2.184   5.140  0.1470 -0.6748 -1.3013
 3129SOL     OW20845   2.347   3.330   6.275  0.0629  0.1700 -0.3145
 3129SOL    HW120846   2.391   3.268   6.217  0.5830  0.2022  0.0477
 3129SOL    HW220847   2.307   3.261   6.329  1.4780 -0.8191 -0.5349
 3130SOL     OW20848   3.913   1.702  15.248  0.4573  0.2124 -0.1389
 3130SOL    HW120849   3.874   1.632  15.301  0.3970  0.7080  0.4734
 3130SOL    HW220850   3.860   1.771  15.288  0.9901  1.1064 -0.9486
 3131SOL     OW20851   1.071   2.210   4.524 -0.1142  0.3558  0.5293
 3131SOL    HW120852   1.005   2.244   4.584 -0.8072  2.1656 -1.2765
 3131SOL    HW220853   1.021   2.145   4.476 -0.1290 -0.0654  1.1046
 3132SOL     OW20854   1.788   0.546   2.764  0.1669 -0.1069 -0.2766
 3132SOL    HW120855   1.851   0.584   2.702  1.1711  1.0659  1.4323
 3132SOL    HW220856   1.723   0.513   2.703  0.5006 -1.9842  0.4017
 3133SOL     OW20857   1.528   0.133  11.993 -0.4354  1.1069 -0.0309
 3133SOL    HW120858   1.595   0.146  11.926 -0.7756  1.0289 -0.3868
 3133SOL    HW220859   1.585   0.107  12.066  1.1688  2.3035 -0.8571
 3134SOL     OW20860   0.047   4.263  11.568 -0.1980 -0.1154 -0.4845
 3134SOL    HW120861   0.126   4.280  11.619 -0.3179 -1.7875  0.2534
 3134SOL    HW220862   0.082   4.255  11.479  2.8106  1.1210  0.5679
 3135SOL     OW20863   4.062   1.114   4.777 -0.6352 -0.0273  0.3547
 3135SOL    HW120864   3.967   1.106   4.780 -0.5479 -0.5807  1.2979
 3135SOL    HW220865   4.097   1.056   4.709 -2.5065 -0.5325 -0.1865
 3136SOL     OW20866   3.998   3.642   3.952 -0.2985  0.4168 -0.4700
 3136SOL    HW120867   3.947   3.571   3.913  0.1013 -0.3304  0.3566
 3136SOL    HW220868   4.020   3.699   3.878 -0.5137 -0.4638 -1.2216
 3137SOL     OW20869   0.121   1.473  11.269 -0.4399  0.0457  0.3800
 3137SOL    HW120870   0.030   1.462  11.241 -0.6664 -1.0355  1.5659
 3137SOL    HW220871   0.158   1.399  11.221 -0.0648  0.8075 -0.5003
 3138SOL     OW20872   3.265   3.371   8.139 -0.3598 -0.1815 -0.3328
 3138SOL    HW120873   3.360   3.382   8.136 -0.5641  1.5531 -1.0888
 3138SOL    HW220874   3.251   3.441   8.075 -2.3922 -0.9352 -0.7072
 3139SOL     OW20875   0.806   2.317   7.808  0.2527 -0.1348 -0.8841
 3139SOL    HW120876   0.874   2.346   7.747  0.7163  3.4962  1.3580
 3139SOL    HW220877   0.723   2.354   7.779  1.4900  1.9827 -1.7408
 3140SOL     OW20878   3.222   0.331   4.486  0.7757 -0.2199 -0.0183
 3140SOL    HW120879   3.285   0.270   4.447  1.5663  1.9689 -2.1841
 3140SOL    HW220880   3.184   0.283   4.560 -1.1551  1.6952  0.2399
 3141SOL     OW20881   3.009   4.189   6.735 -0.3638 -0.1835 -0.1104
 3141SOL    HW120882   3.042   4.169   6.822 -0.7516 -0.6582 -0.0726
 3141SOL    HW220883   2.934   4.243   6.759 -1.1885 -1.5537  0.3687
 3142SOL     OW20884   4.713   2.251  13.818  0.9205 -0.0027  0.3699
 3142SOL    HW120885   4.670   2.317  13.763 -1.5279 -0.6170  1.5166
 3142SOL    HW220886   0.079   2.282  13.810  0.7677 -0.1440 -1.7223
 3143SOL     OW20887   3.709   1.503   4.318 -0.3635 -0.0467 -0.8253
 3143SOL    HW120888   3.781   1.468   4.265  0.6672 -0.1517  0.6182
 3143SOL    HW220889   3.652   1.520   4.244  2.0899  1.1400 -2.4419
 3144SOL     OW20890   0.918   2.550  10.605 -0.2372 -0.0509  0.5088
 3144SOL    HW120891   0.950   2.593  10.684  2.8605 -2.7790  0.7411
 3144SOL    HW220892   0.826   2.535  10.627 -0.1457 -0.7119  0.4360
 3145SOL     OW20893   2.131   0.492   8.570  0.0639 -0.2354 -0.5636
 3145SOL    HW120894   2.037   0.488   8.554 -0.1193 -0.8339  0.6772
 3145SOL    HW220895   2.143   0.422   8.634  3.2795  0.6253 -0.1840
 3146SOL     OW20896   1.841   0.457   3.197  0.1192 -0.5276 -0.8544
 3146SOL    HW120897   1.807   0.513   3.127 -0.0907  1.0743  0.5342
 3146SOL    HW220898   1.934   0.471   3.180  0.1214  1.5531  0.9157
 3147SOL     OW20899   2.612   4.586  12.570  0.6775  0.3190  0.0857
 3147SOL    HW120900   2.692   4.550  12.532 -1.2466  1.1103 -4.7121
 3147SOL    HW220901   2.557   4.584  12.492 -0.6361  2.5702  0.9314
 3148SOL     OW20902   4.398   0.878   6.985 -0.0461 -0.3526 -0.0437
 3148SOL    HW120903   4.351   0.889   7.068  0.0319 -0.0262 -0.0437
 3148SOL    HW220904   4.371   0.961   6.947 -2.2245 -1.7136 -1.5122
 3149SOL     OW20905   0.086   3.498   0.858  0.1824  0.5005  0.0007
 3149SOL    HW120906   0.085   3.568   0.793 -0.5922  1.7176  1.3216
 3149SOL    HW220907   0.062   3.527   0.945  1.9066  1.1619  0.2516
 3150SOL     OW20908   0.158   3.179   7.990 -0.6961 -0.5235  0.4926
 3150SOL    HW120909   0.225   3.210   8.051 -0.3105  1.6687 -1.0225
 3150SOL    HW220910   0.085   3.222   8.036  0.4407  1.1843  0.7223
 3151SOL     OW20911   3.719   0.684  13.228 -0.3936  0.9232 -0.2716
 3151SOL    HW120912   3.812   0.672  13.209 -0.3406  1.6318 -0.4290
 3151SOL    HW220913   3.686   0.620  13.165  2.0081  0.0327 -0.6259
 3152SOL     OW20914   2.324   0.330   3.072 -0.5914 -0.0831  0.1367
 3152SOL    HW120915   2.263   0.357   3.141 -0.5320  2.1870 -0.7161
 3152SOL    HW220916   2.275   0.265   3.022 -1.1783 -0.0319  0.6390
 3153SOL     OW20917   2.503   0.214   3.783  0.2439 -0.9328 -0.0281
 3153SOL    HW120918   2.536   0.163   3.709 -2.8793 -1.6999 -0.8873
 3153SOL    HW220919   2.415   0.178   3.797  0.1999  1.4616  5.8481
 3154SOL     OW20920   0.833   1.783   4.172  0.4292  0.1821  0.6470
 3154SOL    HW120921   0.914   1.786   4.122 -0.0665  0.8076 -0.1269
 3154SOL    HW220922   0.778   1.755   4.098  1.8942 -0.0062 -0.3808
 3155SOL     OW20923   2.289   2.948   3.873  0.5847  0.2015 -0.3324
 3155SOL    HW120924   2.326   3.013   3.814  2.5550 -1.6506 -1.1173
 3155SOL    HW220925   2.342   2.956   3.952  0.9896  1.6903 -0.7477
 3156SOL     OW20926   2.596   1.272   4.670  0.8179 -0.2824 -0.1255
 3156SOL    HW120927   2.502   1.254   4.676  0.9394 -1.0455 -0.5441
 3156SOL    HW220928   2.610   1.279   4.764 -2.8940  2.0501  0.2628
 3157SOL     OW20929   1.991   3.338   6.613  0.1323  0.0676  0.1294
 3157SOL    HW120930   1.907   3.384   6.613 -0.7225 -1.4890  0.6720
 3157SOL    HW220931   1.992   3.298   6.700 -1.1482 -0.7135 -0.2146
 3158SOL     OW20932   0.554   3.531   4.894  0.2352  0.8866 -0.1734
 3158SOL    HW120933   0.533   3.522   4.801 -0.4316 -1.1736  0.1721
 3158SOL    HW220934   0.620   3.461   4.893  0.6394  1.2755 -0.6749
 3159SOL     OW20935   3.715   4.576   1.232 -0.2009 -0.0409 -0.0262
 3159SOL    HW120936   3.791   4.518   1.227  0.7298  1.0775  1.0904
 3159SOL    HW220937   3.710   4.615   1.319  3.5176 -0.3577  0.3226
 3160SOL     OW20938   0.370   2.507   3.524  0.2302  0.1295  0.0981
 3160SOL    HW120939   0.397   2.576   3.463 -0.4977 -1.2154 -1.7260
 3160SOL    HW220940   0.447   2.494   3.579 -0.7825  0.3099  1.5652
 3161SOL     OW20941   3.207   1.115  13.793  0.1077 -0.5098  0.4252
 3161SOL    HW120942   3.185   1.205  13.816 -0.3484 -0.6581  0.5631
 3161SOL    HW220943   3.216   1.079  13.881 -0.3109 -0.7124  0.3844
 3162SOL     OW20944   4.485   2.197   2.497  0.2955 -0.9676 -0.4525
 3162SOL    HW120945   4.519   2.282   2.469 -1.6505 -0.5729 -1.6274
 3162SOL    HW220946   4.544   2.138   2.450  0.3878 -1.6126  0.4780
 3163SOL     OW20947   3.829   0.923   8.161  0.0837  0.4672 -0.1523
 3163SOL    HW120948   3.734   0.909   8.161  0.0515  0.6467 -1.5210
 3163SOL    HW220949   3.863   0.838   8.133  0.1717 -0.0658  1.5734
 3164SOL     OW20950   0.978   1.256   3.560  0.3208  0.2993  0.4576
 3164SOL    HW120951   0.885   1.267   3.581  0.4009 -1.4651  1.7428
 3164SOL    HW220952   0.981   1.173   3.512 -1.2902 -0.1343  1.0959
 3165SOL     OW20953   3.342   0.099   4.399  0.0000 -0.5864  0.4118
 3165SOL    HW120954   3.376   0.031   4.457 -2.7044 -0.6413  1.9740
 3165SOL    HW220955   3.274   0.051   4.352 -0.7393 -0.8593  1.7527
 3166SOL     OW20956   1.704   4.684   5.836  0.2620  0.1253 -0.0587
 3166SOL    HW120957   1.773   4.700   5.901 -1.8636 -1.4587  2.6303
 3166SOL    HW220958   1.734   4.600   5.800  0.3593  0.3198 -0.4277
 3167SOL     OW20959   0.934   1.513  17.149  0.3091  0.5174 -0.0370
 3167SOL    HW120960   0.962   1.604  17.142 -0.7628  0.6133 -3.1666
 3167SOL    HW220961   0.958   1.510  17.242 -0.7865  1.8100  0.2875
 3168SOL     OW20962   4.670   4.007   7.813 -0.0851 -0.2738  0.0980
 3168SOL    HW120963   4.594   3.968   7.856 -2.6746 -1.4930 -5.4358
 3168SOL    HW220964   4.683   4.093   7.851 -0.5467  0.1241 -0.6519
 3169SOL     OW20965   0.188   0.771   0.429 -0.2360 -0.8221  0.3430
 3169SOL    HW120966   0.142   0.803   0.506 -1.7850 -0.6531 -0.6684
 3169SOL    HW220967   0.277   0.792   0.458 -0.7666 -0.2177  1.5465
 3170SOL     OW20968   2.048   3.394   7.937 -0.1905  0.4559  0.1308
 3170SOL    HW120969   2.080   3.348   8.014  0.8031  0.9233 -0.0082
 3170SOL    HW220970   2.082   3.340   7.865 -0.0158 -0.7797  1.1517
 3171SOL     OW20971   2.960   1.559   3.552 -0.2164  0.1287 -0.2360
 3171SOL    HW120972   3.054   1.569   3.541 -0.1781 -1.3639 -1.2499
 3171SOL    HW220973   2.942   1.650   3.575  0.4916  0.2270 -0.0916
 3172SOL     OW20974   1.938   1.063  10.707  0.3648 -0.0199  0.2568
 3172SOL    HW120975   1.991   0.983  10.706  1.0559  0.4380  0.0619
 3172SOL    HW220976   1.867   1.029  10.761 -0.1172 -1.1659 -1.0937
 3173SOL     OW20977   3.832   3.354  16.740  0.3066  0.3351 -1.0548
 3173SOL    HW120978   3.750   3.336  16.693 -0.9917  1.5532  0.7023
 3173SOL    HW220979   3.891   3.380  16.670  1.3206  0.8109 -0.0201
 3174SOL     OW20980   2.020   0.854  12.927 -0.1896  0.0476 -0.0996
 3174SOL    HW120981   2.063   0.934  12.957 -0.9993  0.4369  0.0223
 3174SOL    HW220982   1.938   0.863  12.976 -0.7662 -0.3435 -1.0073
 3175SOL     OW20983   1.199   1.544   2.026  0.4656 -0.1224 -0.2075
 3175SOL    HW120984   1.246   1.480   2.080  1.8231  1.3119  0.3040
 3175SOL    HW220985   1.162   1.504   1.948 -0.8636  0.7812 -0.0397
 3176SOL     OW20986   2.894   0.095   3.591 -0.6184  0.0607  0.4766
 3176SOL    HW120987   2.808   0.103   3.634 -1.9630  0.3435 -2.2747
 3176SOL    HW220988   2.946   0.109   3.670 -0.6279  1.5140  0.2226
 3177SOL     OW20989   2.577   1.512   1.366  0.1266 -0.2983 -0.3751
 3177SOL    HW120990   2.567   1.451   1.439  1.2634 -0.4549 -0.3496
 3177SOL    HW220991   2.539   1.593   1.399  1.6136  1.1795 -2.3002
 3178SOL     OW20992   0.048   0.618  12.410  0.1801 -0.0218 -0.8959
 3178SOL    HW120993   0.086   0.545  12.459 -1.9896 -0.2798  0.4366
 3178SOL    HW220994   0.119   0.645  12.353  0.2543 -0.1108 -0.8449
 3179SOL     OW20995   4.624   0.647   6.675  0.1693  0.3144  0.5130
 3179SOL    HW120996   4.648   0.704   6.602  2.4076  0.0555  1.0528
 3179SOL    HW220997   4.699   0.590   6.660  0.9263  1.4285  0.1035
 3180SOL     OW20998   2.253   1.676   7.322  0.7707  0.0980  0.1125
 3180SOL    HW120999   2.208   1.727   7.389  0.4300  1.7294 -1.3402
 3180SOL    HW221000   2.294   1.743   7.267  0.4108  0.1496 -0.0965
 3181SOL     OW21001   4.195   3.962   8.806 -0.1909 -0.2144  0.0710
 3181SOL    HW121002   4.124   3.954   8.742 -2.0965  1.5558  1.9794
 3181SOL    HW221003   4.259   3.913   8.754  1.1457  0.7779  0.7804
 3182SOL     OW21004   1.281   1.952   8.145  0.2287 -0.0875  0.0599
 3182SOL    HW121005   1.307   1.957   8.237  1.2353 -1.5008 -0.1467
 3182SOL    HW221006   1.252   2.042   8.128  1.4962  0.1788 -0.7060
 3183SOL     OW21007   4.544   3.648   5.371  0.2106  0.2712  0.3597
 3183SOL    HW121008   4.520   3.701   5.447  1.3162  0.7278  0.3861
 3183SOL    HW221009   4.563   3.712   5.304 -0.9960  1.4722  1.1680
 3184SOL     OW21010   2.999   0.536   5.362  0.0483 -0.1728  0.0678
 3184SOL    HW121011   2.954   0.615   5.333 -1.2270 -1.0291 -0.3098
 3184SOL    HW221012   2.918   0.486   5.374  0.1226  0.1959  2.0449
 3185SOL     OW21013   0.707   3.107  16.476 -0.3610 -0.5944  0.6442
 3185SOL    HW121014   0.720   3.046  16.404  1.2256  0.3294  0.1698
 3185SOL    HW221015   0.611   3.108  16.473 -0.3789  0.6342  1.4509
 3186SOL     OW21016   3.065   4.478   1.373 -0.0097 -1.2097  0.4551
 3186SOL    HW121017   3.151   4.482   1.329  0.1674 -1.6887  0.7632
 3186SOL    HW221018   3.084   4.531   1.450 -2.6445 -1.0851  0.9927
 3187SOL     OW21019   3.818   1.864   0.010 -0.0174  0.4150  0.6134
 3187SOL    HW121020   3.798   1.902  17.621 -0.2606 -1.5700 -0.2080
 3187SOL    HW221021   3.784   1.931   0.070  2.0090  0.3428  1.8204
 3188SOL     OW21022   3.720   0.441   9.715 -0.2351  0.9285  0.0718
 3188SOL    HW121023   3.651   0.466   9.654 -1.1759 -0.3199  0.5973
 3188SOL    HW221024   3.705   0.346   9.710  0.9191  0.6279  2.4253
 3189SOL     OW21025   4.166   2.234  12.288 -0.4415  0.4668  0.5225
 3189SOL    HW121026   4.117   2.301  12.335 -2.0268  1.2334 -2.2070
 3189SOL    HW221027   4.117   2.152  12.296  0.5993 -0.3499 -1.3741
 3190SOL     OW21028   4.462   2.760   5.908 -0.3810 -0.1100 -0.8191
 3190SOL    HW121029   4.440   2.821   5.978  1.6603 -1.5544  1.0578
 3190SOL    HW221030   4.425   2.804   5.831 -1.1884  0.9634  0.1890
 3191SOL     OW21031   4.271   4.285   8.364  0.3419  0.1099  0.5965
 3191SOL    HW121032   4.211   4.216   8.394  0.8981 -1.1275 -1.1384
 3191SOL    HW221033   4.277   4.353   8.431  1.3027 -0.1356  0.7596
 3192SOL     OW21034   3.092   1.110  13.531 -0.5304  0.0753 -0.1490
 3192SOL    HW121035   3.115   1.123  13.623  0.0912  1.4682 -0.5077
 3192SOL    HW221036   3.015   1.161  13.508  1.3111  2.9330 -0.0016
 3193SOL     OW21037   0.380   1.346  13.327  0.2842  0.2757  0.1700
 3193SOL    HW121038   0.336   1.270  13.290  0.1887  0.3654  0.0996
 3193SOL    HW221039   0.472   1.319  13.323  0.2032  0.6626 -4.4716
 3194SOL     OW21040   0.036   2.856  14.230 -0.2206 -0.0488  0.3868
 3194SOL    HW121041   0.035   2.817  14.317  0.0045  1.7605  1.1973
 3194SOL    HW221042   0.128   2.876  14.213 -0.0218 -0.3697  1.1080
 3195SOL     OW21043   2.780   0.281  10.270 -0.1469  0.0029  0.6464
 3195SOL    HW121044   2.773   0.328  10.353 -0.3881  1.8409 -0.4254
 3195SOL    HW221045   2.717   0.210  10.290  0.1642 -0.6157 -0.6045
 3196SOL     OW21046   4.305   1.048   4.027 -0.2655  0.3443 -0.1733
 3196SOL    HW121047   4.400   1.034   4.033 -0.3711 -0.3938 -0.2208
 3196SOL    HW221048   4.289   1.099   4.107  0.8854 -1.1967  1.0541
 3197SOL     OW21049   0.077   3.121  16.594 -0.1474  0.1005 -0.2820
 3197SOL    HW121050   0.125   3.204  16.592  1.3091 -0.8808 -4.4644
 3197SOL    HW221051   0.149   3.062  16.572  0.2228  0.4640 -0.0510
 3198SOL     OW21052   2.040   2.091  13.046  0.1518 -0.3680  0.7118
 3198SOL    HW121053   2.085   2.167  13.010 -1.4217  0.7369  1.0603
 3198SOL    HW221054   2.010   2.040  12.971 -0.7679 -0.0955  0.8940
 3199SOL     OW21055   4.622   2.544   1.961  0.1395  0.4670  0.6028
 3199SOL    HW121056   4.575   2.598   1.898  0.2817 -0.0156  0.0815
 3199SOL    HW221057   4.627   2.599   2.039 -2.0086 -0.1113  1.1462
 3200SOL     OW21058   1.969   2.754   8.984 -0.4689  0.0059  0.8691
 3200SOL    HW121059   1.959   2.764   9.079  1.5854 -1.0423  1.1934
 3200SOL    HW221060   1.910   2.821   8.949 -0.3727 -0.0684  0.5735
 3201SOL     OW21061   0.282   2.231   3.997 -0.2124 -0.3670  0.1815
 3201SOL    HW121062   0.244   2.318   3.992 -2.0233 -1.0865  1.2889
 3201SOL    HW221063   0.222   2.184   4.056 -1.9741  1.0866 -0.4501
 3202SOL     OW21064   4.220   2.498   4.457  0.2597 -0.0491 -0.1990
 3202SOL    HW121065   4.249   2.589   4.462  2.1873 -0.6371 -0.7469
 3202SOL    HW221066   4.224   2.490   4.362  1.0033  0.3833 -0.2075
 3203SOL     OW21067   2.661   0.417   7.438  0.2279 -0.4754 -0.0705
 3203SOL    HW121068   2.722   0.450   7.504 -0.9685  0.2173  0.6937
 3203SOL    HW221069   2.727   0.355   7.407  0.0662 -1.0180  0.6539
 3204SOL     OW21070   2.623   3.785   1.764 -0.1444 -0.6043  0.0380
 3204SOL    HW121071   2.715   3.812   1.765 -0.8295  1.7301 -0.4724
 3204SOL    HW221072   2.623   3.695   1.731  1.1181 -0.7252  0.3741
 3205SOL     OW21073   0.668   3.603   3.916  0.0490  0.3116 -0.6045
 3205SOL    HW121074   0.751   3.572   3.952  0.2023  0.6193 -0.6938
 3205SOL    HW221075   0.679   3.697   3.928 -0.1536  0.0781  1.4570
 3206SOL     OW21076   3.231   2.849   5.502 -0.4169 -0.4422  0.2598
 3206SOL    HW121077   3.252   2.763   5.540 -2.2062 -1.3555 -0.8370
 3206SOL    HW221078   3.235   2.821   5.411  0.6007 -2.3247  0.8694
 3207SOL     OW21079   2.210   1.628  16.097  0.5749 -0.3421  0.5665
 3207SOL    HW121080   2.276   1.689  16.129 -0.6320  0.3496  1.7576
 3207SOL    HW221081   2.268   1.564  16.056 -1.0819  0.3477 -2.7958
 3208SOL     OW21082   3.533   1.210   4.153 -0.9437 -0.2558 -0.0396
 3208SOL    HW121083   3.494   1.204   4.066  1.9645  0.1585 -1.3865
 3208SOL    HW221084   3.619   1.244   4.127 -0.9933  1.7213  2.3244
 3209SOL     OW21085   3.021   2.098   5.411 -0.1789  0.5148  0.2095
 3209SOL    HW121086   2.995   2.125   5.322  0.8939 -0.8647 -0.5185
 3209SOL    HW221087   3.047   2.008   5.392  0.5043  0.8331 -0.3941
 3210SOL     OW21088   0.482   4.688   7.659  0.4126 -0.1714 -0.0626
 3210SOL    HW121089   0.394   4.691   7.622  0.1440  0.7754  0.6465
 3210SOL    HW221090   0.499   4.594   7.660 -2.7690 -0.7582 -1.6890
 3211SOL     OW21091   2.252   0.121   3.482  0.0959  0.0655  0.5452
 3211SOL    HW121092   2.259   0.211   3.514  0.9773  0.5226 -0.8985
 3211SOL    HW221093   2.159   0.111   3.501  0.7057 -0.3125  3.2399
 3212SOL     OW21094   0.905   2.692   1.660  0.0992  0.0908  0.4744
 3212SOL    HW121095   0.912   2.645   1.744 -0.0338 -1.5258 -0.4247
 3212SOL    HW221096   0.927   2.617   1.605 -1.8506  0.0102 -0.2037
 3213SOL     OW21097   4.648   2.005   4.220  0.3900  0.6301  0.3965
 3213SOL    HW121098   4.674   1.934   4.162  0.8065 -0.2684  1.6844
 3213SOL    HW221099   4.679   1.978   4.307 -0.9377  0.9959  0.9888
 3214SOL     OW21100   1.500   2.478  17.042 -0.3099  0.2461  0.7495
 3214SOL    HW121101   1.509   2.477  17.137  0.5311  2.0744  0.6911
 3214SOL    HW221102   1.407   2.501  17.031 -0.1976 -1.2203 -3.0849
 3215SOL     OW21103   0.862   2.460  11.645  0.2457  0.1472 -0.3401
 3215SOL    HW121104   0.817   2.394  11.698  2.6197  0.2036  1.7676
 3215SOL    HW221105   0.935   2.402  11.625  0.2514 -0.5952  1.8248
 3216SOL     OW21106   1.488   4.644   6.058  0.1367 -0.6462  0.6752
 3216SOL    HW121107   1.570   4.691   6.045 -1.3974  1.6791 -0.5946
 3216SOL    HW221108   1.523   4.568   6.104  2.6174  1.1478  1.7584
 3217SOL     OW21109   4.471   3.278   7.834  0.1998 -0.0429  0.4494
 3217SOL    HW121110   4.511   3.340   7.895 -0.3446  0.9931 -0.2419
 3217SOL    HW221111   4.384   3.318   7.827  0.4735  0.3353 -0.8246
 3218SOL     OW21112   3.804   2.246   5.486 -0.1580 -0.0324 -0.1789
 3218SOL    HW121113   3.745   2.192   5.539 -0.4273  1.9970  1.5921
 3218SOL    HW221114   3.871   2.192   5.445  0.3969 -0.5863  1.4431
 3219SOL     OW21115   2.872   1.590   2.353 -0.5317 -0.4041  0.3159
 3219SOL    HW121116   2.838   1.540   2.278  0.5188  1.7607 -1.6136
 3219SOL    HW221117   2.889   1.523   2.419 -1.0380 -1.6479 -0.8177
 3220SOL     OW21118   2.204   1.350   2.001  0.6482  0.7733  0.4966
 3220SOL    HW121119   2.178   1.371   1.911  0.2237  1.8557  0.8769
 3220SOL    HW221120   2.194   1.439   2.035 -1.8249  0.4850  0.4611
 3221SOL     OW21121   0.907   3.490   4.635 -0.2333  0.1143 -0.2405
 3221SOL    HW121122   0.981   3.451   4.681 -0.8504  2.1610  2.5462
 3221SOL    HW221123   0.838   3.489   4.702  0.2571  2.0582  0.3221
 3222SOL     OW21124   2.957   1.559   7.272  0.7182 -0.5680  0.5243
 3222SOL    HW121125   2.908   1.542   7.191 -0.2866 -0.4855  1.1050
 3222SOL    HW221126   2.940   1.653   7.283 -1.8673 -0.8564 -0.9231
 3223SOL     OW21127   4.356   3.864  15.211  0.5650  0.2840 -0.1490
 3223SOL    HW121128   4.427   3.860  15.146  0.8073 -2.4017  0.2572
 3223SOL    HW221129   4.310   3.947  15.203 -0.2521 -0.2542 -1.0575
 3224SOL     OW21130   0.409   3.908  10.136 -0.5471  0.2681 -0.3778
 3224SOL    HW121131   0.326   3.915  10.182 -0.0730 -0.1934  0.5457
 3224SOL    HW221132   0.439   3.830  10.183 -1.2074  0.2058 -0.0613
 3225SOL     OW21133   1.484   3.076  11.209 -0.3160  0.3982 -0.2361
 3225SOL    HW121134   1.573   3.107  11.196 -0.1138  0.0001  0.1842
 3225SOL    HW221135   1.456   3.091  11.119 -0.9442 -2.3264 -0.4860
 3226SOL     OW21136   3.192   0.939   8.299  0.9011  0.0406  0.1350
 3226SOL    HW121137   3.233   1.019   8.334 -0.3101  0.1283  1.3697
 3226SOL    HW221138   3.107   0.949   8.341 -0.7078  1.5481 -3.5686
 3227SOL     OW21139   1.208   0.367   8.683 -0.1037 -0.6304  0.0292
 3227SOL    HW121140   1.194   0.323   8.599 -0.2212 -0.7043  0.0879
 3227SOL    HW221141   1.144   0.438   8.673  0.4548 -0.0375  0.6806
 3228SOL     OW21142   0.787   0.552   8.218 -0.0313 -0.0200 -0.6514
 3228SOL    HW121143   0.806   0.605   8.140  1.7510  0.2791 -0.0131
 3228SOL    HW221144   0.805   0.464   8.186  2.9743  0.6217 -0.6986
 3229SOL     OW21145   0.651   1.345   3.693  0.7936  0.5040 -0.7401
 3229SOL    HW121146   0.607   1.270   3.734  1.2736  1.4754  1.5732
 3229SOL    HW221147   0.601   1.367   3.614 -1.3862  2.6885  1.2621
 3230SOL     OW21148   4.115   4.710   8.087 -0.1553  0.8186 -0.9233
 3230SOL    HW121149   4.024   4.692   8.109  0.4740 -0.4936  0.5907
 3230SOL    HW221150   4.130   0.062   8.143  0.1034  0.7046 -0.8384
 3231SOL     OW21151   2.746   3.468   2.428 -0.3210 -0.9705  0.1227
 3231SOL    HW121152   2.818   3.523   2.459 -0.1466 -1.5383  0.7271
 3231SOL    HW221153   2.789   3.436   2.349  1.7910  0.1583  0.7976
 3232SOL     OW21154   2.854   3.990  10.543  0.0452  0.1289  0.2883
 3232SOL    HW121155   2.764   4.004  10.575  0.8408  0.8393  2.1928
 3232SOL    HW221156   2.829   3.997  10.451 -0.9514  0.8910  0.6082
 3233SOL     OW21157   0.581   2.929   6.545  0.6235 -0.5888  0.4071
 3233SOL    HW121158   0.628   2.969   6.471  1.8465 -3.9821 -0.6301
 3233SOL    HW221159   0.510   2.994   6.550 -0.3639 -1.6161 -0.1906
 3234SOL     OW21160   4.424   0.947   3.470 -0.0328 -0.0968  0.0756
 3234SOL    HW121161   4.433   0.929   3.563 -0.1960  1.1078  0.3217
 3234SOL    HW221162   4.425   1.042   3.469  1.2079 -0.0615  3.9444
 3235SOL     OW21163   2.770   1.253   1.975  0.1617  0.1353 -0.3390
 3235SOL    HW121164   2.738   1.164   1.958 -1.3508  0.9952 -2.0454
 3235SOL    HW221165   2.722   1.302   1.908  2.5701  0.3701 -1.9049
 3236SOL     OW21166   3.197   1.275   6.553 -0.2303 -0.1975 -0.1826
 3236SOL    HW121167   3.122   1.270   6.494  0.4377  2.5210 -1.2739
 3236SOL    HW221168   3.210   1.187   6.587  1.8019  0.3572  0.4358
 3237SOL     OW21169   0.537   1.539   7.451  0.0447  0.7385  0.2629
 3237SOL    HW121170   0.494   1.481   7.515  0.3709 -0.1061 -0.2894
 3237SOL    HW221171   0.475   1.537   7.378  0.5849 -0.5358 -0.1725
 3238SOL     OW21172   0.312   4.721   2.332 -0.4515  0.2573  0.2778
 3238SOL    HW121173   0.310   0.082   2.376  0.5963  2.0943 -3.2122
 3238SOL    HW221174   0.218   4.707   2.318 -0.2228 -1.7157  0.6582
 3239SOL     OW21175   1.906   1.912   5.521  0.2090  0.2216  0.3507
 3239SOL    HW121176   1.831   1.861   5.553  0.2544 -0.1684 -0.1608
 3239SOL    HW221177   1.898   1.991   5.574 -0.1529 -0.5587  1.4377
 3240SOL     OW21178   0.142   2.154   5.319 -0.4995 -0.2800 -0.3056
 3240SOL    HW121179   0.073   2.174   5.382  0.9176  0.5921  0.9576
 3240SOL    HW221180   0.178   2.243   5.317 -0.7830 -0.1923 -1.6557
 3241SOL     OW21181   0.011   2.521   8.401  0.3746  0.0310  0.4222
 3241SOL    HW121182   0.032   2.603   8.445 -1.3653  1.3946 -1.2432
 3241SOL    HW221183   4.669   2.554   8.339 -0.1271  2.1617  2.0975
 3242SOL     OW21184   4.417   2.190   8.609 -0.3550 -0.2266 -0.0936
 3242SOL    HW121185   4.335   2.231   8.582 -1.9411 -3.4008 -0.0604
 3242SOL    HW221186   4.420   2.216   8.701 -1.1457  1.7375 -0.6204
 3243SOL     OW21187   1.114   3.436   5.797  0.0976 -0.3464 -0.2646
 3243SOL    HW121188   1.177   3.376   5.756  0.4240  0.4692 -0.9517
 3243SOL    HW221189   1.033   3.389   5.774 -1.2759  2.9361 -2.1062
 3244SOL     OW21190   2.770   2.624   4.922  0.5849 -0.2024  0.0504
 3244SOL    HW121191   2.829   2.558   4.959  1.3485  1.0598  1.0760
 3244SOL    HW221192   2.708   2.570   4.874 -0.2979  1.1723 -0.3651
 3245SOL     OW21193   3.080   3.336  16.730  0.3192  0.7244 -0.1817
 3245SOL    HW121194   3.000   3.313  16.776  0.2642 -2.3013 -1.8035
 3245SOL    HW221195   3.094   3.261  16.672 -1.8671  1.3112 -1.4552
 3246SOL     OW21196   4.167   4.007   4.440  0.0923 -0.0723  0.0127
 3246SOL    HW121197   4.171   3.913   4.421 -1.2429  0.4484 -2.9027
 3246SOL    HW221198   4.127   4.020   4.526 -0.7217 -1.6377 -0.1202
 3247SOL     OW21199   4.071   3.660   1.905 -0.1974 -0.1546  0.2361
 3247SOL    HW121200   4.166   3.646   1.905 -0.5203 -2.4436  1.0175
 3247SOL    HW221201   4.058   3.597   1.834  2.1013 -1.7296  1.1912
 3248SOL     OW21202   3.184   3.652   8.675  0.4283 -0.1976 -0.3340
 3248SOL    HW121203   3.181   3.693   8.589 -0.9496 -1.6239 -0.9672
 3248SOL    HW221204   3.241   3.576   8.666  2.4254  1.5078 -1.9623
 3249SOL     OW21205   3.311   2.339   9.657  0.3282  0.2375 -0.5120
 3249SOL    HW121206   3.238   2.400   9.666 -0.5743 -0.7144 -1.3621
 3249SOL    HW221207   3.273   2.251   9.666  1.7945 -0.2442  0.9830
 3250SOL     OW21208   4.048   4.542  17.146 -0.1457 -0.1302  0.2794
 3250SOL    HW121209   4.130   4.561  17.191 -1.1926 -0.2562  2.2706
 3250SOL    HW221210   4.031   4.459  17.191  1.0579 -0.8143 -0.5437
 3251SOL     OW21211   1.125   3.988   2.365  0.4305  0.1439 -0.0315
 3251SOL    HW121212   1.069   4.066   2.370 -1.3071 -1.0640 -0.7153
 3251SOL    HW221213   1.183   4.010   2.437  0.2042 -0.7693  0.4295
 3252SOL     OW21214   1.660   4.072   9.617 -0.1003 -0.5213  0.4040
 3252SOL    HW121215   1.708   4.148   9.650 -0.3774  0.0716 -0.5486
 3252SOL    HW221216   1.640   4.100   9.528 -1.6806 -1.7682  0.3731
 3253SOL     OW21217   4.091   1.627   6.481  0.1360  0.0372 -0.2508
 3253SOL    HW121218   4.061   1.558   6.423  0.4441 -2.8159  3.0022
 3253SOL    HW221219   4.143   1.573   6.539  0.4160 -0.8407 -1.3201
 3254SOL     OW21220   1.500   3.072   5.081 -0.1627  0.3052 -0.3296
 3254SOL    HW121221   1.561   3.047   5.011  1.3161  0.8064  0.7937
 3254SOL    HW221222   1.471   2.982   5.101 -0.1769  0.1806 -0.9064
 3255SOL     OW21223   4.455   2.668   0.915 -0.0445  0.3766  0.1053
 3255SOL    HW121224   4.460   2.729   0.988  1.2257  0.4416 -0.0363
 3255SOL    HW221225   4.387   2.701   0.856 -0.5982  1.4786  1.3616
 3256SOL     OW21226   3.037   0.425   2.481  0.4235 -0.2389  0.1316
 3256SOL    HW121227   3.093   0.474   2.541 -0.4390  1.9425 -0.8647
 3256SOL    HW221228   2.957   0.476   2.468 -0.0822 -1.1238 -0.3058
 3257SOL     OW21229   4.079   0.313   6.828  0.0625 -0.6961 -0.6610
 3257SOL    HW121230   4.018   0.366   6.879 -0.5790  0.0121 -2.1462
 3257SOL    HW221231   4.141   0.279   6.893 -2.1197 -0.4405  1.5309
 3258SOL     OW21232   0.959   2.281   2.007 -0.5804  0.2718 -0.3038
 3258SOL    HW121233   0.930   2.248   2.092 -1.5555  1.1503 -0.2896
 3258SOL    HW221234   0.987   2.198   1.970 -1.7153 -0.5067  0.5859
 3259SOL     OW21235   0.768   4.241   7.800  0.6525  0.3456 -0.3729
 3259SOL    HW121236   0.734   4.160   7.763  0.4001  0.5311 -0.5428
 3259SOL    HW221237   0.862   4.222   7.804  0.5668  0.2218  1.1378
 3260SOL     OW21238   0.975   3.015   1.943  0.1221  0.1981  0.3194
 3260SOL    HW121239   0.989   3.021   1.849  0.0976 -1.7952  0.1759
 3260SOL    HW221240   1.012   2.929   1.963  1.6777  0.9600  0.7113
 3261SOL     OW21241   2.737   3.562  14.878 -0.3189 -0.1658  0.3109
 3261SOL    HW121242   2.813   3.537  14.825 -0.3398 -1.5294  0.9263
 3261SOL    HW221243   2.674   3.588  14.811  0.9994 -0.9922 -1.2591
 3262SOL     OW21244   2.965   1.099   9.191 -0.2702 -0.1544  0.5389
 3262SOL    HW121245   2.964   1.175   9.251  2.1897 -0.8854  1.4876
 3262SOL    HW221246   2.916   1.045   9.254 -0.3710  0.4081  0.9506
 3263SOL     OW21247   4.019   3.995  12.325 -0.0314 -0.5509  0.5349
 3263SOL    HW121248   4.015   4.049  12.246 -2.7487 -0.2060  0.9188
 3263SOL    HW221249   3.995   3.906  12.300 -0.8808 -0.5785  1.4396
 3264SOL     OW21250   1.481   0.303   8.705 -0.0895  0.1058  0.3267
 3264SOL    HW121251   1.386   0.300   8.703 -0.0692  0.5441 -1.5953
 3264SOL    HW221252   1.499   0.275   8.615 -2.5394  0.9717 -0.4123
 3265SOL     OW21253   3.789   3.634   2.932  0.1697 -0.1408  0.0071
 3265SOL    HW121254   3.704   3.654   2.892  0.7590  1.4501 -0.4320
 3265SOL    HW221255   3.825   3.723   2.938 -3.5164  1.2974  1.4023
 3266SOL     OW21256   0.055   3.747  16.934  0.1611  0.3436  0.1510
 3266SOL    HW121257   0.136   3.791  16.955 -0.9242  2.2282  0.3711
 3266SOL    HW221258   0.052   3.741  16.838  1.2781  1.5788  0.0506
 3267SOL     OW21259   4.472   3.290   4.318 -0.0301  0.1502 -0.2113
 3267SOL    HW121260   4.449   3.213   4.369  1.9617  0.8234  1.6829
 3267SOL    HW221261   4.543   3.308   4.379 -1.0460  2.3679  0.3483
 3268SOL     OW21262   4.562   2.482   6.012  0.1897  0.1581 -0.0425
 3268SOL    HW121263   4.544   2.564   6.058  2.8227  0.8348 -0.2424
 3268SOL    HW221264   4.507   2.425   6.067  0.1510 -1.0847 -1.3620
 3269SOL     OW21265   3.085   1.812  14.437  0.0302 -0.7086  0.1775
 3269SOL    HW121266   3.137   1.851  14.367  2.6167 -2.9670  0.8356
 3269SOL    HW221267   3.011   1.872  14.430  0.1218 -0.6362 -0.1552
 3270SOL     OW21268   0.102   0.411   2.679  0.2355  0.0069 -0.5032
 3270SOL    HW121269   0.117   0.490   2.627  1.1227  0.8864  1.0669
 3270SOL    HW221270   0.051   0.360   2.617 -1.8051  0.3867  0.8714
 3271SOL     OW21271   4.311   0.564  11.200  0.1199 -0.1570  0.1213
 3271SOL    HW121272   4.353   0.621  11.136  2.4936 -1.5609  0.3755
 3271SOL    HW221273   4.250   0.623  11.243  2.3373  1.8352  0.5304
 3272SOL     OW21274   3.796   4.277  16.902  1.0087  0.6089 -0.3783
 3272SOL    HW121275   3.858   4.264  16.974 -0.2161 -0.5021  0.4774
 3272SOL    HW221276   3.713   4.258  16.947  0.5077  2.8830 -0.3111
 3273SOL     OW21277   4.261   3.919   3.348  0.6995 -0.6084  0.2441
 3273SOL    HW121278   4.226   3.993   3.398  0.0620  0.4523 -1.7961
 3273SOL    HW221279   4.315   3.957   3.278 -0.0751 -0.1670 -0.1149
 3274SOL     OW21280   3.118   1.570   1.766  0.1557  0.0123  0.0649
 3274SOL    HW121281   3.065   1.515   1.708  1.7891  0.2437 -1.6421
 3274SOL    HW221282   3.154   1.506   1.827  0.3773  0.1966  0.1244
 3275SOL     OW21283   3.611   1.149   6.540  0.1533  0.1630 -0.4514
 3275SOL    HW121284   3.678   1.107   6.594 -0.1510  1.0490  0.5937
 3275SOL    HW221285   3.664   1.180   6.467 -0.2211 -2.4947 -1.8812
 3276SOL     OW21286   4.484   2.344  15.314 -0.0451 -0.2590  0.3255
 3276SOL    HW121287   4.460   2.429  15.278  1.3771  0.3641  0.8215
 3276SOL    HW221288   4.449   2.351  15.403 -0.2030 -1.7897  0.3824
 3277SOL     OW21289   3.547   4.354   6.135  0.4072 -0.0626  0.2414
 3277SOL    HW121290   3.628   4.329   6.178  1.4650  2.9090 -0.0677
 3277SOL    HW221291   3.507   4.423   6.188  0.5381 -0.0643  0.3420
 3278SOL     OW21292   0.912   1.263   5.518 -0.3538  0.9673 -0.3106
 3278SOL    HW121293   0.963   1.209   5.578  0.8706  1.8485 -0.5631
 3278SOL    HW221294   0.837   1.203   5.513 -0.4660  1.0064  1.0355
 3279SOL     OW21295   3.178   2.611   1.305  0.0975  0.6295 -0.2366
 3279SOL    HW121296   3.117   2.539   1.320 -0.8832  1.5741  0.2407
 3279SOL    HW221297   3.233   2.571   1.237  1.0563 -0.7965  1.3876
 3280SOL     OW21298   2.191   4.533  13.998 -0.3880 -0.8928 -0.4607
 3280SOL    HW121299   2.275   4.567  14.027 -0.6345 -2.6213  2.2221
 3280SOL    HW221300   2.205   4.501  13.908  1.8962 -2.1848  0.3555
 3281SOL     OW21301   1.346   0.060   5.463 -0.0850 -0.2356 -0.9490
 3281SOL    HW121302   1.370   0.126   5.527  1.5335 -1.6791 -0.0664
 3281SOL    HW221303   1.328   4.715   5.527  1.2164  1.4465  1.1996
 3282SOL     OW21304   3.686   2.549   2.322 -0.1866 -0.1482  0.3344
 3282SOL    HW121305   3.721   2.555   2.233 -2.2684  1.3798 -0.3968
 3282SOL    HW221306   3.609   2.494   2.307 -0.0271 -0.7097  1.6060
 3283SOL     OW21307   1.269   0.848   6.989 -0.1515  0.4090  0.4829
 3283SOL    HW121308   1.341   0.825   6.930 -0.5332 -2.6833  1.2543
 3283SOL    HW221309   1.317   0.884   7.063  0.4106 -1.3347  0.9403
 3284SOL     OW21310   2.939   2.741   8.510  0.3318  0.1410 -0.0577
 3284SOL    HW121311   2.879   2.668   8.518  1.3711 -0.6945  0.1204
 3284SOL    HW221312   3.016   2.684   8.513 -1.4683 -2.2289  0.4981
 3285SOL     OW21313   0.924   1.720   4.492  0.3013  0.4502 -0.4709
 3285SOL    HW121314   0.938   1.695   4.401  0.1590  0.7115 -0.5612
 3285SOL    HW221315   0.939   1.632   4.527  1.9309  1.5905  1.7322
 3286SOL     OW21316   3.057   2.925   5.152 -0.4591 -0.1012  0.2211
 3286SOL    HW121317   3.055   2.848   5.095  1.7751 -1.1823  1.5943
 3286SOL    HW221318   3.149   2.926   5.181 -0.4902 -0.5119  0.3394
 3287SOL     OW21319   2.676   2.908   4.997 -0.4218  0.4631  0.1902
 3287SOL    HW121320   2.693   2.992   5.040  0.9921 -0.3019  1.0995
 3287SOL    HW221321   2.760   2.889   4.955  0.2824  0.7959  1.4683
 3288SOL     OW21322   1.920   1.219   4.162  0.0062  0.5441  0.0596
 3288SOL    HW121323   1.943   1.127   4.173 -0.5125  0.5079  0.7859
 3288SOL    HW221324   1.852   1.233   4.227  0.5209 -3.1423  1.4258
 3289SOL     OW21325   2.341   0.305   4.482 -0.0248  0.5018 -0.2279
 3289SOL    HW121326   2.283   0.235   4.452  1.1076 -0.3296 -0.4458
 3289SOL    HW221327   2.326   0.368   4.411 -1.0798  0.8070  0.2609
 3290SOL     OW21328   0.458   2.943  17.604  0.3499 -0.0102 -0.1191
 3290SOL    HW121329   0.474   3.023  17.554 -1.7600 -0.8305 -2.1002
 3290SOL    HW221330   0.529   2.926  17.667  0.4328  1.1823  0.1046
 3291SOL     OW21331   1.042   0.718   2.282 -0.2961 -0.2916 -0.3139
 3291SOL    HW121332   1.079   0.753   2.201  3.0546  0.8346  1.7051
 3291SOL    HW221333   0.985   0.793   2.298  0.9003  0.6360 -0.4203
 3292SOL     OW21334   4.013   0.303   6.168 -0.0022 -0.2578  0.0895
 3292SOL    HW121335   3.954   0.369   6.204 -1.0726 -2.3997  2.2331
 3292SOL    HW221336   3.971   0.286   6.084  0.2700 -0.4920  0.0022
 3293SOL     OW21337   3.128   1.040  16.333 -0.2361  0.1749  0.1225
 3293SOL    HW121338   3.151   1.097  16.406  0.8302  1.4714 -1.2219
 3293SOL    HW221339   3.149   0.957  16.376 -2.6581 -1.0954 -1.1479
 3294SOL     OW21340   3.688   0.463   5.442 -0.0861  0.5265  0.3347
 3294SOL    HW121341   3.708   0.488   5.352 -1.7099 -0.0129 -0.1784
 3294SOL    HW221342   3.617   0.525   5.458  1.2792  2.0889  0.2865
 3295SOL     OW21343   4.153   4.302   2.092  0.0040 -0.2206  0.0798
 3295SOL    HW121344   4.168   4.321   1.999  2.8816 -1.7468  0.2185
 3295SOL    HW221345   4.216   4.366   2.126  0.9942 -0.7484 -0.7295
 3296SOL     OW21346   1.584   3.499  10.190 -0.1527 -0.0452  0.1995
 3296SOL    HW121347   1.614   3.510  10.280  1.2012  0.8245 -0.3708
 3296SOL    HW221348   1.514   3.564  10.188 -0.7137 -0.7189 -3.1147
 3297SOL     OW21349   0.036   0.828   5.421  1.2148 -0.8709  0.5580
 3297SOL    HW121350   0.068   0.846   5.509  0.5471 -1.4613  0.9225
 3297SOL    HW221351   0.099   0.759   5.399 -0.8848 -3.1366  1.5141
 3298SOL     OW21352   0.198   3.019   0.168 -0.4268  0.0797  0.9314
 3298SOL    HW121353   0.194   3.074   0.090  1.7867 -1.0925 -0.0131
 3298SOL    HW221354   0.267   3.057   0.223 -0.1507  0.0394  0.6168
 3299SOL     OW21355   0.603   3.307   2.118  0.3944  0.1605  0.0696
 3299SOL    HW121356   0.546   3.380   2.095  0.6937 -0.2123 -1.8593
 3299SOL    HW221357   0.619   3.254   2.040  0.5732  2.1925 -1.2565
 3300SOL     OW21358   3.469   2.177   1.298 -0.4004 -0.2879 -0.4212
 3300SOL    HW121359   3.451   2.149   1.209 -2.8509  0.0554 -0.0174
 3300SOL    HW221360   3.378   2.196   1.320 -0.3777 -1.7823  1.0032
 3301SOL     OW21361   1.536   4.701   0.548  0.6799  0.0411 -0.3636
 3301SOL    HW121362   1.519   0.059   0.502  0.8373 -1.0630 -2.3693
 3301SOL    HW221363   1.495   4.714   0.634 -1.0138  1.0327 -1.3104
 3302SOL     OW21364   1.979   2.289   8.430 -0.0001 -0.3445 -0.4072
 3302SOL    HW121365   1.894   2.332   8.439  0.1905 -0.1780  0.5352
 3302SOL    HW221366   1.967   2.238   8.510  0.2023  1.8444  1.0157
 3303SOL     OW21367   1.699   2.231   6.820 -0.3012 -0.2977  0.2726
 3303SOL    HW121368   1.744   2.148   6.828 -0.7657 -0.6828 -1.1384
 3303SOL    HW221369   1.756   2.281   6.761 -3.1558  2.9398  0.2217
 3304SOL     OW21370   3.368   1.079   6.635 -0.0292  0.6610  0.0650
 3304SOL    HW121371   3.449   1.107   6.591 -0.6514 -0.1040 -1.5425
 3304SOL    HW221372   3.334   1.019   6.569 -0.1671 -1.4482  2.0768
 3305SOL     OW21373   3.966   3.261   2.453 -0.3578 -0.1706 -0.4743
 3305SOL    HW121374   3.929   3.331   2.507 -0.1241 -0.0115 -0.5213
 3305SOL    HW221375   3.955   3.300   2.366 -0.8572  0.9007  0.0604
 3306SOL     OW21376   4.394   0.931   2.936 -0.1472  0.0994 -0.2015
 3306SOL    HW121377   4.408   0.922   2.842 -1.7501 -0.7412 -0.3425
 3306SOL    HW221378   4.365   0.843   2.959 -0.8787  0.0119 -1.4599
 3307SOL     OW21379   3.658   3.964   8.582  0.7439 -0.2620 -0.1585
 3307SOL    HW121380   3.676   3.986   8.674 -0.9050  1.2281 -0.1916
 3307SOL    HW221381   3.576   4.012   8.573  1.5937  0.8065 -2.1257
 3308SOL     OW21382   4.507   4.372   4.358  0.1759  0.1812 -0.3269
 3308SOL    HW121383   4.451   4.301   4.326  0.0454  0.7353 -1.3177
 3308SOL    HW221384   4.441   4.439   4.373  0.7970  0.7938 -0.3052
 3309SOL     OW21385   3.271   2.126  13.297  0.5763 -0.0992  0.6475
 3309SOL    HW121386   3.229   2.158  13.377  1.2549  1.7391  0.2834
 3309SOL    HW221387   3.303   2.205  13.253 -1.9342  0.3570 -0.3415
 3310SOL     OW21388   2.670   4.558   5.574 -0.6370 -0.6619  0.3098
 3310SOL    HW121389   2.730   4.496   5.616 -1.5751 -0.5369  1.8392
 3310SOL    HW221390   2.728   4.630   5.550  1.9135 -2.6172  0.6268
 3311SOL     OW21391   0.601   1.081   2.068 -0.0736 -0.3498 -0.3256
 3311SOL    HW121392   0.544   1.026   2.123 -0.0969  0.4078  0.3951
 3311SOL    HW221393   0.565   1.168   2.082  1.1577  0.3857 -1.8402
 3312SOL     OW21394   1.716   1.017   6.858  0.0279  0.6882 -0.1744
 3312SOL    HW121395   1.639   1.006   6.915 -1.2895 -0.9294 -2.2778
 3312SOL    HW221396   1.679   0.993   6.773 -0.1062  1.8492 -0.4393
 3313SOL     OW21397   3.752   4.271  10.689 -0.0432  0.1554  0.2174
 3313SOL    HW121398   3.738   4.332  10.616  0.3419 -1.1673 -0.9424
 3313SOL    HW221399   3.660   4.274  10.718  0.2480 -0.4591  1.2011
 3314SOL     OW21400   4.431   4.644   4.458 -0.4152  0.0224  0.4888
 3314SOL    HW121401   4.493   4.624   4.528 -1.5224 -1.2618  1.0954
 3314SOL    HW221402   4.407   0.007   4.492 -0.9958  0.5534 -1.2489
 3315SOL     OW21403   4.136   3.482  13.883 -0.4981 -0.2694 -0.3039
 3315SOL    HW121404   4.160   3.508  13.972  0.6854 -2.6275  0.0715
 3315SOL    HW221405   4.198   3.538  13.835  0.6829 -1.3509 -0.0354
 3316SOL     OW21406   0.730   4.387   8.037 -0.1743 -0.0611 -0.1703
 3316SOL    HW121407   0.748   4.316   7.975  0.1729 -1.3937  1.4784
 3316SOL    HW221408   0.640   4.408   8.011  0.4064 -0.6491 -2.7088
 3317SOL     OW21409   2.880   2.867   7.527 -0.2389 -0.2414  0.2179
 3317SOL    HW121410   2.881   2.836   7.436 -3.0741  0.3322  0.0084
 3317SOL    HW221411   2.942   2.940   7.529 -0.9817  0.4310 -1.0904
 3318SOL     OW21412   2.833   3.993  14.011  0.1311  0.4968 -0.1060
 3318SOL    HW121413   2.840   4.080  14.050  2.1760 -0.1685  1.0076
 3318SOL    HW221414   2.766   3.958  14.069 -1.2982 -0.6989 -2.4786
 3319SOL     OW21415   4.637   3.339   6.679  0.5566  0.0531 -0.1479
 3319SOL    HW121416   4.588   3.273   6.629  1.0029 -0.7947  0.5373
 3319SOL    HW221417   4.644   3.292   6.762  0.2775  2.8910  1.4784
 3320SOL     OW21418   1.533   1.599   0.737 -0.4444  0.1880 -0.1730
 3320SOL    HW121419   1.510   1.532   0.802  0.0023  0.7221  0.5453
 3320SOL    HW221420   1.464   1.575   0.676 -0.3964  0.6704 -0.4161
 3321SOL     OW21421   4.117   1.283   2.981  0.4367  0.0669  0.2872
 3321SOL    HW121422   4.163   1.303   2.899 -1.3607  0.5094 -0.5935
 3321SOL    HW221423   4.150   1.196   3.004  0.2105 -0.1392 -0.1738
 3322SOL     OW21424   2.570   4.310   4.772 -0.0370  0.3941  0.2862
 3322SOL    HW121425   2.490   4.267   4.803 -0.7815  0.2145 -1.8957
 3322SOL    HW221426   2.571   4.386   4.830  0.2135  0.8250 -0.2921
 3323SOL     OW21427   0.811   2.511   3.237  0.4645 -0.3877 -0.7927
 3323SOL    HW121428   0.842   2.471   3.156  1.1481  0.2661 -0.8533
 3323SOL    HW221429   0.721   2.479   3.239  0.5270 -0.5407 -0.4751
 3324SOL     OW21430   2.849   3.324   3.217  0.4298 -0.1684  0.0468
 3324SOL    HW121431   2.791   3.253   3.190  0.6072  0.3434 -1.6748
 3324SOL    HW221432   2.896   3.346   3.137  1.1916 -0.1105  0.5155
 3325SOL     OW21433   1.369   3.279  17.604  0.3673  0.0625  0.4274
 3325SOL    HW121434   1.330   3.230  17.533  1.7002  0.9871 -0.9369
 3325SOL    HW221435   1.353   3.217  17.675 -2.3186  0.3617  0.1039
 3326SOL     OW21436   3.646   1.743   3.626  0.0216 -0.6285 -0.8035
 3326SOL    HW121437   3.695   1.661   3.618  0.5214 -0.4049 -0.0093
 3326SOL    HW221438   3.702   1.801   3.575 -1.7078  0.5028 -1.4301
 3327SOL     OW21439   0.303   0.421   9.160  0.0045  0.2535  0.1586
 3327SOL    HW121440   0.325   0.514   9.164 -1.9830  0.8016 -1.8665
 3327SOL    HW221441   0.288   0.410   9.254  0.2503  0.2357  0.1955
 3328SOL     OW21442   1.490   1.720   5.019 -0.2274 -0.0228  0.5649
 3328SOL    HW121443   1.402   1.735   5.053 -0.3825 -0.6792  0.4469
 3328SOL    HW221444   1.494   1.784   4.948  0.0511 -1.3253 -0.5959
 3329SOL     OW21445   1.968   0.056   3.489  0.2982 -0.1469 -0.3377
 3329SOL    HW121446   1.944   0.063   3.396 -1.6654 -0.5805  0.1302
 3329SOL    HW221447   1.893   0.108   3.514  0.1759 -0.5391  0.1037
 3330SOL     OW21448   1.192   4.144  15.940 -0.0454 -0.5628 -0.1202
 3330SOL    HW121449   1.132   4.109  16.005 -0.7435 -0.9232 -0.9660
 3330SOL    HW221450   1.217   4.060  15.902  0.3392 -0.0830 -0.9573
 3331SOL     OW21451   2.580   1.147  12.611 -0.0146 -0.1744  0.5410
 3331SOL    HW121452   2.589   1.174  12.519 -0.3025 -1.6740  0.0763
 3331SOL    HW221453   2.669   1.167  12.641  0.0534 -1.5102  1.2303
 3332SOL     OW21454   0.854   1.658   3.122 -0.2098 -0.1818 -0.0501
 3332SOL    HW121455   0.798   1.705   3.183  0.6918  1.2431 -0.3139
 3332SOL    HW221456   0.935   1.652   3.173  1.0980 -0.1408 -2.1439
 3333SOL     OW21457   0.294   3.538   5.014 -0.2211 -0.0313  0.1090
 3333SOL    HW121458   0.259   3.627   5.009  2.0833  0.8024 -0.9251
 3333SOL    HW221459   0.383   3.552   4.983 -0.0423 -0.9258  0.2074
 3334SOL     OW21460   0.880   0.945   2.152 -0.4334 -0.5905 -0.3186
 3334SOL    HW121461   0.805   0.992   2.116 -0.0713  0.5816  0.4320
 3334SOL    HW221462   0.906   0.894   2.075 -0.6018 -0.9523 -0.1364
 3335SOL     OW21463   4.499   3.174  10.631  0.0044  0.3523 -0.0009
 3335SOL    HW121464   4.442   3.233  10.582  0.0133  1.9714  1.9166
 3335SOL    HW221465   4.450   3.092  10.632  1.9836 -0.8410 -1.0615
 3336SOL     OW21466   2.075   1.740  11.756  0.4867  0.2417 -0.0146
 3336SOL    HW121467   2.055   1.829  11.726  0.8974  0.9134  1.6648
 3336SOL    HW221468   2.150   1.757  11.813 -0.9932  2.0384  1.4316
 3337SOL     OW21469   0.937   1.454  17.433 -0.1355 -0.5112 -0.2475
 3337SOL    HW121470   0.929   1.544  17.463 -0.0847 -0.5031 -0.2577
 3337SOL    HW221471   0.849   1.422  17.452 -1.1422  2.3049 -0.1956
 3338SOL     OW21472   0.444   2.966   3.873  0.6121  0.0042 -0.1276
 3338SOL    HW121473   0.395   2.937   3.796 -2.4426  1.2488  1.3510
 3338SOL    HW221474   0.401   2.915   3.941  0.9616 -0.0744  0.0370
 3339SOL     OW21475   4.173   2.773   5.180  0.4141  0.1447  0.4914
 3339SOL    HW121476   4.124   2.825   5.245 -0.8340 -2.0415  1.2950
 3339SOL    HW221477   4.180   2.691   5.229 -1.1701  0.0129  0.4878
 3340SOL     OW21478   2.681   2.314   7.767 -0.1739  0.1748 -0.8849
 3340SOL    HW121479   2.659   2.282   7.855  1.6913  1.3842  0.0138
 3340SOL    HW221480   2.745   2.383   7.784 -0.3984  0.5544 -1.6167
 3341SOL     OW21481   2.546   4.047   4.028  0.0478  0.0322 -0.5983
 3341SOL    HW121482   2.462   4.070   4.067  0.8691  2.0559 -0.0023
 3341SOL    HW221483   2.538   4.109   3.955 -1.7096  0.0380 -0.4109
 3342SOL     OW21484   4.186   2.482   4.172  0.2462  0.4675  0.1233
 3342SOL    HW121485   4.100   2.490   4.130 -0.4733 -1.0699  1.3113
 3342SOL    HW221486   4.248   2.501   4.102  2.2901 -1.4235  1.4217
 3343SOL     OW21487   4.214   2.346  13.889  0.2563 -0.3335  0.1198
 3343SOL    HW121488   4.156   2.421  13.876  1.4070  0.2861 -1.4119
 3343SOL    HW221489   4.156   2.271  13.871  1.3307 -0.5039 -2.6747
 3344SOL     OW21490   3.962   0.205  11.101  0.1754  0.6529  0.0333
 3344SOL    HW121491   3.992   0.285  11.057  0.4221 -0.4368 -1.7916
 3344SOL    HW221492   3.977   0.229  11.192 -1.0772  0.1403  0.3789
 3345SOL     OW21493   3.754   3.400  14.685 -0.3604 -0.4412 -0.6449
 3345SOL    HW121494   3.729   3.396  14.592 -1.3926  0.6875 -0.4165
 3345SOL    HW221495   3.670   3.433  14.719 -0.1706  0.2273 -0.8333
 3346SOL     OW21496   2.544   4.148   1.103  0.4248 -0.5356 -0.6341
 3346SOL    HW121497   2.616   4.095   1.068  0.6035 -1.5352  1.2337
 3346SOL    HW221498   2.470   4.098   1.067  0.4078  0.8058 -2.4644
 3347SOL     OW21499   3.713   1.818  10.212  0.3073  0.1443  0.1382
 3347SOL    HW121500   3.667   1.869  10.279 -0.1512 -0.6842  0.4536
 3347SOL    HW221501   3.788   1.876  10.200  1.8585 -1.8967  0.0656
 3348SOL     OW21502   2.233   1.852   7.592  0.0410  0.2848 -0.0193
 3348SOL    HW121503   2.269   1.774   7.633  2.1974 -1.0477 -4.4090
 3348SOL    HW221504   2.148   1.861   7.635 -0.4237 -1.7815 -0.5148
 3349SOL     OW21505   2.139   1.871  15.656  0.5508 -0.0536 -0.1142
 3349SOL    HW121506   2.163   1.958  15.624 -2.7447  0.6667 -0.6640
 3349SOL    HW221507   2.117   1.889  15.747  0.5736 -1.1362  0.1050
 3350SOL     OW21508   3.258   0.792  13.385 -0.3043  0.1159 -0.4477
 3350SOL    HW121509   3.201   0.816  13.459 -0.4354 -2.6704  0.3594
 3350SOL    HW221510   3.331   0.845  13.419 -1.7241  0.3600  2.2209
 3351SOL     OW21511   4.588   0.557  13.322 -0.7413  0.1872 -0.4325
 3351SOL    HW121512   4.639   0.549  13.242 -0.1359  0.4755 -0.0770
 3351SOL    HW221513   4.643   0.507  13.382 -2.2626  0.9555  1.6289
 3352SOL     OW21514   2.433   3.864   1.540 -0.0195 -0.1005 -0.1114
 3352SOL    HW121515   2.518   3.832   1.573 -0.9881 -1.5441  0.9769
 3352SOL    HW221516   2.459   3.881   1.449 -1.6037 -0.3140 -0.5968
 3353SOL     OW21517   1.667   2.332  10.974 -0.3469  0.4710 -0.0255
 3353SOL    HW121518   1.583   2.378  10.970 -0.7105 -0.2344 -0.4559
 3353SOL    HW221519   1.699   2.372  10.894  1.5714 -1.8602 -0.4320
 3354SOL     OW21520   4.023   1.086   0.804 -0.5581 -0.0070  0.1457
 3354SOL    HW121521   4.065   1.162   0.763 -0.2309 -0.0035  0.4920
 3354SOL    HW221522   4.030   1.114   0.895 -4.7106  0.6717  0.2602
 3355SOL     OW21523   4.583   4.356   4.725  0.1662 -0.3018  0.4002
 3355SOL    HW121524   4.635   4.383   4.649  0.0338  0.1865  0.4833
 3355SOL    HW221525   4.523   4.294   4.684 -0.2727  0.9019 -0.7846
 3356SOL     OW21526   2.654   3.908   0.605  0.4180  0.0704  0.0777
 3356SOL    HW121527   2.726   3.909   0.668  1.6064  0.6729 -1.2821
 3356SOL    HW221528   2.583   3.945   0.658  1.3237 -0.0200  1.3375
 3357SOL     OW21529   0.069   1.406   4.456 -0.3016 -0.1176  0.0979
 3357SOL    HW121530   0.153   1.362   4.472  0.1129  0.3616 -0.8132
 3357SOL    HW221531   0.029   1.336   4.405  1.4542 -1.2512  0.2520
 3358SOL     OW21532   0.522   2.271   3.411  0.4213 -0.1466 -0.5399
 3358SOL    HW121533   0.535   2.312   3.326  0.0245 -3.0930 -2.0269
 3358SOL    HW221534   0.486   2.337   3.470  0.8148 -0.3357 -0.0838
 3359SOL     OW21535   3.440   2.726   2.999 -0.0884 -0.0377 -0.6877
 3359SOL    HW121536   3.446   2.809   3.046 -1.9980 -0.2923  0.0311
 3359SOL    HW221537   3.496   2.669   3.050 -1.4776  1.0403  2.0340
 3360SOL     OW21538   0.268   1.161  15.418 -0.1199  0.1667  0.1676
 3360SOL    HW121539   0.288   1.242  15.372  1.9427  0.1052  0.9720
 3360SOL    HW221540   0.185   1.138  15.375 -1.1258  0.6406  1.8527
 3361SOL     OW21541   4.066   3.476   1.696  0.2538 -0.2079 -0.0033
 3361SOL    HW121542   4.159   3.472   1.675 -0.0799 -1.3005 -1.2898
 3361SOL    HW221543   4.039   3.557   1.651  1.4564 -0.6734 -1.5739
 3362SOL     OW21544   2.940   2.049   7.407  0.0887  0.1965  0.9655
 3362SOL    HW121545   2.865   2.085   7.454 -1.1702 -2.2606  0.8829
 3362SOL    HW221546   3.007   2.039   7.474  1.4911 -0.2683 -0.5049
 3363SOL     OW21547   4.578   4.151   1.793 -0.2641  0.5276  0.5823
 3363SOL    HW121548   4.583   4.057   1.775  0.3572  1.0684 -2.0482
 3363SOL    HW221549   4.516   4.185   1.728 -3.6238  0.4376  3.7300
 3364SOL     OW21550   0.034   1.541   0.212  0.2896 -0.2093  0.2125
 3364SOL    HW121551   0.086   1.549   0.292  0.0692  0.6290  0.2747
 3364SOL    HW221552   0.099   1.511   0.148  0.9993 -0.8559  1.2260
 3365SOL     OW21553   4.384   1.470   4.247  0.8516  0.2007  0.0389
 3365SOL    HW121554   4.425   1.450   4.163 -0.2106  2.8022 -1.0885
 3365SOL    HW221555   4.422   1.555   4.266  1.1261  0.0057  0.3575
 3366SOL     OW21556   0.307   4.271   1.458 -0.2733  0.1430 -0.6710
 3366SOL    HW121557   0.264   4.207   1.400  0.7544 -0.5543 -0.6745
 3366SOL    HW221558   0.392   4.226   1.456 -1.2691 -1.8127  2.5380
 3367SOL     OW21559   4.119   4.534   7.888  0.1036 -0.3863 -0.0958
 3367SOL    HW121560   4.030   4.526   7.852  0.2289 -1.2303 -0.2208
 3367SOL    HW221561   4.106   4.598   7.958  0.8950 -1.1856  0.7902
 3368SOL     OW21562   1.798   3.443   7.135 -0.0473 -0.0405  0.0395
 3368SOL    HW121563   1.777   3.360   7.092 -0.1688  0.0044  0.0120
 3368SOL    HW221564   1.888   3.427   7.163  0.7312  2.8303 -0.8677
 3369SOL     OW21565   1.463   2.009   3.762 -0.1811  0.2365  0.0476
 3369SOL    HW121566   1.529   2.076   3.780 -1.2702  0.7263  2.2769
 3369SOL    HW221567   1.499   1.967   3.684  0.2678  1.4679 -0.4109
 3370SOL     OW21568   4.001   1.562   2.520  0.4984  0.3906 -0.0712
 3370SOL    HW121569   3.998   1.657   2.508 -0.1326  0.7231  2.7469
 3370SOL    HW221570   4.071   1.552   2.583 -1.0318  0.1183  1.5932
 3371SOL     OW21571   0.441   3.475   0.658  0.4495  0.1169  0.1549
 3371SOL    HW121572   0.465   3.547   0.599 -0.5663 -0.0073 -0.4184
 3371SOL    HW221573   0.523   3.426   0.660  0.7195  0.5132 -1.1184
 3372SOL     OW21574   0.480   0.949   7.251  0.3866 -0.7018  0.4172
 3372SOL    HW121575   0.494   1.024   7.308 -2.0545 -0.4051  0.6395
 3372SOL    HW221576   0.386   0.955   7.236  0.9248  0.0045 -2.7550
 3373SOL     OW21577   3.270   1.537  17.272  0.0356 -0.5842  0.2667
 3373SOL    HW121578   3.289   1.458  17.321  4.6704  1.3734  1.6843
 3373SOL    HW221579   3.210   1.575  17.335  0.6158 -1.3648  1.2938
 3374SOL     OW21580   4.171   3.555  14.150  0.2881 -0.0472  0.0033
 3374SOL    HW121581   4.161   3.646  14.180 -4.4623  0.2222 -2.5122
 3374SOL    HW221582   4.238   3.520  14.210  2.8511  1.2931 -2.0410
 3375SOL     OW21583   1.217   2.837   9.513  0.8798  0.4863 -0.2171
 3375SOL    HW121584   1.217   2.809   9.605 -0.0674  0.9876 -0.0628
 3375SOL    HW221585   1.277   2.767   9.487 -0.6506 -0.6149 -0.7857
 3376SOL     OW21586   3.569   4.241   3.859 -0.2393  0.4393  0.6711
 3376SOL    HW121587   3.597   4.295   3.785  4.4417 -0.7098  1.5952
 3376SOL    HW221588   3.650   4.235   3.909  0.5681  2.3505 -0.4098
 3377SOL     OW21589   3.886   2.074   7.415  0.5403  0.0451  0.0066
 3377SOL    HW121590   3.897   2.077   7.510  2.9840  0.4401 -0.2836
 3377SOL    HW221591   3.794   2.050   7.404  0.5149 -0.4381  1.2220
 3378SOL     OW21592   0.126   1.352  14.640  0.0868 -0.2729  0.2357
 3378SOL    HW121593   0.125   1.373  14.734 -0.8710 -1.3309  0.4568
 3378SOL    HW221594   0.217   1.327  14.627  0.2565  0.5961 -0.2279
 3379SOL     OW21595   4.705   4.130  14.552  0.1386 -0.0952 -0.0653
 3379SOL    HW121596   0.010   4.098  14.638  1.2289 -0.8311 -0.7098
 3379SOL    HW221597   0.063   4.145  14.505  1.3103 -1.2938  1.5467
 3380SOL     OW21598   1.344   0.587   4.102 -0.2281 -0.0202  0.3341
 3380SOL    HW121599   1.384   0.529   4.166  1.8963 -0.3338 -1.2791
 3380SOL    HW221600   1.267   0.539   4.071 -1.3260  0.3627  2.4603
 3381SOL     OW21601   4.498   1.745   2.031  0.5106  0.1645  0.8357
 3381SOL    HW121602   4.476   1.821   2.085  0.5141  0.8751 -0.1583
 3381SOL    HW221603   4.544   1.683   2.087 -0.7773 -1.1920  0.4050
 3382SOL     OW21604   3.208   2.277   1.497 -0.2358 -1.0580  0.1781
 3382SOL    HW121605   3.159   2.359   1.506  0.8251 -0.4676  0.6500
 3382SOL    HW221606   3.141   2.231   1.447  1.9491 -2.1792 -1.7013
 3383SOL     OW21607   2.611   3.666  14.681 -0.5264 -0.3205 -0.6454
 3383SOL    HW121608   2.537   3.718  14.649 -1.2926  0.2095  1.9586
 3383SOL    HW221609   2.639   3.608  14.610 -1.6291 -1.4793 -0.1170
 3384SOL     OW21610   3.818   0.903   8.528  0.3044 -0.1063  0.3319
 3384SOL    HW121611   3.874   0.978   8.511 -0.7484  0.3717 -1.0353
 3384SOL    HW221612   3.835   0.895   8.622 -4.0345  1.5335  1.2743
 3385SOL     OW21613   1.764   3.144  12.861 -0.9252  0.1436  0.3115
 3385SOL    HW121614   1.695   3.089  12.898  1.0074 -0.7596  2.6024
 3385SOL    HW221615   1.844   3.110  12.901 -0.1861 -0.6142 -1.7863
 3386SOL     OW21616   0.289   4.287  16.603  0.3232 -0.6884  0.4405
 3386SOL    HW121617   0.236   4.261  16.679 -0.8680  1.3704  0.3195
 3386SOL    HW221618   0.234   4.257  16.531  1.8919 -0.3544 -0.9158
 3387SOL     OW21619   1.388   1.573  16.489 -0.2475  0.2981  0.2784
 3387SOL    HW121620   1.342   1.602  16.410 -0.1796  0.1882  0.1985
 3387SOL    HW221621   1.327   1.526  16.547 -0.8140 -0.4864 -0.9488
 3388SOL     OW21622   1.276   0.226   3.390 -0.1451 -0.2425  0.2525
 3388SOL    HW121623   1.316   0.306   3.423  3.1949 -1.2919 -1.2168
 3388SOL    HW221624   1.217   0.211   3.464 -0.8780  3.2387  0.3355
 3389SOL     OW21625   1.077   4.601   3.602  0.5977  0.0093 -0.0091
 3389SOL    HW121626   1.063   4.582   3.509 -0.5401 -2.9508  0.7475
 3389SOL    HW221627   1.140   4.529   3.609  1.3192  0.5409 -1.0493
 3390SOL     OW21628   0.171   0.974   6.610  0.0056 -0.4068  0.4966
 3390SOL    HW121629   0.136   1.058   6.640 -2.3836 -1.3064  0.2498
 3390SOL    HW221630   0.255   0.999   6.572  0.7166 -1.9462  1.0759
 3391SOL     OW21631   0.907   2.954   7.681 -0.1757 -0.2629  0.2442
 3391SOL    HW121632   0.920   2.871   7.726  1.9086 -0.1417 -0.1034
 3391SOL    HW221633   0.919   3.013   7.756 -2.1545  2.2744 -1.4274
 3392SOL     OW21634   2.145   0.375   3.640 -0.1614 -0.2389  0.1700
 3392SOL    HW121635   2.093   0.338   3.712 -2.9581  3.1851 -0.0642
 3392SOL    HW221636   2.226   0.404   3.682 -1.3543  0.5761  1.9442
 3393SOL     OW21637   3.990   0.745   7.293  0.6549 -0.0358  0.2671
 3393SOL    HW121638   3.992   0.836   7.322 -0.3065 -0.3491  1.2876
 3393SOL    HW221639   3.911   0.718   7.340  0.9183  1.4105  1.5275
 3394SOL     OW21640   2.263   0.746   2.287  0.4780  0.3057 -0.4886
 3394SOL    HW121641   2.279   0.652   2.277 -0.7524 -0.1076  1.5385
 3394SOL    HW221642   2.242   0.753   2.380 -0.0888  0.0741 -0.5970
 3395SOL     OW21643   3.445   0.739  14.048 -0.4455  0.3259  0.8934
 3395SOL    HW121644   3.470   0.815  14.100 -1.0730  0.7817  0.5262
 3395SOL    HW221645   3.461   0.772  13.959 -0.9190 -0.8411  0.3727
 3396SOL     OW21646   4.333   4.023   4.847 -0.2266  0.4260 -0.4365
 3396SOL    HW121647   4.267   4.002   4.780 -1.3093 -0.5124  0.9343
 3396SOL    HW221648   4.277   4.040   4.922 -0.7582  0.9742 -0.9508
 3397SOL     OW21649   2.868   2.642   0.762  0.0958 -0.4842  0.6912
 3397SOL    HW121650   2.810   2.566   0.761  0.0794 -0.4292 -2.6842
 3397SOL    HW221651   2.875   2.651   0.667  0.4172 -1.6883  0.6046
 3398SOL     OW21652   3.297   1.886   7.374 -0.5069 -0.4781  0.4736
 3398SOL    HW121653   3.287   1.840   7.458  0.6503  0.4933  1.1332
 3398SOL    HW221654   3.260   1.825   7.311 -1.8966  3.4499 -2.5237
 3399SOL     OW21655   3.588   0.514   6.183  0.3477 -0.6029 -0.9393
 3399SOL    HW121656   3.673   0.531   6.223  0.2155 -1.2747 -0.3750
 3399SOL    HW221657   3.605   0.554   6.097 -0.0347  1.2003 -0.1801
 3400SOL     OW21658   2.233   3.360  15.817 -0.0692  1.1173 -0.3706
 3400SOL    HW121659   2.315   3.386  15.776  0.6879  0.1411  0.5011
 3400SOL    HW221660   2.179   3.439  15.811 -0.6977  0.8525  1.6011
 3401SOL     OW21661   0.981   3.034   7.922  0.6936  0.5087 -0.1792
 3401SOL    HW121662   1.040   3.039   7.997 -0.0707  0.5296  0.4184
 3401SOL    HW221663   0.969   3.125   7.897  0.9217  0.3700 -0.7997
 3402SOL     OW21664   3.221   1.510  12.505  0.2443  0.0203 -0.0959
 3402SOL    HW121665   3.164   1.500  12.581  0.0868 -0.8935 -0.3309
 3402SOL    HW221666   3.165   1.557  12.443 -1.2589  0.8613  1.9139
 3403SOL     OW21667   1.403   1.158   5.917  0.0230  0.0813  0.3854
 3403SOL    HW121668   1.458   1.160   5.995 -0.9181 -2.1829  1.0861
 3403SOL    HW221669   1.351   1.237   5.934 -1.1815 -0.5872 -0.2018
 3404SOL     OW21670   4.263   1.175   8.199  0.0014  0.2498  0.0638
 3404SOL    HW121671   4.281   1.265   8.172 -0.4816  0.0410 -0.9893
 3404SOL    HW221672   4.167   1.179   8.192 -0.0457 -1.4641 -0.4278
 3405SOL     OW21673   0.522   4.073   4.381 -0.3737  0.5516  0.1013
 3405SOL    HW121674   0.498   3.984   4.407 -0.4328  1.2858  2.6132
 3405SOL    HW221675   0.442   4.124   4.380  0.6970  2.2985  5.1137
 3406SOL     OW21676   2.369   4.637  14.332  0.3723  0.6395 -0.5901
 3406SOL    HW121677   2.464   4.632  14.339  0.2369  1.3736  1.8950
 3406SOL    HW221678   2.365   4.552  14.288 -0.6536 -0.4206  1.5610
 3407SOL     OW21679   1.842   2.889   3.681 -0.1622 -0.1380  0.3263
 3407SOL    HW121680   1.768   2.941   3.651  0.8599 -0.3581 -2.6252
 3407SOL    HW221681   1.800   2.803   3.686  0.8589 -0.7621 -1.5780
 3408SOL     OW21682   2.445   1.630   2.384 -0.0879  0.8802 -0.0245
 3408SOL    HW121683   2.394   1.595   2.456  0.0217 -0.1322 -0.4426
 3408SOL    HW221684   2.454   1.724   2.404 -0.4061  0.6361  1.2397
 3409SOL     OW21685   0.886   2.586   2.432 -0.1299  0.7626  0.2637
 3409SOL    HW121686   0.817   2.532   2.470 -1.1158  2.7330  1.2814
 3409SOL    HW221687   0.958   2.527   2.413 -0.3704  0.6408 -0.2743
 3410SOL     OW21688   0.053   2.324   2.838 -0.0934 -0.6929  0.0921
 3410SOL    HW121689   4.690   2.292   2.812  0.3863 -0.9690 -1.1649
 3410SOL    HW221690   0.078   2.259   2.904  0.1612  0.3915  1.0466
 3411SOL     OW21691   4.117   0.432   7.710  0.1208  0.0713  0.4105
 3411SOL    HW121692   4.206   0.429   7.747 -0.3309  2.1059  1.6648
 3411SOL    HW221693   4.074   0.401   7.790  0.0910  2.0983  1.1750
 3412SOL     OW21694   4.686   4.352   3.310 -0.2571 -0.4825  0.3550
 3412SOL    HW121695   4.678   4.445   3.287 -4.4893 -0.6684  1.0297
 3412SOL    HW221696   4.619   4.349   3.378 -1.1383 -1.9890 -0.6010
 3413SOL     OW21697   1.152   1.271   8.105 -0.1046 -0.2169 -0.4272
 3413SOL    HW121698   1.110   1.310   8.182 -0.3181 -0.6480 -0.3260
 3413SOL    HW221699   1.224   1.227   8.150 -0.6235  0.3323  0.9569
 3414SOL     OW21700   4.600   1.502   0.913 -0.0005  0.1421 -0.1709
 3414SOL    HW121701   4.652   1.454   0.978 -2.1514  0.4206  1.7424
 3414SOL    HW221702   4.566   1.580   0.956 -3.8775 -1.6726 -0.0119
 3415SOL     OW21703   0.351   1.657   8.068 -0.2773 -0.2212  0.2562
 3415SOL    HW121704   0.373   1.604   8.144  1.1648  2.3787  1.6509
 3415SOL    HW221705   0.262   1.681   8.095 -0.9068 -2.0555 -0.2294
 3416SOL     OW21706   3.932   2.210  11.972  0.3344  0.3229 -0.3481
 3416SOL    HW121707   3.925   2.305  11.961  0.5398  0.6419  2.2790
 3416SOL    HW221708   3.883   2.189  12.051  0.1520  2.7906  0.1978
 3417SOL     OW21709   0.704   2.415   1.693 -0.3436  0.1562  0.2131
 3417SOL    HW121710   0.696   2.510   1.688 -0.5567  0.1110 -0.3383
 3417SOL    HW221711   0.623   2.382   1.655  0.7115 -1.5944 -0.4914
 3418SOL     OW21712   0.884   1.900   8.695 -0.3823 -0.2037 -0.2602
 3418SOL    HW121713   0.838   1.885   8.778 -1.0969 -0.3264 -0.6842
 3418SOL    HW221714   0.946   1.827   8.701 -0.0386  0.2499  1.8933
 3419SOL     OW21715   3.457   0.518  13.711 -0.8627 -0.5145  0.2952
 3419SOL    HW121716   3.450   0.487  13.802  3.2151  1.6201  1.3555
 3419SOL    HW221717   3.372   0.555  13.687 -0.5357  1.7905  2.6640
 3420SOL     OW21718   0.190   3.086   0.523  0.6768  0.2276 -0.6025
 3420SOL    HW121719   0.197   3.145   0.599  0.6054  0.5121 -0.8170
 3420SOL    HW221720   0.279   3.050   0.519  1.0955  1.4301 -2.0003
 3421SOL     OW21721   3.561   3.159   9.791  0.8470  0.0982 -0.1852
 3421SOL    HW121722   3.610   3.091   9.743 -0.1490 -0.9568  0.2787
 3421SOL    HW221723   3.598   3.241   9.757  1.1041 -0.1793 -0.5904
 3422SOL     OW21724   3.664   0.434   0.076 -0.3766 -0.1689 -0.1714
 3422SOL    HW121725   3.653   0.487  17.693  1.6598 -1.3569 -1.2319
 3422SOL    HW221726   3.590   0.467   0.127  1.8907  1.0231  2.3479
 3423SOL     OW21727   3.695   0.355   2.852  0.2897 -0.3189  0.3140
 3423SOL    HW121728   3.782   0.377   2.886 -0.3863  0.5955  1.4066
 3423SOL    HW221729   3.711   0.394   2.766 -3.5736 -0.3166 -0.3894
 3424SOL     OW21730   3.434   0.250   4.718 -0.5401  0.0271 -0.6468
 3424SOL    HW121731   3.443   0.215   4.806 -0.0792 -0.5879 -0.9395
 3424SOL    HW221732   3.420   0.171   4.666  0.3251 -0.8655  0.4932
 3425SOL     OW21733   0.398   1.568   8.363 -0.0227  0.5819  0.3292
 3425SOL    HW121734   0.472   1.540   8.417  1.4377  0.9126 -1.4698
 3425SOL    HW221735   0.359   1.638   8.415 -0.4499 -0.5377  1.5102
 3426SOL     OW21736   2.058   2.461   6.159  0.3950  0.5191 -0.6419
 3426SOL    HW121737   2.134   2.430   6.109 -0.5506  1.5044 -2.6979
 3426SOL    HW221738   2.070   2.555   6.147 -1.5923  0.7928 -0.4309
 3427SOL     OW21739   4.228   1.798   3.450  0.4346 -0.4713 -0.7120
 3427SOL    HW121740   4.185   1.721   3.488 -0.5900  0.4087 -0.1234
 3427SOL    HW221741   4.310   1.766   3.412  1.1232  0.7386 -0.2383
 3428SOL     OW21742   1.810   2.517  16.707 -0.2233 -0.1696  1.0160
 3428SOL    HW121743   1.808   2.502  16.613  2.2073 -1.0441  1.1003
 3428SOL    HW221744   1.719   2.540  16.728 -0.7290 -2.9256  1.8695
 3429SOL     OW21745   3.318   3.143  17.412  0.1781  0.2767 -0.1044
 3429SOL    HW121746   3.256   3.073  17.429 -0.0251  0.2993 -0.7305
 3429SOL    HW221747   3.396   3.095  17.384  1.6241  1.8560  1.2264
 3430SOL     OW21748   4.519   0.813   2.673  0.0837 -0.1737 -0.1251
 3430SOL    HW121749   4.576   0.809   2.750 -0.7563 -1.3299  0.4315
 3430SOL    HW221750   4.489   0.723   2.659 -1.0177  0.1738  0.0126
 3431SOL     OW21751   0.228   4.068   0.164  0.5393 -0.2272  0.3586
 3431SOL    HW121752   0.183   3.983   0.158  2.0914 -1.0663  0.7668
 3431SOL    HW221753   0.297   4.061   0.098 -0.7403 -0.2758 -0.9802
 3432SOL     OW21754   3.547   2.814   6.926  0.1307  0.1117 -0.0692
 3432SOL    HW121755   3.564   2.726   6.893  4.2125  0.9355 -0.2915
 3432SOL    HW221756   3.460   2.815   6.887  0.1526 -0.7602 -0.1346
 3433SOL     OW21757   0.979   2.812   6.073  0.1823  0.2392 -0.0892
 3433SOL    HW121758   0.971   2.905   6.096 -0.9311 -0.2867  1.6281
 3433SOL    HW221759   0.891   2.808   6.035  0.0525 -1.8558  0.4476
 3434SOL     OW21760   3.985   3.860   2.045  0.0018 -0.5382  0.3488
 3434SOL    HW121761   3.996   3.772   2.010 -0.6725 -0.8661  0.9728
 3434SOL    HW221762   3.909   3.849   2.102 -0.2661  1.0696  0.2950
 3435SOL     OW21763   4.179   3.565   8.344  0.3299  0.3734 -0.0375
 3435SOL    HW121764   4.160   3.573   8.437  1.5679  0.7786  0.1849
 3435SOL    HW221765   4.275   3.571   8.346  0.3565 -0.0463 -0.1303
 3436SOL     OW21766   1.307   2.410   0.582  0.4061  0.0745 -0.1474
 3436SOL    HW121767   1.340   2.494   0.549  1.2615 -0.0314  0.4285
 3436SOL    HW221768   1.330   2.407   0.675  2.9651  2.4935 -0.6717
 3437SOL     OW21769   1.805   4.318   8.703  0.0054  0.0882 -0.3869
 3437SOL    HW121770   1.731   4.355   8.751 -1.8544 -2.0434 -1.6404
 3437SOL    HW221771   1.879   4.358   8.750 -0.5582  0.4965  0.1460
 3438SOL     OW21772   2.527   2.764  10.427 -0.5066 -0.5428  0.3195
 3438SOL    HW121773   2.471   2.803  10.494  0.4373  0.0972  0.7367
 3438SOL    HW221774   2.475   2.687  10.404  1.2241 -1.3543 -0.8680
 3439SOL     OW21775   3.716   2.266   5.065 -0.1589  0.0207 -0.7180
 3439SOL    HW121776   3.783   2.213   5.022 -0.5044 -1.2542  0.3100
 3439SOL    HW221777   3.652   2.201   5.093  1.4963 -0.5082  1.8379
 3440SOL     OW21778   0.392   3.713   4.709  0.2471 -0.3465  0.4387
 3440SOL    HW121779   0.307   3.672   4.691  0.0319  0.5559 -0.5600
 3440SOL    HW221780   0.364   3.766   4.784  1.2454 -0.0540  0.6044
 3441SOL     OW21781   0.361   4.556  12.847 -0.3619 -0.0744 -0.7108
 3441SOL    HW121782   0.341   4.543  12.940 -0.5070 -0.2134 -0.7619
 3441SOL    HW221783   0.315   4.484  12.803  0.5089 -0.3663 -1.1291
 3442SOL     OW21784   2.271   3.926   4.743 -0.0647 -0.2753 -0.1572
 3442SOL    HW121785   2.290   3.901   4.833 -0.6299 -2.0855 -0.5326
 3442SOL    HW221786   2.308   3.847   4.703  0.1487  0.1403 -0.7909
 3443SOL     OW21787   3.623   3.877   1.850 -0.3565 -0.5731 -0.3271
 3443SOL    HW121788   3.702   3.899   1.800 -0.9198  0.2091 -0.8776
 3443SOL    HW221789   3.641   3.914   1.936  1.4611 -0.5387 -0.7091
 3444SOL     OW21790   1.412   4.131   8.342 -0.7522  0.5151 -0.0639
 3444SOL    HW121791   1.330   4.180   8.335 -0.2295  1.3831 -0.0961
 3444SOL    HW221792   1.414   4.093   8.254  0.4561 -1.1485  0.6838
 3445SOL     OW21793   3.559   0.190   9.875  0.1499  0.7371 -0.1560
 3445SOL    HW121794   3.483   0.245   9.858 -0.4530 -0.0493  0.0060
 3445SOL    HW221795   3.609   0.192   9.794  0.1785 -0.1548 -0.1519
 3446SOL     OW21796   3.802   3.374  16.063 -0.1396 -0.0686  0.0753
 3446SOL    HW121797   3.729   3.434  16.075 -0.4644 -0.2588 -0.9361
 3446SOL    HW221798   3.764   3.291  16.091 -1.3906  0.8099  0.9161
 3447SOL     OW21799   3.307   0.594  17.529 -0.4968 -0.3887 -0.1617
 3447SOL    HW121800   3.342   0.508  17.507  0.6080  0.4524 -1.6678
 3447SOL    HW221801   3.225   0.591  17.480 -0.3766  0.1176 -0.3902
 3448SOL     OW21802   0.623   0.722   7.103  0.4827  0.3619  0.5987
 3448SOL    HW121803   0.600   0.802   7.151  0.0400  0.2630  0.5490
 3448SOL    HW221804   0.541   0.673   7.115 -0.5823  2.1401  0.6361
 3449SOL     OW21805   0.258   0.859  17.394  0.0198  0.1454  0.1703
 3449SOL    HW121806   0.230   0.925  17.458 -1.5801 -1.2896  0.9602
 3449SOL    HW221807   0.215   0.888  17.314 -0.1589  2.1085  0.9894
 3450SOL     OW21808   0.156   4.159  13.008  0.1209  0.4902 -0.0079
 3450SOL    HW121809   0.201   4.078  12.984  3.3080  1.3856  2.9467
 3450SOL    HW221810   0.080   4.172  12.951  1.1284  2.5396 -0.8743
 3451SOL     OW21811   3.791   0.242   5.555  0.3886 -0.1122  0.5441
 3451SOL    HW121812   3.737   0.225   5.633 -1.0522 -0.7555 -0.6031
 3451SOL    HW221813   3.742   0.309   5.508 -0.5139  0.6841  2.5877
 3452SOL     OW21814   1.333   1.283   8.755 -0.3227 -0.1742 -0.5189
 3452SOL    HW121815   1.284   1.224   8.697 -0.5706 -0.4834  0.0068
 3452SOL    HW221816   1.418   1.243   8.736 -1.3092 -1.5455 -2.1133
 3453SOL     OW21817   3.247   1.953  14.271 -0.3345  0.2137  0.2858
 3453SOL    HW121818   3.171   2.008  14.250 -0.5015 -1.5378 -3.6424
 3453SOL    HW221819   3.289   1.932  14.188 -2.2392 -2.1517 -0.0780
 3454SOL     OW21820   1.006   4.380  15.829  0.0999 -0.6004  0.3800
 3454SOL    HW121821   0.988   4.287  15.845  2.5440 -1.4949 -1.9587
 3454SOL    HW221822   1.087   4.382  15.881  0.6594 -2.7223 -0.3987
 3455SOL     OW21823   3.704   2.108   4.159  0.5864  0.3814 -0.4803
 3455SOL    HW121824   3.739   2.063   4.083 -1.4325 -2.1106  0.0859
 3455SOL    HW221825   3.722   2.054   4.236  0.2243 -0.3858 -0.9351
 3456SOL     OW21826   4.633   4.343  16.579 -0.3027 -0.2127  0.2124
 3456SOL    HW121827   4.644   4.420  16.634 -0.6074  0.5127 -0.7235
 3456SOL    HW221828   4.698   4.372  16.515 -1.2140  0.7377 -0.2971
 3457SOL     OW21829   3.875   0.503   4.319  0.0139 -0.1719  0.2883
 3457SOL    HW121830   3.869   0.426   4.377 -3.4336  0.8518  1.2863
 3457SOL    HW221831   3.896   0.578   4.375  0.2848  1.2654 -1.7164
 3458SOL     OW21832   1.199   3.991   8.009  0.3469 -0.3680  0.2842
 3458SOL    HW121833   1.241   4.073   8.037 -0.3255 -0.2799  1.0420
 3458SOL    HW221834   1.111   4.012   8.042  0.6724  0.4166  0.6596
 3459SOL     OW21835   0.048   0.693   9.276  0.1243 -0.1487  0.6628
 3459SOL    HW121836   0.044   0.599   9.292  0.2383 -0.5514 -1.7435
 3459SOL    HW221837   0.126   0.724   9.323  0.7143  1.2055 -1.1907
 3460SOL     OW21838   1.793   0.445  16.592 -0.2108  0.4723 -0.8062
 3460SOL    HW121839   1.819   0.472  16.503 -1.3277  0.8240 -1.0195
 3460SOL    HW221840   1.700   0.429  16.579 -0.2400 -0.6308  0.8162
 3461SOL     OW21841   3.308   4.702   9.399  0.1849 -0.0555  0.1668
 3461SOL    HW121842   3.384   4.685   9.342  0.7757 -0.4269  1.0605
 3461SOL    HW221843   3.255   4.626   9.377 -1.8873  1.9241 -1.7596
 3462SOL     OW21844   3.891   2.159   8.711 -0.0378  0.3081  0.0075
 3462SOL    HW121845   3.834   2.227   8.745  1.8175  1.5459  0.6447
 3462SOL    HW221846   3.896   2.202   8.625  0.3057  0.4081  0.0770
 3463SOL     OW21847   4.243   1.693  12.559 -0.0201 -0.4473 -0.5409
 3463SOL    HW121848   4.256   1.751  12.484 -0.2214  0.6304  0.2511
 3463SOL    HW221849   4.317   1.729  12.609 -1.6984  1.2314  0.7133
 3464SOL     OW21850   2.468   3.471  12.258 -0.1345 -0.0761  0.5292
 3464SOL    HW121851   2.535   3.439  12.318  0.0188 -3.5303 -1.4916
 3464SOL    HW221852   2.515   3.541  12.213 -0.3010 -1.8024 -2.3245
 3465SOL     OW21853   2.232   1.590   0.464 -1.1043  0.3449 -0.2547
 3465SOL    HW121854   2.181   1.644   0.525 -0.6225 -0.2399  0.6659
 3465SOL    HW221855   2.238   1.641   0.383  0.6985 -0.5660 -0.6804
 3466SOL     OW21856   4.217   0.774   4.986 -0.1694 -0.0993 -0.3866
 3466SOL    HW121857   4.197   0.866   5.004  0.3685  0.2723 -1.7115
 3466SOL    HW221858   4.308   0.769   5.015 -0.9055 -0.5596  1.8502
 3467SOL     OW21859   4.174   1.897   7.109  0.2333  0.5548  0.2537
 3467SOL    HW121860   4.113   1.945   7.052  0.7713  0.2080 -0.6121
 3467SOL    HW221861   4.133   1.810   7.104 -0.8828  1.0578  0.6336
 3468SOL     OW21862   0.183   3.941   7.171 -0.6595 -0.1631 -0.4953
 3468SOL    HW121863   0.142   4.028   7.173 -1.2657 -0.4292 -1.8254
 3468SOL    HW221864   0.273   3.974   7.173 -0.8331  0.2885 -0.0016
 3469SOL     OW21865   0.234   1.764  12.178  0.1663 -0.2871  0.3504
 3469SOL    HW121866   0.162   1.789  12.235  1.5090 -1.4837  2.5705
 3469SOL    HW221867   0.227   1.669  12.181 -1.2840 -0.2283 -1.6130
 3470SOL     OW21868   4.685   2.464  10.380 -0.5384  0.5164 -0.1363
 3470SOL    HW121869   0.013   2.424  10.310  0.5557  1.3085  0.2152
 3470SOL    HW221870   4.715   2.423  10.460  0.7668 -1.7923 -1.8036
 3471SOL     OW21871   3.102   1.286   4.875  0.1141 -0.2880 -0.1461
 3471SOL    HW121872   3.026   1.319   4.827  0.5382  0.6681 -0.1535
 3471SOL    HW221873   3.170   1.346   4.843 -0.4084  0.8002  0.8054
 3472SOL     OW21874   2.707   3.866  13.518  0.1456 -0.2179 -0.1954
 3472SOL    HW121875   2.740   3.918  13.592  1.2898 -1.3461  0.0853
 3472SOL    HW221876   2.704   3.931  13.448 -3.5680 -0.3818 -0.1986
 3473SOL     OW21877   2.567   3.085  17.234 -0.0258 -0.3735  0.0672
 3473SOL    HW121878   2.660   3.070  17.218  0.2662  2.2506 -0.7082
 3473SOL    HW221879   2.556   3.024  17.307 -0.1338 -0.9349 -0.4199
 3474SOL     OW21880   2.165   1.913  13.242  0.0349  0.1452 -0.6451
 3474SOL    HW121881   2.085   1.905  13.190  1.2797 -1.1519 -2.3593
 3474SOL    HW221882   2.170   2.007  13.260  0.4827  0.0259 -0.1403
 3475SOL     OW21883   1.345   0.610  13.538 -0.1794 -0.5994  0.5960
 3475SOL    HW121884   1.298   0.538  13.495  0.4872 -1.5161  1.4209
 3475SOL    HW221885   1.390   0.564  13.608 -0.6399 -0.9212  0.6775
 3476SOL     OW21886   1.731   1.972   1.008  0.1928  0.0486  0.2427
 3476SOL    HW121887   1.817   2.013   1.019  0.5511 -1.0272  1.3735
 3476SOL    HW221888   1.739   1.934   0.920  1.2326  1.3953 -0.2563
 3477SOL     OW21889   3.459   0.540   2.883 -0.2870 -0.2205 -0.0677
 3477SOL    HW121890   3.464   0.457   2.835  0.6370 -0.3074  0.1721
 3477SOL    HW221891   3.512   0.593   2.824 -0.2929  0.0093  0.1332
 3478SOL     OW21892   3.263   2.376   9.356  0.2048 -0.8984 -0.2649
 3478SOL    HW121893   3.258   2.281   9.351 -0.1507 -0.7872 -1.9500
 3478SOL    HW221894   3.356   2.376   9.336  0.4312  0.9899  0.7793
 3479SOL     OW21895   0.425   4.270   6.377 -0.4980  0.0494  0.3451
 3479SOL    HW121896   0.514   4.302   6.396  0.7138 -3.4360  0.4598
 3479SOL    HW221897   0.431   4.284   6.283 -0.3643  0.0649  0.3554
 3480SOL     OW21898   0.667   1.537  11.377 -0.0244  0.0220 -0.3341
 3480SOL    HW121899   0.642   1.575  11.293  0.4739  0.4654 -0.2800
 3480SOL    HW221900   0.761   1.526  11.359  0.5301  0.4564  2.2966
 3481SOL     OW21901   1.443   1.219   3.790  0.5413  0.4565 -0.0972
 3481SOL    HW121902   1.349   1.220   3.775  0.4881 -2.0841  0.1513
 3481SOL    HW221903   1.443   1.140   3.843  1.9635 -0.1089 -0.9360
 3482SOL     OW21904   1.610   4.226   0.684  0.1101  0.7410  0.5648
 3482SOL    HW121905   1.532   4.254   0.733 -0.8957 -0.9535 -0.0757
 3482SOL    HW221906   1.638   4.146   0.728 -0.6334  0.4865  0.5683
 3483SOL     OW21907   2.126   1.221   5.899  0.0195 -0.2743 -0.0501
 3483SOL    HW121908   2.080   1.146   5.938 -1.1208  1.1363  1.2893
 3483SOL    HW221909   2.068   1.270   5.842 -1.3645  0.6058  2.1256
 3484SOL     OW21910   3.860   3.739   2.455  0.3508 -0.0932  0.4557
 3484SOL    HW121911   3.765   3.732   2.445  0.3928 -0.9672  0.5991
 3484SOL    HW221912   3.873   3.831   2.476  0.7175 -0.3512  1.3341
 3485SOL     OW21913   2.390   1.942   8.960 -0.0103 -0.3478  0.5908
 3485SOL    HW121914   2.403   2.033   8.935 -0.6884 -0.5911 -0.6571
 3485SOL    HW221915   2.481   1.918   8.978 -0.0458  0.4913  1.8680
 3486SOL     OW21916   4.057   4.626  10.426  0.8283  0.8071 -0.1909
 3486SOL    HW121917   4.147   4.637  10.454  1.5098 -3.1209 -0.8214
 3486SOL    HW221918   4.053   4.530  10.423  2.7749  0.7523 -0.6574
 3487SOL     OW21919   4.363   0.409  16.656  0.4807 -0.2346  0.1635
 3487SOL    HW121920   4.347   0.452  16.740 -0.4828 -0.8896  0.3179
 3487SOL    HW221921   4.281   0.360  16.649  0.8356 -1.3694  3.7201
 3488SOL     OW21922   2.078   0.763   5.569  1.0034  0.3907 -0.4742
 3488SOL    HW121923   2.021   0.782   5.644  0.4149 -1.1457 -0.5343
 3488SOL    HW221924   2.074   0.842   5.515 -2.1471  0.8680  0.4476
 3489SOL     OW21925   0.137   2.690  13.618 -0.4948 -0.4938 -0.1767
 3489SOL    HW121926   0.120   2.699  13.712  0.6919 -1.2653  0.1199
 3489SOL    HW221927   0.230   2.712  13.613 -0.6416  0.8080  2.7083
 3490SOL     OW21928   3.964   3.886   3.178  0.2599 -0.4551 -0.6758
 3490SOL    HW121929   3.988   3.794   3.184  0.8691 -0.2432  0.2141
 3490SOL    HW221930   4.040   3.921   3.132 -0.7760 -0.9199 -2.7332
 3491SOL     OW21931   3.601   0.541   2.446  0.0281  0.1356  0.5146
 3491SOL    HW121932   3.545   0.582   2.379  1.0885 -1.8789 -1.6025
 3491SOL    HW221933   3.625   0.613   2.504 -1.1585  0.8365  0.1432
 3492SOL     OW21934   2.192   2.323  16.366  0.3836 -0.0195 -0.1330
 3492SOL    HW121935   2.100   2.319  16.339 -0.1950 -5.0569  2.5052
 3492SOL    HW221936   2.195   2.364  16.452 -0.1298  2.1352 -1.1425
 3493SOL     OW21937   2.216   2.447   6.490 -0.6273  0.6162  0.3886
 3493SOL    HW121938   2.282   2.414   6.429 -0.1617  2.5150 -0.1308
 3493SOL    HW221939   2.189   2.534   6.461  0.3723  0.4637 -1.0203
 3494SOL     OW21940   4.302   2.358   5.748 -0.5388  0.1521  0.1745
 3494SOL    HW121941   4.255   2.302   5.810 -0.1767 -0.4695 -0.1180
 3494SOL    HW221942   4.284   2.446   5.782  1.4855  0.6150  0.0378
 3495SOL     OW21943   1.112   2.039  16.510 -0.0763  0.1963 -0.2152
 3495SOL    HW121944   1.152   2.119  16.546 -1.5434  0.7689  0.1335
 3495SOL    HW221945   1.040   2.020  16.569 -1.2494  1.2270 -1.3006
 3496SOL     OW21946   3.789   4.083   8.831  0.1985  0.1043  0.5066
 3496SOL    HW121947   3.814   4.168   8.797 -0.1643 -0.3475 -0.8905
 3496SOL    HW221948   3.838   4.067   8.912  2.1275  0.0651 -0.6953
 3497SOL     OW21949   3.367   3.354   6.572  0.1340  0.1094 -0.0840
 3497SOL    HW121950   3.446   3.301   6.560 -0.2269  0.0384 -2.1687
 3497SOL    HW221951   3.335   3.364   6.483  0.6447  1.4940 -0.1121
 3498SOL     OW21952   4.018   1.578  16.772  0.0260 -0.2617  0.5118
 3498SOL    HW121953   3.959   1.533  16.833  0.3705  0.9227  1.7254
 3498SOL    HW221954   3.960   1.646  16.740 -0.4248 -0.1630  1.5338
 3499SOL     OW21955   2.720   0.076  15.601  0.4440  0.3504  0.3596
 3499SOL    HW121956   2.635   0.061  15.559  0.1754 -2.3353  1.8767
 3499SOL    HW221957   2.754   4.711  15.604  1.7254  0.7841 -1.2718
 3500SOL     OW21958   1.844   4.471  14.642 -0.0142  0.0952 -0.5517
 3500SOL    HW121959   1.826   4.546  14.586 -2.0558 -0.7593 -1.0534
 3500SOL    HW221960   1.778   4.408  14.611  0.0833 -0.0130 -0.5398
 3501SOL     OW21961   0.936   2.293   3.027 -0.7257 -0.7400 -1.1189
 3501SOL    HW121962   0.955   2.200   3.038  3.3337 -0.0176 -1.9180
 3501SOL    HW221963   0.882   2.303   2.949 -3.3668  2.5453  1.0894
 3502SOL     OW21964   0.460   4.407   9.140 -0.4046  0.2679 -0.0931
 3502SOL    HW121965   0.442   4.443   9.227  2.7731 -0.5030  0.8708
 3502SOL    HW221966   0.488   4.324   9.177 -0.6750  0.3479  0.2912
 3503SOL     OW21967   4.717   4.484  15.839 -0.1259 -0.1355  0.2433
 3503SOL    HW121968   4.626   4.513  15.827 -0.5968 -1.1111  1.4232
 3503SOL    HW221969   0.026   4.518  15.756  0.1631  0.9880  0.8149
 3504SOL     OW21970   0.379   1.607   7.247  0.4172 -0.2485 -0.4233
 3504SOL    HW121971   0.321   1.534   7.224 -1.8304  1.1147  0.9209
 3504SOL    HW221972   0.326   1.686   7.237  2.0450  0.9349  0.5136
 3505SOL     OW21973   4.047   4.564  16.068 -0.5024  0.2873 -0.1349
 3505SOL    HW121974   3.957   4.595  16.082 -0.6078  0.0319 -0.2680
 3505SOL    HW221975   4.060   4.503  16.141 -2.5744 -1.3752 -1.1822
 3506SOL     OW21976   0.752   1.744   9.141  0.1193  0.1524  0.7252
 3506SOL    HW121977   0.685   1.680   9.164 -0.3135  0.0580 -0.8097
 3506SOL    HW221978   0.781   1.788   9.221  1.0245  1.3063 -0.2482
 3507SOL     OW21979   1.568   4.307   7.025 -0.3266  0.2959  0.1266
 3507SOL    HW121980   1.481   4.288   7.061  0.0829 -1.2189  0.3076
 3507SOL    HW221981   1.623   4.241   7.067  0.9518  0.6283 -1.0238
 3508SOL     OW21982   0.072   4.049   6.184  0.3631 -0.1819 -0.0342
 3508SOL    HW121983   0.100   4.078   6.271 -1.7530  0.6812  0.3551
 3508SOL    HW221984   0.044   3.961   6.210 -1.1790  0.3117 -0.0335
 3509SOL     OW21985   2.684   3.527   9.337  0.1000 -0.2393 -0.7215
 3509SOL    HW121986   2.685   3.441   9.297 -1.0957 -1.0361  0.9681
 3509SOL    HW221987   2.776   3.554   9.340  0.3883 -1.3829  0.9087
 3510SOL     OW21988   3.768   0.004   0.628  0.4614 -0.4421  0.5640
 3510SOL    HW121989   3.697   0.003   0.563  0.9185 -1.7756  0.0835
 3510SOL    HW221990   3.756   4.643   0.671  1.7885 -1.4508 -1.0597
 3511SOL     OW21991   1.463   1.985  13.875  0.3729  0.1114  0.5067
 3511SOL    HW121992   1.377   2.003  13.913 -0.1707 -0.6664 -0.3293
 3511SOL    HW221993   1.523   1.994  13.948  2.0809  0.9582 -0.9929
 3512SOL     OW21994   1.773   1.748   3.499 -0.7145  0.0767 -0.9085
 3512SOL    HW121995   1.750   1.707   3.416 -0.9969 -2.0532  0.2407
 3512SOL    HW221996   1.734   1.836   3.494 -0.8336 -0.0264 -1.7691
 3513SOL     OW21997   3.380   0.846   1.997  0.0419 -0.3118 -0.3772
 3513SOL    HW121998   3.342   0.870   1.913 -0.6275 -0.6596 -0.1754
 3513SOL    HW221999   3.307   0.809   2.047 -1.2569  2.7132 -0.0399
 3514SOL     OW22000   2.459   3.905   2.718 -0.1257 -0.1269  0.0457
 3514SOL    HW122001   2.382   3.892   2.773 -1.9250  0.8833 -2.2390
 3514SOL    HW222002   2.526   3.843   2.749  0.5804 -0.2204 -1.6937
 3515SOL     OW22003   1.869   1.950   2.298  0.0238  0.3374  0.3477
 3515SOL    HW122004   1.940   1.964   2.236  1.1143 -0.1444  1.4941
 3515SOL    HW222005   1.810   2.024   2.281 -1.9082 -1.2402  0.0978
 3516SOL     OW22006   4.201   4.084  12.529 -0.2565  0.1663  0.2840
 3516SOL    HW122007   4.154   4.078  12.446 -2.4308  0.3663  1.4802
 3516SOL    HW222008   4.215   4.178  12.540 -0.2581  0.0327  1.4098
 3517SOL     OW22009   0.071   4.564   3.535 -0.0768  0.6823 -0.0654
 3517SOL    HW122010   0.063   4.496   3.468 -0.1837 -0.2769  0.9173
 3517SOL    HW222011   4.701   4.579   3.549 -0.0985  0.7643 -0.3013
 3518SOL     OW22012   4.467   4.542  16.946  0.1865  0.1982  0.5899
 3518SOL    HW122013   4.438   4.517  16.858  3.0246  0.1303 -0.3202
 3518SOL    HW222014   4.415   4.621  16.958 -0.2260  0.2186 -1.2649
 3519SOL     OW22015   4.549   0.231  16.825  0.8584 -0.3210 -0.0950
 3519SOL    HW122016   4.476   0.291  16.811  0.1754 -1.2145 -0.4081
 3519SOL    HW222017   4.619   0.267  16.770 -0.1756 -0.1128 -1.2836
 3520SOL     OW22018   3.790   4.473   4.297  0.4151 -0.2242 -0.2174
 3520SOL    HW122019   3.767   4.414   4.369  2.6858 -1.6224 -0.6529
 3520SOL    HW222020   3.883   4.463   4.314  0.6991  1.3991 -0.8105
 3521SOL     OW22021   4.354   4.460  10.611 -0.5313 -0.2581 -0.6650
 3521SOL    HW122022   4.295   4.470  10.686 -1.1271 -0.2937 -1.1352
 3521SOL    HW222023   4.337   4.543  10.568 -3.2815 -0.1760  0.5513
 3522SOL     OW22024   1.027   3.062   4.344  0.4210 -0.5267  0.7765
 3522SOL    HW122025   1.049   3.072   4.251 -1.2920  0.1407  0.4406
 3522SOL    HW222026   1.107   3.022   4.377  0.5982 -1.0533 -0.2758
 3523SOL     OW22027   3.533   0.905   8.617  0.0557 -0.2337 -0.0659
 3523SOL    HW122028   3.451   0.877   8.578  0.6942 -0.9843 -0.8657
 3523SOL    HW222029   3.581   0.936   8.540  2.1644 -0.1609  1.2695
 3524SOL     OW22030   0.399   2.039   3.205  0.7225  0.2354  0.3502
 3524SOL    HW122031   0.308   2.066   3.220  0.4602 -0.8841  0.7452
 3524SOL    HW222032   0.394   1.945   3.189 -0.7525  0.5488 -1.0346
 3525SOL     OW22033   2.262   0.328   6.653  0.3802 -0.3165 -0.4191
 3525SOL    HW122034   2.203   0.305   6.725 -1.0004 -2.5613 -2.2678
 3525SOL    HW222035   2.324   0.255   6.647  1.1713  0.1948  1.6424
 3526SOL     OW22036   4.004   1.714   4.544 -0.3855  0.4050 -0.1443
 3526SOL    HW122037   3.974   1.805   4.547  3.0510  1.6069 -2.4953
 3526SOL    HW222038   4.013   1.697   4.450  0.1543  0.6236 -0.1324
 3527SOL     OW22039   4.441   0.452   3.201  0.1700  0.8531 -0.5347
 3527SOL    HW122040   4.522   0.481   3.244 -0.4842 -2.9050  3.2414
 3527SOL    HW222041   4.472   0.370   3.162  1.1159  2.2356 -2.6755
 3528SOL     OW22042   3.586   3.139   1.237 -0.9162 -0.0564 -0.0658
 3528SOL    HW122043   3.501   3.096   1.247  0.0415 -1.7046  0.9573
 3528SOL    HW222044   3.600   3.112   1.147  0.1165 -0.1470  0.1257
 3529SOL     OW22045   4.474   0.738   5.071 -0.1227 -0.2608  0.2994
 3529SOL    HW122046   4.469   0.731   5.167  0.9648 -0.2473  0.3572
 3529SOL    HW222047   4.567   0.714   5.070 -0.3263 -1.1085  1.9664
 3530SOL     OW22048   2.809   3.353  11.460  0.1314 -0.1025 -0.0188
 3530SOL    HW122049   2.857   3.278  11.425  1.3860  0.6979  0.0259
 3530SOL    HW222050   2.874   3.385  11.522 -1.4728  0.0715  1.5889
 3531SOL     OW22051   2.116   4.322   6.313  0.0263  0.1790 -0.0190
 3531SOL    HW122052   2.162   4.268   6.249  1.9123  1.1098  0.5589
 3531SOL    HW222053   2.167   4.316   6.393  0.5808  1.6091 -0.2674
 3532SOL     OW22054   2.147   4.555   1.326  0.0006 -0.2004  0.1127
 3532SOL    HW122055   2.173   4.552   1.234  1.7083  0.6102  0.5601
 3532SOL    HW222056   2.231   4.572   1.368  0.2332  0.9356 -0.8065
 3533SOL     OW22057   0.745   3.093   0.068 -0.0446  0.2688  0.3667
 3533SOL    HW122058   0.840   3.085   0.073  0.2928  2.0107 -2.7179
 3533SOL    HW222059   0.724   3.007   0.102  1.2544 -0.5105 -0.7864
 3534SOL     OW22060   1.704   3.455   9.924 -0.2283 -0.0308 -0.0734
 3534SOL    HW122061   1.668   3.481  10.008 -0.0192 -2.0309  0.6297
 3534SOL    HW222062   1.766   3.528   9.914  0.8989 -0.6090  2.8956
 3535SOL     OW22063   3.472   3.394   7.482  0.4628  0.2472 -0.1882
 3535SOL    HW122064   3.512   3.367   7.564  0.0348  0.8407  0.2199
 3535SOL    HW222065   3.451   3.308   7.446  0.3845 -0.3734  1.3724
 3536SOL     OW22066   2.476   2.124   2.394  0.3249 -0.7732 -0.4889
 3536SOL    HW122067   2.520   2.071   2.327  0.5560 -2.2953  0.8559
 3536SOL    HW222068   2.409   2.165   2.340 -0.0205  0.3567  0.7872
 3537SOL     OW22069   0.008   1.238   4.135  0.3578  0.5481  0.2514
 3537SOL    HW122070   0.047   1.154   4.114 -0.0603  0.6201 -0.7733
 3537SOL    HW222071   4.710   1.212   4.225  0.5775 -2.5480 -0.5896
 3538SOL     OW22072   4.529   1.069   1.851  0.1186 -0.2758  0.4599
 3538SOL    HW122073   4.484   1.130   1.908  0.5581 -1.1246  1.7256
 3538SOL    HW222074   4.513   1.112   1.768  1.0598  0.6788  0.7819
 3539SOL     OW22075   0.540   0.175  12.821  0.2001 -0.5308  0.1321
 3539SOL    HW122076   0.492   0.181  12.904 -0.9675  0.7589 -0.6425
 3539SOL    HW222077   0.598   0.252  12.818 -0.0418 -0.3487  0.1602
 3540SOL     OW22078   0.764   1.495  15.051  0.3525 -0.6956 -0.0043
 3540SOL    HW122079   0.833   1.440  15.014  0.0705  0.0507 -1.6120
 3540SOL    HW222080   0.708   1.513  14.975  0.1701  1.9107  0.7495
 3541SOL     OW22081   1.099   2.714  13.281  0.2517 -0.1034  0.0668
 3541SOL    HW122082   1.143   2.636  13.314 -0.7929 -1.3500 -1.4598
 3541SOL    HW222083   1.085   2.775  13.354 -2.0300 -2.2582  1.4049
 3542SOL     OW22084   1.021   0.406   5.023  0.0405 -0.0657 -0.8224
 3542SOL    HW122085   1.005   0.420   5.117  3.8357 -2.7531  0.2537
 3542SOL    HW222086   1.106   0.447   5.007  0.0567  0.0100 -0.5402
 3543SOL     OW22087   4.178   2.526   0.952  0.7422 -0.7893 -0.2388
 3543SOL    HW122088   4.215   2.614   0.944 -0.4040 -0.5427 -2.7820
 3543SOL    HW222089   4.217   2.489   0.873  0.4758 -0.1900 -0.6422
 3544SOL     OW22090   1.349   4.152   4.211 -0.3992 -0.0131 -0.4790
 3544SOL    HW122091   1.328   4.226   4.268 -1.3857 -1.0570  0.5084
 3544SOL    HW222092   1.293   4.082   4.245  1.5008 -1.9866 -1.3875
 3545SOL     OW22093   2.511   0.710  13.491 -0.5418 -0.4323  1.0131
 3545SOL    HW122094   2.571   0.649  13.449 -1.4049 -1.5483  1.4222
 3545SOL    HW222095   2.508   0.662  13.573 -0.8674 -1.0791  0.6231
 3546SOL     OW22096   0.446   4.258  15.128 -0.2693  0.4232  0.0575
 3546SOL    HW122097   0.392   4.229  15.202  0.4205 -2.3334 -0.5209
 3546SOL    HW222098   0.413   4.347  15.132 -1.5384 -0.0492  0.0139
 3547SOL     OW22099   3.293   4.030   6.689  0.2327 -0.8165  0.2248
 3547SOL    HW122100   3.199   4.032   6.705  0.5844  0.9203  2.0974
 3547SOL    HW222101   3.325   3.982   6.766  0.3110 -0.4568  0.4164
 3548SOL     OW22102   1.859   2.951   4.770 -0.2501 -0.1301  0.1230
 3548SOL    HW122103   1.918   2.935   4.697 -1.1623 -1.6417 -0.2795
 3548SOL    HW222104   1.914   3.007   4.825 -0.6414  1.0849 -0.7062
 3549SOL     OW22105   2.976   0.873   2.134  0.0006 -0.3668  0.4171
 3549SOL    HW122106   2.988   0.968   2.136 -1.9299 -0.0177 -4.3408
 3549SOL    HW222107   2.917   0.867   2.059  0.5361 -1.2621  0.0661
 3550SOL     OW22108   0.341   3.414   1.168  0.0747  0.3896 -0.6441
 3550SOL    HW122109   0.356   3.444   1.078  0.2071  3.2617  0.3341
 3550SOL    HW222110   0.297   3.496   1.191  0.9341  0.9351 -0.9101
 3551SOL     OW22111   1.293   1.457   6.790  0.0273  0.0455  0.4636
 3551SOL    HW122112   1.264   1.484   6.877  0.7778 -1.2695  1.1189
 3551SOL    HW222113   1.377   1.499   6.805 -0.6778  1.5418  0.1752
 3552SOL     OW22114   1.816   2.426   0.638  0.3292  0.2602 -0.1935
 3552SOL    HW122115   1.824   2.382   0.723 -1.9834  1.1267  0.4555
 3552SOL    HW222116   1.886   2.379   0.592 -1.9133 -1.4938 -1.7868
 3553SOL     OW22117   4.316   3.518   5.794 -0.4904 -0.4708 -0.2248
 3553SOL    HW122118   4.405   3.537   5.762  0.2753 -1.2017  1.4376
 3553SOL    HW222119   4.262   3.575   5.740  0.6616 -0.6010 -1.5176
 3554SOL     OW22120   0.197   4.496  15.569 -0.0274 -0.1789  0.3180
 3554SOL    HW122121   0.256   4.497  15.645  0.9381  2.4120 -0.4686
 3554SOL    HW222122   0.202   4.405  15.540  0.2714 -0.8517  2.4187
 3555SOL     OW22123   4.506   1.184   5.548  0.3194  0.2606 -0.3527
 3555SOL    HW122124   4.445   1.216   5.483 -1.5965 -3.1408 -0.2305
 3555SOL    HW222125   4.559   1.131   5.488 -0.5258 -1.6804  0.6154
 3556SOL     OW22126   2.593   0.544  15.628 -0.2522  0.0253 -0.1555
 3556SOL    HW122127   2.659   0.560  15.696 -2.2619  1.0404  1.5598
 3556SOL    HW222128   2.651   0.492  15.572  0.2510 -0.1820  0.5520
 3557SOL     OW22129   3.605   1.382   5.763 -0.3318  0.0671  0.3948
 3557SOL    HW122130   3.561   1.376   5.848 -0.5701  0.6529  0.3106
 3557SOL    HW222131   3.544   1.438   5.715  0.3273 -0.2350 -0.8150
 3558SOL     OW22132   4.354   3.405   2.278  0.0669 -0.1103  0.0782
 3558SOL    HW122133   4.446   3.429   2.265  0.1355  0.2899  1.3150
 3558SOL    HW222134   4.312   3.463   2.214 -0.1848 -0.7857 -0.3610
 3559SOL     OW22135   4.299   1.355   7.532  0.0615  0.0429  0.2903
 3559SOL    HW122136   4.249   1.273   7.531  0.4754 -0.2144  0.6295
 3559SOL    HW222137   4.313   1.362   7.627  1.3140 -0.3711  0.1363
 3560SOL     OW22138   2.111   3.107   6.062 -0.1276 -0.0672  0.5407
 3560SOL    HW122139   2.079   3.093   5.973  1.5558 -1.0859  0.1079
 3560SOL    HW222140   2.154   3.192   6.057  3.4611 -1.8756  0.9805
 3561SOL     OW22141   4.209   2.273   2.519 -0.2928 -0.0512  0.1909
 3561SOL    HW122142   4.285   2.216   2.527  0.5916  1.0949  0.0759
 3561SOL    HW222143   4.213   2.337   2.590 -2.1174 -1.4160  1.5168
 3562SOL     OW22144   2.184   4.294   2.984  0.0616 -0.1561 -0.0051
 3562SOL    HW122145   2.210   4.368   2.930 -0.0265 -1.2769 -1.5721
 3562SOL    HW222146   2.199   4.220   2.924  4.1816  0.5917  0.0594
 3563SOL     OW22147   0.239   0.003   3.988 -0.1762  0.3293 -0.8335
 3563SOL    HW122148   0.332   0.016   3.968 -0.7645  0.8713 -3.2206
 3563SOL    HW222149   0.228   4.654   3.928  2.3931 -0.0752 -0.8223
 3564SOL     OW22150   3.792   0.893   7.856 -1.1952 -0.4381 -0.6383
 3564SOL    HW122151   3.796   0.816   7.799 -1.8896 -0.9284 -0.0243
 3564SOL    HW222152   3.707   0.881   7.897 -0.0234  0.7168  2.1173
 3565SOL     OW22153   0.851   0.769   8.397 -0.4336 -0.3856 -0.0069
 3565SOL    HW122154   0.916   0.701   8.379  1.0952  1.1463 -0.2274
 3565SOL    HW222155   0.787   0.758   8.327  0.7701 -2.0785 -0.8305
 3566SOL     OW22156   3.820   1.619   8.845  0.3616 -0.1358  0.1964
 3566SOL    HW122157   3.764   1.685   8.803 -0.8513 -1.0661  0.3754
 3566SOL    HW222158   3.769   1.608   8.924  1.8709  0.6410  1.2852
 3567SOL     OW22159   0.253   4.516   5.998  0.0037  0.5662  0.3165
 3567SOL    HW122160   0.319   4.479   5.939 -0.8125 -0.1276 -0.1725
 3567SOL    HW222161   0.198   4.541   5.924 -0.0136 -0.2571  0.0466
 3568SOL     OW22162   1.406   3.208   3.619  0.3472  0.2827 -0.1742
 3568SOL    HW122163   1.462   3.221   3.543  0.2331 -2.9032 -0.8137
 3568SOL    HW222164   1.366   3.124   3.596  0.9663 -0.4972  1.6015
 3569SOL     OW22165   4.451   3.496  15.155 -0.3497  0.3231  0.0540
 3569SOL    HW122166   4.533   3.542  15.172 -1.3145  3.0515 -2.7495
 3569SOL    HW222167   4.456   3.427  15.221  1.9612  1.1138  0.6817
 3570SOL     OW22168   0.601   2.189  11.540  0.1310 -0.1321 -0.3343
 3570SOL    HW122169   0.694   2.192  11.560  0.4040  0.7207 -1.6829
 3570SOL    HW222170   0.600   2.187  11.444 -0.2832 -0.8665 -0.3106
 3571SOL     OW22171   2.862   0.021   2.518  0.0609 -0.0980 -0.0057
 3571SOL    HW122172   2.836   0.107   2.551 -1.7037 -1.6735  2.6720
 3571SOL    HW222173   2.776   4.713   2.491  0.2155 -0.4399 -0.1005
 3572SOL     OW22174   2.553   0.312   0.515  0.3787 -0.2312  0.0762
 3572SOL    HW122175   2.631   0.319   0.570 -1.6019 -2.0488  3.1202
 3572SOL    HW222176   2.482   0.317   0.580  0.6973 -0.2775  0.4257
 3573SOL     OW22177   2.938   1.809   5.182 -0.2964  0.0956 -0.1901
 3573SOL    HW122178   2.967   1.834   5.094 -0.5745  0.1176 -0.2743
 3573SOL    HW222179   3.019   1.807   5.232 -1.4941 -3.0216  1.5926
 3574SOL     OW22180   0.751   1.695  15.218  0.4842  0.4144 -0.1700
 3574SOL    HW122181   0.774   1.630  15.151 -1.6814 -0.5471  0.0050
 3574SOL    HW222182   0.737   1.636  15.292  0.3681  1.0030  0.2721
 3575SOL     OW22183   0.937   0.330   7.857  0.0556 -0.5012 -0.1095
 3575SOL    HW122184   0.916   0.418   7.826  1.6819 -0.0142  0.1653
 3575SOL    HW222185   1.029   0.344   7.880 -0.1253 -0.6989  0.7187
 3576SOL     OW22186   3.104   4.110  12.686 -0.9185 -0.5666  0.4053
 3576SOL    HW122187   3.024   4.073  12.650 -0.7967  0.2286 -0.6881
 3576SOL    HW222188   3.080   4.203  12.695 -0.8561 -0.4229 -0.9899
 3577SOL     OW22189   0.065   4.655  13.691  0.0340  0.7271  0.2000
 3577SOL    HW122190   0.101   4.670  13.778  1.5529 -1.6504 -0.0246
 3577SOL    HW222191   0.143   4.631  13.640  0.9155  2.7259  0.5933
 3578SOL     OW22192   1.309   1.811   5.580 -0.3008 -0.2671  0.2577
 3578SOL    HW122193   1.311   1.720   5.610 -0.8916  0.5138  2.5974
 3578SOL    HW222194   1.229   1.808   5.527 -0.0972  0.1329 -0.0737
 3579SOL     OW22195   2.504   3.555  17.692  0.5612 -0.2959 -0.3599
 3579SOL    HW122196   2.440   3.497  17.650  0.5615 -0.0112 -0.7536
 3579SOL    HW222197   2.495   3.536   0.089  2.7064  0.1255 -0.0627
 3580SOL     OW22198   2.091   3.249   8.377 -0.2452 -0.3264 -0.4637
 3580SOL    HW122199   2.154   3.285   8.441 -3.3703 -0.4635  2.6974
 3580SOL    HW222200   2.130   3.262   8.291  0.4213  2.1373  0.1969
 3581SOL     OW22201   3.716   3.815  17.051 -0.8556  0.4633  0.4630
 3581SOL    HW122202   3.757   3.729  17.052 -0.1380  0.7794 -1.5531
 3581SOL    HW222203   3.624   3.791  17.037 -0.8167 -0.1158  1.2142
 3582SOL     OW22204   0.921   2.266   8.382 -0.3209  0.4985  0.0284
 3582SOL    HW122205   0.832   2.248   8.411  0.6568 -1.6611  1.7508
 3582SOL    HW222206   0.970   2.225   8.454 -3.6809 -2.2779  0.7290
 3583SOL     OW22207   0.137   1.917   8.064  0.1842  0.3512  0.3982
 3583SOL    HW122208   0.043   1.934   8.066 -0.0902 -1.2873  1.5337
 3583SOL    HW222209   0.168   1.969   8.138  2.3748 -1.0362  0.4455
 3584SOL     OW22210   4.530   1.832   9.066 -0.2075  0.0390  0.4023
 3584SOL    HW122211   4.583   1.794   9.136 -0.2031 -2.9309 -1.1987
 3584SOL    HW222212   4.603   1.822   9.005  0.9174  1.9042  1.4513
 3585SOL     OW22213   3.677   3.738   5.421 -0.6758 -0.3619  0.4735
 3585SOL    HW122214   3.621   3.814   5.402 -0.6541  0.1930  2.6806
 3585SOL    HW222215   3.629   3.702   5.495 -0.1957 -0.6477  0.6417
 3586SOL     OW22216   1.315   1.605  15.451  0.5889 -0.8997 -0.6326
 3586SOL    HW122217   1.245   1.550  15.487  2.3173 -3.9142 -1.9300
 3586SOL    HW222218   1.353   1.648  15.528  0.9515 -0.5314 -1.0246
 3587SOL     OW22219   0.060   0.028  10.758  0.0950 -0.1642  0.0606
 3587SOL    HW122220   0.090   4.707  10.838  0.0457 -0.5800 -0.1525
 3587SOL    HW222221   0.124   0.001  10.693  0.1606  2.9064 -1.1453
 3588SOL     OW22222   0.567   1.820   6.641  0.4741  0.1407 -0.2059
 3588SOL    HW122223   0.575   1.735   6.599  0.1829 -0.5656  1.1586
 3588SOL    HW222224   0.504   1.807   6.712 -1.4979 -2.7775 -2.4871
 3589SOL     OW22225   0.940   1.380  13.338  0.3557  0.6787 -0.2157
 3589SOL    HW122226   0.994   1.456  13.360  0.2213 -0.0076  2.4221
 3589SOL    HW222227   0.947   1.336  13.422 -1.6491 -0.0047 -0.4012
 3590SOL     OW22228   2.227   3.739   4.964  0.0834 -0.3484  0.2882
 3590SOL    HW122229   2.215   3.677   5.036 -1.0043  1.4654  1.6957
 3590SOL    HW222230   2.275   3.698   4.893 -2.4724 -0.7021 -1.2446
 3591SOL     OW22231   1.408   4.221   4.923  0.6400  0.1511 -0.1961
 3591SOL    HW122232   1.357   4.226   5.003  1.6125  1.8572  0.3301
 3591SOL    HW222233   1.495   4.211   4.962 -1.2460  0.8092  4.1091
 3592SOL     OW22234   2.245   1.968  17.201 -0.1744 -0.1263 -0.1317
 3592SOL    HW122235   2.320   1.987  17.258  0.3526 -2.3949 -0.0922
 3592SOL    HW222236   2.218   2.052  17.164 -1.8181 -0.0559  1.1963
 3593SOL     OW22237   1.911   0.299   7.738  0.0612 -0.3336 -0.0224
 3593SOL    HW122238   1.864   0.383   7.731 -0.4896 -0.6533 -0.1624
 3593SOL    HW222239   1.966   0.289   7.661  1.2212 -0.2315  0.8032
 3594SOL     OW22240   0.596   3.171   5.130  0.3628  0.0064  0.1472
 3594SOL    HW122241   0.683   3.193   5.094  0.4377 -2.1864 -1.0250
 3594SOL    HW222242   0.603   3.076   5.121  0.5170 -0.0289  0.6510
 3595SOL     OW22243   0.658   1.852   5.431  0.4941 -0.0333 -0.2474
 3595SOL    HW122244   0.728   1.814   5.485  0.9278  2.2703  0.8293
 3595SOL    HW222245   0.701   1.851   5.346  0.0806 -0.3860 -0.4569
 3596SOL     OW22246   0.177   3.473   6.956 -0.1898  1.0321  0.7405
 3596SOL    HW122247   0.194   3.438   7.044  3.9545  0.0292 -0.4704
 3596SOL    HW222248   0.143   3.560   6.975 -2.0470 -0.0368  2.3284
 3597SOL     OW22249   0.686   0.835   3.240  0.1386  0.6121 -0.8492
 3597SOL    HW122250   0.749   0.766   3.219 -0.0648  0.6971 -1.7431
 3597SOL    HW222251   0.708   0.851   3.332  0.9038 -2.6110 -0.4574
 3598SOL     OW22252   1.986   4.271   0.516  0.5854  0.1399  0.7387
 3598SOL    HW122253   1.937   4.308   0.589  0.2099  0.5440  0.2814
 3598SOL    HW222254   1.999   4.349   0.461 -1.2816 -0.5299 -0.6847
 3599SOL     OW22255   1.905   3.783  15.963 -0.0661 -0.2717 -0.6840
 3599SOL    HW122256   1.890   3.781  16.058 -1.5894  0.7295 -0.9026
 3599SOL    HW222257   1.997   3.808  15.954  1.2319 -4.5800  0.5249
 3600SOL     OW22258   0.201   1.517   1.923 -0.0702  0.3658 -0.8698
 3600SOL    HW122259   0.109   1.539   1.911 -0.2357  0.5013  0.6266
 3600SOL    HW222260   0.199   1.462   2.001  1.3862  0.1242 -0.9907
 3601SOL     OW22261   1.742   2.038   7.834 -0.1273 -0.2260  0.5330
 3601SOL    HW122262   1.733   2.121   7.788  0.1254 -0.2934  0.3628
 3601SOL    HW222263   1.654   2.023   7.871  1.1446 -2.1761  2.7844
 3602SOL     OW22264   3.532   0.778  17.679 -0.5505 -0.4080 -0.0199
 3602SOL    HW122265   3.441   0.798  17.658 -0.8660 -4.3998 -2.2782
 3602SOL    HW222266   3.521   0.726   0.062 -2.2509 -1.1384 -0.7568
 3603SOL     OW22267   1.430   1.164   5.339  0.7160 -0.6722  0.1114
 3603SOL    HW122268   1.413   1.173   5.245 -2.5327 -1.7553  0.6293
 3603SOL    HW222269   1.371   1.232   5.372 -0.6043 -0.4856 -2.6479
 3604SOL     OW22270   1.778   0.655   7.001 -0.5763  0.5575 -0.1538
 3604SOL    HW122271   1.834   0.614   7.067 -0.9044 -0.1489 -0.3242
 3604SOL    HW222272   1.802   0.612   6.919 -0.4408 -2.6623  1.5752
 3605SOL     OW22273   0.239   1.117  17.531 -0.2126  0.4170  1.0370
 3605SOL    HW122274   0.190   1.199  17.531 -0.9120  0.0133 -0.7859
 3605SOL    HW222275   0.288   1.112  17.449  0.5272  0.8244  1.4583
 3606SOL     OW22276   3.967   3.885   4.173 -0.4053  0.1415 -0.0716
 3606SOL    HW122277   3.958   3.815   4.108 -3.1007  0.3689  0.0678
 3606SOL    HW222278   4.058   3.909   4.157 -0.7993  1.3528 -0.4300
 3607SOL     OW22279   2.378   1.644   5.571 -0.2844  0.0984  1.1100
 3607SOL    HW122280   2.389   1.733   5.604  0.2842  0.8920 -1.2379
 3607SOL    HW222281   2.319   1.605   5.636 -2.4013 -0.0265 -0.8870
 3608SOL     OW22282   2.651   2.887   4.395  0.2164 -0.1096 -0.5340
 3608SOL    HW122283   2.568   2.848   4.422  0.4005 -1.2600 -1.5994
 3608SOL    HW222284   2.701   2.813   4.359 -0.7130 -0.4713 -1.0680
 3609SOL     OW22285   2.379   2.501   7.464  0.2085  0.8257  0.4853
 3609SOL    HW122286   2.465   2.522   7.500 -0.1095  3.6920 -0.4120
 3609SOL    HW222287   2.348   2.463   7.546 -0.6319  1.3756  0.4326
 3610SOL     OW22288   4.612   1.240   6.447  0.4195 -0.3419  0.0885
 3610SOL    HW122289   4.641   1.159   6.405  1.3160  0.1689 -0.2645
 3610SOL    HW222290   4.676   1.307   6.424  0.5368 -0.5745 -0.2637
 3611SOL     OW22291   2.900   1.930   8.794  0.1781  0.0547 -0.5434
 3611SOL    HW122292   2.981   1.970   8.826  0.1179 -0.6367  0.4741
 3611SOL    HW222293   2.915   1.835   8.796  0.8284  0.1391 -1.2509
 3612SOL     OW22294   3.264   1.013   2.335 -0.5959 -0.4710  0.7716
 3612SOL    HW122295   3.218   0.992   2.416  1.3715 -2.4804  1.3592
 3612SOL    HW222296   3.348   0.993   2.376  0.9344 -1.6554 -2.9858
 3613SOL     OW22297   1.751   3.539  12.495 -0.3487 -0.2130  0.5858
 3613SOL    HW122298   1.729   3.472  12.431 -0.2345 -0.6058  0.9590
 3613SOL    HW222299   1.821   3.490  12.537  1.7866  1.9023 -0.5250
 3614SOL     OW22300   1.746   3.510   1.424  0.4131  0.9038  0.0826
 3614SOL    HW122301   1.841   3.507   1.416  0.2786  0.5648 -1.4202
 3614SOL    HW222302   1.736   3.500   1.519  1.7217 -0.4248  0.0711
 3615SOL     OW22303   3.143   2.451   6.059  0.2895  0.5427  0.1175
 3615SOL    HW122304   3.188   2.392   5.999 -0.0401 -1.2009  1.5717
 3615SOL    HW222305   3.099   2.513   6.001 -0.1796  0.4260  0.3460
 3616SOL     OW22306   1.738   1.766   6.159  0.1978  0.2744  0.0579
 3616SOL    HW122307   1.680   1.809   6.221 -1.2589 -1.2405 -0.2699
 3616SOL    HW222308   1.681   1.751   6.084 -0.7165  0.2243  0.7685
 3617SOL     OW22309   4.702   0.801   8.036 -0.5865  0.6127  0.3964
 3617SOL    HW122310   0.010   0.852   8.111 -1.3822  2.9913 -0.8876
 3617SOL    HW222311   4.620   0.768   8.073 -1.2333  2.1832  0.3688
 3618SOL     OW22312   1.591   1.508   4.206 -0.1583 -0.2626  0.0179
 3618SOL    HW122313   1.636   1.505   4.290 -0.1177  0.0534  0.0062
 3618SOL    HW222314   1.664   1.501   4.146 -1.1330 -0.0585 -1.1854
 3619SOL     OW22315   4.665   1.410   8.730  0.2209 -0.8590  1.0209
 3619SOL    HW122316   4.600   1.372   8.790 -1.4480  1.0084  0.3949
 3619SOL    HW222317   4.645   1.504   8.726 -1.3368 -1.2557 -0.3945
 3620SOL     OW22318   0.038   1.310  13.171  0.3757  0.1480  0.2225
 3620SOL    HW122319   0.109   1.248  13.188  0.4313  0.4580  1.1350
 3620SOL    HW222320   4.684   1.256  13.179  1.2316 -1.2320 -0.6485
 3621SOL     OW22321   0.573   4.672  12.689  0.0266 -0.0959 -0.0374
 3621SOL    HW122322   0.490   4.639  12.724 -0.0307  0.7977  0.6567
 3621SOL    HW222323   0.569   0.036  12.726  2.2126  0.0340 -0.0990
 3622SOL     OW22324   3.162   2.350   6.655 -0.4823 -0.2387 -0.0799
 3622SOL    HW122325   3.248   2.360   6.696 -0.5411  0.6580 -0.1942
 3622SOL    HW222326   3.191   2.355   6.563 -0.2744  0.9354  0.0487
 3623SOL     OW22327   1.442   2.861   2.311  0.4041  0.3554 -0.2246
 3623SOL    HW122328   1.436   2.892   2.402  0.7517  0.6265 -0.2953
 3623SOL    HW222329   1.515   2.918   2.287  0.2662  1.7077  2.5900
 3624SOL     OW22330   4.153   4.290  16.246 -0.6584  0.2465 -0.2824
 3624SOL    HW122331   4.167   4.220  16.309 -0.9281  0.9021  0.5079
 3624SOL    HW222332   4.124   4.243  16.167 -1.5236  1.0403 -0.4456
 3625SOL     OW22333   1.897   1.067   3.825  1.2346 -0.1499  0.0833
 3625SOL    HW122334   1.936   1.065   3.737 -1.5017 -1.1952 -1.1156
 3625SOL    HW222335   1.834   0.996   3.822  2.5112 -1.2168 -1.1622
 3626SOL     OW22336   0.720   4.077   6.399  0.2598  0.1107  0.2804
 3626SOL    HW122337   0.735   4.054   6.490 -0.5759 -0.3532  0.2990
 3626SOL    HW222338   0.690   4.166   6.418 -2.4865 -0.5267 -1.0043
 3627SOL     OW22339   3.564   0.143   0.804 -0.4809 -0.8285  0.6032
 3627SOL    HW122340   3.609   0.099   0.877 -1.5234 -0.6683  1.3330
 3627SOL    HW222341   3.604   0.100   0.728 -1.7804  1.2381 -1.2313
 3628SOL     OW22342   4.406   0.998   8.358  0.0342  0.3501 -0.1993
 3628SOL    HW122343   4.391   1.084   8.320  0.6663  0.1876 -0.8249
 3628SOL    HW222344   4.315   0.971   8.368  0.6780 -1.4027  0.9642
 3629SOL     OW22345   4.147   1.973   2.745 -0.9244 -0.2507  0.6262
 3629SOL    HW122346   4.210   1.953   2.814  0.0250  0.8948  0.0620
 3629SOL    HW222347   4.096   2.052   2.761 -0.6901 -0.0013  0.0957
 3630SOL     OW22348   1.225   2.188   3.850  0.3549  0.7735 -0.3468
 3630SOL    HW122349   1.246   2.121   3.784  1.1882  0.1858  0.5031
 3630SOL    HW222350   1.153   2.232   3.805  0.4305  0.4781 -0.7575
 3631SOL     OW22351   0.907   1.449   7.490  0.2057  0.7849 -0.3609
 3631SOL    HW122352   0.913   1.489   7.577 -1.7999 -2.8545  1.4738
 3631SOL    HW222353   0.840   1.383   7.506 -0.8688  1.9562 -0.0737
 3632SOL     OW22354   0.335   1.051   3.354  0.2071 -0.3350  0.2177
 3632SOL    HW122355   0.362   0.990   3.286 -0.5491  1.7026 -1.9484
 3632SOL    HW222356   0.263   1.002   3.394  0.5297  0.1481  1.3777
 3633SOL     OW22357   0.825   4.567   8.197  0.3051 -0.1960 -0.2036
 3633SOL    HW122358   0.814   4.500   8.130 -2.7042  0.4772 -0.3782
 3633SOL    HW222359   0.753   4.560   8.259 -0.0342 -0.2271 -0.6042
 3634SOL     OW22360   3.666   4.670   8.366  0.1703 -0.5130  0.2511
 3634SOL    HW122361   3.584   4.643   8.407 -0.7692  1.2606 -0.4985
 3634SOL    HW222362   3.630   0.024   8.324  0.0911 -0.1754  0.9511
 3635SOL     OW22363   1.621   1.056   4.442 -0.1477  0.5411 -0.1907
 3635SOL    HW122364   1.590   1.009   4.519 -2.4527  0.8295 -0.9382
 3635SOL    HW222365   1.649   0.986   4.383 -1.3740 -0.4814  0.4394
 3636SOL     OW22366   4.525   4.392  11.620 -0.2933  0.2111  0.0316
 3636SOL    HW122367   4.607   4.373  11.575  0.7098  0.6465  1.6918
 3636SOL    HW222368   4.477   4.398  11.537  0.9604 -1.4719 -0.8058
 3637SOL     OW22369   0.175   2.037   8.302 -0.0079  0.0743 -0.0453
 3637SOL    HW122370   0.163   1.986   8.382  2.8641 -1.6587 -0.7249
 3637SOL    HW222371   0.133   2.118   8.330 -1.3436 -0.7374  0.3341
 3638SOL     OW22372   4.205   0.481  17.690 -0.7502 -0.0939  0.3913
 3638SOL    HW122373   4.121   0.507   0.031 -0.0574  0.7035  1.3866
 3638SOL    HW222374   4.179   0.415  17.626 -1.0721 -2.0951  2.5546
 3639SOL     OW22375   0.882   2.564   2.747 -0.2455 -0.0876 -0.1486
 3639SOL    HW122376   0.822   2.612   2.689  0.8974  0.6623 -0.7061
 3639SOL    HW222377   0.948   2.633   2.755 -0.6775  0.4072 -0.8945
 3640SOL     OW22378   1.647   4.494   4.807 -0.0433 -0.6590 -0.0062
 3640SOL    HW122379   1.683   4.485   4.719  0.1994  2.0020 -0.1896
 3640SOL    HW222380   1.720   4.541   4.848  0.2519  0.1379 -1.4478
 3641SOL     OW22381   0.412   2.818   2.773 -0.4614 -0.2900 -0.5607
 3641SOL    HW122382   0.388   2.818   2.866 -1.2489  0.9720 -0.7688
 3641SOL    HW222383   0.399   2.909   2.750  0.0066 -0.0857 -0.0161
 3642SOL     OW22384   0.561   2.438   3.709 -0.2462 -0.2876 -0.9149
 3642SOL    HW122385   0.652   2.426   3.738 -0.5927 -2.5653 -0.8073
 3642SOL    HW222386   0.523   2.353   3.726 -0.6715 -0.0159 -0.5086
 3643SOL     OW22387   4.205   2.202  14.805 -0.3500 -0.1888 -0.7116
 3643SOL    HW122388   4.182   2.292  14.783  2.7651  0.8641  0.4389
 3643SOL    HW222389   4.130   2.159  14.764  0.5593  0.8367 -3.4491
 3644SOL     OW22390   2.119   0.366  14.851  0.0112 -0.1275 -0.1947
 3644SOL    HW122391   2.180   0.353  14.923 -0.4592 -1.5833 -0.0661
 3644SOL    HW222392   2.150   0.308  14.781 -0.3082 -2.7210  1.8176
 3645SOL     OW22393   3.760   3.161   8.037 -0.1179 -0.0720  0.1215
 3645SOL    HW122394   3.843   3.155   8.084 -0.7113 -2.8814  0.8453
 3645SOL    HW222395   3.787   3.202   7.955 -0.6689 -0.7051 -0.3739
 3646SOL     OW22396   4.448   1.095   8.949  0.0565  0.3839 -0.0796
 3646SOL    HW122397   4.364   1.049   8.953  1.0183 -1.3681 -0.0896
 3646SOL    HW222398   4.499   1.018   8.923  1.7259  1.1211  1.0505
 3647SOL     OW22399   1.568   0.285  10.161 -0.6887 -0.0808  0.0454
 3647SOL    HW122400   1.485   0.239  10.150 -0.5511  0.1957 -2.2203
 3647SOL    HW222401   1.584   0.302  10.068  0.6874 -0.7788  0.1707
 3648SOL     OW22402   3.597   4.138   2.091  0.0258  0.1853  0.2981
 3648SOL    HW122403   3.586   4.223   2.132  1.7432  0.8519 -0.5988
 3648SOL    HW222404   3.634   4.095   2.168 -0.6057 -0.0016  0.4937
 3649SOL     OW22405   3.371   4.537   1.686 -0.0837 -0.5329 -0.2305
 3649SOL    HW122406   3.459   4.517   1.716  0.4687 -0.4348 -1.7536
 3649SOL    HW222407   3.311   4.523   1.759 -0.3300  3.2339  0.3004
 3650SOL     OW22408   2.458   1.507   2.152 -0.1104 -0.3817 -0.6973
 3650SOL    HW122409   2.399   1.556   2.094  0.9564  1.9655  0.1799
 3650SOL    HW222410   2.448   1.554   2.235 -0.2519  0.6843 -1.3210
 3651SOL     OW22411   3.293   2.150   8.488  0.6584 -0.2107 -0.3503
 3651SOL    HW122412   3.214   2.131   8.539  0.0819  0.0876 -1.1384
 3651SOL    HW222413   3.330   2.062   8.482 -1.4872 -1.1314 -0.1997
 3652SOL     OW22414   0.782   0.126  13.485 -0.5203  0.5980 -0.6578
 3652SOL    HW122415   0.772   0.221  13.491  2.6188  0.9163 -0.8344
 3652SOL    HW222416   0.690   0.102  13.496 -0.5886 -0.3341 -3.3259
 3653SOL     OW22417   0.540   2.671  10.471  0.6652  0.2650 -0.5651
 3653SOL    HW122418   0.572   2.655  10.382 -0.5362  1.6772 -1.2599
 3653SOL    HW222419   0.612   2.631  10.519  0.5816  0.2130 -0.4819
 3654SOL     OW22420   3.513   2.486  12.468 -0.2562 -0.0377 -0.0043
 3654SOL    HW122421   3.521   2.441  12.384 -0.0947 -0.4778  0.2505
 3654SOL    HW222422   3.474   2.572  12.451 -1.4545 -0.8656 -1.4117
 3655SOL     OW22423   0.137   4.246   2.330  0.0737  0.4373  0.3997
 3655SOL    HW122424   0.189   4.321   2.360 -0.1638  1.2192 -1.1267
 3655SOL    HW222425   0.069   4.238   2.397 -0.0132  2.0298  0.5122
 3656SOL     OW22426   3.293   0.168   6.429  0.3798 -0.0880  0.1421
 3656SOL    HW122427   3.362   0.232   6.410  0.2989  0.1511  0.6520
 3656SOL    HW222428   3.337   0.112   6.493 -0.4997  0.8392  1.5627
 3657SOL     OW22429   3.958   1.160   1.301 -0.1219 -0.2246 -0.1258
 3657SOL    HW122430   3.902   1.218   1.352 -0.2950 -0.4470 -0.0616
 3657SOL    HW222431   3.932   1.079   1.346  1.4358 -0.6974 -0.0856
 3658SOL     OW22432   1.895   3.585   8.321  0.1025 -0.3619 -0.6313
 3658SOL    HW122433   1.814   3.540   8.345  1.6049 -1.8707  1.5942
 3658SOL    HW222434   1.879   3.608   8.229 -1.7420  0.0941 -0.2050
 3659SOL     OW22435   4.164   0.505   9.314  0.4591 -0.2979  0.2567
 3659SOL    HW122436   4.182   0.504   9.408  1.6283  1.9879  0.0506
 3659SOL    HW222437   4.069   0.513   9.308  0.5259  0.1564 -0.1325
 3660SOL     OW22438   1.836   3.207  14.254 -0.6164  0.2257  0.0513
 3660SOL    HW122439   1.881   3.123  14.253  1.8668  1.5369  0.8884
 3660SOL    HW222440   1.754   3.181  14.215 -0.8919  1.3913 -0.1498
 3661SOL     OW22441   2.392   3.784   5.366  0.7934 -0.3761 -0.1190
 3661SOL    HW122442   2.329   3.856   5.368  1.3436  0.1033 -0.0483
 3661SOL    HW222443   2.335   3.708   5.350 -1.2601  0.9512  0.9346
 3662SOL     OW22444   4.211   3.710   1.546 -0.1028 -0.3621  0.0874
 3662SOL    HW122445   4.226   3.714   1.452 -0.2677  1.4848  0.1310
 3662SOL    HW222446   4.262   3.633   1.571  0.6890  0.2778  0.4218
 3663SOL     OW22447   2.346   0.409  17.642  0.3254  0.5034 -0.0053
 3663SOL    HW122448   2.363   0.496  17.679  1.9127 -0.2828  1.1210
 3663SOL    HW222449   2.347   0.422  17.547 -0.5512  1.9223  0.1826
 3664SOL     OW22450   2.295   3.463   3.992 -0.4541  0.4822  0.2751
 3664SOL    HW122451   2.319   3.543   4.037  0.2402 -0.0716  0.8817
 3664SOL    HW222452   2.366   3.419   4.037  2.3168  2.0050 -2.5776
 3665SOL     OW22453   3.913   1.425   3.114 -0.2544 -0.2704 -0.0493
 3665SOL    HW122454   3.987   1.377   3.077 -0.3593 -0.3461 -0.1631
 3665SOL    HW222455   3.920   1.518   3.090 -0.3384 -0.2632 -0.0461
 3666SOL     OW22456   2.957   1.514   0.151  0.1402 -0.1463  0.1724
 3666SOL    HW122457   2.975   1.607   0.158  1.3498 -0.3949  0.3196
 3666SOL    HW222458   2.959   1.495   0.244 -2.0484  0.2403  0.2891
 3667SOL     OW22459   3.558   1.843   3.339 -0.0760 -0.3559 -0.1348
 3667SOL    HW122460   3.598   1.762   3.306 -2.3583 -0.8234 -1.7362
 3667SOL    HW222461   3.631   1.869   3.396 -0.3797 -1.1235  0.6134
 3668SOL     OW22462   3.737   0.839   2.419 -0.1768  0.4821 -0.0839
 3668SOL    HW122463   3.694   0.783   2.354  1.0970 -0.0934 -0.4298
 3668SOL    HW222464   3.813   0.856   2.363  0.4524  2.0340  1.2371
 3669SOL     OW22465   3.225   4.546   5.035  0.0946  0.0973  0.0057
 3669SOL    HW122466   3.175   4.577   5.111  0.9938 -0.2697  0.7420
 3669SOL    HW222467   3.170   4.470   5.017  1.1993 -0.6257 -0.3088
 3670SOL     OW22468   2.700   2.532  15.786 -0.0171 -0.2136 -0.3464
 3670SOL    HW122469   2.638   2.471  15.825 -2.0270  1.4095 -0.9658
 3670SOL    HW222470   2.780   2.486  15.813  0.6128  0.9924 -0.1419
 3671SOL     OW22471   2.146   0.297   8.747 -0.4066 -0.3738  0.0341
 3671SOL    HW122472   2.057   0.262   8.747 -0.8155  0.6755  0.5057
 3671SOL    HW222473   2.171   0.284   8.838 -0.0085  1.4915  0.1933
 3672SOL     OW22474   3.895   0.172   6.405  0.2568 -0.0349 -0.0029
 3672SOL    HW122475   3.930   0.241   6.349 -1.0467  0.8716  0.2739
 3672SOL    HW222476   3.927   0.092   6.364  0.7014  0.4287 -0.5644
 3673SOL     OW22477   2.523   1.489   8.860 -0.1667  0.1069  0.4137
 3673SOL    HW122478   2.610   1.528   8.865  0.8051 -2.3102  2.3205
 3673SOL    HW222479   2.506   1.510   8.768  0.5437 -0.7245  0.0947
 3674SOL     OW22480   2.839   4.715   0.802 -0.3371 -0.0648 -0.6457
 3674SOL    HW122481   2.847   0.082   0.832  1.1293 -0.4528  0.1782
 3674SOL    HW222482   2.897   4.667   0.862 -0.0981  1.2388  0.1652
 3675SOL     OW22483   3.865   2.958   9.839 -0.3014  0.1835  0.7772
 3675SOL    HW122484   3.790   2.910   9.804 -0.3763  0.7072  0.2110
 3675SOL    HW222485   3.841   2.972   9.931  2.4117  2.7353  1.1079
 3676SOL     OW22486   3.475   3.862   6.815 -0.0757  0.1835  0.1543
 3676SOL    HW122487   3.545   3.920   6.845  1.3911 -1.4724 -0.1088
 3676SOL    HW222488   3.497   3.776   6.848  2.4511  0.4898 -0.7218
 3677SOL     OW22489   1.931   3.595   5.909  0.4862 -0.1182 -0.4846
 3677SOL    HW122490   1.852   3.553   5.876  0.0143  0.3996  0.0080
 3677SOL    HW222491   1.904   3.621   5.997  1.6470  0.1204 -0.1863
 3678SOL     OW22492   4.351   1.226   2.541  0.3042 -0.3314  0.3252
 3678SOL    HW122493   4.431   1.174   2.527  1.6388  2.5303 -2.7367
 3678SOL    HW222494   4.293   1.163   2.499 -1.6375  0.9566  1.1180
 3679SOL     OW22495   2.884   1.062  16.022 -0.3323 -0.0823  0.0836
 3679SOL    HW122496   2.864   1.146  16.062  0.8432  0.7588 -1.0937
 3679SOL    HW222497   2.844   1.063  15.935  2.3871  3.3524 -1.1310
 3680SOL     OW22498   0.367   0.208   8.078 -0.0331  0.8153 -0.5088
 3680SOL    HW122499   0.405   0.161   8.004  0.2484 -2.0804  1.4714
 3680SOL    HW222500   0.322   0.282   8.037 -0.7382 -0.3063 -1.7674
 3681SOL     OW22501   2.902   0.025   1.933 -0.0191 -0.2062  0.1007
 3681SOL    HW122502   2.985   0.027   1.982 -0.6127  0.0203  1.1001
 3681SOL    HW222503   2.850   4.680   1.975  0.3373 -0.4583  0.1297
 3682SOL     OW22504   4.550   4.668  13.520 -0.2387 -0.1890 -0.0065
 3682SOL    HW122505   4.616   4.706  13.578  0.5042 -1.2547 -0.1552
 3682SOL    HW222506   4.472   4.686  13.574 -1.6768 -1.4275 -1.6644
 3683SOL     OW22507   1.545   3.205  17.276  0.2524  0.0684  0.3635
 3683SOL    HW122508   1.461   3.250  17.275 -0.4807 -1.3326 -0.4329
 3683SOL    HW222509   1.532   3.146  17.203 -0.5904  0.6526  0.0465
 3684SOL     OW22510   0.284   2.189  16.052 -0.2163 -0.3954 -0.0228
 3684SOL    HW122511   0.251   2.132  16.122 -0.1161  2.6372  2.5383
 3684SOL    HW222512   0.239   2.269  16.080 -0.0024  0.2381 -1.5064
 3685SOL     OW22513   4.256   0.693  10.745  0.1883 -0.3501 -0.2371
 3685SOL    HW122514   4.294   0.681  10.658  3.3335  1.6804  0.8426
 3685SOL    HW222515   4.286   0.776  10.783 -0.5975 -0.3472  0.3833
 3686SOL     OW22516   1.788   3.843   9.497 -0.1705  0.2564 -0.1803
 3686SOL    HW122517   1.720   3.845   9.429 -0.2688  3.3639  0.0120
 3686SOL    HW222518   1.746   3.895   9.566  1.2963 -0.4835  1.2495
 3687SOL     OW22519   4.585   1.049   3.094  0.8053 -0.0821 -0.1714
 3687SOL    HW122520   4.614   0.963   3.126 -1.3016 -1.3194 -1.5245
 3687SOL    HW222521   4.494   1.033   3.067  1.1863 -0.0197 -1.4972
 3688SOL     OW22522   0.761   4.617  11.327  0.0244 -0.6760 -0.1833
 3688SOL    HW122523   0.787   4.708  11.340 -0.7198 -0.3967 -0.6976
 3688SOL    HW222524   0.791   4.572  11.406  0.4983  0.4828  0.2914
 3689SOL     OW22525   2.049   2.968   8.503 -0.0917  0.2905  0.2190
 3689SOL    HW122526   2.140   2.954   8.476  0.2994  1.0494  1.1567
 3689SOL    HW222527   2.027   3.053   8.466 -0.1523 -0.3320 -1.1648
 3690SOL     OW22528   0.532   3.547  11.936  0.5273  0.0678  0.5613
 3690SOL    HW122529   0.551   3.471  11.880 -1.4395 -0.8725  1.1457
 3690SOL    HW222530   0.513   3.614  11.870  1.1633  0.2226  0.5399
 3691SOL     OW22531   1.195   1.644   5.339 -0.0507 -0.1832  0.0136
 3691SOL    HW122532   1.205   1.641   5.243 -0.9164 -2.7362 -0.0043
 3691SOL    HW222533   1.102   1.628   5.355 -0.1169  0.4116  0.2089
 3692SOL     OW22534   1.112   0.899   8.205 -0.2516  0.0721 -0.2390
 3692SOL    HW122535   1.070   0.824   8.247 -0.2507 -0.2982 -0.8962
 3692SOL    HW222536   1.086   0.968   8.266 -0.9869  1.0608 -1.6774
 3693SOL     OW22537   0.180   3.308   2.144 -0.5108 -0.3359  0.3850
 3693SOL    HW122538   0.208   3.277   2.057  0.0354  0.7301  0.1807
 3693SOL    HW222539   0.189   3.401   2.125 -0.4330  0.1474  2.8612
 3694SOL     OW22540   2.781   3.315  15.288  0.5574 -0.6947 -0.4559
 3694SOL    HW122541   2.803   3.407  15.301  1.6802 -0.4587 -4.0609
 3694SOL    HW222542   2.799   3.300  15.195  0.4705 -0.6117 -0.4873
 3695SOL     OW22543   2.147   3.512   3.618  0.4362 -0.2800  0.0116
 3695SOL    HW122544   2.221   3.477   3.570 -0.1399 -2.2352  0.5498
 3695SOL    HW222545   2.108   3.554   3.541  1.2931 -0.6565 -0.6230
 3696SOL     OW22546   4.433   3.626   3.213  0.1278 -0.3009 -0.2608
 3696SOL    HW122547   4.523   3.654   3.198  0.0825  0.4000  0.7788
 3696SOL    HW222548   4.402   3.648   3.125  0.7579 -1.6296 -0.8248
 3697SOL     OW22549   2.155   4.575  13.681 -0.6371 -0.0961 -0.6982
 3697SOL    HW122550   2.122   4.519  13.611  0.8452 -0.3697 -1.1638
 3697SOL    HW222551   2.136   4.656  13.634 -0.4380  1.1166  1.3106
 3698SOL     OW22552   2.098   1.182  16.819  0.1842 -0.2335 -0.7349
 3698SOL    HW122553   2.168   1.126  16.785  1.4262  0.9565 -0.1181
 3698SOL    HW222554   2.038   1.113  16.848 -2.6102  1.9609 -1.3754
 3699SOL     OW22555   3.737   4.305   5.754 -0.2112 -0.0146  0.1965
 3699SOL    HW122556   3.676   4.364   5.711 -0.2465 -0.2023 -0.0115
 3699SOL    HW222557   3.677   4.244   5.797  0.5435 -0.3546  0.7641
 3700SOL     OW22558   0.027   2.281   0.047 -0.2316  0.3082  0.2916
 3700SOL    HW122559   0.044   2.364   0.004 -0.2383 -0.3870 -1.0500
 3700SOL    HW222560   0.104   2.271   0.103  0.1253 -1.1992 -0.4646
 3701SOL     OW22561   1.821   2.289  13.668  0.1946 -0.3578  0.0677
 3701SOL    HW122562   1.859   2.257  13.586 -0.5180  0.5461 -0.6250
 3701SOL    HW222563   1.729   2.273  13.648  0.5763 -0.3357 -1.7641
 3702SOL     OW22564   3.145   3.583  13.197 -1.1320  0.0585 -0.4118
 3702SOL    HW122565   3.233   3.555  13.223 -2.2537 -0.4634  2.8668
 3702SOL    HW222566   3.114   3.512  13.142  0.2066 -1.3357  0.6361
 3703SOL     OW22567   2.532   3.248   3.000  0.2401 -0.0054  0.3645
 3703SOL    HW122568   2.447   3.267   3.038  0.6630  1.7163  0.4549
 3703SOL    HW222569   2.580   3.209   3.073  2.8484  0.2108 -1.2279
 3704SOL     OW22570   1.337   3.026   7.781  0.1311  0.1671 -0.0986
 3704SOL    HW122571   1.271   3.020   7.713 -2.2868  1.1631  2.1766
 3704SOL    HW222572   1.402   3.084   7.740 -0.9713  0.3484 -1.5514
 3705SOL     OW22573   3.699   1.499   9.103  0.1637 -0.1389  0.5371
 3705SOL    HW122574   3.794   1.493   9.117 -0.0209 -0.0908  1.8118
 3705SOL    HW222575   3.668   1.568   9.162  0.1510 -0.2360  0.6428
 3706SOL     OW22576   4.292   1.885   0.928 -0.2163 -0.2709  0.0534
 3706SOL    HW122577   4.303   1.969   0.885 -1.7641  1.5481  3.1596
 3706SOL    HW222578   4.199   1.895   0.950  0.0014  2.6350 -0.3697
 3707SOL     OW22579   0.050   2.431   6.683 -0.1404 -0.0964  0.0409
 3707SOL    HW122580   0.100   2.435   6.764 -4.0854  0.7244  2.4643
 3707SOL    HW222581   0.037   2.526   6.674 -0.6380 -0.0545  1.1290
 3708SOL     OW22582   2.029   2.909   6.344  0.2419  0.3435 -0.7354
 3708SOL    HW122583   2.029   2.851   6.267 -2.0972  0.2919 -0.7099
 3708SOL    HW222584   1.937   2.888   6.364  0.2772 -0.6679 -1.6093
 3709SOL     OW22585   2.496   4.340   5.233 -0.0175 -0.0168 -0.7647
 3709SOL    HW122586   2.452   4.417   5.197  0.0024 -0.3029 -1.4064
 3709SOL    HW222587   2.460   4.273   5.176 -1.4340  0.9707 -1.0226
 3710SOL     OW22588   0.116   1.360   8.060  0.1812  0.4669 -0.1172
 3710SOL    HW122589   0.158   1.305   8.126 -1.3104  1.8255  1.9380
 3710SOL    HW222590   0.113   1.445   8.103 -0.1257  0.6724 -0.5381
 3711SOL     OW22591   3.986   0.654   7.027 -0.2561 -0.8166  0.2413
 3711SOL    HW122592   3.919   0.586   7.023 -1.6097  0.3668  2.9034
 3711SOL    HW222593   3.991   0.669   7.122  0.2971 -3.0799  0.5501
 3712SOL     OW22594   0.918   2.267   3.387  0.4058 -1.3562 -0.3094
 3712SOL    HW122595   0.907   2.180   3.424  2.3188 -0.7194  1.7460
 3712SOL    HW222596   0.851   2.261   3.319  0.1524  1.2539 -0.2990
 3713SOL     OW22597   0.677   3.785   3.011 -0.6577  0.3361 -0.1445
 3713SOL    HW122598   0.732   3.707   3.018  1.0246  1.5338 -0.0817
 3713SOL    HW222599   0.720   3.853   3.063  0.9291 -0.5440 -0.2951
 3714SOL     OW22600   2.270   3.686   5.989  0.3730  0.0750 -0.3127
 3714SOL    HW122601   2.327   3.644   6.053  1.6445 -0.9742 -2.1283
 3714SOL    HW222602   2.339   3.722   5.934  0.2954  0.7052  0.0065
 3715SOL     OW22603   4.354   2.841   6.815 -0.7133  0.1045 -0.4922
 3715SOL    HW122604   4.298   2.770   6.846 -1.3978  1.1742  0.7325
 3715SOL    HW222605   4.431   2.823   6.870  0.8807 -0.9795 -3.0995
 3716SOL     OW22606   3.476   2.624   5.849 -0.1142 -0.3051 -0.0344
 3716SOL    HW122607   3.505   2.614   5.940  0.0303  0.0490 -0.0409
 3716SOL    HW222608   3.512   2.544   5.812  1.1012  0.3309 -0.2563
 3717SOL     OW22609   4.147   4.155   4.014 -0.1359  0.1130  0.2280
 3717SOL    HW122610   4.116   4.149   3.924 -1.4917 -0.9912  0.7766
 3717SOL    HW222611   4.067   4.178   4.060 -0.3645  1.8368 -1.0383
 3718SOL     OW22612   3.664   3.045  11.764 -0.5502 -1.1166  0.1235
 3718SOL    HW122613   3.711   2.997  11.832 -0.0385 -2.3294 -1.0954
 3718SOL    HW222614   3.734   3.089  11.716 -1.2540  0.1196  0.2290
 3719SOL     OW22615   1.023   2.289   0.605  0.0585 -0.1622  0.5292
 3719SOL    HW122616   1.074   2.211   0.581 -2.4359 -1.9798  1.0410
 3719SOL    HW222617   1.099   2.342   0.628  0.9591 -2.1972  2.2102
 3720SOL     OW22618   2.567   3.817   4.787  0.0610 -0.2423 -0.1415
 3720SOL    HW122619   2.636   3.880   4.768 -1.7710  2.5672  2.4527
 3720SOL    HW222620   2.596   3.786   4.872 -0.0299 -0.1188 -0.0645
 3721SOL     OW22621   3.802   2.334  11.578 -0.0347  0.7668  0.3171
 3721SOL    HW122622   3.854   2.264  11.616 -2.4121 -0.3020  1.6442
 3721SOL    HW222623   3.785   2.301  11.490 -2.0386  0.4937  0.8074
 3722SOL     OW22624   3.239   1.568   9.216  0.0987 -0.0977  0.0310
 3722SOL    HW122625   3.320   1.573   9.265  0.1764 -1.4160  0.0488
 3722SOL    HW222626   3.235   1.658   9.184 -0.4236  0.8217  2.7532
 3723SOL     OW22627   3.115   4.566   5.845  0.3905 -0.5072 -0.2197
 3723SOL    HW122628   3.067   4.649   5.851 -1.4270 -1.2992 -3.6955
 3723SOL    HW222629   3.070   4.528   5.922  1.0913  1.4249  1.1383
 3724SOL     OW22630   2.037   3.326   4.598 -0.3960 -0.2277 -0.4998
 3724SOL    HW122631   2.103   3.261   4.620 -0.9087 -0.3778  0.5947
 3724SOL    HW222632   1.980   3.275   4.540 -0.4850 -0.4287 -0.2332
 3725SOL     OW22633   0.616   0.234   2.478  0.1361  0.4327 -0.1696
 3725SOL    HW122634   0.650   0.159   2.428 -0.6976  0.4513 -0.7693
 3725SOL    HW222635   0.696   0.259   2.523  0.7669  0.4605 -1.3183
 3726SOL     OW22636   4.592   1.491  12.019 -0.8041 -0.2158  1.0746
 3726SOL    HW122637   4.648   1.517  12.093 -1.1246  1.4995  0.7079
 3726SOL    HW222638   4.519   1.550  12.033  0.6634  1.3337  2.2631
 3727SOL     OW22639   3.076   3.715   1.919 -0.2054  0.1360  0.4603
 3727SOL    HW122640   3.053   3.700   2.011  1.6291 -0.1326  0.8770
 3727SOL    HW222641   3.167   3.745   1.923  0.4669 -1.8856  0.2171
 3728SOL     OW22642   4.248   2.765   0.769 -0.1262 -0.4731  0.0207
 3728SOL    HW122643   4.155   2.751   0.788 -0.8753  3.2699 -0.8444
 3728SOL    HW222644   4.246   2.806   0.682 -1.7182 -1.1939 -0.2970
 3729SOL     OW22645   3.262   4.099  17.461  0.2377 -0.0791 -0.1636
 3729SOL    HW122646   3.311   4.077  17.382 -0.4003 -0.4051 -0.4716
 3729SOL    HW222647   3.321   4.064  17.528  1.3715 -1.2245 -1.7438
 3730SOL     OW22648   2.285   4.542   4.029 -0.2456 -0.1930 -0.0284
 3730SOL    HW122649   2.302   4.633   4.053  0.8773 -0.6538  0.9036
 3730SOL    HW222650   2.319   4.502   4.110 -0.4339 -0.0520  0.1207
 3731SOL     OW22651   3.132   2.862   4.459 -0.5800  0.5496  0.1710
 3731SOL    HW122652   3.209   2.894   4.413 -0.6866  0.3304 -0.1565
 3731SOL    HW222653   3.084   2.813   4.392  0.8467  1.2244 -1.3376
 3732SOL     OW22654   2.939   4.403   2.315 -0.2906 -0.0772 -0.7535
 3732SOL    HW122655   2.885   4.342   2.365  0.5747  0.5104  0.9004
 3732SOL    HW222656   2.876   4.467   2.280 -0.6481 -1.2764 -2.3175
 3733SOL     OW22657   2.204   0.003   6.541  0.5038 -0.4213  0.4804
 3733SOL    HW122658   2.257   0.040   6.471 -0.1216 -0.2753  0.0852
 3733SOL    HW222659   2.246   0.024   6.624  1.3411 -0.1039 -0.0235
 3734SOL     OW22660   2.525   3.802   3.236  0.3521 -0.2947  0.8653
 3734SOL    HW122661   2.578   3.765   3.166 -1.0237 -1.1898  0.3005
 3734SOL    HW222662   2.561   3.891   3.228  0.7252 -0.4003  1.3448
 3735SOL     OW22663   2.988   4.535   9.980 -0.0534 -0.0031 -0.6036
 3735SOL    HW122664   2.956   4.610  10.031 -1.3294 -0.6201 -0.5105
 3735SOL    HW222665   3.059   4.584   9.937 -1.5250  1.3165 -1.5446
 3736SOL     OW22666   3.572   3.830   0.067 -0.2960  0.1562  0.2056
 3736SOL    HW122667   3.585   3.818  17.670  0.9451  1.4110  0.2210
 3736SOL    HW222668   3.557   3.924   0.058 -0.3696 -0.0211 -1.4377
 3737SOL     OW22669   1.458   3.752   3.445  0.2091  0.1293  0.8329
 3737SOL    HW122670   1.502   3.676   3.407  1.4985  0.7126  1.1803
 3737SOL    HW222671   1.506   3.758   3.527 -0.6797 -0.1203  1.3723
 3738SOL     OW22672   4.650   2.234   6.557 -0.4348  0.0696 -0.0799
 3738SOL    HW122673   4.713   2.293   6.598  0.3974 -1.6847  1.1401
 3738SOL    HW222674   4.658   2.249   6.462 -1.3136  3.2554  0.3664
 3739SOL     OW22675   3.236   1.173   8.782 -0.1622  0.3325  0.6295
 3739SOL    HW122676   3.151   1.143   8.816  0.0547  0.4834  1.2962
 3739SOL    HW222677   3.278   1.183   8.867 -0.4304 -1.4471  0.9681
 3740SOL     OW22678   0.183   2.846   8.204 -0.2394  0.2551 -0.5985
 3740SOL    HW122679   0.246   2.916   8.218 -0.5199  0.6687 -1.4168
 3740SOL    HW222680   0.108   2.903   8.191  0.2351  1.2301  1.0317
 3741SOL     OW22681   4.358   1.942   6.862 -0.0399  0.8165  0.1661
 3741SOL    HW122682   4.447   1.977   6.852 -0.4627  2.3213  1.7503
 3741SOL    HW222683   4.339   1.975   6.949 -2.6621 -0.3517  0.0255
 3742SOL     OW22684   3.926   4.190  17.145  0.3085 -0.3805  0.8408
 3742SOL    HW122685   3.947   4.255  17.213 -0.6583  0.9833 -0.1754
 3742SOL    HW222686   3.984   4.117  17.165  0.0031 -0.7330  0.4409
 3743SOL     OW22687   3.885   2.741   3.391  0.2811 -0.1187 -0.1577
 3743SOL    HW122688   3.950   2.738   3.461 -0.3755 -2.2678  0.3694
 3743SOL    HW222689   3.893   2.833   3.368 -0.1348 -0.2991 -1.0499
 3744SOL     OW22690   2.369   2.241   8.418 -0.2165  0.0528 -0.2868
 3744SOL    HW122691   2.306   2.213   8.484 -0.3487 -0.8957 -0.8109
 3744SOL    HW222692   2.317   2.306   8.371 -0.9442 -0.9190 -0.8173
 3745SOL     OW22693   1.282   3.290  11.476 -0.5714 -0.2201  0.4789
 3745SOL    HW122694   1.286   3.219  11.412  0.4065 -1.4601  1.9465
 3745SOL    HW222695   1.247   3.368  11.432  0.2487  0.9521  1.9020
 3746SOL     OW22696   2.406   1.797  11.736 -0.1646  0.0642  0.0507
 3746SOL    HW122697   2.451   1.760  11.661  2.5042 -0.3139  1.8552
 3746SOL    HW222698   2.481   1.807  11.795 -0.3709  1.7746  0.0181
 3747SOL     OW22699   4.240   3.983  14.360  0.6001 -0.1203  0.0894
 3747SOL    HW122700   4.326   3.970  14.400  1.9385  0.2311 -2.6460
 3747SOL    HW222701   4.262   4.002  14.269  2.0701  0.2513  0.5078
 3748SOL     OW22702   3.090   0.278   2.036  0.3636 -0.1464 -0.1383
 3748SOL    HW122703   3.041   0.224   2.098 -0.5204  0.2833 -0.4780
 3748SOL    HW222704   3.130   0.209   1.982 -1.4529  0.5133 -2.3074
 3749SOL     OW22705   1.060   0.984   0.039  0.3197 -0.8099 -0.2559
 3749SOL    HW122706   1.011   1.011   0.117 -0.7125  1.6608 -1.7740
 3749SOL    HW222707   1.045   0.891   0.052 -1.0481 -0.6239 -0.5002
 3750SOL     OW22708   0.530   3.678   0.476 -0.1637 -0.1785  0.0187
 3750SOL    HW122709   0.535   3.748   0.542  0.8369 -0.6194  0.3992
 3750SOL    HW222710   0.455   3.707   0.423  0.3638 -0.2208 -0.7472
 3751SOL     OW22711   2.951   2.191   3.643 -0.2204 -0.8074 -0.1847
 3751SOL    HW122712   3.012   2.124   3.612  1.2510  1.5308 -2.4807
 3751SOL    HW222713   2.919   2.216   3.556  0.5896  1.3952  0.1455
 3752SOL     OW22714   2.488   3.037   2.221  0.4786  0.7454  0.1546
 3752SOL    HW122715   2.444   2.973   2.278  0.8726 -0.2633 -0.6756
 3752SOL    HW222716   2.463   3.114   2.272 -2.1729  0.5160 -0.7873
 3753SOL     OW22717   4.468   2.265   8.864  0.4179  0.1477  0.4320
 3753SOL    HW122718   4.464   2.321   8.942 -0.9638  2.3618 -1.2190
 3753SOL    HW222719   4.386   2.217   8.870  0.7526  0.0792  4.5186
 3754SOL     OW22720   1.974   4.108   3.060 -0.1584 -0.1649  0.7306
 3754SOL    HW122721   1.916   4.184   3.065 -1.5830 -1.1854 -0.3057
 3754SOL    HW222722   2.057   4.154   3.045  0.4286 -1.5345 -0.2711
 3755SOL     OW22723   1.136   4.639   7.538 -0.3743  0.1583  0.3188
 3755SOL    HW122724   1.193   4.577   7.493 -2.6782 -0.9524 -1.0387
 3755SOL    HW222725   1.193   4.661   7.612  1.3311 -1.4868 -0.4918
 3756SOL     OW22726   3.076   3.314   5.076  0.4447  0.1981 -0.2018
 3756SOL    HW122727   3.159   3.359   5.092  0.1280  0.1978  1.4256
 3756SOL    HW222728   3.086   3.296   4.982  0.7147  2.8683 -0.6862
 3757SOL     OW22729   0.867   3.172  12.608 -0.1271  0.0914  0.4496
 3757SOL    HW122730   0.774   3.192  12.606  0.4772  2.4955 -2.1942
 3757SOL    HW222731   0.909   3.258  12.618  0.9251 -0.3077 -0.4490
 3758SOL     OW22732   3.135   1.224   4.516 -0.4332  0.3229  0.2777
 3758SOL    HW122733   3.067   1.286   4.540 -1.5057 -0.7424  0.0302
 3758SOL    HW222734   3.203   1.282   4.483 -0.2973  1.5044  2.6606
 3759SOL     OW22735   4.011   1.478   0.623  0.1862 -0.0067  0.0286
 3759SOL    HW122736   3.982   1.510   0.537  1.1437 -0.1891 -0.3603
 3759SOL    HW222737   3.930   1.439   0.657  1.5002 -3.7002 -1.1086
 3760SOL     OW22738   0.114   1.134   1.283  0.8475 -0.0489 -0.1891
 3760SOL    HW122739   0.126   1.042   1.305 -1.6438 -0.2151  0.5204
 3760SOL    HW222740   0.171   1.173   1.349  0.6091 -0.0432  0.0131
 3761SOL     OW22741   3.090   3.064   0.694 -0.0617  0.5717 -0.3201
 3761SOL    HW122742   3.042   3.007   0.754 -1.0610  0.0635 -1.6166
 3761SOL    HW222743   3.134   3.002   0.636  0.6739 -0.8200  1.7044
 3762SOL     OW22744   1.314   1.186   5.662 -0.2049 -0.2348  0.2997
 3762SOL    HW122745   1.369   1.186   5.740  0.2613 -0.4290 -0.0304
 3762SOL    HW222746   1.356   1.248   5.602  2.1401 -2.7205 -0.6536
 3763SOL     OW22747   0.507   1.264   3.419  0.4606 -0.5277  0.2314
 3763SOL    HW122748   0.539   1.276   3.329 -0.0979 -0.5046  0.0370
 3763SOL    HW222749   0.475   1.174   3.415  0.8334 -0.6561  0.1653
 3764SOL     OW22750   0.032   0.056   2.774 -0.3266 -0.2240  0.2500
 3764SOL    HW122751   0.011   4.689   2.754  2.1915 -0.7476 -0.0239
 3764SOL    HW222752   0.123   0.059   2.744 -0.9756  1.7576 -1.4922
 3765SOL     OW22753   2.141   0.884   3.610 -0.1953  0.3047 -0.9600
 3765SOL    HW122754   2.185   0.966   3.587 -0.5668  0.7880  0.0634
 3765SOL    HW222755   2.198   0.820   3.568  0.1811  0.5100 -0.7637
 3766SOL     OW22756   1.205   4.548   1.844  0.1786  0.8295  0.1019
 3766SOL    HW122757   1.197   4.460   1.808 -1.7403  0.3495  1.7104
 3766SOL    HW222758   1.228   4.527   1.934 -3.4920  0.0305  0.8701
 3767SOL     OW22759   1.677   1.869   4.291  0.0189  0.3160  0.1609
 3767SOL    HW122760   1.645   1.902   4.207  0.6656  1.3128  0.3030
 3767SOL    HW222761   1.709   1.781   4.271 -1.9581 -0.3771  0.0813
 3768SOL     OW22762   0.444   1.136  11.523  0.0840  0.4818 -0.7776
 3768SOL    HW122763   0.510   1.155  11.456  3.2211 -1.1792  1.8392
 3768SOL    HW222764   0.480   1.057  11.564 -1.0529  0.9826  1.1587
 3769SOL     OW22765   0.067   3.719  16.649  0.8674  0.0043  0.2160
 3769SOL    HW122766   0.148   3.738  16.602  0.4724  0.4021 -0.2962
 3769SOL    HW222767   0.006   3.790  16.631  1.5528  0.7085  0.6868
 3770SOL     OW22768   0.068   2.445  16.438 -0.9043 -0.1781  0.2324
 3770SOL    HW122769   0.092   2.431  16.346 -0.2235  0.7870  0.2675
 3770SOL    HW222770   0.120   2.382  16.487 -3.1844 -1.7573  0.6045
 3771SOL     OW22771   0.894   0.332  11.892  0.0588 -0.1348 -0.4471
 3771SOL    HW122772   0.879   0.275  11.967  1.4270  2.5923  1.9082
 3771SOL    HW222773   0.841   0.285  11.827 -1.2745 -0.2460  0.7104
 3772SOL     OW22774   1.226   3.357   8.825 -0.0487 -0.3238  0.1933
 3772SOL    HW122775   1.216   3.371   8.919 -1.1260 -1.2886  0.2195
 3772SOL    HW222776   1.163   3.287   8.808  3.7723 -4.0055  1.2369
 3773SOL     OW22777   2.086   1.141   0.985  0.1223 -0.0838 -0.1573
 3773SOL    HW122778   2.063   1.213   0.928 -0.1228  0.9818  1.2926
 3773SOL    HW222779   2.170   1.170   1.022 -0.3455  2.3456 -1.0414
 3774SOL     OW22780   2.569   0.574   5.535 -0.1602 -0.3125 -0.3310
 3774SOL    HW122781   2.567   0.479   5.526  0.3235 -0.3858  0.3248
 3774SOL    HW222782   2.639   0.582   5.600 -0.5198  1.1965 -0.1477
 3775SOL     OW22783   0.702   0.336   5.856  0.6054 -0.1503  0.0769
 3775SOL    HW122784   0.611   0.320   5.830  0.0732  1.7758  0.7132
 3775SOL    HW222785   0.691   0.376   5.942 -3.7632  1.4880 -1.2485
 3776SOL     OW22786   0.117   2.533   1.554  0.2796 -0.5337  0.0117
 3776SOL    HW122787   0.204   2.522   1.518  1.8925  0.8154  3.4508
 3776SOL    HW222788   0.079   2.445   1.551 -0.8191 -0.1236  1.8649
 3777SOL     OW22789   0.617   1.665   7.114 -0.4284  0.9183 -0.1383
 3777SOL    HW122790   0.544   1.643   7.172  1.3147 -2.3211  0.8204
 3777SOL    HW222791   0.688   1.654   7.177 -0.0250 -2.1221 -1.1006
 3778SOL     OW22792   1.818   4.018   5.362  0.2285  0.2909 -0.1967
 3778SOL    HW122793   1.861   4.103   5.364  1.7333 -0.5073  1.3998
 3778SOL    HW222794   1.737   4.048   5.321  0.4153  1.8087  0.5507
 3779SOL     OW22795   3.684   1.505   7.407  0.0303  0.1501 -0.1767
 3779SOL    HW122796   3.598   1.506   7.449 -0.4956 -0.8013 -1.2105
 3779SOL    HW222797   3.741   1.519   7.482  0.9123  0.4901 -0.9102
 3780SOL     OW22798   1.051   3.251  14.925 -0.1088  0.0392  0.1758
 3780SOL    HW122799   1.085   3.339  14.907 -1.4846  0.4052 -0.6035
 3780SOL    HW222800   1.061   3.204  14.843  1.6455 -0.8678  0.9002
 3781SOL     OW22801   0.764   2.010   6.427  0.1999  0.1011 -0.3248
 3781SOL    HW122802   0.838   2.070   6.441 -0.7864  0.8673  1.5653
 3781SOL    HW222803   0.800   1.928   6.460  0.6665  0.4743  0.0825
 3782SOL     OW22804   2.023   4.469  12.427 -0.5166 -0.1777 -0.0879
 3782SOL    HW122805   2.050   4.389  12.381 -0.0615  0.2430 -0.5515
 3782SOL    HW222806   2.069   4.469  12.511 -2.0123 -0.6958  0.7143
 3783SOL     OW22807   2.859   3.492   4.728 -0.5127  0.7557  0.0760
 3783SOL    HW122808   2.824   3.409   4.697 -0.0032  1.1401 -1.5601
 3783SOL    HW222809   2.834   3.499   4.820 -0.0291  2.3990  0.0925
 3784SOL     OW22810   2.905   3.101   3.520  0.0720 -0.1649  0.0423
 3784SOL    HW122811   2.958   3.134   3.447 -0.8003  0.0659 -0.4907
 3784SOL    HW222812   2.863   3.183   3.546 -0.0010 -0.6631  1.5090
 3785SOL     OW22813   2.803   2.746   1.857  0.7420  0.4402 -0.2967
 3785SOL    HW122814   2.750   2.813   1.900 -0.5164  0.0909 -1.3049
 3785SOL    HW222815   2.765   2.756   1.770 -1.4633  1.6318  0.8151
 3786SOL     OW22816   1.563   0.124   4.038 -0.2837  0.2230 -0.0972
 3786SOL    HW122817   1.614   0.081   4.108  3.6357  0.0567 -3.0787
 3786SOL    HW222818   1.513   0.047   4.009  1.6462 -1.5197  1.1631
 3787SOL     OW22819   1.002   1.133  12.310 -0.5117 -0.0546  0.6533
 3787SOL    HW122820   0.942   1.208  12.317 -0.7011  0.1410 -2.6141
 3787SOL    HW222821   0.951   1.075  12.253 -2.5245  0.8227  1.5735
 3788SOL     OW22822   1.633   1.290   7.375  0.1936 -0.0157  0.2109
 3788SOL    HW122823   1.546   1.327   7.385 -0.6662 -1.6354 -1.2167
 3788SOL    HW222824   1.669   1.366   7.328 -1.5169  0.7029  0.0789
 3789SOL     OW22825   1.437   2.227   4.042 -0.5851 -0.1342  0.2144
 3789SOL    HW122826   1.364   2.201   3.986 -1.3008  1.1573  0.5209
 3789SOL    HW222827   1.397   2.292   4.101  1.6430  1.2700  0.1815
 3790SOL     OW22828   0.026   3.390   3.525  0.3166 -0.3821 -0.1009
 3790SOL    HW122829   0.102   3.376   3.469  0.0108 -0.2504 -0.5487
 3790SOL    HW222830   4.674   3.375   3.467 -0.5498 -0.0764  0.9519
 3791SOL     OW22831   0.196   0.075   7.569  0.1558  0.2307 -0.0760
 3791SOL    HW122832   0.240   0.155   7.596 -0.7878  0.7363 -0.0465
 3791SOL    HW222833   0.154   0.090   7.484  3.6570  2.3713 -1.4236
 3792SOL     OW22834   2.641   3.316  12.415  0.2200 -0.5544  0.1425
 3792SOL    HW122835   2.730   3.339  12.443 -0.2010 -1.6596  2.3112
 3792SOL    HW222836   2.651   3.260  12.338  2.5419 -0.7694  0.6138
 3793SOL     OW22837   0.105   4.139   5.104  0.1578 -0.4343 -0.4175
 3793SOL    HW122838   0.111   4.050   5.138 -0.1929 -0.6026 -0.8015
 3793SOL    HW222839   0.015   4.144   5.072 -0.2931 -1.4485  0.7019
 3794SOL     OW22840   0.319   4.481   6.514  0.1748 -0.1124 -0.3878
 3794SOL    HW122841   0.333   4.398   6.468 -0.0297 -1.7676  2.5383
 3794SOL    HW222842   0.226   4.491   6.496 -0.3261 -0.8896  1.8256
 3795SOL     OW22843   4.591   4.219   2.090 -0.4195  0.1177  0.2028
 3795SOL    HW122844   4.593   4.221   1.994  2.1222 -2.1308  0.2221
 3795SOL    HW222845   4.633   4.135   2.105  2.6727  1.5766 -0.3874
 3796SOL     OW22846   3.113   0.090   8.118 -0.7062 -0.2044 -0.7847
 3796SOL    HW122847   3.125   4.720   8.134 -1.0860 -0.0684  0.3256
 3796SOL    HW222848   3.035   0.086   8.064  1.5031  2.5597 -4.1908
 3797SOL     OW22849   1.539   0.247   6.143 -0.2520 -0.3112 -0.1966
 3797SOL    HW122850   1.528   0.251   6.238 -0.1807 -0.9286 -0.1587
 3797SOL    HW222851   1.589   0.326   6.122  0.1982  0.0682  2.2686
 3798SOL     OW22852   2.543   4.331  16.726 -0.2733  0.6518  0.3765
 3798SOL    HW122853   2.573   4.418  16.750 -0.1979  1.1834 -1.6127
 3798SOL    HW222854   2.616   4.308  16.668 -1.1382  1.0578 -0.8702
 3799SOL     OW22855   2.784   2.726   5.402 -0.1422  0.0448  0.1337
 3799SOL    HW122856   2.863   2.780   5.396 -0.8281  0.8665 -1.6856
 3799SOL    HW222857   2.712   2.790   5.402  1.7244  2.1754 -0.9010
 3800SOL     OW22858   0.956   2.006   3.473 -0.0517  0.1525 -0.1842
 3800SOL    HW122859   0.995   1.939   3.529 -1.5004 -0.8899 -0.4445
 3800SOL    HW222860   1.020   2.007   3.401 -0.6890  0.9591 -0.7453
 3801SOL     OW22861   0.660   2.136   8.420  0.0323  0.0692  0.1624
 3801SOL    HW122862   0.582   2.152   8.367  0.1446 -1.0827 -0.3327
 3801SOL    HW222863   0.628   2.178   8.500 -1.2613  0.7659 -0.7226
 3802SOL     OW22864   0.916   1.311   6.678  0.4913 -0.0808  0.5273
 3802SOL    HW122865   0.959   1.394   6.701 -0.5397  1.2088 -2.1377
 3802SOL    HW222866   0.991   1.253   6.686  0.3941 -0.2214  0.4124
 3803SOL     OW22867   1.657   2.343   4.364  0.2058  0.2250 -0.1125
 3803SOL    HW122868   1.698   2.424   4.396  2.8704 -0.8918 -0.6604
 3803SOL    HW222869   1.642   2.296   4.446 -2.1039 -0.7604 -1.1069
 3804SOL     OW22870   0.831   4.663   2.670  0.1284 -0.1106 -0.6661
 3804SOL    HW122871   0.888   4.628   2.738 -1.0516  1.1224  0.9662
 3804SOL    HW222872   0.891   4.690   2.600  0.4174  1.3661  0.1601
 3805SOL     OW22873   1.393   2.525  12.513  0.4437 -0.2917 -0.0910
 3805SOL    HW122874   1.339   2.536  12.592 -1.1242 -3.0039 -0.7893
 3805SOL    HW222875   1.482   2.506  12.544 -0.0151 -1.7087  0.3644
 3806SOL     OW22876   0.072   1.047   5.729  0.0876  0.6662 -0.1826
 3806SOL    HW122877   0.132   0.988   5.683 -0.2253 -0.9198  1.4605
 3806SOL    HW222878   0.088   1.131   5.685  2.2140  0.3631  0.0260
 3807SOL     OW22879   1.116   3.768  17.481 -0.3076  0.0428 -0.0687
 3807SOL    HW122880   1.185   3.769  17.547 -0.0993  0.4031 -0.2932
 3807SOL    HW222881   1.051   3.724  17.535  1.3944 -0.1649  1.7982
 3808SOL     OW22882   1.268   2.198   0.008  0.1676  0.0922 -0.6471
 3808SOL    HW122883   1.206   2.249   0.060  2.1296  2.0073 -0.1956
 3808SOL    HW222884   1.347   2.180   0.059 -0.0361 -2.0566 -1.1211
 3809SOL     OW22885   4.459   0.285   7.531 -0.1625  0.3907  0.6035
 3809SOL    HW122886   4.500   0.242   7.456 -2.7503 -3.7289  1.5344
 3809SOL    HW222887   4.534   0.336   7.562 -0.8902  2.1625 -0.5902
 3810SOL     OW22888   3.529   3.681   2.866  0.8641 -0.1228  0.9907
 3810SOL    HW122889   3.451   3.674   2.920 -1.6860 -1.5017 -2.8354
 3810SOL    HW222890   3.502   3.757   2.815 -0.1049 -1.5170 -0.5800
 3811SOL     OW22891   1.812   2.550  17.035 -0.0540  0.4248 -0.3900
 3811SOL    HW122892   1.893   2.540  16.985 -0.0594 -3.1661  0.3330
 3811SOL    HW222893   1.750   2.515  16.972 -1.4692 -2.5090  2.6141
 3812SOL     OW22894   2.370   4.413   2.721  0.4412  0.4760 -0.1655
 3812SOL    HW122895   2.318   4.334   2.711 -0.9303  1.4088 -0.5171
 3812SOL    HW222896   2.345   4.454   2.638 -3.4681 -1.0889  0.2683
 3813SOL     OW22897   2.580   3.827   2.059 -0.3090 -0.0189  0.0719
 3813SOL    HW122898   2.621   3.762   2.116  1.3780  1.5936  0.7329
 3813SOL    HW222899   2.596   3.778   1.979  0.5267 -0.3206  0.4207
 3814SOL     OW22900   0.446   2.670   5.765  0.4857  0.4504 -0.4761
 3814SOL    HW122901   0.441   2.623   5.681  0.3767  0.2709 -0.3705
 3814SOL    HW222902   0.390   2.745   5.745 -0.1161  0.2759  0.5646
 3815SOL     OW22903   1.762   4.386   5.674 -0.1440 -0.8563 -0.0856
 3815SOL    HW122904   1.844   4.374   5.720 -0.1232  0.4323  0.1964
 3815SOL    HW222905   1.791   4.432   5.596  0.9780 -0.3963  0.6169
 3816SOL     OW22906   4.278   1.361   1.575 -0.5419 -0.5071  0.2460
 3816SOL    HW122907   4.184   1.362   1.592 -0.2528  1.3912  1.7200
 3816SOL    HW222908   4.279   1.289   1.512  1.3601 -0.4489  0.2220
 3817SOL     OW22909   2.484   4.693   2.641 -0.2614 -0.1058 -0.4658
 3817SOL    HW122910   2.395   4.663   2.621 -0.5466  0.9981 -0.8291
 3817SOL    HW222911   2.529   4.674   2.559 -0.9550 -1.1802 -0.6024
 3818SOL     OW22912   4.583   3.961   7.021 -0.4973 -0.2411 -0.1198
 3818SOL    HW122913   4.634   4.022   7.074 -1.1313 -1.0650  1.4236
 3818SOL    HW222914   4.512   3.925   7.074 -1.3141 -1.7732 -2.2397
 3819SOL     OW22915   3.990   2.496   9.235 -0.1550 -0.4290 -0.2508
 3819SOL    HW122916   4.004   2.525   9.325 -0.6470 -1.4722  0.1613
 3819SOL    HW222917   4.065   2.440   9.218 -0.7787 -0.5086 -2.7650
 3820SOL     OW22918   4.043   2.630   8.393  0.1771  0.3730 -0.1419
 3820SOL    HW122919   4.077   2.540   8.390 -0.4115  0.1128  1.1687
 3820SOL    HW222920   4.045   2.651   8.300  2.7465  0.3137 -0.1025
 3821SOL     OW22921   4.457   2.458   3.318 -0.0695  0.1969 -0.3194
 3821SOL    HW122922   4.415   2.382   3.357  0.5985  0.7372  1.4527
 3821SOL    HW222923   4.455   2.517   3.394 -3.3714  0.0854 -0.3262
 3822SOL     OW22924   0.571   2.665   1.915 -0.0163  0.1552  0.4500
 3822SOL    HW122925   0.546   2.715   1.838  2.4835  2.9627  1.4405
 3822SOL    HW222926   0.507   2.595   1.908 -1.1710  1.4783 -2.2288
 3823SOL     OW22927   0.467   2.234   5.826 -0.0802 -0.1696  0.2028
 3823SOL    HW122928   0.562   2.242   5.816 -0.0789 -0.7794 -0.3013
 3823SOL    HW222929   0.447   2.316   5.871 -0.0889  0.7559 -1.4905
 3824SOL     OW22930   0.072   4.261   1.869 -0.2975 -0.1172 -0.2343
 3824SOL    HW122931   0.041   4.352   1.872  0.0870 -0.0703  1.8107
 3824SOL    HW222932   4.717   4.218   1.835  0.3803 -1.1121 -0.5472
 3825SOL     OW22933   1.780   2.843   6.199 -0.5258  0.4818 -0.5167
 3825SOL    HW122934   1.775   2.934   6.169 -0.7215  1.4023  2.3217
 3825SOL    HW222935   1.799   2.802   6.114  3.0089  0.1679  0.4370
 3826SOL     OW22936   4.405   3.708   7.789  0.2639 -0.0751  0.5334
 3826SOL    HW122937   4.315   3.682   7.774  0.1898  0.0091  0.8305
 3826SOL    HW222938   4.399   3.767   7.865  2.6079  0.7053  0.1294
 3827SOL     OW22939   1.864   2.052   0.645  0.0373  0.2350  0.2882
 3827SOL    HW122940   1.936   2.008   0.690  0.9783  1.7696  0.2842
 3827SOL    HW222941   1.910   2.126   0.606  0.8159  0.1215  0.9906
 3828SOL     OW22942   0.836   0.586  14.067  0.5477 -0.1222  0.0484
 3828SOL    HW122943   0.772   0.656  14.059 -0.0557 -0.4914  1.5678
 3828SOL    HW222944   0.812   0.515  14.008  0.8390  1.2342 -1.6732
 3829SOL     OW22945   3.270   3.075   8.140 -0.5342 -0.2877  0.3336
 3829SOL    HW122946   3.257   3.168   8.121 -2.7357 -0.5182  0.6620
 3829SOL    HW222947   3.309   3.082   8.227 -0.0572 -0.7826  0.1596
 3830SOL     OW22948   0.781   2.218  14.710  0.2103 -0.1227  0.1838
 3830SOL    HW122949   0.702   2.270  14.727 -0.2347 -0.1673 -1.7169
 3830SOL    HW222950   0.749   2.135  14.745  2.8512 -1.9836 -1.8717
 3831SOL     OW22951   3.147   1.217   5.945  0.4028 -0.2524 -0.3589
 3831SOL    HW122952   3.059   1.181   5.951  0.8347 -1.3905 -0.8819
 3831SOL    HW222953   3.123   1.309   5.930  2.1108  0.1536 -0.6217
 3832SOL     OW22954   4.468   3.034   7.079  0.5463  0.2291 -0.2855
 3832SOL    HW122955   4.373   3.023   7.070  0.5199  0.9048 -0.8262
 3832SOL    HW222956   4.483   3.025   7.173 -0.7491 -0.4887 -0.1494
 3833SOL     OW22957   4.297   1.857   9.976 -0.5756  0.2176 -0.0495
 3833SOL    HW122958   4.343   1.773   9.977 -0.9159  0.0376  0.0532
 3833SOL    HW222959   4.207   1.831   9.994 -0.3742  0.3532  1.1191
 3834SOL     OW22960   3.246   3.622   5.845  0.1330  0.3844 -0.1967
 3834SOL    HW122961   3.179   3.659   5.787  0.1626  1.3119  0.3625
 3834SOL    HW222962   3.227   3.532   5.819  1.0311 -0.1365  0.9663
 3835SOL     OW22963   0.636   1.602   8.621 -0.4023  0.1196  1.1273
 3835SOL    HW122964   0.711   1.599   8.680 -0.9383 -2.4244  1.6757
 3835SOL    HW222965   0.558   1.606   8.676 -0.4413  0.5736  1.0423
 3836SOL     OW22966   1.686   1.143   7.610 -0.0552 -0.0414  0.1580
 3836SOL    HW122967   1.649   1.184   7.532  0.2974  0.0826  0.0532
 3836SOL    HW222968   1.719   1.222   7.652 -2.3288 -0.2110  2.1944
 3837SOL     OW22969   2.434   2.670   7.255  0.1171  0.1002  0.0969
 3837SOL    HW122970   2.402   2.755   7.286  0.5811  0.3401 -0.0781
 3837SOL    HW222971   2.431   2.624   7.339  3.1305 -0.5061 -0.1244
 3838SOL     OW22972   2.868   1.249   2.899 -0.2389  0.2575 -0.3822
 3838SOL    HW122973   2.790   1.257   2.954 -0.0491  1.8293 -0.3451
 3838SOL    HW222974   2.829   1.244   2.812  1.2025 -0.1491 -1.0172
 3839SOL     OW22975   1.843   2.112   4.359  0.3086 -0.1292 -0.2187
 3839SOL    HW122976   1.792   2.031   4.357 -1.7366  1.1754 -0.4451
 3839SOL    HW222977   1.784   2.172   4.314  2.9463  1.5545 -1.4875
 3840SOL     OW22978   3.090   4.188   1.982  0.4892 -0.3704  0.7869
 3840SOL    HW122979   3.180   4.159   1.966  0.5411  0.2614 -0.0662
 3840SOL    HW222980   3.041   4.122   1.933 -0.9477  0.4948  1.0647
 3841SOL     OW22981   1.181   4.708  10.482  0.3329  0.4526  0.0809
 3841SOL    HW122982   1.096   0.021  10.508  0.0423 -0.5652  0.5617
 3841SOL    HW222983   1.173   4.615  10.503  0.4006  0.3244 -0.4580
 3842SOL     OW22984   1.806   1.215   6.351 -0.2099 -0.5697 -0.0761
 3842SOL    HW122985   1.877   1.161   6.316  0.4320  1.6265 -2.1271
 3842SOL    HW222986   1.815   1.292   6.295  1.1357 -1.1678 -0.6727
 3843SOL     OW22987   0.546   4.569   6.401  0.0640 -0.0300  0.8365
 3843SOL    HW122988   0.472   4.555   6.460 -1.0717  0.3184 -0.5176
 3843SOL    HW222989   0.514   4.636   6.340 -0.6873 -1.6879 -0.6053
 3844SOL     OW22990   2.336   4.392  10.409 -0.5806 -0.6564 -0.4544
 3844SOL    HW122991   2.280   4.447  10.464 -0.1412  1.6986 -2.3504
 3844SOL    HW222992   2.348   4.312  10.460 -0.2707  0.3310  1.0481
 3845SOL     OW22993   3.545   3.470  11.213  0.0502  0.0375  0.0688
 3845SOL    HW122994   3.494   3.408  11.161 -2.6915  2.3147  0.0619
 3845SOL    HW222995   3.634   3.439  11.195 -0.4050  0.0219 -2.0562
 3846SOL     OW22996   1.257   3.981  14.533  0.1798 -0.1390  0.2889
 3846SOL    HW122997   1.171   4.004  14.498  1.0320  0.2495 -1.5454
 3846SOL    HW222998   1.306   3.953  14.456  1.1273 -2.5219  1.7292
 3847SOL     OW22999   4.302   4.020   0.332 -0.0872 -0.5831  0.1524
 3847SOL    HW123000   4.382   4.008   0.282 -0.2509 -0.2165 -0.2015
 3847SOL    HW223001   4.315   3.970   0.413 -0.9989  1.0350  1.2889
 3848SOL     OW23002   2.887   1.718  13.410 -0.0900 -0.0994  0.1827
 3848SOL    HW123003   2.796   1.695  13.389  0.0729 -0.6810  0.1139
 3848SOL    HW223004   2.877   1.692  13.501  0.5768  0.8934  0.5398
 3849SOL     OW23005   3.538   2.372   5.744 -0.1491  0.0586  0.0900
 3849SOL    HW123006   3.555   2.423   5.664  0.2126  0.2008  0.2571
 3849SOL    HW223007   3.443   2.382   5.753 -0.3292 -0.2763 -1.4145
 3850SOL     OW23008   2.880   2.996   5.825 -0.0745  0.1115  0.4216
 3850SOL    HW123009   2.975   2.992   5.837 -0.0455 -0.9337 -0.1185
 3850SOL    HW223010   2.854   3.088   5.824  0.2807  0.2295  1.5729
 3851SOL     OW23011   2.953   1.382   2.570  0.0743  0.7356  0.7233
 3851SOL    HW123012   3.006   1.321   2.519 -2.5090 -0.9538  0.0729
 3851SOL    HW223013   2.886   1.320   2.599  0.4839  0.1381  0.3802
 3852SOL     OW23014   0.709   3.010   3.655 -0.3107  0.4427 -0.3587
 3852SOL    HW123015   0.615   3.022   3.651 -0.3592 -0.5857 -2.4246
 3852SOL    HW223016   0.728   2.968   3.739  0.3295 -0.5880 -1.0212
 3853SOL     OW23017   1.517   0.904   4.018  0.1390  0.4474  0.4728
 3853SOL    HW123018   1.568   0.884   3.940 -1.5292 -1.3706 -0.1636
 3853SOL    HW223019   1.429   0.921   3.983  0.8522 -0.9252 -1.9681
 3854SOL     OW23020   2.588   4.046  11.581  0.7257  0.4701  0.1356
 3854SOL    HW123021   2.583   3.959  11.621  0.0807  1.1028  1.4183
 3854SOL    HW223022   2.495   4.064  11.567  1.1202  3.4738  1.4102
 3855SOL     OW23023   0.617   1.646   5.124  0.3622 -0.2699 -0.4792
 3855SOL    HW123024   0.546   1.596   5.084  1.7680 -2.8373  0.2433
 3855SOL    HW223025   0.563   1.678   5.196  1.3521 -0.3139  0.2841
 3856SOL     OW23026   4.194   2.471   3.792 -0.5303 -0.1109 -0.3702
 3856SOL    HW123027   4.169   2.396   3.738 -0.1887  0.3686 -1.1902
 3856SOL    HW223028   4.114   2.523   3.795  0.4275  1.3275  0.3883
 3857SOL     OW23029   3.752   0.434   8.943  0.1646  0.0874 -0.0050
 3857SOL    HW123030   3.667   0.418   8.985  0.4931  1.5884  1.2301
 3857SOL    HW223031   3.739   0.526   8.922  0.9363  0.1004 -0.4185
 3858SOL     OW23032   3.741   3.535   4.690  0.5473  0.2225 -0.0063
 3858SOL    HW123033   3.755   3.443   4.669 -0.3325 -0.4447  2.3683
 3858SOL    HW223034   3.786   3.552   4.772  0.0717  1.1027  0.0775
 3859SOL     OW23035   4.555   1.153  11.295 -0.7735 -0.2204 -0.0991
 3859SOL    HW123036   4.603   1.090  11.349  1.6322  0.1595 -1.7931
 3859SOL    HW223037   4.466   1.125  11.313 -0.7220  0.7484  1.6080
 3860SOL     OW23038   3.543   3.538  16.822  0.5156 -0.1533  0.5536
 3860SOL    HW123039   3.510   3.460  16.777 -3.0247  2.1416 -0.8852
 3860SOL    HW223040   3.618   3.500  16.868  0.0081 -0.1827  1.3479
 3861SOL     OW23041   1.304   2.365   2.905  0.2179 -0.2380 -1.1844
 3861SOL    HW123042   1.233   2.345   2.844  0.0559  1.3939 -1.5319
 3861SOL    HW223043   1.344   2.438   2.860  3.8930 -1.4866  0.0443
 3862SOL     OW23044   3.130   0.356   7.799  0.2002 -0.5638  0.0148
 3862SOL    HW123045   3.156   0.369   7.890  0.8486 -1.0308 -0.1057
 3862SOL    HW223046   3.040   0.389   7.792  1.3875  2.8677  0.5579
 3863SOL     OW23047   3.072   1.134   5.103  0.3883 -0.0087 -0.3331
 3863SOL    HW123048   3.150   1.079   5.092  0.5598  0.0450  0.6533
 3863SOL    HW223049   3.106   1.214   5.063 -0.8323  1.2447  1.1417
 3864SOL     OW23050   3.909   3.034   8.748 -0.3379  0.3507 -0.2050
 3864SOL    HW123051   3.958   3.001   8.672  0.5531 -0.7383  0.8422
 3864SOL    HW223052   3.844   2.966   8.762 -1.2150  1.0532 -0.8201
 3865SOL     OW23053   3.889   2.897  11.849 -0.0869 -0.3798 -0.4978
 3865SOL    HW123054   3.930   2.932  11.770  0.5007  1.0689  0.4519
 3865SOL    HW223055   3.930   2.811  11.855 -0.9002 -0.8685 -2.2750
 3866SOL     OW23056   3.728   2.183   3.502  0.2296 -0.0676  0.4531
 3866SOL    HW123057   3.795   2.232   3.549  0.3612 -0.1051  0.3051
 3866SOL    HW223058   3.702   2.248   3.437  2.7053  0.0782 -0.3990
 3867SOL     OW23059   4.215   0.375  11.587  0.0048  0.0152  0.6340
 3867SOL    HW123060   4.245   0.369  11.678  0.4166 -1.8491  0.3815
 3867SOL    HW223061   4.246   0.465  11.574 -0.6246 -0.2127 -2.3578
 3868SOL     OW23062   1.906   2.533   6.454 -0.0028 -0.0289 -0.3923
 3868SOL    HW123063   1.857   2.615   6.460  2.5322  1.5936 -1.8036
 3868SOL    HW223064   1.996   2.562   6.440 -0.5339  0.4109 -2.9382
 3869SOL     OW23065   1.870   2.537   4.422 -0.6529 -0.1721 -0.5363
 3869SOL    HW123066   1.888   2.608   4.361 -0.5343  1.1575  1.0401
 3869SOL    HW223067   1.860   2.587   4.503  2.2908  0.3649 -0.5406
 3870SOL     OW23068   0.130   0.363   4.180  0.4067 -0.3847  0.3349
 3870SOL    HW123069   0.133   0.398   4.091  1.3266  0.3883  0.6673
 3870SOL    HW223070   0.037   0.369   4.201  0.1056  0.0029 -1.0826
 3871SOL     OW23071   4.523   0.313   4.233  0.0285  0.3378  0.1686
 3871SOL    HW123072   4.435   0.281   4.213  0.2591 -1.2888  1.7689
 3871SOL    HW223073   4.525   0.341   4.325 -2.2705 -0.4624  0.4426
 3872SOL     OW23074   1.044   1.117  13.927  0.0977  0.4662 -0.7276
 3872SOL    HW123075   1.080   1.063  13.998  0.4667 -0.0879 -1.3315
 3872SOL    HW223076   1.055   1.057  13.853  0.1220 -2.1322  1.3830
 3873SOL     OW23077   4.166   1.055  13.342 -0.0577 -0.3253  0.2283
 3873SOL    HW123078   4.232   1.110  13.384 -1.3246  2.1284 -1.0132
 3873SOL    HW223079   4.102   1.050  13.414  1.2051 -1.5519  1.2741
 3874SOL     OW23080   0.388   1.296   2.406  0.0661 -0.5117 -0.0762
 3874SOL    HW123081   0.360   1.387   2.402  0.2462 -0.4295  0.4649
 3874SOL    HW223082   0.408   1.292   2.313  0.5166  2.4545 -0.1040
 3875SOL     OW23083   4.715   1.074   6.237 -0.4436  0.4644 -0.3828
 3875SOL    HW123084   4.648   1.006   6.244  1.5868 -1.3768  1.7693
 3875SOL    HW223085   0.042   1.041   6.163 -0.4580 -0.3950 -0.0185
 3876SOL     OW23086   0.715   0.885  10.599 -0.1705 -0.2201  0.0536
 3876SOL    HW123087   0.669   0.913  10.678  0.8613 -0.4062  0.7147
 3876SOL    HW223088   0.775   0.960  10.596 -0.7182  0.1799 -1.0225
 3877SOL     OW23089   0.848   1.620   2.596  1.1237 -0.4870 -0.6287
 3877SOL    HW123090   0.755   1.624   2.575  0.8577  0.3254  0.7304
 3877SOL    HW223091   0.857   1.643   2.688  1.5869 -1.0558 -0.5337
 3878SOL     OW23092   2.479   1.154   1.753  0.6119  0.2920  0.3346
 3878SOL    HW123093   2.406   1.120   1.804  1.3616 -1.3377  0.3221
 3878SOL    HW223094   2.553   1.122   1.804  2.5388  0.3075 -2.4188
 3879SOL     OW23095   4.647   0.498   7.608  0.3312 -0.1929 -0.0172
 3879SOL    HW123096   4.642   0.580   7.559 -0.1137  0.8678  1.7725
 3879SOL    HW223097   4.596   0.523   7.685 -1.1964 -1.7264 -0.5596
 3880SOL     OW23098   1.743   0.598   0.568  0.2779 -0.2531  0.0295
 3880SOL    HW123099   1.689   0.557   0.636 -0.7631  1.1336  0.0635
 3880SOL    HW223100   1.825   0.597   0.616 -0.7235 -1.9908  1.7173
 3881SOL     OW23101   2.958   4.093   8.648  0.6661  0.4991 -0.6207
 3881SOL    HW123102   3.029   4.146   8.613  1.7994  0.5237  1.7441
 3881SOL    HW223103   3.001   4.017   8.687  2.7912  0.7057 -2.5894
 3882SOL     OW23104   0.352   4.143  17.208 -0.1561  0.0658 -0.2006
 3882SOL    HW123105   0.405   4.098  17.273 -1.5939 -0.0682  0.8780
 3882SOL    HW223106   0.417   4.199  17.165  1.8376 -1.7785  0.4293
 3883SOL     OW23107   2.485   4.285   7.412  0.2153 -0.0625  0.2149
 3883SOL    HW123108   2.419   4.248   7.354 -0.0747 -0.3969  0.7515
 3883SOL    HW223109   2.477   4.235   7.493 -0.3336  1.8244  1.3285
 3884SOL     OW23110   0.623   2.945   4.960 -0.5911  0.2245 -0.4342
 3884SOL    HW123111   0.680   2.869   4.966  1.4722  1.7196 -1.0059
 3884SOL    HW223112   0.672   2.997   4.896  0.2748 -0.9149 -0.6902
 3885SOL     OW23113   0.010   1.356   1.630 -0.2430  1.0506 -0.5269
 3885SOL    HW123114   0.030   1.414   1.557 -1.1388 -0.2842 -1.8226
 3885SOL    HW223115   0.011   1.415   1.706 -1.5797 -2.2537  2.0670
 3886SOL     OW23116   1.437   1.507  14.612 -0.0653 -0.6211 -0.5215
 3886SOL    HW123117   1.476   1.540  14.531 -1.6351 -1.0817 -1.4663
 3886SOL    HW223118   1.360   1.464  14.575 -1.7945 -0.7180  3.2027
 3887SOL     OW23119   4.709   0.947   8.314 -0.0725  0.0053 -0.7149
 3887SOL    HW123120   4.692   1.041   8.316 -1.8427 -0.2988 -1.4960
 3887SOL    HW223121   0.081   0.954   8.321 -0.1751  0.2085  0.4451
 3888SOL     OW23122   1.854   1.351   2.901  0.3882 -0.1161 -0.5045
 3888SOL    HW123123   1.760   1.370   2.908  1.3233  3.7628  1.3101
 3888SOL    HW223124   1.879   1.416   2.836 -1.5678 -0.2829 -1.4073
 3889SOL     OW23125   2.539   1.375   5.168  0.2849  0.3392  0.0928
 3889SOL    HW123126   2.548   1.289   5.208  3.1154  0.7967  0.4034
 3889SOL    HW223127   2.560   1.440   5.235 -0.5657  0.2938  0.4102
 3890SOL     OW23128   3.246   3.706  12.950  0.1075 -0.0452  0.9243
 3890SOL    HW123129   3.338   3.685  12.967  0.6984  1.1874 -0.8222
 3890SOL    HW223130   3.202   3.676  13.030  2.5543 -2.8741  1.1740
 3891SOL     OW23131   0.300   0.001   1.938 -0.5508  0.0783  0.3362
 3891SOL    HW123132   0.212   0.007   1.902 -2.0777 -4.2317  3.3171
 3891SOL    HW223133   0.315   0.095   1.951 -1.4862  0.2022  0.4900
 3892SOL     OW23134   4.491   0.787   3.242  0.8688  0.8431 -0.6048
 3892SOL    HW123135   4.425   0.787   3.172 -1.7976 -3.5383  1.9005
 3892SOL    HW223136   4.443   0.840   3.306  1.6215 -2.9645  3.1048
 3893SOL     OW23137   0.534   1.551   2.477 -0.2979 -0.0364 -0.4627
 3893SOL    HW123138   0.564   1.586   2.393  0.3650 -0.8059 -0.5422
 3893SOL    HW223139   0.538   1.458   2.456 -1.5018 -0.9310  3.2752
 3894SOL     OW23140   0.874   2.263   2.746  0.0039 -0.2691  0.4505
 3894SOL    HW123141   0.808   2.217   2.695  0.6617  0.7793 -1.3337
 3894SOL    HW223142   0.843   2.353   2.740  0.4922 -0.1957 -1.0195
 3895SOL     OW23143   3.694   4.270  13.757 -0.5144 -0.3669  0.1493
 3895SOL    HW123144   3.651   4.266  13.842  0.7310  0.3629  0.8090
 3895SOL    HW223145   3.780   4.232  13.775 -0.4278 -0.2903 -0.1085
 3896SOL     OW23146   1.034   0.831  14.681  0.3638  0.1026 -0.2117
 3896SOL    HW123147   1.028   0.874  14.766 -0.1698  1.0598 -0.7327
 3896SOL    HW223148   1.112   0.878  14.649  1.1390  0.1793  1.8175
 3897SOL     OW23149   1.730   0.459   5.440 -0.4089 -1.0917  0.2197
 3897SOL    HW123150   1.763   0.499   5.359  0.9490  1.3980  2.0214
 3897SOL    HW223151   1.807   0.414   5.474  0.0195  0.4687  1.2965
 3898SOL     OW23152   3.407   0.803   6.046  0.1301  0.6426 -0.2029
 3898SOL    HW123153   3.502   0.806   6.035  0.0648 -1.1493 -1.1217
 3898SOL    HW223154   3.377   0.878   5.994  2.0734  1.3468 -0.3107
 3899SOL     OW23155   1.903   3.354  14.043  0.0822 -0.5791  0.3480
 3899SOL    HW123156   1.874   3.312  14.123 -1.0636 -2.6598 -1.1679
 3899SOL    HW223157   1.998   3.345  14.054 -0.2459 -0.5866  3.2574
 3900SOL     OW23158   4.441   0.633  10.530  0.7434 -0.0087  0.0510
 3900SOL    HW123159   4.397   0.572  10.471 -1.6581  2.0714 -0.2965
 3900SOL    HW223160   4.528   0.646  10.492  0.4331  0.9491 -0.3401
 3901SOL     OW23161   1.446   0.374  12.053  0.3864 -0.0744  0.1953
 3901SOL    HW123162   1.357   0.364  12.017  1.1003  0.1446 -1.6656
 3901SOL    HW223163   1.473   0.288  12.021  0.5872  0.5022 -1.2117
 3902SOL     OW23164   3.603   2.896   6.483  0.4260 -0.2412  0.0906
 3902SOL    HW123165   3.645   2.968   6.531  0.5998 -0.0103 -0.4081
 3902SOL    HW223166   3.677   2.871   6.428  0.3577 -0.8409  0.2719
 3903SOL     OW23167   3.637   4.347   3.056 -0.0535 -0.1337  0.2043
 3903SOL    HW123168   3.638   4.254   3.035 -1.9645  0.3430 -2.0214
 3903SOL    HW223169   3.731   4.360   3.069  0.6145 -2.5043 -2.2390
 3904SOL     OW23170   2.148   1.143   7.259  0.5448  0.3066  0.8058
 3904SOL    HW123171   2.131   1.238   7.254  1.9881  0.4197 -2.2460
 3904SOL    HW223172   2.243   1.138   7.248  0.5499 -0.5928  1.2966
 3905SOL     OW23173   0.740   3.931   9.086 -0.6577 -0.2635  0.7729
 3905SOL    HW123174   0.646   3.923   9.100 -0.5910 -0.5547  1.0457
 3905SOL    HW223175   0.757   4.007   9.142  2.4313 -2.4049  2.7237
 3906SOL     OW23176   4.002   3.703   9.190  0.1230 -0.2370  0.6124
 3906SOL    HW123177   4.008   3.714   9.095  1.3347 -0.7467  0.6251
 3906SOL    HW223178   3.960   3.783   9.222  1.7582 -0.0216  2.2351
 3907SOL     OW23179   2.057   3.136   7.787 -0.2565 -0.1909  0.3838
 3907SOL    HW123180   1.993   3.074   7.751  1.7238 -2.6003  0.9850
 3907SOL    HW223181   2.064   3.088   7.869 -1.3099  0.9440  1.1329
 3908SOL     OW23182   2.680   0.552   6.066 -0.1889  0.2809  0.6772
 3908SOL    HW123183   2.657   0.536   6.158  1.3734 -0.6994  0.9022
 3908SOL    HW223184   2.732   0.631   6.082  1.0872 -1.0978  3.2969
 3909SOL     OW23185   2.053   2.579   0.331  0.7350 -0.1549 -0.7124
 3909SOL    HW123186   2.091   2.590   0.243  1.2645 -0.6058 -0.5360
 3909SOL    HW223187   2.073   2.668   0.361  1.3886 -0.3340 -0.6231
 3910SOL     OW23188   2.118   4.352   3.463 -0.2024 -0.3734 -0.2118
 3910SOL    HW123189   2.033   4.395   3.463 -0.7817 -1.5401 -2.9036
 3910SOL    HW223190   2.137   4.405   3.386  2.4517  0.8559  1.2574
 3911SOL     OW23191   0.496   1.947   8.028 -0.5474 -0.3779  0.1626
 3911SOL    HW123192   0.480   1.853   8.028  1.1552 -0.6707  0.4087
 3911SOL    HW223193   0.591   1.956   8.026 -0.4377 -0.6874  4.7390
 3912SOL     OW23194   4.489   1.180   7.207 -0.0159 -0.1696 -0.4522
 3912SOL    HW123195   4.539   1.178   7.125  0.6947  1.2825 -0.0715
 3912SOL    HW223196   4.399   1.161   7.183 -0.0484 -1.3849  0.6234
 3913SOL     OW23197   1.146   2.772   8.091 -0.5428 -0.5601 -0.4225
 3913SOL    HW123198   1.075   2.708   8.091 -1.6176  0.6595  1.5127
 3913SOL    HW223199   1.189   2.751   8.007 -0.1691 -2.5113  0.2626
 3914SOL     OW23200   4.103   2.411   8.230  0.0143  0.2489 -0.1436
 3914SOL    HW123201   4.104   2.453   8.144  0.9235  0.8086  0.1295
 3914SOL    HW223202   4.109   2.320   8.199  0.3792 -0.2504  1.3916
 3915SOL     OW23203   3.299   1.613   0.206 -0.7157  0.5024 -1.1663
 3915SOL    HW123204   3.382   1.659   0.197 -0.5357  0.2864 -0.6140
 3915SOL    HW223205   3.247   1.694   0.211 -2.5273 -0.7922  1.2047
 3916SOL     OW23206   1.784   0.017   7.055  0.4724 -0.1532  0.7061
 3916SOL    HW123207   1.703   0.019   7.105  0.2141 -0.6655  0.3046
 3916SOL    HW223208   1.755   4.660   7.012 -1.7835  1.3052 -0.5363
 3917SOL     OW23209   2.204   3.896  17.337 -0.2356  0.0997 -0.4719
 3917SOL    HW123210   2.209   3.983  17.297  0.7658  0.0241 -0.5095
 3917SOL    HW223211   2.283   3.901  17.391 -0.7464  1.7649  0.1257
 3918SOL     OW23212   1.352   2.416   7.288  0.4641 -0.3622 -0.1142
 3918SOL    HW123213   1.263   2.437   7.259  1.1542  0.6681 -1.4672
 3918SOL    HW223214   1.367   2.473   7.364  0.5550 -0.5087 -0.0222
 3919SOL     OW23215   4.304   4.011   5.839 -0.1151  0.2909  0.9677
 3919SOL    HW123216   4.261   4.034   5.921 -0.2100  0.9848  0.7180
 3919SOL    HW223217   4.361   3.940   5.869  0.7093  0.3963 -0.3393
 3920SOL     OW23218   4.197   0.385   5.587  0.0781 -0.4466 -0.4600
 3920SOL    HW123219   4.188   0.331   5.666 -0.3820  0.3535  0.0395
 3920SOL    HW223220   4.287   0.417   5.593 -0.6902  2.0730 -2.8548
 3921SOL     OW23221   3.872   0.991   6.144 -0.2547  0.4415  0.5789
 3921SOL    HW123222   3.870   1.029   6.056 -0.6058  0.4094  0.5727
 3921SOL    HW223223   3.881   1.076   6.188 -0.2096  1.1602 -0.8222
 3922SOL     OW23224   1.847   4.374   0.727 -0.0811  0.0781 -0.3752
 3922SOL    HW123225   1.824   4.444   0.788 -0.8076  1.0078 -1.7070
 3922SOL    HW223226   1.766   4.326   0.714  0.0152 -0.3984  0.8116
 3923SOL     OW23227   1.445   4.449   4.183  0.0675  0.2584  0.2983
 3923SOL    HW123228   1.517   4.445   4.247  0.3345 -0.2742 -0.0393
 3923SOL    HW223229   1.483   4.392   4.117 -2.6454 -0.8668 -0.2600
 3924SOL     OW23230   0.372   0.549   7.033 -0.1136 -0.0157  0.9486
 3924SOL    HW123231   0.324   0.512   6.959  1.1839 -2.4629  1.3300
 3924SOL    HW223232   0.403   0.469   7.077 -2.3165 -0.1567  2.2280
 3925SOL     OW23233   3.351   0.241   8.178 -0.3366 -0.1981 -0.0888
 3925SOL    HW123234   3.286   0.175   8.153 -1.4105  0.8627 -0.0820
 3925SOL    HW223235   3.405   0.244   8.098  1.3315  0.2164  1.0591
 3926SOL     OW23236   3.139   3.020   5.816 -0.0928 -0.1241  0.0655
 3926SOL    HW123237   3.222   3.000   5.858 -1.3292 -1.1376  2.0676
 3926SOL    HW223238   3.167   3.041   5.727  0.6515 -1.1958  0.0518
 3927SOL     OW23239   0.075   3.519  17.647 -0.0145  0.2680 -0.2166
 3927SOL    HW123240   0.012   3.487  17.582  1.5998 -0.8988 -1.2175
 3927SOL    HW223241   0.106   3.437  17.686 -3.0406  0.5161  2.7595
 3928SOL     OW23242   0.539   1.512   5.561 -0.0952  0.3172 -0.2457
 3928SOL    HW123243   0.521   1.600   5.595  2.1235  1.0600 -0.9613
 3928SOL    HW223244   0.624   1.486   5.597 -0.9984 -2.2247  0.0031
 3929SOL     OW23245   1.015   3.857  15.730 -0.0802  0.0059  0.9606
 3929SOL    HW123246   0.948   3.878  15.795 -0.5988 -1.4541  0.8920
 3929SOL    HW223247   1.099   3.876  15.773 -0.1312 -1.1105  1.5437
 3930SOL     OW23248   0.704   3.510  16.198 -0.1263  0.0600 -0.4841
 3930SOL    HW123249   0.631   3.563  16.230  1.1940  0.7181  1.4128
 3930SOL    HW223250   0.767   3.579  16.176  1.0559 -0.6621  0.6180
 3931SOL     OW23251   1.034   2.592   8.902 -0.4254  0.5867  0.0025
 3931SOL    HW123252   1.071   2.662   8.848 -0.2905 -0.5805 -1.4141
 3931SOL    HW223253   0.994   2.643   8.973 -0.7997  0.8045 -0.3674
 3932SOL     OW23254   0.999   4.207   2.434  0.8284  0.2685 -0.4283
 3932SOL    HW123255   0.932   4.161   2.484 -0.6896  1.6781 -1.1923
 3932SOL    HW223256   1.028   4.283   2.484 -1.0370 -0.0192  1.0800
 3933SOL     OW23257   2.373   3.276   3.699 -0.1390 -0.2893 -0.1420
 3933SOL    HW123258   2.282   3.293   3.719 -0.2363  0.6215 -1.3874
 3933SOL    HW223259   2.415   3.361   3.710 -0.3391 -0.3976  1.3832
 3934SOL     OW23260   4.296   0.171  15.584  0.1103  0.1596 -0.4521
 3934SOL    HW123261   4.306   0.125  15.501 -0.5451 -0.5368 -0.1415
 3934SOL    HW223262   4.386   0.171  15.618 -0.2392 -0.9475  0.4964
 3935SOL     OW23263   3.279   1.992   2.972  0.0831 -0.0566 -0.0862
 3935SOL    HW123264   3.331   1.918   3.003  3.0268  1.5859 -1.0590
 3935SOL    HW223265   3.193   1.966   2.939  0.6190 -0.0918 -1.4730
 3936SOL     OW23266   4.666   3.369   8.074 -0.1009 -1.1223  0.0538
 3936SOL    HW123267   4.638   3.448   8.028  1.3481 -2.0662 -2.4445
 3936SOL    HW223268   4.619   3.365   8.157 -0.1907  0.5570  0.0778
 3937SOL     OW23269   2.605   1.836   7.327 -0.2213 -0.0048  0.0372
 3937SOL    HW123270   2.631   1.823   7.236  0.5449  0.2561  0.2170
 3937SOL    HW223271   2.559   1.919   7.311  1.2491  0.6296 -0.8246
 3938SOL     OW23272   4.439   2.314   6.187 -1.1611 -0.6849 -0.8602
 3938SOL    HW123273   4.379   2.244   6.213 -2.2630  0.1349 -1.1717
 3938SOL    HW223274   4.394   2.379   6.241  0.1395 -0.0475 -0.5460
 3939SOL     OW23275   2.406   0.971   3.938 -0.7369 -0.3656  0.1149
 3939SOL    HW123276   2.396   0.997   3.846 -1.9842 -0.6263  0.1784
 3939SOL    HW223277   2.342   1.029   3.978 -0.1492  1.1614 -1.1526
 3940SOL     OW23278   0.985   4.552   9.126  1.0956 -0.7316 -0.0048
 3940SOL    HW123279   1.036   4.528   9.049  2.2243  0.0885  0.4883
 3940SOL    HW223280   0.955   4.463   9.147  0.0342 -0.5183 -0.6532
 3941SOL     OW23281   3.003   4.390   5.027 -0.2127  0.2910  0.3597
 3941SOL    HW123282   2.937   4.384   4.958  0.6591 -0.2051 -0.4303
 3941SOL    HW223283   2.951   4.398   5.107 -0.4152  3.3879 -0.0870
 3942SOL     OW23284   3.261   3.674   6.391  0.5248  0.0536  0.1112
 3942SOL    HW123285   3.281   3.765   6.369 -3.1118  0.4515 -1.5023
 3942SOL    HW223286   3.165   3.676   6.383  0.5079 -2.0219 -0.0726
 3943SOL     OW23287   3.988   0.004   6.682  0.4323  0.6056  0.1172
 3943SOL    HW123288   3.908   0.053   6.665 -0.4003 -1.1553 -1.0003
 3943SOL    HW223289   3.963   4.639   6.656 -0.8811  0.2584  2.5424
 3944SOL     OW23290   2.538   2.093  16.040 -0.1203 -0.4347  0.0322
 3944SOL    HW123291   2.466   2.114  15.981  0.1972  0.4847 -0.0271
 3944SOL    HW223292   2.537   2.166  16.102 -0.1441 -0.1133 -0.3448
 3945SOL     OW23293   3.808   2.094   4.860 -0.4136  0.4927 -0.1309
 3945SOL    HW123294   3.864   2.148   4.804 -0.2245  2.6006  2.0656
 3945SOL    HW223295   3.742   2.058   4.802 -1.4545 -0.4664  1.6706
 3946SOL     OW23296   3.947   4.608  16.904  0.1726 -0.1959 -0.1566
 3946SOL    HW123297   3.982   4.608  16.993 -0.1841  0.5768 -0.0150
 3946SOL    HW223298   4.024   4.628  16.851 -0.2097 -0.9997 -1.0114
 3947SOL     OW23299   3.254   1.949   7.848 -0.0032  0.2089 -0.3762
 3947SOL    HW123300   3.163   1.920   7.853 -0.8204  2.4530 -2.0417
 3947SOL    HW223301   3.258   2.002   7.927  0.1295  0.7690 -0.7521
 3948SOL     OW23302   0.459   3.150   8.011  0.4851 -0.5031  0.2413
 3948SOL    HW123303   0.414   3.109   8.085  0.8191 -1.0014  0.1733
 3948SOL    HW223304   0.441   3.088   7.940 -3.2840  1.3030 -0.3457
 3949SOL     OW23305   1.513   3.716  12.388 -0.5244  0.0918  0.4071
 3949SOL    HW123306   1.455   3.780  12.347  1.3964  1.2272 -0.5536
 3949SOL    HW223307   1.563   3.684  12.313  1.0640  2.2853  0.5382
 3950SOL     OW23308   1.530   1.878   9.071  0.4128  0.2594  0.4677
 3950SOL    HW123309   1.615   1.921   9.085  1.3886 -1.6155  0.2361
 3950SOL    HW223310   1.558   1.788   9.087  2.2674  0.6751 -0.4688
 3951SOL     OW23311   0.397   0.719   3.444 -0.1641 -0.1687 -0.2664
 3951SOL    HW123312   0.458   0.650   3.471 -2.4340 -2.6820 -1.5916
 3951SOL    HW223313   0.408   0.734   3.350  0.4410 -2.4484 -0.5643
 3952SOL     OW23314   1.613   0.856   1.479  0.3400 -0.3484 -0.0168
 3952SOL    HW123315   1.591   0.819   1.394 -2.2152  1.0214  0.0486
 3952SOL    HW223316   1.690   0.909   1.460 -1.0327  0.8204 -2.4044
 3953SOL     OW23317   0.151   0.453   8.466  0.8722  0.0858  0.0603
 3953SOL    HW123318   0.214   0.521   8.440 -0.4139  1.1216 -0.3433
 3953SOL    HW223319   0.137   0.476   8.558  0.1367 -0.5038  0.0880
 3954SOL     OW23320   4.088   0.117   8.739 -0.3396  0.1074 -0.0558
 3954SOL    HW123321   4.014   0.057   8.729  0.3031 -0.5025 -1.0705
 3954SOL    HW223322   4.055   0.202   8.768 -0.3034 -0.7132  2.3896
 3955SOL     OW23323   1.641   4.652   7.560 -0.3959  0.0174  0.5360
 3955SOL    HW123324   1.722   4.670   7.608  0.2117 -0.8469 -0.1529
 3955SOL    HW223325   1.576   4.700   7.610 -1.4354 -0.3222 -0.4752
 3956SOL     OW23326   3.473   0.917  10.387  0.2919  0.4043 -0.1355
 3956SOL    HW123327   3.537   0.912  10.458  1.8574  1.1243 -1.5113
 3956SOL    HW223328   3.409   0.848  10.403  2.0039 -1.0889  0.1666
 3957SOL     OW23329   2.886   1.943   4.416 -0.6836 -0.2684  0.3337
 3957SOL    HW123330   2.820   2.012   4.423 -0.8189 -0.4285  0.6318
 3957SOL    HW223331   2.913   1.960   4.326 -0.5882  1.6964  0.7370
 3958SOL     OW23332   4.094   1.119   3.383 -0.0907  0.1464 -0.3119
 3958SOL    HW123333   4.119   1.078   3.300  1.1664 -0.6749  0.4755
 3958SOL    HW223334   4.178   1.153   3.413  0.8046 -0.9579 -1.5933
 3959SOL     OW23335   4.710   4.244  12.522 -0.3417  0.1046  0.2510
 3959SOL    HW123336   0.016   4.333  12.540  0.4465 -0.0934 -0.0664
 3959SOL    HW223337   0.022   4.195  12.596 -2.2857 -0.1306  1.0445
 3960SOL     OW23338   1.541   2.181   0.810  0.9671  0.6670  0.0243
 3960SOL    HW123339   1.446   2.187   0.816  0.7749 -2.4500  0.1882
 3960SOL    HW223340   1.560   2.274   0.820  1.2400  0.6876 -0.6643
 3961SOL     OW23341   1.517   1.629   3.472  0.0611 -0.3844  0.0031
 3961SOL    HW123342   1.530   1.572   3.548  0.2428 -0.6697 -0.2414
 3961SOL    HW223343   1.573   1.576   3.415  1.2871  0.5491  0.3322
 3962SOL     OW23344   3.613   1.491   8.091 -0.0041  0.2891 -0.0093
 3962SOL    HW123345   3.575   1.463   8.174  0.1689  0.3526  0.0932
 3962SOL    HW223346   3.658   1.412   8.060  2.0674  1.1557  0.7264
 3963SOL     OW23347   3.061   0.691   8.490 -0.3334  0.1264  0.1139
 3963SOL    HW123348   2.980   0.641   8.498 -0.1944 -0.2530 -0.7840
 3963SOL    HW223349   3.030   0.781   8.493 -1.1033 -0.0826 -1.3393
 3964SOL     OW23350   0.667   2.489  12.420  0.3331  0.3442 -0.0124
 3964SOL    HW123351   0.603   2.419  12.432 -2.0411  2.4716 -0.2160
 3964SOL    HW223352   0.720   2.480  12.499 -0.4043 -0.1868  0.4283
 3965SOL     OW23353   3.579   0.171  13.338 -0.2299 -0.3034 -0.3571
 3965SOL    HW123354   3.575   0.107  13.409 -1.0571 -0.0613 -0.1882
 3965SOL    HW223355   3.569   0.251  13.390  1.6525  0.2479 -0.8332
 3966SOL     OW23356   4.233   1.568   0.959  0.2934 -0.2266  0.4545
 3966SOL    HW123357   4.142   1.544   0.977 -0.2221  1.0330 -0.4269
 3966SOL    HW223358   4.245   1.610   1.044 -2.4240  2.7250 -0.5977
 3967SOL     OW23359   4.569   0.876   5.732 -0.4392  0.4188 -0.6145
 3967SOL    HW123360   4.587   0.858   5.824  1.3075 -0.1748 -1.0615
 3967SOL    HW223361   4.637   0.941   5.717  0.0597 -0.3451 -1.6805
 3968SOL     OW23362   3.294   2.909  15.902 -0.2699  0.3494 -0.5030
 3968SOL    HW123363   3.335   2.909  15.816  0.4600 -0.0744 -0.1593
 3968SOL    HW223364   3.211   2.867  15.883 -1.2653  2.8770 -1.6468
 3969SOL     OW23365   0.748   3.698   4.208  0.0628  0.4103 -0.1739
 3969SOL    HW123366   0.736   3.603   4.200 -0.0416  0.6005 -2.1082
 3969SOL    HW223367   0.661   3.731   4.232 -0.2369 -1.4625  1.3666
 3970SOL     OW23368   4.275   0.222   6.213 -0.0323  0.2638  0.3976
 3970SOL    HW123369   4.302   0.311   6.189 -1.6646  1.3717  2.6912
 3970SOL    HW223370   4.181   0.232   6.204 -0.0258 -0.4522 -0.4637
 3971SOL     OW23371   2.912   3.156   1.287 -0.1131  0.0091  0.3039
 3971SOL    HW123372   2.958   3.075   1.306 -0.4834 -0.1153  0.6660
 3971SOL    HW223373   2.825   3.127   1.313 -0.9796 -0.0331 -2.6182
 3972SOL     OW23374   1.075   2.440   3.198  0.1150  0.6335  0.0377
 3972SOL    HW123375   1.013   2.408   3.262  1.3324 -1.6895  0.0401
 3972SOL    HW223376   1.044   2.392   3.121 -1.3556  1.3216  0.2021
 3973SOL     OW23377   1.194   0.084   3.998  0.7207 -0.6357  0.6397
 3973SOL    HW123378   1.211   0.088   4.092  0.3174  1.8730  0.6085
 3973SOL    HW223379   1.259   0.020   3.972 -1.4208 -2.5464  0.0205
 3974SOL     OW23380   1.622   1.669  12.894 -0.4922 -0.0170  0.6096
 3974SOL    HW123381   1.561   1.723  12.945 -1.1388 -1.4923  1.4102
 3974SOL    HW223382   1.612   1.698  12.804 -2.4598 -0.0378  0.8133
 3975SOL     OW23383   2.628   1.540   8.307  0.1630  0.3222  0.1739
 3975SOL    HW123384   2.583   1.458   8.330 -1.0377  1.0227  0.3180
 3975SOL    HW223385   2.591   1.554   8.220 -0.0366  0.2797  0.2528
 3976SOL     OW23386   2.071   3.897  12.439 -0.0116 -0.2374  0.5763
 3976SOL    HW123387   2.035   3.981  12.467 -0.1476  0.2640 -1.1357
 3976SOL    HW223388   2.059   3.903  12.345 -0.4884  3.1851  0.8590
 3977SOL     OW23389   0.785   2.810  14.316  0.6134 -0.3763  0.0388
 3977SOL    HW123390   0.773   2.718  14.339 -2.8902  0.2063  0.4099
 3977SOL    HW223391   0.828   2.795  14.232  2.6910 -1.1953  1.2340
 3978SOL     OW23392   1.994   4.530   1.016 -0.2023 -0.5187 -0.4478
 3978SOL    HW123393   2.087   4.529   1.040 -0.6598 -1.9857  1.2374
 3978SOL    HW223394   1.983   4.624   1.030 -2.0877 -0.8832  0.4421
 3979SOL     OW23395   0.981   4.569   4.218 -0.3087  0.2503 -0.3820
 3979SOL    HW123396   0.997   4.635   4.286 -2.4538  0.0795  0.3061
 3979SOL    HW223397   1.050   4.509   4.245 -2.2783 -1.4678  0.8280
 3980SOL     OW23398   1.524   2.886   3.547  0.0289 -0.0465  0.6940
 3980SOL    HW123399   1.529   2.952   3.616  2.8471  1.6351 -1.0961
 3980SOL    HW223400   1.434   2.903   3.520 -0.9125 -1.2789  3.0705
 3981SOL     OW23401   0.324   0.640   7.635  0.1420  0.4676  0.3514
 3981SOL    HW123402   0.239   0.670   7.666 -0.8370 -0.0822 -1.7743
 3981SOL    HW223403   0.359   0.620   7.722 -1.4631  0.7375  1.0602
 3982SOL     OW23404   3.365   3.616   7.383  0.3935  0.6252 -0.1693
 3982SOL    HW123405   3.374   3.560   7.306  0.9020 -1.3203  1.2758
 3982SOL    HW223406   3.428   3.572   7.441 -0.3745  0.7959  0.7866
 3983SOL     OW23407   0.113   3.494   2.868 -0.1359  0.5979  0.1542
 3983SOL    HW123408   0.151   3.450   2.943  0.2920 -0.1594 -0.5090
 3983SOL    HW223409   0.152   3.446   2.794 -0.0036  0.0640  0.5688
 3984SOL     OW23410   3.785   1.325   4.075  0.1812 -0.3557 -0.2127
 3984SOL    HW123411   3.851   1.377   4.122 -0.8572 -0.0792  0.9284
 3984SOL    HW223412   3.850   1.272   4.028  1.0543 -1.2333  1.9844
 3985SOL     OW23413   4.374   3.073   9.874 -0.4797  0.4822 -0.5873
 3985SOL    HW123414   4.286   3.070   9.838 -1.1823 -0.6037  1.2269
 3985SOL    HW223415   4.404   3.159   9.844 -1.4979  0.7937 -0.7091
 3986SOL     OW23416   1.695   3.829  17.320 -0.4914 -0.3593  0.1148
 3986SOL    HW123417   1.686   3.840  17.414 -0.7758 -0.6627  0.1271
 3986SOL    HW223418   1.774   3.776  17.311 -0.3331  0.0604 -0.9976
 3987SOL     OW23419   3.168   1.361   7.655 -0.7976  0.2282  0.2625
 3987SOL    HW123420   3.132   1.424   7.717  2.3615  2.0244  0.2723
 3987SOL    HW223421   3.176   1.288   7.716 -1.0439  0.7185  0.8814
 3988SOL     OW23422   1.955   0.973   8.950  0.6356 -0.1735 -0.3536
 3988SOL    HW123423   1.992   1.020   8.875 -0.3713 -1.1002 -1.4533
 3988SOL    HW223424   1.963   0.880   8.928 -1.0285 -0.7477  1.4455
 3989SOL     OW23425   1.468   2.159   7.275  0.3837  0.0098 -0.1111
 3989SOL    HW123426   1.412   2.082   7.284  0.4785 -0.0970 -0.4274
 3989SOL    HW223427   1.421   2.232   7.316 -0.6680 -1.1569  0.7439
 3990SOL     OW23428   0.037   0.453  16.094  0.0324 -0.0118 -0.2282
 3990SOL    HW123429   4.693   0.388  16.111  1.2389 -1.4718 -0.9319
 3990SOL    HW223430   0.036   0.433  16.000  0.9342 -1.6265  0.1165
 3991SOL     OW23431   2.107   1.244   5.390  0.6080 -0.1970  0.1358
 3991SOL    HW123432   2.154   1.251   5.307 -0.3257 -0.8412 -0.4480
 3991SOL    HW223433   2.074   1.333   5.403  0.7150 -0.1053 -0.2239
 3992SOL     OW23434   2.330   3.673   6.449  0.4319  0.7589  0.1975
 3992SOL    HW123435   2.381   3.613   6.396  0.9396  0.4234  1.0699
 3992SOL    HW223436   2.246   3.679   6.403  0.0580  2.1050  1.0407
 3993SOL     OW23437   3.899   4.710   5.665 -0.0615  0.0291 -0.0049
 3993SOL    HW123438   3.922   4.688   5.755 -1.0630 -2.8556 -0.4689
 3993SOL    HW223439   3.889   0.081   5.679 -0.5992 -0.2687  1.6465
 3994SOL     OW23440   1.107   2.701  17.494  0.3928 -0.0562 -0.1747
 3994SOL    HW123441   1.100   2.631  17.560 -1.7050  0.5368  0.2279
 3994SOL    HW223442   1.126   2.778  17.547 -1.2659  1.0597 -1.2271
 3995SOL     OW23443   1.221   2.399   5.308 -0.4799  0.1165  0.1026
 3995SOL    HW123444   1.165   2.322   5.315  0.5359 -0.7031 -0.7221
 3995SOL    HW223445   1.151   2.463   5.323  0.2872  1.0299 -0.1590
 3996SOL     OW23446   4.132   4.070   3.035  0.4804 -0.2512 -0.2834
 3996SOL    HW123447   4.194   4.036   2.970 -1.1867  1.7367 -2.8926
 3996SOL    HW223448   4.075   4.125   2.982 -0.6610 -0.4018  0.7725
 3997SOL     OW23449   2.965   2.882   3.684  0.2371 -0.1694  0.4363
 3997SOL    HW123450   2.942   2.944   3.615 -0.3687 -0.3559  0.4751
 3997SOL    HW223451   2.921   2.922   3.759  1.8120  1.0779  0.6863
 3998SOL     OW23452   1.857   4.058   2.193 -0.0291 -0.1954  0.6812
 3998SOL    HW123453   1.911   4.127   2.232  0.5834 -1.1278  1.4869
 3998SOL    HW223454   1.843   4.005   2.271 -0.1307 -0.1161  0.7165
 3999SOL     OW23455   0.292   3.059   6.555  0.1614  0.4533 -0.1775
 3999SOL    HW123456   0.248   3.049   6.640 -2.2059  0.8376 -1.3635
 3999SOL    HW223457   0.284   2.970   6.522 -0.2251 -0.4430  2.3399
 4000SOL     OW23458   0.889   4.024   3.035 -0.1893 -0.5040 -0.8470
 4000SOL    HW123459   0.970   4.060   3.000 -0.9457  1.3569 -0.6927
 4000SOL    HW223460   0.841   4.101   3.064  0.2259 -0.6971  0.3336
 4001SOL     OW23461   4.202   4.605  11.238  0.3490  0.0005  0.2507
 4001SOL    HW123462   4.127   4.544  11.240  0.2220  0.1151 -1.0227
 4001SOL    HW223463   4.196   4.631  11.147  0.6209 -0.4797  0.0952
 4002SOL     OW23464   2.535   2.116   6.075  0.0145  0.2714 -0.4289
 4002SOL    HW123465   2.511   2.135   5.984  0.0172  0.0009 -0.4848
 4002SOL    HW223466   2.485   2.038   6.100  2.8146 -1.3407  0.0618
 4003SOL     OW23467   1.784   1.653   6.922 -0.0892  0.2132 -0.8184
 4003SOL    HW123468   1.763   1.628   6.832 -1.1705 -0.0706 -0.4818
 4003SOL    HW223469   1.830   1.572   6.945 -1.9627 -1.2446 -2.1737
 4004SOL     OW23470   1.829   1.815  12.465 -0.1615 -0.3105  0.4946
 4004SOL    HW123471   1.829   1.843  12.557 -0.3575  0.1549  0.3519
 4004SOL    HW223472   1.913   1.769  12.464 -0.9402 -1.7297 -0.2078
 4005SOL     OW23473   4.534   2.280   1.105 -0.3315 -0.0873 -0.5471
 4005SOL    HW123474   4.448   2.296   1.142 -0.5182  0.7442 -1.3610
 4005SOL    HW223475   4.529   2.206   1.044 -1.2152 -0.5414  0.0710
 4006SOL     OW23476   3.548   0.801  12.345 -0.2007  0.4381 -0.8818
 4006SOL    HW123477   3.600   0.857  12.402  1.5036 -1.5777 -0.4790
 4006SOL    HW223478   3.466   0.850  12.357 -0.6761 -0.1144 -1.8957
 4007SOL     OW23479   1.616   3.561   1.994  0.4274 -0.3046 -0.7958
 4007SOL    HW123480   1.698   3.520   2.022 -0.1308  0.1508  1.5014
 4007SOL    HW223481   1.547   3.532   2.054  0.2168 -1.0438 -1.4097
 4008SOL     OW23482   3.779   2.519   1.295  0.1436 -0.1053 -0.5922
 4008SOL    HW123483   3.868   2.485   1.298 -0.0313 -0.4799  0.3571
 4008SOL    HW223484   3.794   2.602   1.341 -1.6354  0.2945 -0.7373
 4009SOL     OW23485   3.811   3.098   4.999 -0.1051  0.3156  0.1719
 4009SOL    HW123486   3.722   3.130   4.985 -0.5580  0.4759  3.4165
 4009SOL    HW223487   3.810   3.020   4.944  1.0175  0.1005  0.4639
 4010SOL     OW23488   3.690   3.611   1.913 -0.0350 -0.2142  0.4512
 4010SOL    HW123489   3.636   3.688   1.932  1.6855  0.0306  4.2496
 4010SOL    HW223490   3.749   3.655   1.852  2.2788 -0.6946  2.3542
 4011SOL     OW23491   1.430   2.995   6.098 -0.2806 -0.2462 -0.4834
 4011SOL    HW123492   1.426   2.951   6.184  1.1777 -2.0645 -1.3399
 4011SOL    HW223493   1.382   2.928   6.049  1.2221 -1.4473 -0.2999
 4012SOL     OW23494   0.655   4.275   4.186 -0.0441  0.0434  0.4874
 4012SOL    HW123495   0.596   4.326   4.131  0.6654  0.5335  0.1816
 4012SOL    HW223496   0.735   4.265   4.134  0.3614 -1.0639  1.3352
 4013SOL     OW23497   2.861   0.057  17.490  0.2770 -0.4791  0.1118
 4013SOL    HW123498   2.858   0.089  17.580 -0.3251 -1.5928  0.4848
 4013SOL    HW223499   2.768   0.049  17.471  0.8443 -0.3744 -2.6574
 4014SOL     OW23500   1.363   1.379  12.217 -0.2836  0.2325  0.3830
 4014SOL    HW123501   1.438   1.423  12.177 -0.1856  0.5683  0.9351
 4014SOL    HW223502   1.360   1.294  12.173 -0.6630  0.7336 -0.5638
 4015SOL     OW23503   2.546   0.598   3.511  0.1253  0.5318  0.2625
 4015SOL    HW123504   2.502   0.521   3.476  3.7303 -2.0642  1.4693
 4015SOL    HW223505   2.639   0.586   3.489  0.4117  0.7411  1.3536
 4016SOL     OW23506   2.679   1.628   3.784  0.2319 -0.3363 -0.2362
 4016SOL    HW123507   2.722   1.546   3.758  1.4471  0.1167  0.3639
 4016SOL    HW223508   2.616   1.594   3.848 -0.9257  3.3954  0.5651
 4017SOL     OW23509   4.703   2.562   9.529 -0.0028 -0.0727  0.0351
 4017SOL    HW123510   4.676   2.578   9.619  0.2290 -0.5744  0.1935
 4017SOL    HW223511   0.059   2.616   9.535  0.3526 -0.9262  3.1146
 4018SOL     OW23512   2.177   2.330  12.171  0.3757  0.1620  0.0289
 4018SOL    HW123513   2.171   2.385  12.093 -0.4424 -0.5802 -0.4340
 4018SOL    HW223514   2.271   2.332  12.190  0.6403 -0.6589 -1.1055
 4019SOL     OW23515   1.405   1.176  14.483 -0.2194 -0.2411 -0.4875
 4019SOL    HW123516   1.344   1.249  14.490  2.4013  1.8987 -0.2012
 4019SOL    HW223517   1.334   1.111  14.485  0.8580 -1.4767 -2.1699
 4020SOL     OW23518   0.333   2.686  13.370 -0.2163  0.1906 -0.1431
 4020SOL    HW123519   0.418   2.670  13.410  1.1768  3.1443 -1.8670
 4020SOL    HW223520   0.307   2.768  13.413 -0.4910 -0.5496  1.0714
 4021SOL     OW23521   0.446   1.768   9.261 -0.2167 -0.2082  0.5170
 4021SOL    HW123522   0.536   1.741   9.248 -0.8697 -0.5764 -3.2686
 4021SOL    HW223523   0.447   1.766   9.357 -0.7553 -0.1673  0.5250
 4022SOL     OW23524   3.348   0.611  17.197  0.6677  0.3755 -0.7044
 4022SOL    HW123525   3.269   0.590  17.245  2.2182 -1.5537  1.0178
 4022SOL    HW223526   3.376   0.523  17.172 -0.3404  0.2459 -1.3714
 4023SOL     OW23527   4.137   0.937   2.689 -0.2764 -0.1139 -0.3670
 4023SOL    HW123528   4.166   1.021   2.725  0.5067 -0.0785 -1.0800
 4023SOL    HW223529   4.086   0.966   2.614 -0.5545  1.7804  0.5625
 4024SOL     OW23530   3.792   3.417  10.934  0.1644 -0.2564 -0.3528
 4024SOL    HW123531   3.808   3.425  11.028  2.6670 -0.2271 -0.7923
 4024SOL    HW223532   3.842   3.338  10.916  1.5152  0.8141 -1.3088
 4025SOL     OW23533   1.723   3.359   5.039 -0.3249  0.4961 -0.1268
 4025SOL    HW123534   1.779   3.419   4.990  0.7893  0.0091  0.5585
 4025SOL    HW223535   1.647   3.374   4.983 -1.3169 -0.5032  0.9546
 4026SOL     OW23536   3.020   0.932   3.296  0.0830  0.3604 -0.2088
 4026SOL    HW123537   2.970   0.883   3.231  1.2307 -0.8599 -0.1847
 4026SOL    HW223538   3.002   0.886   3.378 -2.1580 -0.8656 -1.4044
 4027SOL     OW23539   0.539   0.495   8.064  0.1250  0.2098 -0.1753
 4027SOL    HW123540   0.616   0.438   8.065 -0.7943 -1.0384  0.6444
 4027SOL    HW223541   0.478   0.444   8.010 -0.0295 -1.2699  1.4064
 4028SOL     OW23542   0.517   2.090   6.600  0.3246  0.2684 -0.1318
 4028SOL    HW123543   0.517   2.124   6.690  1.4150 -1.3232  0.4702
 4028SOL    HW223544   0.565   2.008   6.615 -0.2849 -0.4897 -2.2449
 4029SOL     OW23545   0.791   0.728   4.861  0.1846 -0.1151 -0.2757
 4029SOL    HW123546   0.845   0.737   4.940  0.5580 -2.4602 -0.2608
 4029SOL    HW223547   0.845   0.662   4.816 -1.2862  0.0242 -2.2280
 4030SOL     OW23548   1.714   0.062   8.475 -0.3109  0.1244 -0.0264
 4030SOL    HW123549   1.716   0.002   8.400 -1.1153 -0.8814  0.7675
 4030SOL    HW223550   1.692   0.145   8.432 -3.3440 -0.7443 -0.1311
 4031SOL     OW23551   1.168   3.737   5.794  0.4125 -0.0054 -0.5825
 4031SOL    HW123552   1.169   3.752   5.888  0.5827  2.4563 -0.9561
 4031SOL    HW223553   1.179   3.642   5.799  1.3272  0.1978  1.0770
 4032SOL     OW23554   1.854   2.000  12.089 -0.1865  0.0763 -0.4023
 4032SOL    HW123555   1.845   2.093  12.112 -2.3864 -0.4274  0.8033
 4032SOL    HW223556   1.948   2.004  12.075  0.1579  1.5612  2.2680
 4033SOL     OW23557   2.961   2.653   6.601 -0.2571 -0.0855  0.4852
 4033SOL    HW123558   2.910   2.728   6.631  0.2074  1.3635 -2.2739
 4033SOL    HW223559   2.938   2.579   6.658  0.3740 -2.0940 -1.8173
 4034SOL     OW23560   3.894   3.994  10.817  0.1647 -0.2775  0.1501
 4034SOL    HW123561   3.980   4.035  10.810 -0.0756  0.2319  0.1879
 4034SOL    HW223562   3.852   4.045  10.748  3.3024  1.6512 -0.3157
 4035SOL     OW23563   2.474   3.504  15.303  0.5463  0.2128 -0.5040
 4035SOL    HW123564   2.399   3.558  15.328  1.2196  0.1598  1.5984
 4035SOL    HW223565   2.547   3.565  15.299  0.3620  0.4337 -0.5408
 4036SOL     OW23566   1.018   3.735  16.120 -0.5930  0.2368 -0.1964
 4036SOL    HW123567   0.940   3.779  16.088 -2.0731 -1.0875  1.5045
 4036SOL    HW223568   0.996   3.657  16.068  0.9924 -0.3678  0.0296
 4037SOL     OW23569   2.023   1.449  14.870 -0.0344 -0.9050 -0.3344
 4037SOL    HW123570   2.004   1.376  14.929  0.6191 -1.6065 -0.9849
 4037SOL    HW223571   1.941   1.463  14.823 -0.4246 -0.5882  0.4519
 4038SOL     OW23572   2.290   0.748   9.282  0.0169 -0.3372 -0.2093
 4038SOL    HW123573   2.367   0.790   9.320 -1.0373  1.1193  0.3220
 4038SOL    HW223574   2.246   0.828   9.255  0.7084  0.1310  0.0466
 4039SOL     OW23575   4.118   4.076   5.497  0.0804 -0.5844 -0.0436
 4039SOL    HW123576   4.058   4.002   5.508  0.6838 -0.9649  0.6849
 4039SOL    HW223577   4.053   4.146   5.506 -1.0244 -1.7181  1.0474
 4040SOL     OW23578   2.770   1.841   2.378 -0.0647  1.3029 -0.4878
 4040SOL    HW123579   2.797   1.750   2.363  0.1747  0.8269  2.8016
 4040SOL    HW223580   2.717   1.829   2.457 -0.1618 -1.2083 -0.9275
 4041SOL     OW23581   2.614   2.578   8.202  0.8176 -0.2320 -0.0095
 4041SOL    HW123582   2.601   2.673   8.201  2.9998  0.0700  0.4096
 4041SOL    HW223583   2.535   2.550   8.248  1.1662 -1.2481 -0.0271
 4042SOL     OW23584   1.154   1.211  14.733  0.5185 -0.2792  0.1288
 4042SOL    HW123585   1.124   1.146  14.669 -1.4832 -0.3264  1.1201
 4042SOL    HW223586   1.212   1.158  14.788  2.5193  0.5204 -1.2509
 4043SOL     OW23587   4.007   2.430  17.254 -0.2283 -0.3319 -0.3966
 4043SOL    HW123588   4.011   2.484  17.175 -0.9189 -0.8446 -0.7852
 4043SOL    HW223589   4.090   2.382  17.252  0.9654  1.6933  0.3407
 4044SOL     OW23590   3.951   0.994   7.079  0.4434 -0.1223  0.1897
 4044SOL    HW123591   3.974   0.908   7.046  1.0249  0.1077 -0.0072
 4044SOL    HW223592   3.952   0.988   7.174 -1.7718 -0.1591  0.2306
 4045SOL     OW23593   2.896   0.918  11.448  0.2499 -0.2687 -0.0868
 4045SOL    HW123594   2.863   0.995  11.494  0.5863 -0.3795  0.3470
 4045SOL    HW223595   2.939   0.869  11.519  0.4376  0.1816  0.1126
 4046SOL     OW23596   3.159   2.614   2.285 -0.4946 -0.0517 -0.0694
 4046SOL    HW123597   3.124   2.540   2.334 -0.0060  0.9664  1.8116
 4046SOL    HW223598   3.221   2.575   2.223  0.9713 -0.5654  1.7150
 4047SOL     OW23599   3.025   1.042  13.220  0.2835  0.3279 -0.1879
 4047SOL    HW123600   3.051   1.126  13.259 -0.2223 -0.0793  1.0422
 4047SOL    HW223601   3.108   1.017  13.180  0.9142  1.9305  0.1025
 4048SOL     OW23602   2.409   1.552   5.917 -0.2768  0.2490  0.3233
 4048SOL    HW123603   2.474   1.485   5.899  0.0612  0.8792 -0.7733
 4048SOL    HW223604   2.443   1.591   5.998  0.7169  0.9523 -0.4312
 4049SOL     OW23605   0.929   3.431   4.365 -0.3345  0.0243  0.2200
 4049SOL    HW123606   1.023   3.445   4.375 -0.1333  0.6235 -2.3051
 4049SOL    HW223607   0.904   3.434   4.457  1.1362  1.2485  0.5733
 4050SOL     OW23608   2.801   3.390   6.811 -0.4321  0.6143  0.6860
 4050SOL    HW123609   2.809   3.373   6.904 -0.2918  0.3057  0.6152
 4050SOL    HW223610   2.707   3.380   6.796  0.1397 -0.0258 -2.5508
 4051SOL     OW23611   3.484   2.227   4.457 -0.3171  0.5448  1.1769
 4051SOL    HW123612   3.565   2.273   4.480  1.3672 -0.2311 -3.1758
 4051SOL    HW223613   3.483   2.231   4.362 -0.7876  0.2537  1.1704
 4052SOL     OW23614   1.846   0.325  14.036 -0.1264  0.2793  0.5926
 4052SOL    HW123615   1.795   0.402  14.060 -1.2638 -0.3629  0.2537
 4052SOL    HW223616   1.932   0.353  14.066  0.4877 -2.3453  1.3387
 4053SOL     OW23617   0.074   1.659   8.409 -0.0324 -0.0522 -0.2999
 4053SOL    HW123618   0.070   1.563   8.404  0.3684 -0.0791 -0.1557
 4053SOL    HW223619   4.710   1.694   8.395 -0.9618 -0.7832  3.5213
 4054SOL     OW23620   3.762   4.093   5.244 -0.0112 -0.7739 -0.0317
 4054SOL    HW123621   3.801   4.020   5.197  0.6582 -0.8101  0.5945
 4054SOL    HW223622   3.791   4.166   5.189 -0.6362  1.0882  2.0650
 4055SOL     OW23623   3.544   0.371   6.776 -0.4157 -0.2363 -0.0940
 4055SOL    HW123624   3.609   0.313   6.814 -1.1161 -1.0619 -0.1672
 4055SOL    HW223625   3.466   0.316   6.779 -1.6574  1.4988 -0.0851
 4056SOL     OW23626   3.361   4.389   3.997  0.3747  0.4139  0.6579
 4056SOL    HW123627   3.443   4.340   3.985 -0.1687 -0.2630 -0.2755
 4056SOL    HW223628   3.307   4.369   3.921 -0.9647  2.8501  0.9896
 4057SOL     OW23629   2.093   3.652   3.344 -0.2997 -0.2699  0.2011
 4057SOL    HW123630   2.111   3.734   3.297  0.6816  0.6016  2.0990
 4057SOL    HW223631   2.103   3.592   3.270  1.3006 -1.5967  1.5040
 4058SOL     OW23632   0.065   4.232  15.949  0.4209 -0.3147 -0.7623
 4058SOL    HW123633   0.049   4.194  15.862  2.8981 -2.5169 -0.2453
 4058SOL    HW223634   0.060   4.320  15.910  0.0152  0.3365  0.7659
 4059SOL     OW23635   0.805   1.614  16.279  0.3122  0.3821 -0.2943
 4059SOL    HW123636   0.795   1.527  16.240 -1.0623 -0.0835  1.1155
 4059SOL    HW223637   0.778   1.668  16.204  1.3516  1.2288 -0.0553
 4060SOL     OW23638   3.805   1.020  14.384 -0.6525  0.1311 -0.3208
 4060SOL    HW123639   3.885   1.044  14.430 -1.9331  2.4417  0.6815
 4060SOL    HW223640   3.805   1.089  14.317 -0.0018  0.1495 -0.3023
 4061SOL     OW23641   4.324   3.588   4.829  0.2874 -0.2244 -0.6064
 4061SOL    HW123642   4.343   3.544   4.746  0.0776  0.4752 -1.0248
 4061SOL    HW223643   4.392   3.556   4.888 -0.5014  1.2866  1.0829
 4062SOL     OW23644   4.366   2.021   5.120 -0.5263  0.7297  0.4356
 4062SOL    HW123645   4.419   1.970   5.181  1.8148  0.4793 -1.7568
 4062SOL    HW223646   4.374   1.967   5.041 -0.0905 -1.2471  1.8278
 4063SOL     OW23647   2.147   2.150  14.817  0.4216  0.2476 -0.4079
 4063SOL    HW123648   2.060   2.113  14.805  1.8377 -2.6554 -1.8329
 4063SOL    HW223649   2.182   2.078  14.870  0.8233 -0.1715 -1.2541
 4064SOL     OW23650   1.845   0.341   2.435  0.1647  0.3066 -0.2594
 4064SOL    HW123651   1.872   0.388   2.356  1.0126  1.6215  0.8006
 4064SOL    HW223652   1.751   0.327   2.428  0.2684 -2.0183  2.9830
 4065SOL     OW23653   2.057   0.857   7.702  0.5465  0.0105 -0.4899
 4065SOL    HW123654   2.077   0.909   7.780  0.6983 -0.1519 -0.4221
 4065SOL    HW223655   1.990   0.915   7.664 -1.0923 -0.3832  1.8151
 4066SOL     OW23656   0.438   3.421   3.591 -0.2873  0.0566 -0.2102
 4066SOL    HW123657   0.450   3.389   3.681  0.1030 -2.1713 -1.0656
 4066SOL    HW223658   0.371   3.487   3.609 -0.3449 -0.6174  2.0646
 4067SOL     OW23659   3.509   1.685   6.888  1.1791 -0.4139  0.0242
 4067SOL    HW123660   3.602   1.670   6.870  1.4764 -0.3204  1.4813
 4067SOL    HW223661   3.491   1.607   6.940  0.2514  1.4703  2.5289
 4068SOL     OW23662   4.176   1.986   8.691 -0.3067  0.4823  0.3486
 4068SOL    HW123663   4.101   2.043   8.707 -1.1325  0.0727 -2.0945
 4068SOL    HW223664   4.214   1.969   8.777  2.2898  1.8194 -0.5387
 4069SOL     OW23665   2.153   2.600   7.955  0.2504  0.8300  0.3561
 4069SOL    HW123666   2.137   2.658   7.881  1.8581  2.5901  1.4016
 4069SOL    HW223667   2.180   2.664   8.020  2.0398  2.0705 -1.6136
 4070SOL     OW23668   1.208   4.356   0.044  0.0373  0.7292 -0.1097
 4070SOL    HW123669   1.165   4.280   0.083  3.2397  0.5771  3.0167
 4070SOL    HW223670   1.237   4.318  17.658 -1.3391  0.1939 -0.3452
 4071SOL     OW23671   2.357   2.453   8.195  0.1543  0.1582  0.4286
 4071SOL    HW123672   2.427   2.404   8.151  0.4977 -1.6206  2.9846
 4071SOL    HW223673   2.287   2.389   8.202  0.4612 -0.1680  0.4832
 4072SOL     OW23674   2.658   2.367  16.580  0.3713  0.1609 -0.0450
 4072SOL    HW123675   2.640   2.273  16.586 -1.8039  0.5053 -1.2183
 4072SOL    HW223676   2.626   2.401  16.664  0.6995 -3.1639  1.4685
 4073SOL     OW23677   3.461   0.514   5.139 -0.2106 -0.1685  0.0881
 4073SOL    HW123678   3.461   0.515   5.043 -0.0930 -0.3915  0.0863
 4073SOL    HW223679   3.418   0.598   5.159 -1.3341 -0.5467 -0.6986
 4074SOL     OW23680   1.451   0.020   5.205  0.0592  0.1546  0.3238
 4074SOL    HW123681   1.525   0.080   5.199  0.7583 -0.6951  0.3008
 4074SOL    HW223682   1.432   0.030   5.299 -2.0706  1.1863 -0.2215
 4075SOL     OW23683   0.741   0.884  14.665  0.4076 -0.2415  0.8077
 4075SOL    HW123684   0.827   0.851  14.693  1.1513 -0.6846 -1.9018
 4075SOL    HW223685   0.767   0.947  14.597 -1.2040 -0.7606 -0.2986
 4076SOL     OW23686   0.594   0.911  16.068 -0.3678  0.3170 -0.0998
 4076SOL    HW123687   0.522   0.861  16.107 -0.4555  0.3343 -0.2376
 4076SOL    HW223688   0.665   0.848  16.076 -0.2687  0.1591 -2.0337
 4077SOL     OW23689   0.045   3.041   7.324 -0.3476 -0.3495 -0.0114
 4077SOL    HW123690   0.003   3.089   7.252 -0.5139 -1.7696 -0.8502
 4077SOL    HW223691   4.716   3.073   7.397 -1.3999 -0.0789 -0.8976
 4078SOL     OW23692   3.034   1.407   9.121  0.1791  0.7519 -0.6136
 4078SOL    HW123693   3.100   1.451   9.173  1.3685 -0.5658 -0.9938
 4078SOL    HW223694   2.958   1.419   9.178 -1.3073 -0.8092 -2.2414
 4079SOL     OW23695   3.341   1.856  15.993  0.1974  0.1361  0.1674
 4079SOL    HW123696   3.350   1.951  15.984 -0.8371  0.1124 -1.0544
 4079SOL    HW223697   3.344   1.825  15.903 -1.3228 -1.1815  0.5579
 4080SOL     OW23698   4.026   2.028  12.414  0.0290  0.1073 -0.5995
 4080SOL    HW123699   4.078   1.960  12.372  0.6525  1.2337 -1.6389
 4080SOL    HW223700   4.062   2.015  12.502  1.6709 -0.3642 -1.3385
 4081SOL     OW23701   2.358   0.148  12.617 -0.3930 -0.2082 -0.4215
 4081SOL    HW123702   2.340   0.089  12.690 -1.9014  1.0781  0.2293
 4081SOL    HW223703   2.436   0.101  12.586  0.6064  1.6092 -0.6205
 4082SOL     OW23704   2.431   0.087   4.715  0.0376  0.4234  0.0140
 4082SOL    HW123705   2.494   0.044   4.656 -0.2727 -1.2904  0.9240
 4082SOL    HW223706   2.471   0.167   4.746  1.4141  0.4081 -1.6759
 4083SOL     OW23707   2.160   4.205   7.576  0.0061 -0.2099 -0.7460
 4083SOL    HW123708   2.082   4.198   7.632 -0.5827  1.4567 -1.3435
 4083SOL    HW223709   2.132   4.172   7.491 -1.4422  1.1718 -0.8167
 4084SOL     OW23710   0.477   1.238   6.785  0.3135 -0.7137  0.0977
 4084SOL    HW123711   0.531   1.194   6.719  0.1704 -0.8332  0.0610
 4084SOL    HW223712   0.536   1.313   6.788 -1.5895  0.8535 -2.1366
 4085SOL     OW23713   1.366   0.020   6.268 -0.0540 -0.3597 -0.5284
 4085SOL    HW123714   1.440   0.005   6.208  1.5903 -1.9614  1.8557
 4085SOL    HW223715   1.384   4.674   6.332 -1.2588  0.1359  0.3409
 4086SOL     OW23716   3.801   0.259   1.900  0.2955 -0.0085 -0.2304
 4086SOL    HW123717   3.741   0.253   1.826 -0.5278 -2.6228  0.6605
 4086SOL    HW223718   3.887   0.268   1.859 -0.1069 -0.0654 -1.0717
 4087SOL     OW23719   3.607   4.295   4.158 -0.1968  0.3665 -0.6837
 4087SOL    HW123720   3.654   4.364   4.205  0.4417 -0.6754  0.2023
 4087SOL    HW223721   3.521   4.334   4.143 -1.1775 -1.1582  1.1056
 4088SOL     OW23722   0.075   3.856   5.135 -0.3178  0.7682  0.0196
 4088SOL    HW123723   0.112   3.831   5.220 -3.6934 -2.7909  0.4098
 4088SOL    HW223724   4.708   3.853   5.163  0.0298 -0.0265  1.0636
 4089SOL     OW23725   2.638   1.212   5.652 -0.4188 -0.1460  0.2038
 4089SOL    HW123726   2.548   1.187   5.633  0.1647 -1.6939 -0.5427
 4089SOL    HW223727   2.635   1.307   5.666  0.0063  0.3566 -3.1227
 4090SOL     OW23728   1.104   1.154   6.759  0.1641  0.1284 -0.5922
 4090SOL    HW123729   1.076   1.141   6.850  2.7820  0.1691  0.2115
 4090SOL    HW223730   1.195   1.163   6.786  0.1856 -0.4945 -0.4719
 4091SOL     OW23731   1.736   2.339   5.542 -0.3711  0.3107  0.5271
 4091SOL    HW123732   1.645   2.340   5.572 -0.6253 -1.2013 -0.2218
 4091SOL    HW223733   1.747   2.418   5.490  0.6901  0.3560  0.8088
 4092SOL     OW23734   3.454   2.015   2.411  0.6001 -0.5129 -0.2499
 4092SOL    HW123735   3.382   1.992   2.470  0.8596  2.6312  1.3482
 4092SOL    HW223736   3.523   2.033   2.475  0.2299 -0.6684  0.1958
 4093SOL     OW23737   0.893   0.288  14.122 -0.3228 -0.3748 -0.7114
 4093SOL    HW123738   0.861   0.264  14.209 -1.0324 -1.9442 -1.4111
 4093SOL    HW223739   0.984   0.316  14.136 -0.3528  0.0947 -1.4407
 4094SOL     OW23740   2.257   2.386   5.986  0.0929 -0.3265 -0.1084
 4094SOL    HW123741   2.349   2.412   5.981  0.1121 -0.5158 -0.7102
 4094SOL    HW223742   2.216   2.404   5.901  0.1396  2.0434  0.3677
 4095SOL     OW23743   2.564   2.862   8.387  0.1458  0.0877  0.4856
 4095SOL    HW123744   2.564   2.883   8.481  1.8943  2.5605 -0.0714
 4095SOL    HW223745   2.526   2.774   8.392 -2.4792  1.2823  1.3839
 4096SOL     OW23746   0.478   0.811   1.931 -0.2492  0.2058 -0.6316
 4096SOL    HW123747   0.386   0.838   1.927 -1.0212 -2.0110  1.4967
 4096SOL    HW223748   0.526   0.846   1.857 -2.4412  1.3119 -1.5338
 4097SOL     OW23749   4.159   2.946   3.006 -0.3477  0.6097 -0.6144
 4097SOL    HW123750   4.244   2.991   3.006  0.8462 -1.6869 -0.2029
 4097SOL    HW223751   4.109   3.019   3.044  0.9414  1.2898 -0.2252
 4098SOL     OW23752   4.475   1.893   3.940 -0.3043  0.2460 -0.4321
 4098SOL    HW123753   4.491   1.922   3.851  1.2610  1.4939  0.2483
 4098SOL    HW223754   4.391   1.930   3.968  0.7901  2.0674  0.4777
 4099SOL     OW23755   0.581   1.305   0.603  0.4001 -0.1950  0.0645
 4099SOL    HW123756   0.670   1.299   0.639  0.8783 -2.1028 -1.3477
 4099SOL    HW223757   0.536   1.369   0.657 -0.6125 -1.5341  0.8028
 4100SOL     OW23758   3.748   1.252   6.323 -0.3154 -0.6297 -0.2930
 4100SOL    HW123759   3.722   1.344   6.333 -2.0532 -1.0509 -0.9476
 4100SOL    HW223760   3.843   1.246   6.321 -0.3833 -1.9005  0.6266
 4101SOL     OW23761   3.224   0.538  11.652 -0.4113  0.1696 -0.1294
 4101SOL    HW123762   3.233   0.609  11.588  1.5286 -1.3929 -1.6074
 4101SOL    HW223763   3.298   0.560  11.709 -1.2845 -1.2535  1.5468
 4102SOL     OW23764   0.382   2.085   2.669  0.5389 -0.6927  0.3923
 4102SOL    HW123765   0.418   2.040   2.592  0.7848  0.8191 -0.3623
 4102SOL    HW223766   0.307   2.133   2.633 -0.0326 -1.5305  0.4575
 4103SOL     OW23767   0.577   0.280   6.325 -0.0382 -0.4752 -0.6117
 4103SOL    HW123768   0.655   0.239   6.363 -0.1502 -0.0825  0.0294
 4103SOL    HW223769   0.510   0.213   6.338  0.0319  0.3874  4.2093
 4104SOL     OW23770   1.787   1.209   0.022  0.1606  0.6464  0.1938
 4104SOL    HW123771   1.779   1.165   0.107  0.5011 -0.0996 -0.1543
 4104SOL    HW223772   1.726   1.155  17.666  1.6889 -0.3918 -0.5161
 4105SOL     OW23773   3.883   3.908   8.454  0.0328  0.2447  0.4892
 4105SOL    HW123774   3.809   3.948   8.500  1.0791  2.3949  0.3082
 4105SOL    HW223775   3.833   3.856   8.390 -0.2039  0.6247  0.3641
 4106SOL     OW23776   2.558   3.764  11.616  0.3152  0.2523  0.4789
 4106SOL    HW123777   2.649   3.740  11.631 -0.2784 -1.8328  0.7090
 4106SOL    HW223778   2.539   3.697  11.550 -0.8954 -0.5285  1.6175
 4107SOL     OW23779   0.386   3.088   5.379 -0.0229  0.3956 -0.3146
 4107SOL    HW123780   0.392   3.012   5.321  2.0232 -0.5529  1.1253
 4107SOL    HW223781   0.470   3.076   5.423 -0.5855 -0.7464  0.4490
 4108SOL     OW23782   0.745   2.475   3.980  0.5032  0.3079 -0.2080
 4108SOL    HW123783   0.674   2.432   4.027  0.7819  1.1871  0.9969
 4108SOL    HW223784   0.700   2.556   3.955 -1.1158 -0.5722 -0.0709
 4109SOL     OW23785   1.051   3.375  17.473 -0.4568 -0.5492 -0.1667
 4109SOL    HW123786   1.012   3.424  17.401 -0.3145 -1.1822 -0.6729
 4109SOL    HW223787   0.988   3.401  17.541 -0.7225 -0.6223 -0.3858
 4110SOL     OW23788   1.818   0.360  14.488 -0.2433  0.2484  0.0524
 4110SOL    HW123789   1.866   0.439  14.464 -1.0963  0.9712  0.7059
 4110SOL    HW223790   1.787   0.370  14.578 -0.4012  2.4151 -0.2505
 4111SOL     OW23791   4.347   1.914   8.058 -0.5088  0.0152  0.0707
 4111SOL    HW123792   4.341   1.888   7.966  1.9497  1.3932 -0.4930
 4111SOL    HW223793   4.263   1.960   8.062 -0.2134  0.6360 -0.8335
 4112SOL     OW23794   1.822   0.158   6.838  0.7314 -0.6684  0.2500
 4112SOL    HW123795   1.817   0.086   6.901  3.5372 -0.1201  1.0880
 4112SOL    HW223796   1.841   0.117   6.754  0.6456  0.0875 -0.1314
 4113SOL     OW23797   3.469   0.705   7.656  0.1571 -0.8264 -0.4509
 4113SOL    HW123798   3.402   0.636   7.655  0.5875 -1.2297 -1.4536
 4113SOL    HW223799   3.450   0.751   7.575 -0.4874  2.8347  1.7577
 4114SOL     OW23800   2.974   2.096   8.579 -0.3488  0.0743 -0.0452
 4114SOL    HW123801   2.936   2.072   8.664 -1.4277 -0.7035 -0.7400
 4114SOL    HW223802   2.984   2.190   8.591  0.0914  0.1057 -0.6655
 4115SOL     OW23803   2.646   0.362   4.007 -0.4128 -0.4304 -0.1535
 4115SOL    HW123804   2.720   0.301   4.005  1.5717  1.9905 -1.3245
 4115SOL    HW223805   2.607   0.326   3.927 -1.7557  1.4800 -0.3579
 4116SOL     OW23806   4.507   3.876  15.001 -0.2261  0.0285 -0.3902
 4116SOL    HW123807   4.558   3.957  14.996 -0.2345 -0.0023 -1.0217
 4116SOL    HW223808   4.584   3.821  15.011 -0.3541  0.0703  0.8062
 4117SOL     OW23809   3.231   4.311  10.041 -0.3332  0.2411 -0.3039
 4117SOL    HW123810   3.140   4.331  10.064  0.1636  0.2961  1.5852
 4117SOL    HW223811   3.267   4.399  10.035  2.2106 -0.8176 -0.4833
 4118SOL     OW23812   0.486   3.304  10.648 -0.3386 -0.1417  0.2836
 4118SOL    HW123813   0.487   3.354  10.566  1.1008  2.5104  1.9303
 4118SOL    HW223814   0.579   3.309  10.667 -0.3291 -1.8876  0.6917
 4119SOL     OW23815   0.030   0.358   5.058 -0.1093  0.1280 -0.0888
 4119SOL    HW123816   0.008   0.283   5.002 -0.5539 -0.0127  0.2772
 4119SOL    HW223817   0.123   0.361   5.037 -0.2838  0.9402 -0.7267
 4120SOL     OW23818   3.747   0.437   6.579 -0.0391 -0.3474 -0.4766
 4120SOL    HW123819   3.671   0.495   6.570  0.2915 -0.1701 -2.3041
 4120SOL    HW223820   3.700   0.367   6.625 -2.4761  2.2572  0.9732
 4121SOL     OW23821   3.398   1.280   1.513 -0.3157  0.1575  0.2440
 4121SOL    HW123822   3.305   1.295   1.531  0.0319 -0.7872  2.8925
 4121SOL    HW223823   3.428   1.244   1.597  0.8444  1.0993  0.2305
 4122SOL     OW23824   0.949   1.918   6.729 -0.2619  0.3084  0.4662
 4122SOL    HW123825   0.891   1.872   6.790 -0.1910  1.9489  1.7817
 4122SOL    HW223826   0.947   1.869   6.648  0.3608  2.6453 -0.9627
 4123SOL     OW23827   1.325   0.573   6.583 -0.2577  0.2609 -0.0002
 4123SOL    HW123828   1.239   0.600   6.615 -0.7541  1.0550 -2.0026
 4123SOL    HW223829   1.322   0.482   6.610  0.7998  0.5650  1.1483
 4124SOL     OW23830   1.665   0.735   6.648  0.2049  0.4116  0.7106
 4124SOL    HW123831   1.734   0.718   6.712  0.8328  0.7197  0.1068
 4124SOL    HW223832   1.710   0.803   6.599  0.8654 -0.4399  0.1341
 4125SOL     OW23833   0.190   0.414   6.902  0.2667 -0.0017 -0.0084
 4125SOL    HW123834   0.111   0.457   6.934  0.6066 -0.5439  1.5534
 4125SOL    HW223835   0.170   0.399   6.810  0.1285 -1.8141  0.3014
 4126SOL     OW23836   0.263   0.015  14.862  0.6546 -0.0272  0.1633
 4126SOL    HW123837   0.295   4.702  14.779 -1.7832 -1.7523 -0.0075
 4126SOL    HW223838   0.168   0.011  14.850  0.9486  0.2244 -2.2401
 4127SOL     OW23839   2.111   0.910  10.399  0.3992  0.1635  0.2436
 4127SOL    HW123840   2.194   0.953  10.379  0.8630 -0.5402  0.6709
 4127SOL    HW223841   2.051   0.974  10.359 -0.5309 -1.1625 -0.4896
 4128SOL     OW23842   0.736   3.637   7.210 -0.5373 -0.1378 -0.1316
 4128SOL    HW123843   0.651   3.614   7.246 -0.3306 -0.4909  0.1374
 4128SOL    HW223844   0.780   3.692   7.275 -0.5637 -1.8437  1.3267
 4129SOL     OW23845   3.138   0.997  12.821  0.3475 -0.3258 -0.1692
 4129SOL    HW123846   3.057   1.031  12.784 -0.1603 -1.8352 -0.3946
 4129SOL    HW223847   3.127   0.904  12.804  2.3338 -0.1248 -2.6186
 4130SOL     OW23848   2.885   0.988   9.640 -0.2481  0.0293 -0.2863
 4130SOL    HW123849   2.856   0.902   9.672  0.9819 -0.5688 -0.7795
 4130SOL    HW223850   2.832   1.047   9.693  0.0631 -0.9104  1.0841
 4131SOL     OW23851   3.252   2.195   2.323 -0.1123 -0.1291 -0.0197
 4131SOL    HW123852   3.205   2.227   2.400  1.2966 -1.5457  1.4248
 4131SOL    HW223853   3.299   2.119   2.358 -0.0076 -0.1505 -0.2059
 4132SOL     OW23854   2.814   3.509   3.428  0.2518  0.4251  0.2196
 4132SOL    HW123855   2.814   3.441   3.361 -0.4843  0.4272  0.2183
 4132SOL    HW223856   2.903   3.538   3.408 -0.0246  1.1203 -0.0190
 4133SOL     OW23857   1.777   3.155   7.064 -0.0534  0.0918  0.4765
 4133SOL    HW123858   1.696   3.106   7.052 -0.2205  0.7643 -1.0802
 4133SOL    HW223859   1.831   3.103   7.125 -1.6930 -1.5044  0.5528
 4134SOL     OW23860   3.074   3.384   3.608 -0.2562 -1.0229  0.6892
 4134SOL    HW123861   3.142   3.403   3.543 -0.7916  1.2488  0.7884
 4134SOL    HW223862   3.121   3.319   3.660 -0.4398  0.0494  2.1814
 4135SOL     OW23863   0.719   0.609   3.594  0.6584 -0.5386 -0.7211
 4135SOL    HW123864   0.773   0.600   3.672 -0.3941  0.0678  0.0717
 4135SOL    HW223865   0.735   0.701   3.572 -0.1983 -0.5346 -1.3339
 4136SOL     OW23866   3.884   4.277  13.439 -0.5041 -0.1708 -0.1038
 4136SOL    HW123867   3.845   4.197  13.405 -2.7113  1.2023 -0.8278
 4136SOL    HW223868   3.978   4.261  13.436 -0.7190 -0.8292 -2.8815
 4137SOL     OW23869   3.952   0.574  13.707 -0.2614 -0.1983  0.0908
 4137SOL    HW123870   3.886   0.643  13.710 -0.6762 -0.5238 -1.3782
 4137SOL    HW223871   3.925   0.522  13.631 -1.9672 -1.5325  1.6108
 4138SOL     OW23872   4.111   2.774  14.023 -0.1685  0.6947 -0.5198
 4138SOL    HW123873   4.176   2.704  14.024 -2.7176 -1.6723  0.9293
 4138SOL    HW223874   4.167   2.851  14.023  2.5195 -1.2419 -0.2469
 4139SOL     OW23875   4.024   1.096   5.247 -0.3705 -0.3012  0.1007
 4139SOL    HW123876   4.093   1.064   5.188 -0.1146 -1.8031  1.2198
 4139SOL    HW223877   4.061   1.084   5.334  0.3350  2.3028  0.1559
 4140SOL     OW23878   4.036   1.487   8.991  0.3925  0.4588  0.0671
 4140SOL    HW123879   3.965   1.520   8.937 -0.6826 -0.3487  0.9977
 4140SOL    HW223880   4.102   1.488   8.921 -0.4535  3.1454 -0.6871
 4141SOL     OW23881   3.654   1.141   9.323  0.1085  0.0576 -0.3432
 4141SOL    HW123882   3.590   1.149   9.394 -0.0587  0.4604 -0.5417
 4141SOL    HW223883   3.623   1.059   9.284  0.5668  0.0005 -0.5804
 4142SOL     OW23884   1.346   2.186   8.695  0.1759 -0.0798  1.1984
 4142SOL    HW123885   1.303   2.101   8.695  1.7189 -0.8619  1.3690
 4142SOL    HW223886   1.414   2.167   8.760  0.7947 -0.8471  0.3110
 4143SOL     OW23887   1.849   2.399   5.135  0.1539 -0.0284  0.0392
 4143SOL    HW123888   1.857   2.453   5.056 -1.6348  1.0950  0.6141
 4143SOL    HW223889   1.826   2.313   5.100  1.2538 -0.3767  0.1841
 4144SOL     OW23890   1.017   2.513   8.308 -0.0009 -0.0931 -0.0881
 4144SOL    HW123891   0.965   2.443   8.348 -0.0084  0.9381  1.7257
 4144SOL    HW223892   0.989   2.498   8.218  1.1743 -2.8737  0.0272
 4145SOL     OW23893   4.638   0.232   4.840  0.4988 -0.6611 -0.4079
 4145SOL    HW123894   4.550   0.247   4.807  1.4302  1.5817 -1.9023
 4145SOL    HW223895   4.694   0.263   4.768 -2.0912  2.6184 -1.0352
 4146SOL     OW23896   3.486   3.168   5.683  0.0367  1.0015 -0.4263
 4146SOL    HW123897   3.511   3.260   5.670  0.3802  1.1500  1.2384
 4146SOL    HW223898   3.570   3.139   5.718 -0.3643  0.6255  0.2168
 4147SOL     OW23899   2.258   1.569   9.231  0.5090  0.3302 -0.2618
 4147SOL    HW123900   2.316   1.635   9.192 -2.0235  2.2778 -0.7382
 4147SOL    HW223901   2.304   1.493   9.196  0.6630 -0.5337  1.8138
 4148SOL     OW23902   3.242   2.392   3.884  0.2002  0.4131  0.1731
 4148SOL    HW123903   3.192   2.417   3.806 -0.5896 -0.7045  0.3233
 4148SOL    HW223904   3.333   2.413   3.863  0.2457  0.1520  0.1166
 4149SOL     OW23905   1.590   4.720   7.280  0.2456 -0.4313 -0.1760
 4149SOL    HW123906   1.510   0.017   7.328  1.5286  0.1286  1.7171
 4149SOL    HW223907   1.633   4.675   7.353 -0.6684  0.7369  1.1033
 4150SOL     OW23908   2.086   4.279   2.655 -0.5775  0.0763 -0.3693
 4150SOL    HW123909   2.021   4.275   2.585  0.7972 -1.7859 -1.5332
 4150SOL    HW223910   2.044   4.345   2.711  2.0161 -0.4429  2.1898
 4151SOL     OW23911   2.380   0.455   3.739  0.2257 -0.3468  0.1167
 4151SOL    HW123912   2.424   0.537   3.715 -0.7500 -0.0272 -0.5781
 4151SOL    HW223913   2.438   0.386   3.707  1.4321  1.3148 -1.3126
 4152SOL     OW23914   1.249   3.255   3.142  0.6967  0.1433 -0.0701
 4152SOL    HW123915   1.273   3.297   3.059 -1.0443  1.0839 -0.1003
 4152SOL    HW223916   1.331   3.210   3.161  0.8053 -0.2502 -1.4861
 4153SOL     OW23917   2.595   0.461  15.008  0.2387 -0.0001  0.4253
 4153SOL    HW123918   2.600   0.539  14.953 -2.6177 -1.2230 -1.5778
 4153SOL    HW223919   2.621   0.498  15.092  0.3425 -0.2936  0.5223
 4154SOL     OW23920   2.027   1.882   4.455  0.8665 -0.3222  0.1244
 4154SOL    HW123921   2.010   1.867   4.548  0.0315  0.2967  0.0803
 4154SOL    HW223922   2.052   1.797   4.421  2.1225  0.8033 -1.7526
 4155SOL     OW23923   1.262   1.822   3.857  0.0188 -0.7297  0.1949
 4155SOL    HW123924   1.347   1.804   3.896  1.2750  0.0866 -2.1642
 4155SOL    HW223925   1.287   1.869   3.777  0.7085  1.1636  1.5178
 4156SOL     OW23926   3.963   1.278   5.689  0.0827 -0.6650  0.2345
 4156SOL    HW123927   4.044   1.330   5.691  0.8902 -1.9218  0.2763
 4156SOL    HW223928   3.910   1.339   5.638  0.5534 -0.6547 -0.2373
 4157SOL     OW23929   4.105   0.364   4.856 -0.2359 -0.3753 -0.0796
 4157SOL    HW123930   4.101   0.278   4.898 -1.0729 -0.3719 -0.1499
 4157SOL    HW223931   4.087   0.419   4.932  1.0603  0.3627 -0.3192
 4158SOL     OW23932   4.273   4.597   6.485 -0.0878  0.0967  0.2020
 4158SOL    HW123933   4.200   4.657   6.480 -0.2787 -0.0188  1.5476
 4158SOL    HW223934   4.235   4.509   6.485 -1.8075  0.8414  1.5919
 4159SOL     OW23935   4.666   4.520   9.137 -0.0753 -0.0255  0.2281
 4159SOL    HW123936   4.610   4.473   9.075  1.4059  1.1468 -2.0197
 4159SOL    HW223937   4.675   4.606   9.095  0.0365  0.5389  1.4155
 4160SOL     OW23938   2.862   1.243   5.306  0.6432  0.2359 -0.2791
 4160SOL    HW123939   2.848   1.332   5.340 -2.9213  0.7564 -3.1054
 4160SOL    HW223940   2.950   1.237   5.343 -0.1300 -3.7398  0.8941
 4161SOL     OW23941   2.568   0.431   7.849  0.1217  0.1134 -0.3424
 4161SOL    HW123942   2.512   0.460   7.921 -1.1563 -1.4740 -0.6963
 4161SOL    HW223943   2.505   0.431   7.777 -2.9939 -1.8424  2.3653
 4162SOL     OW23944   3.459   2.225   6.670 -0.2087  0.2453  0.7482
 4162SOL    HW123945   3.423   2.148   6.626 -0.1799  1.2331 -0.9804
 4162SOL    HW223946   3.542   2.228   6.621  0.3133 -0.2214  1.5934
 4163SOL     OW23947   2.382   3.016   5.270 -0.2554 -0.4021  0.3549
 4163SOL    HW123948   2.307   3.038   5.326 -0.3566  1.9461 -0.7224
 4163SOL    HW223949   2.413   3.104   5.248  1.3611 -1.1026 -0.1570
 4164SOL     OW23950   1.994   1.194  17.322 -0.3315 -0.3479 -0.0552
 4164SOL    HW123951   2.078   1.148  17.319  0.1169  0.4286  0.7071
 4164SOL    HW223952   1.933   1.125  17.295  1.2160 -1.9913  0.6502
 4165SOL     OW23953   1.470   4.345   4.696 -0.0774 -0.7617 -0.1150
 4165SOL    HW123954   1.529   4.403   4.744  0.0936 -2.3676  1.6278
 4165SOL    HW223955   1.415   4.318   4.770 -0.7343 -0.4211 -0.4819
 4166SOL     OW23956   4.642   3.732  11.068  0.0306 -0.0175 -0.2525
 4166SOL    HW123957   0.013   3.721  11.073 -0.0573 -0.7277 -0.2495
 4166SOL    HW223958   4.632   3.811  11.122 -2.9093 -2.2899  2.5099
 4167SOL     OW23959   1.901   2.366   0.326 -0.6546  0.2782  0.5066
 4167SOL    HW123960   1.958   2.441   0.340 -0.0248  0.0740 -1.0308
 4167SOL    HW223961   1.942   2.309   0.391  3.1250  2.6677  0.2045
 4168SOL     OW23962   2.069   1.562   8.600 -0.3591 -0.1298 -0.0926
 4168SOL    HW123963   2.012   1.575   8.525  0.1712  1.5365 -0.1967
 4168SOL    HW223964   2.000   1.535   8.661  0.6392 -0.7513  0.7633
 4169SOL     OW23965   2.852   2.578  15.176  0.1600  0.4592  0.0715
 4169SOL    HW123966   2.866   2.594  15.269 -0.0069 -2.1067  0.5464
 4169SOL    HW223967   2.926   2.625  15.138 -0.5604  0.5505 -1.2321
 4170SOL     OW23968   4.159   3.361   9.827 -0.2727 -0.1391 -0.2231
 4170SOL    HW123969   4.146   3.269   9.801  0.2827  0.2273 -1.7724
 4170SOL    HW223970   4.219   3.382   9.756 -1.5208 -0.2765 -1.3281
 4171SOL     OW23971   3.491   1.989   5.667  0.1604 -0.2730  0.1972
 4171SOL    HW123972   3.440   2.028   5.738  0.9168 -0.4319  0.8143
 4171SOL    HW223973   3.575   1.970   5.708  0.8727 -1.6255 -1.8983
 4172SOL     OW23974   4.434   3.602   4.440  0.6993  0.1589  0.4825
 4172SOL    HW123975   4.388   3.603   4.356  0.4309  0.9296  0.6336
 4172SOL    HW223976   4.435   3.696   4.460 -1.3846  0.1915  0.4444
 4173SOL     OW23977   3.165   3.193   4.798 -0.0805  0.1342 -0.1214
 4173SOL    HW123978   3.126   3.112   4.831 -1.2208  0.5193 -0.5404
 4173SOL    HW223979   3.111   3.200   4.719 -0.1700 -3.1102 -0.3463
 4174SOL     OW23980   2.996   3.436  16.031  0.6170 -0.5651  0.2883
 4174SOL    HW123981   3.038   3.354  16.007  0.9870  0.0300 -1.1180
 4174SOL    HW223982   2.988   3.423  16.125  1.6079  1.8146  0.7179
 4175SOL     OW23983   4.008   2.558   0.555 -0.2294  0.1761 -0.1237
 4175SOL    HW123984   3.948   2.628   0.532  1.5088  2.3238  1.8831
 4175SOL    HW223985   4.045   2.537   0.469 -1.6769  0.6455 -0.8504
 4176SOL     OW23986   3.674   1.217   8.559  0.0771 -0.6524 -0.6360
 4176SOL    HW123987   3.738   1.288   8.555  2.3427 -2.5514  2.4076
 4176SOL    HW223988   3.725   1.148   8.602 -0.4739  0.5271  1.8871
 4177SOL     OW23989   2.286   0.281  12.380 -0.2086  0.5038  0.2915
 4177SOL    HW123990   2.323   0.239  12.457 -0.2224 -0.1032 -0.0324
 4177SOL    HW223991   2.195   0.276  12.408 -0.3546 -0.0108 -0.2666
 4178SOL     OW23992   2.463   3.976  17.410 -0.3505 -0.1298  0.1818
 4178SOL    HW123993   2.455   3.991  17.315 -2.0538 -0.7281  0.2377
 4178SOL    HW223994   2.547   4.017  17.430  0.2337  0.2393 -2.9070
 4179SOL     OW23995   3.546   3.495  14.499  0.3581 -0.2507  0.1436
 4179SOL    HW123996   3.616   3.500  14.435  0.6030 -1.1884  0.3359
 4179SOL    HW223997   3.542   3.583  14.538 -0.4292 -1.6689  3.3120
 4180SOL     OW23998   3.359   3.381  16.695 -0.6062 -0.2265 -0.1068
 4180SOL    HW123999   3.367   3.286  16.707 -0.3627 -0.1140  0.5736
 4180SOL    HW224000   3.278   3.393  16.743  0.4146 -0.0839  1.5667
 4181SOL     OW24001   3.470   3.346   2.850 -0.0331 -0.7612 -0.2882
 4181SOL    HW124002   3.520   3.406   2.795 -2.1994 -0.2386 -1.6790
 4181SOL    HW224003   3.418   3.302   2.783 -0.2033  1.3531 -1.5348
 4182SOL     OW24004   2.509   3.937   9.294  0.3266 -0.3607  0.0323
 4182SOL    HW124005   2.432   3.896   9.333 -0.1548  0.2099 -0.3156
 4182SOL    HW224006   2.496   4.032   9.304  1.9385 -0.2986  1.8056
 4183SOL     OW24007   3.631   0.168   0.171  0.3182 -0.7435  0.6309
 4183SOL    HW124008   3.644   0.259   0.145 -1.1353 -0.9813 -0.8915
 4183SOL    HW224009   3.551   0.149   0.122  0.7576  0.1046 -0.4065
 4184SOL     OW24010   2.299   2.742   5.528  0.7814 -0.3236  0.2043
 4184SOL    HW124011   2.239   2.783   5.466  0.8996 -0.6788 -0.1448
 4184SOL    HW224012   2.288   2.802   5.602  2.4465  0.7368 -0.3862
 4185SOL     OW24013   3.274   4.669  11.105  0.5190  0.2041 -0.2824
 4185SOL    HW124014   3.229   4.661  11.021 -0.9585 -1.0343  0.6261
 4185SOL    HW224015   3.236   4.593  11.148  0.7381 -0.0622 -0.5542
 4186SOL     OW24016   0.283   0.451   5.563  0.2211  0.3084 -0.0158
 4186SOL    HW124017   0.286   0.505   5.642 -0.4839  0.7950 -0.3335
 4186SOL    HW224018   0.212   0.386   5.568  0.0904  0.3760 -1.1126
 4187SOL     OW24019   2.478   3.076  10.830 -0.0200  0.0155 -0.2643
 4187SOL    HW124020   2.504   3.002  10.886 -1.8256  1.0336  1.9120
 4187SOL    HW224021   2.538   3.140  10.868  1.9493 -2.9153  1.5951
 4188SOL     OW24022   0.975   2.303   6.984  0.6152 -0.0920  0.2446
 4188SOL    HW124023   0.894   2.254   6.974  0.5589 -0.2679  1.5923
 4188SOL    HW224024   0.965   2.360   6.908  0.5543  1.3304  1.3356
 4189SOL     OW24025   2.409   4.623   7.210 -0.2441 -0.3871 -0.0197
 4189SOL    HW124026   2.386   4.589   7.296  2.8062 -0.6218  0.7046
 4189SOL    HW224027   2.470   4.694   7.229 -1.2920  0.7955 -1.0377
 4190SOL     OW24028   3.234   0.987  14.029 -0.2148  0.0170  0.4048
 4190SOL    HW124029   3.197   0.926  14.093 -1.6106  2.8468  2.2895
 4190SOL    HW224030   3.249   1.059  14.091  0.2926  0.2924 -0.0339
 4191SOL     OW24031   0.476   2.478  17.524  0.2602 -0.8262 -0.6189
 4191SOL    HW124032   0.466   2.432  17.440 -1.2311 -0.5692 -0.5711
 4191SOL    HW224033   0.453   2.401  17.576 -0.7658  0.9834  1.5681
 4192SOL     OW24034   0.378   1.806   6.095 -0.1401 -0.6470 -0.5289
 4192SOL    HW124035   0.375   1.882   6.037  0.3890  1.0268  1.6439
 4192SOL    HW224036   0.456   1.835   6.141 -1.9615  2.1695  0.7404
 4193SOL     OW24037   3.809   1.832  11.456  0.5469 -0.1712  0.2704
 4193SOL    HW124038   3.860   1.853  11.377  0.1094  1.3957  0.4176
 4193SOL    HW224039   3.726   1.870  11.429  0.6044  1.9678  3.0913
 4194SOL     OW24040   1.115   2.414   2.192  0.4639 -0.1339  0.0886
 4194SOL    HW124041   1.194   2.461   2.166  0.4393 -0.6095 -0.8151
 4194SOL    HW224042   1.068   2.386   2.114  1.8469 -0.3716 -0.6483
 4195SOL     OW24043   1.674   4.364   2.023 -0.4245  0.1088 -0.3337
 4195SOL    HW124044   1.610   4.333   2.086  1.1427 -1.5534  0.4280
 4195SOL    HW224045   1.702   4.281   1.986  1.6705  1.7649 -2.5161
 4196SOL     OW24046   4.275   2.218   1.947 -0.3253  0.0030 -0.1338
 4196SOL    HW124047   4.317   2.272   1.880  0.6087 -1.0591 -0.3941
 4196SOL    HW224048   4.302   2.261   2.027 -0.5026  0.2094 -0.1839
 4197SOL     OW24049   2.194   4.375  12.626  0.2627  0.4590 -0.1909
 4197SOL    HW124050   2.279   4.369  12.583  1.6353  0.9639  2.4181
 4197SOL    HW224051   2.228   4.418  12.704  0.3562  1.2284 -0.6604
 4198SOL     OW24052   2.755   1.632   4.724 -0.0269  0.0931 -0.3640
 4198SOL    HW124053   2.685   1.694   4.705  0.1695  0.1289 -0.9549
 4198SOL    HW224054   2.823   1.645   4.657 -0.7863 -3.3998 -1.8471
 4199SOL     OW24055   1.424   0.927   4.618  0.2588  0.1879  0.4071
 4199SOL    HW124056   1.437   0.851   4.561  2.0243  1.1703 -0.5060
 4199SOL    HW224057   1.346   0.903   4.667  0.5909 -1.9968 -0.1274
 4200SOL     OW24058   3.574   3.449   7.782  0.2715 -0.3564 -1.0752
 4200SOL    HW124059   3.550   3.364   7.746  0.0402 -1.4395  1.6716
 4200SOL    HW224060   3.639   3.416   7.845  1.1268  3.0525 -0.1313
 4201SOL     OW24061   1.911   3.513   5.542 -0.4570  0.2902 -0.2874
 4201SOL    HW124062   1.853   3.587   5.525  0.2489  0.8505 -0.2668
 4201SOL    HW224063   1.858   3.455   5.595  0.7683  0.2571  0.9083
 4202SOL     OW24064   3.094   0.420   1.321 -0.3421  0.3524 -0.3943
 4202SOL    HW124065   3.183   0.389   1.333 -0.7599 -0.1281  1.4303
 4202SOL    HW224066   3.086   0.486   1.390  2.2334 -1.0248  1.2183
 4203SOL     OW24067   4.337   1.908   8.480  0.7324  0.0570 -0.6243
 4203SOL    HW124068   4.308   1.942   8.564  0.8798  0.4235 -0.7189
 4203SOL    HW224069   4.431   1.926   8.480  1.0038 -1.4045 -2.1300
 4204SOL     OW24070   2.570   1.191   8.793 -0.0564 -0.2666 -0.2719
 4204SOL    HW124071   2.561   1.154   8.881 -1.7802  1.9902  0.4879
 4204SOL    HW224072   2.544   1.281   8.811  1.1238  0.0503 -0.1055
 4205SOL     OW24073   3.756   1.740   2.211 -0.3425 -0.3052 -0.6329
 4205SOL    HW124074   3.798   1.680   2.149 -0.2873  0.1219 -1.0095
 4205SOL    HW224075   3.815   1.815   2.213 -0.4265 -0.2575  0.1267
 4206SOL     OW24076   2.261   0.429   5.611 -0.4841 -0.1166  0.0532
 4206SOL    HW124077   2.285   0.472   5.529 -0.3717 -0.4149 -0.0732
 4206SOL    HW224078   2.344   0.389   5.640 -0.2132  0.0356 -0.5232
 4207SOL     OW24079   0.478   3.850   7.734  0.1598  0.0193  0.1442
 4207SOL    HW124080   0.441   3.765   7.708  1.7510  0.2605 -2.8893
 4207SOL    HW224081   0.430   3.866   7.816  0.3857 -1.0697  0.4954
 4208SOL     OW24082   4.526   0.418   6.897  0.5274 -0.2177  0.3119
 4208SOL    HW124083   4.491   0.443   6.812  0.8418 -0.7390  0.0311
 4208SOL    HW224084   4.477   0.474   6.958  1.6341  0.2397  0.7745
 4209SOL     OW24085   2.605   4.645  11.630  0.4038  1.0551  0.1405
 4209SOL    HW124086   2.584   4.635  11.537  1.5196  1.8274 -0.1860
 4209SOL    HW224087   2.692   4.679  11.611 -0.3405  1.3922 -2.6546
 4210SOL     OW24088   1.790   2.519  13.821 -0.5667  0.4252 -0.1384
 4210SOL    HW124089   1.791   2.439  13.768 -0.0329 -0.9776  1.9217
 4210SOL    HW224090   1.876   2.513  13.865 -0.4562 -0.4842 -0.4698
 4211SOL     OW24091   0.448   1.297   5.688  0.3894  0.1836  0.2785
 4211SOL    HW124092   0.368   1.286   5.635 -0.4480  1.0010  1.3690
 4211SOL    HW224093   0.497   1.368   5.646  0.3138 -1.2384 -2.2043
 4212SOL     OW24094   2.774   3.848   9.057 -0.5440  0.8316  0.0636
 4212SOL    HW124095   2.763   3.755   9.077 -0.1115  1.0478  1.3147
 4212SOL    HW224096   2.735   3.854   8.970  0.6584 -1.6921 -0.6436
 4213SOL     OW24097   3.348   1.035   5.002  0.1135  0.3995 -0.2900
 4213SOL    HW124098   3.384   1.124   5.005 -1.5985  1.0698  0.2084
 4213SOL    HW224099   3.337   1.023   4.908  0.8388 -3.7827  0.1504
 4214SOL     OW24100   2.992   1.014  11.702 -0.4225  0.0360 -0.1399
 4214SOL    HW124101   3.082   0.981  11.712  0.0688  1.0998 -1.0390
 4214SOL    HW224102   2.954   0.940  11.751  0.8531 -0.7351 -0.2954
 4215SOL     OW24103   1.464   3.368   7.450 -0.1728  0.2550  0.1874
 4215SOL    HW124104   1.369   3.364   7.456 -0.4709  1.9461 -3.3762
 4215SOL    HW224105   1.481   3.462   7.456 -0.5589  0.2620  1.2025
 4216SOL     OW24106   3.148   0.736  12.771 -0.1283 -0.3849 -0.2456
 4216SOL    HW124107   3.122   0.645  12.784 -0.8072 -0.2837 -0.8899
 4216SOL    HW224108   3.170   0.714  12.680 -1.9968 -1.7212 -0.3815
 4217SOL     OW24109   0.053   0.329   1.857  0.0181  0.0547  1.1095
 4217SOL    HW124110   0.123   0.275   1.821 -0.8640 -0.4247  0.1049
 4217SOL    HW224111   0.096   0.414   1.848 -0.0148 -0.2385 -1.7301
 4218SOL     OW24112   4.239   1.525   0.349 -0.7229  0.3660 -0.2972
 4218SOL    HW124113   4.262   1.604   0.398  1.0222  0.0085 -0.5348
 4218SOL    HW224114   4.292   1.462   0.399  1.0416  0.6496 -1.8122
 4219SOL     OW24115   3.400   4.299   6.920  0.4091 -0.1363 -0.2318
 4219SOL    HW124116   3.493   4.296   6.944  0.7702  2.3678 -1.3119
 4219SOL    HW224117   3.396   4.394   6.920 -0.5356 -0.1737 -1.5366
 4220SOL     OW24118   1.752   2.217  14.940 -0.0302  0.1471 -0.0569
 4220SOL    HW124119   1.795   2.282  14.995  2.1888  0.4750 -2.1691
 4220SOL    HW224120   1.821   2.153  14.923  1.3161  0.9456  2.4497
 4221SOL     OW24121   1.990   0.618   1.692 -0.2532  0.6253 -0.3467
 4221SOL    HW124122   1.944   0.564   1.627 -0.6044  0.0127  0.4045
 4221SOL    HW224123   1.936   0.595   1.768  0.7004  0.8173  0.3771
 4222SOL     OW24124   2.379   1.251  12.223 -0.2998 -0.0415 -0.3786
 4222SOL    HW124125   2.292   1.272  12.257  0.4446  4.3806 -1.2155
 4222SOL    HW224126   2.378   1.294  12.138 -0.2867 -0.4516 -0.5892
 4223SOL     OW24127   1.366   3.113   5.584  0.2381  0.1109  0.4608
 4223SOL    HW124128   1.458   3.141   5.582  0.1552  0.3120 -1.0452
 4223SOL    HW224129   1.345   3.126   5.491  2.0859 -0.0426  0.0167
 4224SOL     OW24130   2.864   2.454   8.513 -0.5586 -0.2012 -0.5106
 4224SOL    HW124131   2.791   2.394   8.500  0.6010 -1.7761  0.2706
 4224SOL    HW224132   2.907   2.414   8.588  2.6961  0.6075 -1.9349
 4225SOL     OW24133   2.832   1.441   7.547 -0.2417 -0.1083  0.0812
 4225SOL    HW124134   2.818   1.347   7.535  1.4166 -0.4993  1.1946
 4225SOL    HW224135   2.858   1.467   7.459  1.6117  0.8496  0.9045
 4226SOL     OW24136   2.116   3.611  14.269 -0.0410  0.3474 -0.1434
 4226SOL    HW124137   2.126   3.690  14.215 -2.0130 -0.2071 -1.3058
 4226SOL    HW224138   2.114   3.533  14.215  2.0401 -0.0230  0.3064
 4227SOL     OW24139   2.236   0.233   4.866  0.7573 -0.6507 -0.2114
 4227SOL    HW124140   2.244   0.164   4.799  1.7313  1.3515 -2.1512
 4227SOL    HW224141   2.316   0.284   4.853 -0.1737  0.6585 -0.7909
 4228SOL     OW24142   0.495   1.145   3.821 -0.0310 -0.1087 -0.1556
 4228SOL    HW124143   0.562   1.122   3.886 -1.1286 -0.5019  0.8176
 4228SOL    HW224144   0.474   1.055   3.797  0.3530  0.4867 -2.7300
 4229SOL     OW24145   0.840   3.381   7.222  0.1917 -0.2765 -0.3776
 4229SOL    HW124146   0.808   3.469   7.240 -0.1830 -0.3703 -0.5778
 4229SOL    HW224147   0.766   3.337   7.180 -0.6609  1.1070 -0.3139
 4230SOL     OW24148   1.107   3.598  10.747  0.2403 -0.0577 -0.0768
 4230SOL    HW124149   1.193   3.559  10.731 -0.2333 -1.0436 -0.2627
 4230SOL    HW224150   1.060   3.601  10.664  0.9185 -0.0752 -0.4622
 4231SOL     OW24151   2.027   0.089  14.284  0.1304 -0.1387 -0.3166
 4231SOL    HW124152   2.075   0.012  14.314 -0.1516 -0.9862 -2.0093
 4231SOL    HW224153   1.951   0.076  14.340 -0.0881 -1.6617 -0.9664
 4232SOL     OW24154   3.233   3.362   5.741 -0.2384 -0.0366  0.2419
 4232SOL    HW124155   3.319   3.376   5.700  0.5646  1.0092  2.2431
 4232SOL    HW224156   3.205   3.277   5.708  0.7886 -1.3928  2.8527
 4233SOL     OW24157   3.450   1.385  12.364 -0.3048  0.0205 -0.4676
 4233SOL    HW124158   3.363   1.406  12.398 -1.0166 -2.3686 -0.7409
 4233SOL    HW224159   3.468   1.451  12.297 -1.1546  0.2037 -0.5125
 4234SOL     OW24160   2.354   3.830   7.755  0.3815  0.2616 -1.1758
 4234SOL    HW124161   2.300   3.902   7.787 -0.3336 -0.3684 -0.9424
 4234SOL    HW224162   2.314   3.765   7.813  3.6932  0.1296  0.9868
 4235SOL     OW24163   2.247   4.588   1.064 -0.3253  0.6881 -0.1110
 4235SOL    HW124164   2.284   4.673   1.038 -0.1494  1.0416  1.2788
 4235SOL    HW224165   2.290   4.533   0.999 -1.2424  0.8994 -0.9074
 4236SOL     OW24166   3.993   1.969   6.909  0.6038  0.0166  0.7426
 4236SOL    HW124167   4.027   1.945   6.823 -2.3626 -1.0485 -0.1319
 4236SOL    HW224168   3.909   2.003   6.879  1.0984 -0.4453 -1.1719
 4237SOL     OW24169   2.206   0.792   5.907  0.3318 -0.1799  0.0317
 4237SOL    HW124170   2.238   0.828   5.824 -0.3268  0.1103 -0.1007
 4237SOL    HW224171   2.157   0.715   5.880 -1.0535  0.9528 -0.7135
 4238SOL     OW24172   1.789   1.993   9.066 -0.1110 -0.1222  0.1033
 4238SOL    HW124173   1.847   1.952   9.130 -0.6413 -0.5238  0.3227
 4238SOL    HW224174   1.814   1.941   8.989 -1.0281  1.0219 -0.9695
 4239SOL     OW24175   4.003   2.684   3.141 -0.2766  0.5043 -0.2059
 4239SOL    HW124176   3.929   2.696   3.082  0.3592 -0.9853 -1.3043
 4239SOL    HW224177   3.962   2.693   3.227 -1.0118  0.0090 -0.5037
 4240SOL     OW24178   3.284   1.923   2.609  0.2204 -0.1979 -0.3446
 4240SOL    HW124179   3.316   1.837   2.582  1.0461 -0.2687  0.8425
 4240SOL    HW224180   3.206   1.899   2.658  0.8562 -2.2190 -0.3097
 4241SOL     OW24181   0.054   1.375   9.472 -0.2350  0.5878 -0.0396
 4241SOL    HW124182   0.051   1.470   9.483  0.8427  0.5236  0.7881
 4241SOL    HW224183   0.057   1.371   9.376 -1.5750  2.0185 -0.1390
 4242SOL     OW24184   0.861   1.140   7.431  0.5377  0.5406  0.4107
 4242SOL    HW124185   0.808   1.173   7.503 -1.4942  2.3668 -1.9031
 4242SOL    HW224186   0.798   1.093   7.376  4.9620 -0.3526 -3.9263
 4243SOL     OW24187   1.264   1.863   9.511 -0.0645 -0.2140  0.1630
 4243SOL    HW124188   1.186   1.843   9.563  0.3152  1.8457  1.5191
 4243SOL    HW224189   1.331   1.817   9.562  1.1485 -0.0101 -1.2513
 4244SOL     OW24190   4.330   1.273  10.488  0.3609  0.2772  0.1626
 4244SOL    HW124191   4.335   1.297  10.396 -1.1592 -1.2789 -0.3182
 4244SOL    HW224192   4.268   1.338  10.521 -0.0490 -0.1160  0.1655
 4245SOL     OW24193   3.158   2.481   3.639 -0.4686 -0.0879  0.1969
 4245SOL    HW124194   3.226   2.541   3.611 -1.9211  1.5171  0.0981
 4245SOL    HW224195   3.156   2.427   3.560  2.1787  1.2084 -0.7724
 4246SOL     OW24196   2.367   0.638  14.220 -0.6974  0.2728 -0.0575
 4246SOL    HW124197   2.327   0.725  14.232 -1.3344  0.1113 -1.0500
 4246SOL    HW224198   2.350   0.620  14.313 -0.4079 -0.9709 -0.2557
 4247SOL     OW24199   0.607   2.937   4.313  0.3168  0.4960 -0.4006
 4247SOL    HW124200   0.579   2.894   4.395 -1.1494  2.2102 -0.0029
 4247SOL    HW224201   0.524   2.970   4.278 -0.2221  0.1782  0.5599
 4248SOL     OW24202   1.050   4.011   2.761 -0.3073 -0.3858  0.3261
 4248SOL    HW124203   0.973   4.036   2.709  0.3202  1.6483  0.3706
 4248SOL    HW224204   1.071   3.918   2.751  1.1904 -0.0299  0.3068
 4249SOL     OW24205   2.617   3.255   4.939  0.3726  0.0143  0.5666
 4249SOL    HW124206   2.687   3.212   4.988  1.7990  1.1269 -0.4844
 4249SOL    HW224207   2.623   3.226   4.848  2.7689 -0.0314  0.7550
 4250SOL     OW24208   1.843   0.841   8.561  0.1160 -0.2625  0.0702
 4250SOL    HW124209   1.828   0.751   8.589 -1.6533  0.0764  0.2076
 4250SOL    HW224210   1.787   0.883   8.626  1.3744 -0.3216  1.1947
 4251SOL     OW24211   0.689   2.436   9.121  0.0988 -0.0436 -0.3599
 4251SOL    HW124212   0.658   2.400   9.038 -0.4162 -0.2833 -0.0604
 4251SOL    HW224213   0.619   2.497   9.142  0.3361 -0.3476  1.3355
 4252SOL     OW24214   1.256   2.769   7.856 -0.3476  0.0618  0.4076
 4252SOL    HW124215   1.292   2.857   7.850  2.0364 -0.9706 -0.2615
 4252SOL    HW224216   1.288   2.747   7.768  0.1974 -1.2055  0.9240
 4253SOL     OW24217   0.409   0.745   8.027 -0.1388  0.7553 -0.1351
 4253SOL    HW124218   0.451   0.663   8.054 -0.1076  0.4353 -1.1732
 4253SOL    HW224219   0.478   0.793   7.981  0.2007 -2.1449 -2.6342
 4254SOL     OW24220   0.156   3.921  10.220  0.2383 -0.1139 -0.4205
 4254SOL    HW124221   0.127   3.854  10.282 -0.1817  0.0694 -0.4168
 4254SOL    HW224222   0.130   4.004  10.260 -2.1303 -0.8411 -0.4076
 4255SOL     OW24223   2.265   0.660   4.340 -0.7497  0.0360 -0.3948
 4255SOL    HW124224   2.263   0.754   4.357  2.5183 -0.3752  2.2464
 4255SOL    HW224225   2.346   0.642   4.386 -0.6448  1.9889  0.2177
 4256SOL     OW24226   4.101   3.110   0.915  0.1712 -0.5541 -0.5806
 4256SOL    HW124227   4.066   3.132   0.828  1.5167  1.1396 -0.6979
 4256SOL    HW224228   4.125   3.018   0.913  2.6695  0.0898  0.5466
 4257SOL     OW24229   1.170   3.105   7.591  0.2535 -0.2528 -0.1183
 4257SOL    HW124230   1.130   3.159   7.523  3.2885  1.5055 -0.5085
 4257SOL    HW224231   1.096   3.049   7.612 -0.4396  0.7422  0.1094
 4258SOL     OW24232   2.995   3.713   4.271  0.1123  0.2431 -0.7565
 4258SOL    HW124233   3.076   3.663   4.282  0.7324  1.3664 -0.1610
 4258SOL    HW224234   2.986   3.707   4.176 -1.3780 -0.8313 -0.5422
 4259SOL     OW24235   4.357   4.430   7.132  0.5093 -0.6110  0.2422
 4259SOL    HW124236   4.378   4.467   7.047 -1.2981 -0.4573 -0.1394
 4259SOL    HW224237   4.445   4.413   7.167 -0.1551 -3.7895  0.3496
 4260SOL     OW24238   4.191   3.605   2.919  0.0830  0.5375 -0.0023
 4260SOL    HW124239   4.283   3.623   2.942 -0.1199  1.1037  0.3568
 4260SOL    HW224240   4.165   3.665   2.849 -1.6813  0.4698  0.6104
 4261SOL     OW24241   3.822   3.331   7.133  0.2767 -0.3424 -0.1054
 4261SOL    HW124242   3.738   3.312   7.090  0.5751 -1.7203 -0.1004
 4261SOL    HW224243   3.876   3.257   7.105 -1.0168 -0.5395 -2.0994
 4262SOL     OW24244   1.301   3.997   9.699 -0.0314  0.6348 -0.8441
 4262SOL    HW124245   1.272   4.040   9.619  1.4495  1.1587 -1.0969
 4262SOL    HW224246   1.230   3.935   9.716  0.3993  0.8864  1.8469
 4263SOL     OW24247   2.575   1.516   7.660 -0.3357  0.1273 -0.1588
 4263SOL    HW124248   2.636   1.498   7.588  0.3113 -0.8106  0.6221
 4263SOL    HW224249   2.615   1.592   7.701  3.3263 -0.8545 -1.8268
 4264SOL     OW24250   1.950   4.583   8.575 -0.0562 -0.3554 -0.2558
 4264SOL    HW124251   1.864   4.574   8.534  0.6663  0.9123 -2.0187
 4264SOL    HW224252   1.996   4.505   8.546 -0.5962 -1.2843  1.3339
 4265SOL     OW24253   2.023   0.256   4.309  0.2928 -0.0224 -0.4253
 4265SOL    HW124254   1.995   0.278   4.397  0.2713 -0.8877 -0.2119
 4265SOL    HW224255   2.081   0.330   4.292 -0.7699  1.3553  1.9834
 4266SOL     OW24256   0.071   1.339  11.759 -0.1676  0.4754 -0.5631
 4266SOL    HW124257   0.045   1.328  11.667 -4.1866 -0.0153  0.6185
 4266SOL    HW224258   0.163   1.325  11.740 -0.3450 -1.2984 -0.1509
 4267SOL     OW24259   4.049   4.243   9.631  0.4622 -0.1247 -0.5233
 4267SOL    HW124260   4.124   4.297   9.608  0.7942  0.2542  1.4449
 4267SOL    HW224261   4.059   4.218   9.723 -0.1238  0.7154 -0.2328
 4268SOL     OW24262   2.013   3.712   6.716  0.0143  0.2699  0.2119
 4268SOL    HW124263   2.036   3.785   6.658  0.0889  0.7837  0.8894
 4268SOL    HW224264   1.919   3.721   6.729 -0.3522 -2.6191 -0.4153
 4269SOL     OW24265   0.890   0.264   7.339  0.6377  0.1943 -0.1406
 4269SOL    HW124266   0.891   0.349   7.294 -0.4292  1.0445  1.4243
 4269SOL    HW224267   0.800   0.232   7.343  0.2509  1.6152  2.9653
 4270SOL     OW24268   1.796   0.936   2.509 -0.0479 -0.0985  0.1811
 4270SOL    HW124269   1.808   1.020   2.466 -2.0514  1.0212  1.8138
 4270SOL    HW224270   1.705   0.943   2.537 -0.4451 -0.6530 -0.9831
 4271SOL     OW24271   4.594   3.685   0.007  1.1550 -0.0561  0.3413
 4271SOL    HW124272   4.648   3.610  17.678 -3.6184 -3.2770 -0.2456
 4271SOL    HW224273   4.600   3.682   0.102  0.7089 -2.1346  0.3042
 4272SOL     OW24274   1.635   0.638   8.386 -0.0086  0.2172  0.3638
 4272SOL    HW124275   1.684   0.626   8.468 -0.6289 -0.6478  0.6099
 4272SOL    HW224276   1.627   0.733   8.384  2.4327  0.4822  2.3509
 4273SOL     OW24277   3.664   4.610  10.077 -0.2000  0.4099  0.1909
 4273SOL    HW124278   3.576   4.572  10.082 -0.2240  0.4145 -0.1485
 4273SOL    HW224279   3.712   4.540  10.121 -1.9570  0.6629  2.4961
 4274SOL     OW24280   0.155   1.218   7.820  0.0227  0.0744 -0.3444
 4274SOL    HW124281   0.141   1.255   7.907 -1.8287 -1.6636  0.0981
 4274SOL    HW224282   0.198   1.137   7.848 -0.0040 -0.2198 -1.1463
 4275SOL     OW24283   1.454   3.642  11.961 -0.3585  0.1641  0.0537
 4275SOL    HW124284   1.375   3.662  12.011  0.0913 -0.4498  1.0183
 4275SOL    HW224285   1.418   3.560  11.928  1.1490 -0.4962  0.0767
 4276SOL     OW24286   1.133   2.645  11.522  0.0835  0.4192  0.0479
 4276SOL    HW124287   1.045   2.630  11.556  0.1681  1.0743  0.5622
 4276SOL    HW224288   1.175   2.560  11.532 -1.0189  0.2929  3.5510
 4277SOL     OW24289   2.641   0.153   3.071  0.1458 -0.6617  0.1240
 4277SOL    HW124290   2.620   0.075   3.019 -0.3030 -0.4833  0.0403
 4277SOL    HW224291   2.618   0.133   3.162 -1.2967  1.0990  0.1472
 4278SOL     OW24292   3.864   2.868   6.672 -0.1110  0.0207 -0.3368
 4278SOL    HW124293   3.866   2.906   6.760  0.2394  1.1622 -0.8392
 4278SOL    HW224294   3.912   2.787   6.689  1.7057  1.0241 -0.7311
 4279SOL     OW24295   3.116   1.311   3.682  0.6327  0.5843 -0.1078
 4279SOL    HW124296   3.092   1.218   3.684 -1.0810  1.0317 -0.3203
 4279SOL    HW224297   3.184   1.309   3.615  0.9612  2.9397  0.1647
 4280SOL     OW24298   3.023   2.085  14.218  0.4716 -0.6468  0.4051
 4280SOL    HW124299   3.038   2.176  14.246  0.4301 -0.2356 -0.9042
 4280SOL    HW224300   2.945   2.063  14.269 -0.0173  0.8685  0.3143
 4281SOL     OW24301   2.375   1.314  17.060  0.1131 -0.8284 -0.2786
 4281SOL    HW124302   2.434   1.304  16.985 -0.1140 -2.7048 -0.1954
 4281SOL    HW224303   2.311   1.374  17.022  0.6983  0.0536  0.1230
 4282SOL     OW24304   2.441   0.131   6.297 -0.5120  0.0272  0.0485
 4282SOL    HW124305   2.512   0.079   6.258  0.6737  0.4861  1.6007
 4282SOL    HW224306   2.362   0.079   6.286 -0.5569 -0.2088  1.4965
 4283SOL     OW24307   1.280   1.277   2.071  0.4449  0.2680 -0.5628
 4283SOL    HW124308   1.337   1.318   2.136  0.1285 -0.4525  0.1541
 4283SOL    HW224309   1.199   1.257   2.118  0.2107 -0.9749 -1.5154
 4284SOL     OW24310   3.605   0.997   2.024 -0.2607 -0.3205 -0.3688
 4284SOL    HW124311   3.681   0.953   2.061 -0.2533  1.2430  1.4942
 4284SOL    HW224312   3.552   0.921   2.001 -0.4843  0.3054 -1.9501
 4285SOL     OW24313   0.006   0.804   6.497  0.2214  1.0985  0.3187
 4285SOL    HW124314   0.072   0.869   6.520 -0.1821  0.2759  3.8292
 4285SOL    HW224315   4.675   0.856   6.437  2.2750  1.4818 -1.2001
 4286SOL     OW24316   3.254   2.647   6.579  0.3525 -0.4587 -0.2707
 4286SOL    HW124317   3.298   2.597   6.510 -0.1313  1.1348 -1.7103
 4286SOL    HW224318   3.161   2.650   6.557  0.3004  0.6499  0.0837
 4287SOL     OW24319   1.981   2.797  16.680 -0.0402 -0.1727  0.0626
 4287SOL    HW124320   2.037   2.798  16.757  2.8041 -1.4071 -2.0075
 4287SOL    HW224321   1.893   2.795  16.718 -0.0142 -0.4709  0.1106
 4288SOL     OW24322   3.443   0.245   2.203  0.3103 -1.3191  0.3616
 4288SOL    HW124323   3.447   0.231   2.108  2.4580 -1.8768  0.5410
 4288SOL    HW224324   3.391   0.324   2.218  1.9339 -0.1217 -0.3313
 4289SOL     OW24325   1.146   3.555   8.398  1.0341  0.3825 -0.6133
 4289SOL    HW124326   1.186   3.642   8.403 -0.0294  0.7378  1.5809
 4289SOL    HW224327   1.055   3.584   8.386  1.4781  1.5151 -1.2586
 4290SOL     OW24328   1.333   2.811   8.798  0.7248  0.1708  0.9157
 4290SOL    HW124329   1.383   2.823   8.879 -1.3377  1.7602  1.9520
 4290SOL    HW224330   1.379   2.736   8.761 -1.7771 -0.6642 -0.4919
 4291SOL     OW24331   1.972   0.600  14.471  0.3538  0.3868  0.1808
 4291SOL    HW124332   2.049   0.547  14.447  1.2811  0.0184  3.9992
 4291SOL    HW224333   1.981   0.603  14.566 -2.7837  1.4338  0.4303
 4292SOL     OW24334   2.529   2.092   8.703 -0.1297  0.1951  0.1007
 4292SOL    HW124335   2.435   2.084   8.688  0.0632 -0.1779 -0.8786
 4292SOL    HW224336   2.526   2.139   8.786 -0.4098  0.9772 -0.3512
 4293SOL     OW24337   1.389   4.656  12.123  0.0763 -0.0854 -0.1575
 4293SOL    HW124338   1.467   4.618  12.162 -0.0769  1.4427  1.6163
 4293SOL    HW224339   1.420   0.002  12.065 -1.4109  0.8514  0.1607
 4294SOL     OW24340   1.087   2.439   7.200 -0.0038  0.2764 -0.2063
 4294SOL    HW124341   1.065   2.398   7.116 -0.3474 -2.0484  1.0258
 4294SOL    HW224342   1.058   2.370   7.260 -0.7647  1.6937  1.0478
 4295SOL     OW24343   1.409   2.581   6.833 -0.1821  0.0700 -0.2650
 4295SOL    HW124344   1.452   2.604   6.916 -0.8973  0.0226  0.1150
 4295SOL    HW224345   1.436   2.493   6.807  0.6699  0.2301  0.0844
 4296SOL     OW24346   1.593   1.981   4.059  0.1984 -0.1482  0.3976
 4296SOL    HW124347   1.550   1.928   3.992  0.0382 -0.9201  1.1116
 4296SOL    HW224348   1.535   2.057   4.059  0.9904  0.4815  3.5113
 4297SOL     OW24349   3.696   0.997   4.036 -0.3451  0.8432  0.2272
 4297SOL    HW124350   3.614   1.043   4.050 -1.0186 -0.9953  2.3166
 4297SOL    HW224351   3.704   0.967   3.945  1.4147  0.8883  0.3541
 4298SOL     OW24352   3.161   3.721   7.245 -0.0145  0.0764  0.1274
 4298SOL    HW124353   3.212   3.690   7.320  0.8408 -0.4429 -0.6677
 4298SOL    HW224354   3.190   3.659   7.178 -1.7451 -0.3738 -0.1883
 4299SOL     OW24355   1.468   1.951  17.016 -0.2850  0.6475 -0.0628
 4299SOL    HW124356   1.547   1.996  16.984  0.5146 -1.7891 -1.4968
 4299SOL    HW224357   1.484   1.864  16.980 -0.0671  0.1123  1.3068
 4300SOL     OW24358   1.426   2.570   5.261  0.3447 -0.0795 -0.1227
 4300SOL    HW124359   1.361   2.501   5.272 -0.6893  0.7551 -0.9473
 4300SOL    HW224360   1.513   2.540   5.288  1.4444  1.4869 -1.9239
 4301SOL     OW24361   0.033   4.557   1.275 -0.0409 -0.7528 -0.2237
 4301SOL    HW124362   0.009   4.478   1.323  3.9628 -0.7208  1.7752
 4301SOL    HW224363   4.686   4.615   1.300  0.7478 -0.2761  0.8888
 4302SOL     OW24364   4.590   0.728  15.355 -0.3597  0.1250  0.4371
 4302SOL    HW124365   4.520   0.787  15.328  0.0364  0.0055 -0.8567
 4302SOL    HW224366   4.542   0.654  15.391 -4.3703  2.3108 -0.4907
 4303SOL     OW24367   1.980   1.299  15.097  0.0256  0.6474  0.1851
 4303SOL    HW124368   2.019   1.212  15.094 -0.9406  0.2105  0.2908
 4303SOL    HW224369   1.930   1.293  15.178  0.3264  3.7575  0.6109
 4304SOL     OW24370   4.617   0.030   8.564 -0.2603  0.2753 -0.1826
 4304SOL    HW124371   4.557   0.102   8.579 -3.0663 -1.8035 -1.3176
 4304SOL    HW224372   4.703   0.071   8.551  0.3837 -1.1997 -0.6539
 4305SOL     OW24373   0.204   3.830   5.809  0.3347 -0.4122  0.4297
 4305SOL    HW124374   0.195   3.774   5.886 -2.1843 -0.4888  0.0784
 4305SOL    HW224375   0.287   3.869   5.837 -0.2294 -0.3737  2.0107
 4306SOL     OW24376   3.387   4.179  11.682 -0.1691 -0.6024 -0.7313
 4306SOL    HW124377   3.331   4.204  11.609 -0.6891  1.2736  0.3027
 4306SOL    HW224378   3.395   4.267  11.719 -2.2678 -2.0187  3.0732
 4307SOL     OW24379   0.070   4.090  10.477 -0.0673  0.1532 -0.0688
 4307SOL    HW124380   0.022   4.062  10.555 -0.9650 -0.0628 -0.6913
 4307SOL    HW224381   0.157   4.109  10.511 -0.3676  0.9323  0.2752
 4308SOL     OW24382   2.561   1.713  11.518  0.5079  0.6378 -0.0966
 4308SOL    HW124383   2.605   1.631  11.495 -1.0171 -0.0285 -0.6518
 4308SOL    HW224384   2.607   1.773  11.459  1.5485 -0.2194 -0.1542
 4309SOL     OW24385   0.586   2.906  15.461 -0.7015 -0.2738  0.0405
 4309SOL    HW124386   0.567   2.963  15.387  0.3532 -0.7137 -0.5688
 4309SOL    HW224387   0.538   2.825  15.448 -2.6214  1.4287 -3.5369
 4310SOL     OW24388   4.537   3.342   8.303 -0.2109  0.1722 -0.1014
 4310SOL    HW124389   4.455   3.390   8.310 -2.1555 -3.2900  1.1177
 4310SOL    HW224390   4.572   3.369   8.388  0.7818  1.8272 -1.0371
 4311SOL     OW24391   1.682   0.301   7.279 -0.4743 -0.3612  0.0677
 4311SOL    HW124392   1.767   0.292   7.237 -0.4323  4.4562 -0.9750
 4311SOL    HW224393   1.629   0.242   7.226  0.3425  1.0401 -2.3397
 4312SOL     OW24394   3.138   2.701   7.167  0.3813  0.1454  0.0164
 4312SOL    HW124395   3.058   2.653   7.188  0.0401  1.5108  1.7675
 4312SOL    HW224396   3.120   2.720   7.075 -0.3116 -2.1131 -0.3075
 4313SOL     OW24397   4.314   3.299   5.166 -1.0152  0.7269  0.2823
 4313SOL    HW124398   4.257   3.255   5.229 -0.7517 -1.7876 -1.2511
 4313SOL    HW224399   4.281   3.389   5.170 -0.2922  0.9631  0.8532
 4314SOL     OW24400   3.446   1.323   7.792  0.4114 -0.7518 -0.3736
 4314SOL    HW124401   3.395   1.249   7.759 -1.3140 -0.7845  2.2940
 4314SOL    HW224402   3.507   1.325   7.719  0.9818 -1.8168  0.0872
 4315SOL     OW24403   1.607   1.296  14.699  0.0242 -0.0558  0.0961
 4315SOL    HW124404   1.567   1.380  14.677  0.0503  0.2710  1.2943
 4315SOL    HW224405   1.578   1.287  14.789  1.1189 -2.4380  0.2015
 4316SOL     OW24406   2.691   1.442   4.004  0.5836 -0.3009  0.3275
 4316SOL    HW124407   2.732   1.508   4.060 -1.5143  0.6177  0.8106
 4316SOL    HW224408   2.756   1.429   3.935  0.0197 -1.9717  0.1094
 4317SOL     OW24409   0.189   3.674   4.233  0.5016  0.0474 -0.7418
 4317SOL    HW124410   0.236   3.628   4.303  0.5892  0.6908 -0.3734
 4317SOL    HW224411   0.099   3.644   4.241  0.7509 -0.1801  1.3251
 4318SOL     OW24412   0.574   2.952   7.756  0.3575  0.2430 -0.5714
 4318SOL    HW124413   0.581   2.967   7.662  1.3191  0.0346 -0.5319
 4318SOL    HW224414   0.482   2.935   7.775  0.7528 -1.6805 -0.4124
 4319SOL     OW24415   1.180   0.225   6.215 -0.6372 -0.1464 -0.3489
 4319SOL    HW124416   1.131   0.231   6.298 -1.0526 -2.4866 -0.4326
 4319SOL    HW224417   1.237   0.152   6.240 -2.5548 -1.6265 -0.2927
 4320SOL     OW24418   4.398   0.362   5.147 -0.2588 -0.2558  0.9177
 4320SOL    HW124419   4.469   0.397   5.201  0.1156 -0.8975  0.8414
 4320SOL    HW224420   4.326   0.366   5.210  0.3315  0.5702  1.5335
 4321SOL     OW24421   2.031   3.773   4.158  0.0508 -0.1324  0.7734
 4321SOL    HW124422   1.993   3.740   4.076 -1.3463  0.5714  1.1304
 4321SOL    HW224423   1.971   3.739   4.224 -0.8226 -2.2049 -1.0766
 4322SOL     OW24424   0.204   2.529  13.207  0.1285  0.3223 -0.4186
 4322SOL    HW124425   0.262   2.509  13.133  1.2166  1.6463  0.0776
 4322SOL    HW224426   0.261   2.597  13.243  0.4023  1.1021 -2.3066
 4323SOL     OW24427   2.882   0.639   3.748  0.2507 -0.1436 -0.1252
 4323SOL    HW124428   2.906   0.710   3.808  1.5979 -1.5161  0.9726
 4323SOL    HW224429   2.914   0.559   3.790 -1.5550  0.0468  1.6200
 4324SOL     OW24430   3.182   4.529   8.182  0.2032  0.2352  0.2063
 4324SOL    HW124431   3.265   4.533   8.230  0.4242  1.4144 -0.2623
 4324SOL    HW224432   3.172   4.434   8.178  2.8560  0.1231 -3.4186
 4325SOL     OW24433   3.252   2.004  17.075  0.5715 -0.4346 -0.1116
 4325SOL    HW124434   3.181   2.028  17.016 -0.2334 -1.6526  0.3587
 4325SOL    HW224435   3.317   2.074  17.072  2.6724 -2.3549  0.0116
 4326SOL     OW24436   0.245   0.264   4.730 -0.5551 -0.0938 -0.1107
 4326SOL    HW124437   0.271   0.188   4.780 -0.7815 -0.3970 -0.4525
 4326SOL    HW224438   0.233   0.328   4.800  0.4751 -0.3660  0.3125
 4327SOL     OW24439   0.823   4.624   8.521  0.2490  0.2058 -0.0415
 4327SOL    HW124440   0.898   4.587   8.475 -0.8291 -1.2733 -0.5896
 4327SOL    HW224441   0.742   4.596   8.479  0.0686  0.1317  0.3558
 4328SOL     OW24442   2.482   3.080   6.973  0.2096  0.1145  0.2112
 4328SOL    HW124443   2.402   3.034   6.996  0.7609  0.3257  2.6012
 4328SOL    HW224444   2.481   3.158   7.029 -1.5974 -0.7885  1.4331
 4329SOL     OW24445   0.174   2.840  14.608  0.3644 -0.3591  0.0163
 4329SOL    HW124446   0.097   2.891  14.581  0.3891 -0.2137  0.2267
 4329SOL    HW224447   0.172   2.858  14.702 -3.5155 -0.6432  0.0176
 4330SOL     OW24448   0.888   4.051   0.990 -0.0914  0.4558 -0.3304
 4330SOL    HW124449   0.881   3.960   0.960  0.6631 -0.7006  2.9704
 4330SOL    HW224450   0.810   4.085   0.947  0.5838 -0.2947 -2.1670
 4331SOL     OW24451   2.954   2.315   8.736  0.0374  0.1152 -0.5298
 4331SOL    HW124452   2.871   2.351   8.767  0.8792  0.6499  1.1135
 4331SOL    HW224453   3.009   2.358   8.802 -0.4288  1.3694 -0.9630
 4332SOL     OW24454   3.820   4.698  16.533  0.3742  0.0485  0.5090
 4332SOL    HW124455   3.855   4.662  16.451 -0.1405  1.4014 -0.3153
 4332SOL    HW224456   3.797   4.626  16.591 -0.9464 -0.6650 -0.8746
 4333SOL     OW24457   1.884   2.150   8.077  0.1780 -0.1508  0.3227
 4333SOL    HW124458   1.811   2.112   8.029  1.0526 -0.6628 -0.5934
 4333SOL    HW224459   1.896   2.234   8.034  2.3510 -1.5159 -1.7574
 4334SOL     OW24460   2.621   2.250   3.724 -0.0824 -0.2684  0.2523
 4334SOL    HW124461   2.558   2.303   3.773  0.7648 -1.5684  2.7208
 4334SOL    HW224462   2.613   2.282   3.634  1.6017  1.6877  0.8090
 4335SOL     OW24463   0.711   2.625   4.770 -0.1014  0.4533 -0.8135
 4335SOL    HW124464   0.668   2.625   4.856 -1.6291 -1.4063 -1.5889
 4335SOL    HW224465   0.644   2.607   4.704 -1.4478 -0.4884  0.8339
 4336SOL     OW24466   0.894   4.628   7.084 -0.1540  0.3622 -0.6215
 4336SOL    HW124467   0.850   4.556   7.129 -0.9162 -0.6400 -2.9797
 4336SOL    HW224468   0.956   4.654   7.152 -1.4942  0.3620  0.5987
 4337SOL     OW24469   2.741   2.641   3.986 -0.4142  0.1087 -0.0613
 4337SOL    HW124470   2.755   2.617   3.894 -2.6991 -1.5691  0.0337
 4337SOL    HW224471   2.815   2.698   4.006  0.4572 -0.4080 -1.8299
 4338SOL     OW24472   2.373   2.535  11.416  0.7418 -0.3791  0.5878
 4338SOL    HW124473   2.401   2.458  11.367  3.3784 -0.1330  1.6978
 4338SOL    HW224474   2.314   2.490  11.476 -1.3997 -0.0777 -1.3070
 4339SOL     OW24475   0.511   1.774  14.503  0.1496  0.1477 -0.9511
 4339SOL    HW124476   0.440   1.825  14.539  0.0695 -0.6093 -0.0268
 4339SOL    HW224477   0.482   1.771  14.412  1.4754 -2.2307 -1.3163
 4340SOL     OW24478   2.446   2.747   4.529  0.5297 -0.0679  0.0433
 4340SOL    HW124479   2.433   2.810   4.600 -2.4077  0.9214 -1.3714
 4340SOL    HW224480   2.396   2.672   4.561 -1.1590  1.1560  0.2672
 4341SOL     OW24481   3.818   3.554   4.158 -0.5745  0.1543  0.4451
 4341SOL    HW124482   3.735   3.531   4.118 -0.6894  0.9671  0.2042
 4341SOL    HW224483   3.857   3.613   4.093  1.3108 -1.6455 -0.0388
 4342SOL     OW24484   3.504   0.117   7.097  0.1560 -0.7790 -0.4982
 4342SOL    HW124485   3.425   0.165   7.123  1.5732  2.7683 -2.6661
 4342SOL    HW224486   3.499   0.061   7.175 -2.0516  0.6697  0.4046
 4343SOL     OW24487   2.103   1.993  16.358  0.5105 -0.2003  0.0519
 4343SOL    HW124488   2.085   2.076  16.314  0.8768  0.3174  0.8931
 4343SOL    HW224489   2.055   1.998  16.440  0.8827 -0.5546  0.2902
 4344SOL     OW24490   3.237   0.105   7.850 -0.7115  0.3283 -0.2507
 4344SOL    HW124491   3.224   0.127   7.942  1.5437  1.1505 -0.1389
 4344SOL    HW224492   3.219   0.191   7.813  0.8901  0.7145 -0.1236
 4345SOL     OW24493   1.128   3.276   3.530  0.6419  0.4411 -0.4050
 4345SOL    HW124494   1.205   3.253   3.582 -0.7194 -0.1937  1.3066
 4345SOL    HW224495   1.067   3.307   3.597  2.2799  0.6891  0.9853
 4346SOL     OW24496   4.513   4.676   6.681 -0.2120  0.3441  0.3855
 4346SOL    HW124497   4.458   4.681   6.760  1.4159 -0.8210  1.5914
 4346SOL    HW224498   4.454   4.649   6.611 -0.1615  0.0123  0.4720
 4347SOL     OW24499   1.300   1.834   6.629  0.4530  0.2535 -0.0592
 4347SOL    HW124500   1.257   1.770   6.685  1.1678  1.0527  1.3812
 4347SOL    HW224501   1.388   1.817   6.661  0.0293 -2.3211 -0.2455
 4348SOL     OW24502   4.707   0.430  12.722 -0.2820 -0.1902  0.3101
 4348SOL    HW124503   4.702   0.525  12.723  2.7789 -0.0128 -0.7966
 4348SOL    HW224504   0.015   0.399  12.806  1.3906 -0.5876 -0.4614
 4349SOL     OW24505   4.500   1.908   4.551  0.0216 -0.2520  0.1841
 4349SOL    HW124506   4.518   1.836   4.612 -1.2461 -0.6505  0.0789
 4349SOL    HW224507   4.591   1.931   4.532 -0.3550  0.2747 -0.9484
 4350SOL     OW24508   0.594   2.694   8.195 -0.4847  0.7067  0.2554
 4350SOL    HW124509   0.613   2.787   8.183  0.9649  0.4846  0.8573
 4350SOL    HW224510   0.542   2.674   8.117  1.1724 -1.6427 -0.2154
 4351SOL     OW24511   4.358   4.136   6.740  0.9962 -0.0239  0.2192
 4351SOL    HW124512   4.410   4.056   6.734  2.2738  0.6838  2.0875
 4351SOL    HW224513   4.422   4.205   6.755  1.4849 -0.3006 -0.5762
 4352SOL     OW24514   3.264   0.965   8.005 -0.2770 -0.0414 -0.3709
 4352SOL    HW124515   3.183   0.975   8.054 -0.6343 -0.7826 -0.8288
 4352SOL    HW224516   3.301   1.052   8.022 -0.6391 -0.2389  1.3887
 4353SOL     OW24517   3.787   3.194   2.910  0.3996 -0.0823  0.4708
 4353SOL    HW124518   3.866   3.246   2.924  0.0222  1.2600 -2.4847
 4353SOL    HW224519   3.779   3.189   2.815  0.3408 -1.6055  0.5410
 4354SOL     OW24520   2.699   2.660   6.205  0.4038 -0.0944 -0.1317
 4354SOL    HW124521   2.740   2.684   6.122  1.6288  1.2578  0.8814
 4354SOL    HW224522   2.749   2.707   6.272  0.0668  0.6756 -0.4226
 4355SOL     OW24523   1.675   4.704  12.172 -0.6356  0.1329 -0.3706
 4355SOL    HW124524   1.746   4.639  12.179  0.5869  1.5153  0.2118
 4355SOL    HW224525   1.705   0.042  12.240  0.3984 -1.8856  1.0167
 4356SOL     OW24526   1.087   3.882   6.484  0.0708 -0.2284  0.0361
 4356SOL    HW124527   1.028   3.876   6.409 -0.8114 -0.8875  0.7821
 4356SOL    HW224528   1.164   3.830   6.458 -1.7378 -2.7246 -0.2904
 4357SOL     OW24529   3.246   0.915  11.760 -0.4032  0.2907  0.6676
 4357SOL    HW124530   3.255   0.948  11.849  1.2080  0.2024  0.5382
 4357SOL    HW224531   3.335   0.897  11.731 -0.0712 -0.6825  2.3652
 4358SOL     OW24532   1.256   0.448   7.302 -0.6605  0.1209  0.2136
 4358SOL    HW124533   1.223   0.470   7.215 -1.4654 -1.0817  0.2249
 4358SOL    HW224534   1.352   0.454   7.300 -0.5822 -0.8936  1.2064
 4359SOL     OW24535   3.545   0.781   7.258 -0.3324  0.7480 -0.2841
 4359SOL    HW124536   3.557   0.867   7.298 -1.0034  0.4293  0.5874
 4359SOL    HW224537   3.531   0.815   7.169 -1.2224 -1.3364 -0.9500
 4360SOL     OW24538   3.621   2.570   7.321  0.0834 -0.4095 -0.0155
 4360SOL    HW124539   3.546   2.606   7.274  0.9430  1.6626  0.1931
 4360SOL    HW224540   3.616   2.613   7.407 -1.2637 -0.0498 -0.2735
 4361SOL     OW24541   0.138   1.751   1.589  0.1925  0.2201  0.2141
 4361SOL    HW124542   0.137   1.809   1.666  0.4870 -1.9976  1.8839
 4361SOL    HW224543   0.233   1.739   1.594  0.0332 -2.2151 -2.5968
 4362SOL     OW24544   1.301   3.723   5.359  0.2165 -0.4017 -0.6880
 4362SOL    HW124545   1.336   3.809   5.381  1.5759 -1.1808  0.2188
 4362SOL    HW224546   1.385   3.677   5.361  0.7150  0.4547 -2.6381
 4363SOL     OW24547   0.309   0.423   5.842 -0.3172 -0.2850 -0.4520
 4363SOL    HW124548   0.363   0.351   5.812  0.4323 -1.0103  2.6408
 4363SOL    HW224549   0.264   0.390   5.920  3.0072 -0.7499  1.2382
 4364SOL     OW24550   1.467   1.320  14.233  0.1198 -0.3794  0.3739
 4364SOL    HW124551   1.406   1.249  14.213 -0.0555  0.9738 -3.9182
 4364SOL    HW224552   1.553   1.279  14.233  0.0408 -0.5134 -2.2348
 4365SOL     OW24553   2.920   0.670   4.164  0.0092 -0.7539 -0.3880
 4365SOL    HW124554   2.824   0.667   4.161 -0.0553  0.0664  0.9546
 4365SOL    HW224555   2.931   0.709   4.077  2.1998  0.6245  0.5249
 4366SOL     OW24556   1.895   2.139  15.560  0.2673  0.1908 -0.2565
 4366SOL    HW124557   1.928   2.093  15.638  2.6078 -0.4577 -1.6556
 4366SOL    HW224558   1.952   2.215  15.563  0.6781 -0.0944 -0.8854
 4367SOL     OW24559   3.531   0.323  12.313  0.3127 -0.3574  0.1590
 4367SOL    HW124560   3.585   0.397  12.341  0.0630 -0.3365  0.5859
 4367SOL    HW224561   3.492   0.279  12.389 -1.9465  1.1807 -0.1067
 4368SOL     OW24562   1.437   0.687  12.297  0.6869 -0.5331  0.2109
 4368SOL    HW124563   1.489   0.639  12.361  0.3280 -1.3961 -0.1417
 4368SOL    HW224564   1.478   0.773  12.306 -0.0928 -0.2945  1.4622
 4369SOL     OW24565   3.985   0.650  10.926 -0.0133 -0.2632  0.1237
 4369SOL    HW124566   3.945   0.735  10.943 -0.8378 -0.4438 -0.9188
 4369SOL    HW224567   4.046   0.675  10.857  0.2905 -0.6731  0.2399
 4370SOL     OW24568   1.539   4.281   4.004  0.4606  0.1423 -0.4234
 4370SOL    HW124569   1.486   4.229   3.943  1.9137 -3.3781  1.2946
 4370SOL    HW224570   1.630   4.283   3.976  0.0974  2.0103 -1.4919
 4371SOL     OW24571   4.120   4.209  14.453 -0.0301  0.2976  0.1670
 4371SOL    HW124572   4.135   4.275  14.386  0.1574  0.6030  0.5093
 4371SOL    HW224573   4.162   4.131  14.418  2.0417  0.3382  2.5354
 4372SOL     OW24574   3.919   3.632   4.479  0.0630 -0.6168 -0.4599
 4372SOL    HW124575   3.828   3.653   4.457  0.0325 -1.5957 -1.2526
 4372SOL    HW224576   3.909   3.537   4.479 -1.1469 -0.5007  1.1326
 4373SOL     OW24577   1.104   4.444   8.891 -0.3253  0.9684 -0.5385
 4373SOL    HW124578   1.124   4.491   8.810  1.5842  1.8098  0.4181
 4373SOL    HW224579   1.018   4.405   8.876 -0.1616 -0.1064  1.4270
 4374SOL     OW24580   2.952   2.993   2.913  0.7023 -0.2167 -0.1266
 4374SOL    HW124581   3.045   3.017   2.918  0.4293  0.5391  1.4270
 4374SOL    HW224582   2.956   2.899   2.930  1.4485  0.1040  1.4681
 4375SOL     OW24583   2.238   3.711   0.953  0.4245  0.1332 -0.3746
 4375SOL    HW124584   2.147   3.699   0.925 -0.1949  0.5064  1.4807
 4375SOL    HW224585   2.278   3.653   0.888 -0.0969  0.5128 -1.0304
 4376SOL     OW24586   2.481   4.001   6.302 -0.2685  0.1131  0.0793
 4376SOL    HW124587   2.487   3.926   6.362 -0.6778  1.1152  1.3733
 4376SOL    HW224588   2.568   3.996   6.262 -0.2921 -1.3550  0.2065
 4377SOL     OW24589   2.346   3.559   4.433 -0.4700  0.3304 -0.4339
 4377SOL    HW124590   2.260   3.569   4.472 -0.4285 -3.4475  0.5844
 4377SOL    HW224591   2.397   3.635   4.460 -1.9988  0.3325  2.3531
 4378SOL     OW24592   1.645   4.129   6.613  0.7501  0.2309 -0.4480
 4378SOL    HW124593   1.712   4.074   6.573  0.2799 -0.4348 -0.3266
 4378SOL    HW224594   1.696   4.179   6.677  2.0572 -3.3320  1.2760
 4379SOL     OW24595   0.420   1.379   4.996 -0.0281 -0.8472  0.5064
 4379SOL    HW124596   0.405   1.445   5.063  0.8559  0.5850 -0.7271
 4379SOL    HW224597   0.330   1.355   4.972 -0.4988 -0.1204  1.5459
 4380SOL     OW24598   4.139   0.910   6.336  0.0486  0.3692  0.1770
 4380SOL    HW124599   4.130   0.836   6.276  3.0677 -0.9711  1.3361
 4380SOL    HW224600   4.136   0.983   6.275  0.7664  0.9293  0.7998
 4381SOL     OW24601   4.519   3.841  14.728  0.0974 -0.0874  0.3336
 4381SOL    HW124602   4.603   3.795  14.731  0.8367  1.1873 -1.2841
 4381SOL    HW224603   4.504   3.846  14.822 -1.0564 -1.9003  0.2564
 4382SOL     OW24604   3.991   3.849  15.344 -0.2502  1.0671 -0.4426
 4382SOL    HW124605   4.024   3.909  15.410  0.2456 -0.7222  0.9509
 4382SOL    HW224606   3.911   3.811  15.379  0.6713  1.6263  2.2189
 4383SOL     OW24607   3.659   3.261   1.649  0.0695 -0.1182  0.0402
 4383SOL    HW124608   3.748   3.227   1.660 -0.5980 -2.1287 -0.7776
 4383SOL    HW224609   3.613   3.178   1.635  0.4777 -0.1692 -1.0170
 4384SOL     OW24610   1.403   0.571   2.975 -0.0346 -0.2266  0.4759
 4384SOL    HW124611   1.444   0.486   2.984  1.2453  0.4017  0.5712
 4384SOL    HW224612   1.405   0.575   2.879  1.1614 -0.5975  0.4948
 4385SOL     OW24613   0.712   4.145  10.632  0.1757 -0.0136  0.3877
 4385SOL    HW124614   0.640   4.162  10.693  0.1027 -1.0956  0.6148
 4385SOL    HW224615   0.674   4.080  10.573 -1.4599 -0.4471  1.9043
 4386SOL     OW24616   0.542   0.161   3.181 -0.2251  0.1690 -0.1995
 4386SOL    HW124617   0.627   0.186   3.146 -0.1822  0.3705  0.0543
 4386SOL    HW224618   0.486   0.180   3.105 -1.9373 -0.1144  0.9913
 4387SOL     OW24619   1.038   3.325   6.057  0.0418  0.2339  0.8513
 4387SOL    HW124620   1.040   3.399   5.996 -0.5594  1.0590  1.8439
 4387SOL    HW224621   1.131   3.303   6.059 -0.5847 -2.6577 -0.7181
 4388SOL     OW24622   1.192   1.923   0.031 -0.0500 -0.2856  0.2828
 4388SOL    HW124623   1.222   2.012   0.011  2.5322 -1.1590  0.3166
 4388SOL    HW224624   1.244   1.904   0.109  0.3467 -1.5115 -0.2860
 4389SOL     OW24625   1.581   1.135   6.137  0.6979 -0.9397  0.1467
 4389SOL    HW124626   1.658   1.180   6.173 -0.5020 -0.6314  2.2803
 4389SOL    HW224627   1.548   1.092   6.215 -0.4071 -0.5703 -0.1272
 4390SOL     OW24628   3.780   4.444   2.041 -0.5515  0.1657 -0.0392
 4390SOL    HW124629   3.860   4.496   2.035  0.6390 -1.5263  1.6469
 4390SOL    HW224630   3.801   4.372   1.981  0.9726  0.7669 -0.2136
 4391SOL     OW24631   1.040   4.499   3.322 -0.4905 -0.0805 -0.2179
 4391SOL    HW124632   1.009   4.572   3.269 -0.7099 -0.2079 -0.2656
 4391SOL    HW224633   1.086   4.433   3.272  1.6993  0.0760  1.5753
 4392SOL     OW24634   3.622   3.318   6.537  0.6737 -0.2443  0.0117
 4392SOL    HW124635   3.655   3.396   6.581  0.7212  0.7928 -1.8761
 4392SOL    HW224636   3.694   3.260   6.562  1.3029 -0.1411 -1.5165
 4393SOL     OW24637   2.245   3.988  15.027 -0.1026  0.4808 -0.3474
 4393SOL    HW124638   2.224   4.080  15.014  1.1114  0.4205 -2.6203
 4393SOL    HW224639   2.156   3.952  15.032  0.1396  0.0980  1.1408
 4394SOL     OW24640   2.717   0.286   2.479  0.5749 -0.0651  0.0085
 4394SOL    HW124641   2.734   0.365   2.531  2.3166 -1.0471  0.9296
 4394SOL    HW224642   2.690   0.319   2.393  0.3055 -1.5391 -0.4732
 4395SOL     OW24643   3.832   1.915   4.019  0.0100  0.0354 -0.3472
 4395SOL    HW124644   3.888   1.838   4.011  0.3303  0.3128 -0.8075
 4395SOL    HW224645   3.756   1.875   3.976  1.0381 -0.7202 -1.4852
 4396SOL     OW24646   3.989   1.163   3.664  0.4344  0.4759 -0.3491
 4396SOL    HW124647   4.009   1.138   3.574  0.8730 -0.8411  0.1186
 4396SOL    HW224648   4.055   1.116   3.715 -0.0361  0.0873 -0.0955
 4397SOL     OW24649   3.345   3.299   3.123 -0.2293  0.0383  0.2220
 4397SOL    HW124650   3.412   3.241   3.160 -2.4487 -1.7509  1.4085
 4397SOL    HW224651   3.388   3.351   3.055  1.1019  0.0615  1.0894
 4398SOL     OW24652   1.685   0.814   5.882  0.4234  0.1032 -0.7231
 4398SOL    HW124653   1.619   0.778   5.822  1.1500 -3.0018  0.3519
 4398SOL    HW224654   1.641   0.809   5.967 -0.9736  2.5554 -1.2979
 4399SOL     OW24655   2.138   2.340  12.453  0.1822 -0.0049  0.4531
 4399SOL    HW124656   2.073   2.270  12.452 -1.4672  1.5632 -1.5651
 4399SOL    HW224657   2.129   2.350  12.358 -1.0705 -1.8484  0.3700
 4400SOL     OW24658   2.405   1.798  14.193  0.5326 -0.4123 -0.4755
 4400SOL    HW124659   2.443   1.719  14.155  1.3767  0.2089 -0.9318
 4400SOL    HW224660   2.415   1.865  14.126  2.7592  1.6268  1.9192
 4401SOL     OW24661   3.000   3.447   5.915 -0.0484  0.1331  0.0573
 4401SOL    HW124662   3.033   3.448   5.825 -2.5757  2.3343 -0.8826
 4401SOL    HW224663   2.911   3.412   5.907  0.6549 -2.2184  2.7743
 4402SOL     OW24664   0.241   3.280   0.708  0.6370 -0.1454 -0.6465
 4402SOL    HW124665   0.306   3.349   0.699 -0.8606  1.3818  0.4159
 4402SOL    HW224666   0.173   3.332   0.751  1.5839  2.6390 -2.5658
 4403SOL     OW24667   0.174   3.148   7.010 -0.0738  0.1876 -0.0974
 4403SOL    HW124668   0.185   3.055   7.026 -0.8778 -0.0026 -0.6776
 4403SOL    HW224669   0.251   3.167   6.955 -2.1941 -0.4987 -3.3122
 4404SOL     OW24670   0.343   3.268   4.351 -0.4065  0.4892 -0.5400
 4404SOL    HW124671   0.401   3.201   4.385 -2.5443  0.0947  2.2800
 4404SOL    HW224672   0.295   3.214   4.288 -0.1036 -2.1274  1.5000
 4405SOL     OW24673   1.075   4.097  11.677 -0.6428 -0.4103  0.1488
 4405SOL    HW124674   1.139   4.106  11.607  0.3486 -0.5655  1.0349
 4405SOL    HW224675   1.132   4.137  11.744  0.5707 -2.1553  0.1505
 4406SOL     OW24676   4.526   2.238   5.832 -0.4149  0.4094 -0.0762
 4406SOL    HW124677   4.446   2.268   5.790 -1.8866 -0.4176  2.1197
 4406SOL    HW224678   4.561   2.321   5.865  1.8505 -0.2243 -0.8766
 4407SOL     OW24679   0.487   3.327   5.989  0.8872  0.1380  0.0682
 4407SOL    HW124680   0.417   3.271   5.956  0.7415 -1.3935  2.9134
 4407SOL    HW224681   0.430   3.390   6.033  0.3543 -0.5526  0.3631
 4408SOL     OW24682   2.670   2.071  17.450 -0.1741 -0.1010  0.1066
 4408SOL    HW124683   2.683   1.997  17.509 -1.5757  0.8437  1.6152
 4408SOL    HW224684   2.745   2.131  17.457 -0.1250 -0.3272  1.4876
 4409SOL     OW24685   2.523   3.503   4.972 -0.9097 -0.0185 -0.0277
 4409SOL    HW124686   2.568   3.423   4.947 -1.0922 -0.0417 -0.2801
 4409SOL    HW224687   2.575   3.538   5.044 -0.7906 -0.0676 -0.0894
 4410SOL     OW24688   3.618   4.171   9.141 -0.3246  0.6019  0.2744
 4410SOL    HW124689   3.586   4.156   9.230  1.1614  1.2716  0.9147
 4410SOL    HW224690   3.634   4.079   9.122 -0.7555  0.9234 -1.6022
 4411SOL     OW24691   0.929   1.150   6.156  0.5492  0.7529  0.5486
 4411SOL    HW124692   0.935   1.088   6.229 -1.0311 -0.2546 -0.1792
 4411SOL    HW224693   0.893   1.090   6.090  0.1625  0.2856  1.1829
 4412SOL     OW24694   0.725   0.430   6.133 -0.1376 -0.6040 -0.3842
 4412SOL    HW124695   0.799   0.390   6.179  0.5507 -1.5659 -2.2941
 4412SOL    HW224696   0.654   0.391   6.184  2.2360 -2.6394  1.3677
 4413SOL     OW24697   1.287   3.238   6.041  0.9230  0.0968  0.1141
 4413SOL    HW124698   1.269   3.225   5.948 -0.3093 -0.9847  0.5150
 4413SOL    HW224699   1.307   3.155   6.083 -1.1915  0.5467  2.0139
 4414SOL     OW24700   1.719   2.225   6.154 -0.1380  0.6300 -0.5762
 4414SOL    HW124701   1.762   2.205   6.238 -1.8905 -0.0478  0.1609
 4414SOL    HW224702   1.783   2.186   6.095 -2.7619  0.2361 -3.1333
 4415SOL     OW24703   2.354   2.883   2.402 -0.2305  0.1561  0.0385
 4415SOL    HW124704   2.381   2.904   2.491 -1.0235 -1.1572  0.5887
 4415SOL    HW224705   2.263   2.859   2.415  0.3846 -0.5424  2.9141
 4416SOL     OW24706   2.036   2.847   0.460  0.9402 -0.2133 -0.3578
 4416SOL    HW124707   2.080   2.821   0.541 -2.4686 -0.8270  1.2692
 4416SOL    HW224708   2.110   2.894   0.421  1.5454  0.0968  1.1324
 4417SOL     OW24709   4.379   1.417   1.829  0.3161  0.3657  0.5082
 4417SOL    HW124710   4.354   1.374   1.747 -1.8564 -0.3650  1.5707
 4417SOL    HW224711   4.464   1.448   1.797 -0.2353  1.2050 -0.1266
 4418SOL     OW24712   1.186   4.217   3.986  0.3645  0.8520  0.0109
 4418SOL    HW124713   1.233   4.183   4.062  1.7853  0.7373 -0.9243
 4418SOL    HW224714   1.255   4.269   3.945  0.2356 -1.2580 -2.8367
 4419SOL     OW24715   2.433   3.126   0.487 -0.7286 -0.2034  0.2758
 4419SOL    HW124716   2.406   3.209   0.447  1.4891  0.9547  1.1701
 4419SOL    HW224717   2.527   3.143   0.493 -0.3553 -1.2364 -2.6499
 4420SOL     OW24718   0.414   1.340   2.908  0.3164  0.2176 -0.2232
 4420SOL    HW124719   0.417   1.257   2.861  0.3175 -0.1141  0.3638
 4420SOL    HW224720   0.323   1.363   2.891  0.9352  1.9988 -1.1534
 4421SOL     OW24721   4.206   3.727   6.239  0.1862  0.7765  0.2329
 4421SOL    HW124722   4.130   3.760   6.190 -0.4372 -0.6104  0.2760
 4421SOL    HW224723   4.263   3.729   6.162  1.1080 -2.1085  0.8516
 4422SOL     OW24724   1.365   0.612   7.881  0.7354  0.6121  0.2510
 4422SOL    HW124725   1.411   0.528   7.883 -3.3622 -1.6893 -1.7151
 4422SOL    HW224726   1.376   0.652   7.795 -1.6540 -0.9189 -0.7384
 4423SOL     OW24727   3.313   3.232   3.741 -0.1934  0.5561 -0.1114
 4423SOL    HW124728   3.408   3.230   3.728 -0.4890 -2.8173 -1.9531
 4423SOL    HW224729   3.311   3.259   3.833 -1.3081  0.8983 -0.2422
 4424SOL     OW24730   1.457   1.289  16.642  0.1177 -0.2803 -0.0243
 4424SOL    HW124731   1.520   1.340  16.692 -1.1655  1.9354 -0.6708
 4424SOL    HW224732   1.411   1.242  16.712 -0.0035  0.7404  0.5663
 4425SOL     OW24733   1.101   0.624   2.714 -0.6713  0.6371  0.2842
 4425SOL    HW124734   1.105   0.718   2.695 -1.8477  1.1671  2.6435
 4425SOL    HW224735   1.058   0.609   2.798  0.4516 -3.4423  0.1183
 4426SOL     OW24736   4.502   4.099   5.361  0.4607  0.1195 -0.5493
 4426SOL    HW124737   4.581   4.153   5.366  0.9079 -0.5103 -0.8862
 4426SOL    HW224738   4.518   4.032   5.427  0.8941 -1.3139 -2.1115
 4427SOL     OW24739   0.319   4.598  13.581  0.3719 -0.7444  0.2389
 4427SOL    HW124740   0.347   4.535  13.514 -1.8875 -1.6598  0.1633
 4427SOL    HW224741   0.321   4.535  13.653 -3.1306 -1.2583 -0.1455
 4428SOL     OW24742   3.233   3.550   5.525 -0.0533  0.1691  0.6577
 4428SOL    HW124743   3.151   3.509   5.551  1.7068 -0.9647  4.4015
 4428SOL    HW224744   3.206   3.608   5.453 -1.5133  0.6061  1.5562
 4429SOL     OW24745   0.760   3.783  16.845 -0.1406 -0.1629  0.0173
 4429SOL    HW124746   0.696   3.730  16.799 -0.0044  1.6970 -2.3169
 4429SOL    HW224747   0.845   3.751  16.816 -0.4393 -1.3321  0.4323
 4430SOL     OW24748   1.446   4.226   3.314 -0.7892 -0.3254  0.2102
 4430SOL    HW124749   1.461   4.160   3.381  0.3808  0.2853  0.5503
 4430SOL    HW224750   1.511   4.204   3.247 -0.7895 -0.0847  0.1318
 4431SOL     OW24751   4.506   1.971   7.631 -0.1306 -0.0535 -0.2951
 4431SOL    HW124752   4.554   2.020   7.697  1.9448 -1.1851 -0.9629
 4431SOL    HW224753   4.464   2.036   7.575  1.4806  0.0748 -1.3467
 4432SOL     OW24754   2.435   2.765  16.503 -0.3181  0.4172  0.4640
 4432SOL    HW124755   2.340   2.752  16.506 -0.4747  1.2752 -0.8780
 4432SOL    HW224756   2.455   2.695  16.565 -0.8460  0.9560  1.2490
 4433SOL     OW24757   0.815   1.803  11.252  0.4542 -0.0374  0.4511
 4433SOL    HW124758   0.814   1.753  11.171  0.8950  1.0238 -0.2094
 4433SOL    HW224759   0.868   1.744  11.306 -0.8826 -1.5633  0.0737
 4434SOL     OW24760   1.455   0.043   7.717 -0.2241 -0.0695  0.5456
 4434SOL    HW124761   1.395   0.113   7.741  1.2713  1.8904 -1.4304
 4434SOL    HW224762   1.515   0.051   7.791 -0.6437  1.3131  0.7417
 4435SOL     OW24763   2.768   4.310  11.260  0.0569 -0.0160  0.0054
 4435SOL    HW124764   2.803   4.342  11.343 -1.4203 -1.2710  1.1184
 4435SOL    HW224765   2.789   4.219  11.278 -0.5008 -0.1541 -0.0624
 4436SOL     OW24766   4.576   4.072   8.559 -0.1979 -0.2268  0.1118
 4436SOL    HW124767   4.568   4.042   8.469 -0.6172 -1.6238  0.6025
 4436SOL    HW224768   4.590   3.991   8.608 -1.6209 -0.6440 -0.1741
 4437SOL     OW24769   2.815   0.616   8.487  0.0713 -0.0411  0.2683
 4437SOL    HW124770   2.759   0.675   8.538 -1.9929 -1.0308 -0.8385
 4437SOL    HW224771   2.829   0.677   8.415 -1.1374 -2.2764 -1.8572
 4438SOL     OW24772   0.474   3.947   9.122 -0.6985  0.3860 -0.5733
 4438SOL    HW124773   0.409   3.883   9.149 -1.0390  1.1847  0.5142
 4438SOL    HW224774   0.437   3.975   9.038  1.0754 -0.6935 -1.7144
 4439SOL     OW24775   0.901   1.328  11.067  0.7350 -0.7133  0.1642
 4439SOL    HW124776   0.966   1.307  11.000 -0.5637  1.7079 -1.9154
 4439SOL    HW224777   0.951   1.357  11.143 -1.9379  2.3349  0.8087
 4440SOL     OW24778   2.726   1.972   1.077  0.4308  0.0659 -0.1346
 4440SOL    HW124779   2.694   1.882   1.084  0.8860  0.1192  2.9099
 4440SOL    HW224780   2.660   2.001   1.013  1.4467 -0.0056 -1.1990
 4441SOL     OW24781   0.290   2.934   7.303 -0.7516 -0.0921 -0.0271
 4441SOL    HW124782   0.208   2.967   7.339 -0.0701  1.8618 -0.2667
 4441SOL    HW224783   0.267   2.928   7.210 -3.8781 -1.8317  0.8617
 4442SOL     OW24784   2.236   2.593   5.089  0.5208 -0.6430 -0.6126
 4442SOL    HW124785   2.173   2.626   5.025  1.1793  0.9470 -0.4480
 4442SOL    HW224786   2.320   2.631   5.066  0.3749 -0.5978 -1.0617
 4443SOL     OW24787   4.595   1.806   8.256  0.3353 -0.2846 -0.3215
 4443SOL    HW124788   4.510   1.843   8.282  0.5537  0.5251 -0.7722
 4443SOL    HW224789   4.639   1.886   8.229  0.8671 -0.2572  0.6312
 4444SOL     OW24790   4.592   1.657   5.585  0.4642  0.2303 -0.0723
 4444SOL    HW124791   4.518   1.695   5.631 -0.1469 -1.4680  0.3476
 4444SOL    HW224792   4.585   1.564   5.606  1.0698  0.4570  1.0865
 4445SOL     OW24793   3.377   2.792  15.482 -0.4000  0.3437  0.1922
 4445SOL    HW124794   3.444   2.813  15.547  1.3704  0.7132 -1.7231
 4445SOL    HW224795   3.374   2.874  15.432 -0.8802  0.5374  0.5372
 4446SOL     OW24796   2.914   0.099   7.933  0.2591 -0.1908  0.0085
 4446SOL    HW124797   2.852   0.135   7.869 -2.6499 -1.3969  2.1265
 4446SOL    HW224798   2.876   0.011   7.939  0.4444 -0.2540  0.2438
 4447SOL     OW24799   4.143   0.277   6.572  0.5113 -0.4816  0.1813
 4447SOL    HW124800   4.067   0.223   6.552 -0.3812  0.5077  0.8910
 4447SOL    HW224801   4.129   0.292   6.666 -0.6153 -1.3029  0.1488
 4448SOL     OW24802   4.699   2.019   3.803 -0.3016  0.0855 -0.3355
 4448SOL    HW124803   4.653   1.983   3.878  1.2803  1.7125  1.4211
 4448SOL    HW224804   0.042   1.952   3.786  0.9777  1.1630  0.4911
 4449SOL     OW24805   1.805   4.071   2.770 -0.1058 -0.0318 -0.5321
 4449SOL    HW124806   1.784   4.161   2.795  2.5065  1.0732 -2.2999
 4449SOL    HW224807   1.831   4.039   2.856 -0.2039  0.6989 -0.2267
 4450SOL     OW24808   4.221   3.656   0.312  0.2128  0.3997 -0.4878
 4450SOL    HW124809   4.155   3.666   0.381 -0.4292 -2.1195 -0.7684
 4450SOL    HW224810   4.302   3.662   0.363 -0.5159  0.6596  0.6524
 4451SOL     OW24811   1.769   3.277  16.095  0.2217  0.0506 -0.5521
 4451SOL    HW124812   1.673   3.274  16.099  0.2501 -0.7920 -0.4270
 4451SOL    HW224813   1.789   3.183  16.091 -1.1288 -0.3332  1.6258
 4452SOL     OW24814   4.320   0.958  13.148  0.3549 -0.1792 -0.0562
 4452SOL    HW124815   4.245   1.009  13.178 -1.9070 -2.4918 -1.7346
 4452SOL    HW224816   4.311   0.988  13.058 -0.7682 -2.3007 -0.6483
 4453SOL     OW24817   2.145   2.725   5.292  0.0440 -0.4048  0.2823
 4453SOL    HW124818   2.155   2.802   5.237 -1.2484 -1.4823 -1.4919
 4453SOL    HW224819   2.188   2.660   5.235 -1.6975 -0.3685 -1.0984
 4454SOL     OW24820   2.396   3.093   8.691  0.1430  0.4723 -0.1592
 4454SOL    HW124821   2.323   3.045   8.731  0.9909 -0.3097  0.4679
 4454SOL    HW224822   2.353   3.158   8.636  0.1163  1.7980  1.4117
 4455SOL     OW24823   2.463   4.077   0.700  0.5671  0.6642 -0.0155
 4455SOL    HW124824   2.421   4.057   0.783  1.2669  2.0676  0.6657
 4455SOL    HW224825   2.478   4.171   0.704 -0.2936  0.7306  1.3999
 4456SOL     OW24826   2.222   4.652  15.365  0.7546  0.1175 -0.3501
 4456SOL    HW124827   2.262   4.632  15.280 -2.5361  1.4710 -2.2584
 4456SOL    HW224828   2.130   4.631  15.345  0.6620  0.1362  0.0518
 4457SOL     OW24829   4.551   1.521   6.629 -0.1807 -0.7186  0.3439
 4457SOL    HW124830   4.614   1.594   6.625 -1.3468  0.3556  1.4651
 4457SOL    HW224831   4.579   1.470   6.553 -0.3427  1.0605 -0.9151
 4458SOL     OW24832   4.204   0.959   8.706  0.2250  0.2214 -0.2527
 4458SOL    HW124833   4.292   0.932   8.680 -1.0068 -1.3856 -2.6663
 4458SOL    HW224834   4.210   0.938   8.800  0.2629 -0.0339 -0.3114
 4459SOL     OW24835   1.258   1.368   2.604 -0.0114 -0.1613  0.0708
 4459SOL    HW124836   1.257   1.418   2.686 -1.8868 -1.1927  0.6595
 4459SOL    HW224837   1.243   1.277   2.628 -2.9456  0.1435 -0.5656
 4460SOL     OW24838   3.576   0.716   2.226 -0.1364  0.0206  0.1866
 4460SOL    HW124839   3.561   0.740   2.135  0.0021  1.1224  0.4494
 4460SOL    HW224840   3.488   0.709   2.262 -0.3279 -1.7158 -0.6238
 4461SOL     OW24841   3.702   1.163  12.115 -0.6968  0.0128 -0.4865
 4461SOL    HW124842   3.661   1.176  12.029 -2.3135 -0.3184  0.2326
 4461SOL    HW224843   3.620   1.128  12.149 -0.7626  2.1666  1.5621
 4462SOL     OW24844   1.289   1.272   4.776  0.3180 -0.0293  0.5801
 4462SOL    HW124845   1.223   1.207   4.800 -1.3936  2.0850  1.5931
 4462SOL    HW224846   1.285   1.286   4.681 -0.1430 -1.3744  0.4021
 4463SOL     OW24847   3.237   0.069   5.581 -0.5004 -0.4038  0.6314
 4463SOL    HW124848   3.276   0.006   5.520 -2.6270 -0.6927 -0.4255
 4463SOL    HW224849   3.316   0.106   5.620 -1.1049  1.6890 -0.0914
 4464SOL     OW24850   0.146   0.750   2.937 -0.1426  0.1430  0.2462
 4464SOL    HW124851   0.174   0.727   2.848 -0.5246 -1.3985  0.5187
 4464SOL    HW224852   0.062   0.704   2.942 -0.7192  0.8570 -2.3826
 4465SOL     OW24853   0.836   4.244  11.752  0.5040  0.1547  0.0145
 4465SOL    HW124854   0.913   4.189  11.736  0.9216  0.6419  0.3349
 4465SOL    HW224855   0.858   4.266  11.843  2.5347  0.0100 -0.4554
 4466SOL     OW24856   3.186   0.355   8.684  0.7075  0.7560  0.0372
 4466SOL    HW124857   3.187   0.373   8.590  1.9828  2.9750  0.4615
 4466SOL    HW224858   3.268   0.305   8.689  0.8970  1.1907  1.3121
 4467SOL     OW24859   3.921   3.198   1.094  0.0441  0.0675  0.2546
 4467SOL    HW124860   3.860   3.239   1.033  0.3145 -0.7652 -0.5843
 4467SOL    HW224861   3.968   3.135   1.039 -0.3214  2.2493 -2.5655
 4468SOL     OW24862   4.640   3.209   3.694  0.6696 -0.2059  0.0920
 4468SOL    HW124863   4.709   3.252   3.643  2.2900 -1.1518  1.5241
 4468SOL    HW224864   4.688   3.208   3.777  0.7984 -0.9131  0.0101
 4469SOL     OW24865   0.965   4.368   8.542  0.1581  0.1594  0.0027
 4469SOL    HW124866   0.987   4.451   8.584  1.4577  0.1483 -0.6632
 4469SOL    HW224867   0.891   4.342   8.598  1.4371  1.2742  2.2425
 4470SOL     OW24868   0.245   1.289   7.426 -0.5782  0.2141 -0.1873
 4470SOL    HW124869   0.210   1.372   7.459  1.6053 -0.6544  4.3103
 4470SOL    HW224870   0.227   1.293   7.332 -3.0082  1.8015  0.3436
 4471SOL     OW24871   2.323   3.414  17.549  0.0028  0.0626  0.2107
 4471SOL    HW124872   2.229   3.411  17.566 -0.0087 -0.2393  0.0928
 4471SOL    HW224873   2.326   3.461  17.466 -3.1103 -1.3001 -0.6623
 4472SOL     OW24874   1.557   1.883   6.309  0.4248  0.0336  0.4765
 4472SOL    HW124875   1.518   1.956   6.261 -0.0813  0.0687  0.9381
 4472SOL    HW224876   1.582   1.924   6.392  0.2890  0.7023  0.1892
 4473SOL     OW24877   0.628   3.062  11.885  0.2640  0.0815  0.2391
 4473SOL    HW124878   0.600   2.971  11.900  2.0138 -0.8420 -2.0004
 4473SOL    HW224879   0.548   3.104  11.916 -0.0740  0.2935 -0.9156
 4474SOL     OW24880   1.724   3.913  12.442  0.1402 -0.1449  0.0901
 4474SOL    HW124881   1.801   3.969  12.435 -0.4663  0.4527 -1.8533
 4474SOL    HW224882   1.654   3.976  12.426 -0.4915 -0.7819  0.3151
 4475SOL     OW24883   3.633   1.539   7.122 -0.3222  0.1706 -0.0310
 4475SOL    HW124884   3.692   1.464   7.130  0.5499  0.9332  0.7237
 4475SOL    HW224885   3.623   1.559   7.215  2.1455 -1.2913  0.5214
 4476SOL     OW24886   1.872   0.448   1.498 -0.2234  0.2778 -0.2816
 4476SOL    HW124887   1.888   0.355   1.488 -1.2616  0.1782 -1.0380
 4476SOL    HW224888   1.781   0.450   1.467  0.0643  0.2758 -1.1209
 4477SOL     OW24889   1.422   0.311   7.559  0.2331  0.2943  0.0527
 4477SOL    HW124890   1.374   0.349   7.485  0.5346  1.8397  0.6661
 4477SOL    HW224891   1.463   0.388   7.597  0.1434 -1.1881  3.1747
 4478SOL     OW24892   3.376   1.106   9.432  0.1339 -0.1078 -0.9121
 4478SOL    HW124893   3.380   1.182   9.373 -4.0776  1.2417  0.5664
 4478SOL    HW224894   3.294   1.121   9.479  1.2432 -1.0644  1.2787
 4479SOL     OW24895   4.559   2.475   0.781 -0.6568 -0.1778  0.0474
 4479SOL    HW124896   4.494   2.406   0.781 -1.3851  0.5067  0.7724
 4479SOL    HW224897   4.519   2.546   0.831 -0.1288 -0.2499  0.5859
 4480SOL     OW24898   3.650   3.177  17.597  0.4683  0.2854  0.3037
 4480SOL    HW124899   3.633   3.251  17.656 -3.0433  1.1538 -1.7712
 4480SOL    HW224900   3.738   3.161  17.630  1.0250  0.5440 -1.0557
 4481SOL     OW24901   2.436   1.464   3.175 -0.0895 -0.2323  0.6172
 4481SOL    HW124902   2.373   1.502   3.236  0.5126  1.1657  0.3669
 4481SOL    HW224903   2.507   1.450   3.238  1.0830  1.1028 -0.4282
 4482SOL     OW24904   4.012   2.770   6.041 -0.4541  0.0739  0.8909
 4482SOL    HW124905   3.976   2.831   6.105  1.0836 -0.0580  1.8727
 4482SOL    HW224906   4.028   2.825   5.964 -1.1876  0.9840  1.3761
 4483SOL     OW24907   2.095   2.699  14.515  0.6845 -0.4733 -0.2006
 4483SOL    HW124908   2.047   2.751  14.579 -0.5552 -0.7573 -0.8966
 4483SOL    HW224909   2.030   2.642  14.475  0.4047  1.1306 -2.0337
 4484SOL     OW24910   2.674   2.912   8.087  0.2551  0.0970  0.1726
 4484SOL    HW124911   2.590   2.957   8.075 -0.1966 -1.2104 -1.5761
 4484SOL    HW224912   2.676   2.918   8.183  0.5418  0.5794  0.1343
 4485SOL     OW24913   2.954   0.449   9.094 -0.0768  0.0500 -0.0228
 4485SOL    HW124914   3.011   0.453   9.017 -2.6189  2.1211 -1.7784
 4485SOL    HW224915   3.014   0.503   9.146 -1.9896  0.2614  1.9751
 4486SOL     OW24916   3.900   0.881   2.211  0.4554  0.5633  0.6563
 4486SOL    HW124917   3.934   0.960   2.169  1.8239 -0.5145 -0.2956
 4486SOL    HW224918   3.855   0.831   2.143  1.1936 -1.6252  1.7797
 4487SOL     OW24919   3.072   1.716   6.516 -0.5120  0.5413 -0.3026
 4487SOL    HW124920   3.061   1.783   6.583  0.8615  1.0822 -0.6303
 4487SOL    HW224921   3.109   1.641   6.561  1.0698  2.6829  1.9857
 4488SOL     OW24922   1.605   0.985   4.836 -0.1997 -0.8314  0.1859
 4488SOL    HW124923   1.538   0.973   4.769  0.8154 -2.5748 -0.5268
 4488SOL    HW224924   1.599   0.901   4.882 -0.5090 -1.3608 -0.8065
 4489SOL     OW24925   0.241   2.278   9.204 -0.7419 -0.1587 -0.3242
 4489SOL    HW124926   0.306   2.346   9.186 -0.2437 -0.6081 -0.2378
 4489SOL    HW224927   0.159   2.319   9.177 -0.6033  0.3314  0.0088
 4490SOL     OW24928   4.559   4.304   3.022  0.8101 -0.0823  0.2682
 4490SOL    HW124929   4.626   4.236   3.020 -0.6458 -1.4014 -3.3377
 4490SOL    HW224930   4.552   4.332   3.114 -0.1192 -1.6542  0.6652
 4491SOL     OW24931   2.746   1.666   6.547  0.3073 -0.4457  0.4142
 4491SOL    HW124932   2.734   1.633   6.458  0.3318  2.4658 -0.6819
 4491SOL    HW224933   2.803   1.598   6.582  1.7985  0.2321 -0.6852
 4492SOL     OW24934   4.720   0.187   7.789 -0.3633  0.3563 -0.2113
 4492SOL    HW124935   0.054   0.160   7.860 -2.0303  0.9102  1.3459
 4492SOL    HW224936   4.634   0.194   7.829  0.4978 -2.4424  2.1488
 4493SOL     OW24937   3.296   2.269   7.148 -0.4513 -0.4067  0.2846
 4493SOL    HW124938   3.356   2.259   7.074  0.2492 -2.2851  1.1064
 4493SOL    HW224939   3.301   2.189   7.199  2.2606 -1.8170 -2.1643
 4494SOL     OW24940   1.123   0.415   3.157  0.3802 -0.0681 -0.2588
 4494SOL    HW124941   1.105   0.359   3.233 -1.4734 -1.7302 -1.9205
 4494SOL    HW224942   1.193   0.473   3.187 -0.2016 -0.9838  2.8763
 4495SOL     OW24943   1.643   0.221   0.927 -0.0633 -0.2289  0.0973
 4495SOL    HW124944   1.630   0.237   1.020  0.1133 -0.9031  0.2411
 4495SOL    HW224945   1.603   0.134   0.921  0.6723 -0.5993  0.4481
 4496SOL     OW24946   2.849   0.923   9.387  0.4316  0.9865 -0.0116
 4496SOL    HW124947   2.876   0.931   9.479 -0.2570  0.2243  0.2528
 4496SOL    HW224948   2.866   0.830   9.374 -0.8130  0.4890  1.7867
 4497SOL     OW24949   3.199   2.260   1.160  0.4028  0.1805 -0.3645
 4497SOL    HW124950   3.246   2.190   1.113  0.5235  0.6255 -0.9040
 4497SOL    HW224951   3.122   2.219   1.199  1.3305 -1.0511  0.1865
 4498SOL     OW24952   1.203   3.352   7.362  0.1097  0.1314  0.0872
 4498SOL    HW124953   1.121   3.359   7.411 -1.2182  1.7001 -2.3790
 4498SOL    HW224954   1.163   3.340   7.276 -1.9935 -0.3569  1.1368
 4499SOL     OW24955   2.603   1.870   4.035 -0.1263 -0.7040 -0.4883
 4499SOL    HW124956   2.527   1.835   3.988  1.1079 -2.6067 -1.0631
 4499SOL    HW224957   2.605   1.811   4.111  0.4962 -2.0754 -1.5618
 4500SOL     OW24958   0.100   3.076  12.432 -0.0476 -0.2541 -0.0028
 4500SOL    HW124959   0.046   3.037  12.500 -0.2073 -1.9592 -1.1291
 4500SOL    HW224960   0.165   3.008  12.415  0.3685  0.8357 -2.7097
 4501SOL     OW24961   4.088   4.379  15.322 -0.3388 -0.1422 -0.1572
 4501SOL    HW124962   4.040   4.373  15.405  1.8352  0.5448  1.1314
 4501SOL    HW224963   4.124   4.291  15.323  1.0338  0.4358  0.5758
 4502SOL     OW24964   1.090   3.358   4.840 -0.0165  0.3127  0.3133
 4502SOL    HW124965   1.030   3.292   4.876 -0.2445  0.7388  0.7266
 4502SOL    HW224966   1.151   3.310   4.784 -0.2617  0.5084 -0.1263
 4503SOL     OW24967   1.894   3.698   3.950 -0.6048  0.0428  0.7319
 4503SOL    HW124968   1.828   3.631   3.934 -0.9761  0.1990  1.6329
 4503SOL    HW224969   1.845   3.772   3.914 -2.1901 -1.2892  0.1826
 4504SOL     OW24970   1.289   0.920  16.552 -0.2255  0.0109 -1.1303
 4504SOL    HW124971   1.358   0.975  16.514 -1.5660  2.0412 -0.6023
 4504SOL    HW224972   1.222   0.989  16.558 -0.1480 -0.1906  1.8025
 4505SOL     OW24973   1.264   4.015  12.506 -0.2520 -0.3125 -0.1183
 4505SOL    HW124974   1.285   4.106  12.526  0.9810 -1.1903  2.6319
 4505SOL    HW224975   1.169   4.007  12.501 -0.4053 -0.4928  3.3024
 4506SOL     OW24976   1.627   2.716   3.743  0.1271 -0.3437  0.2146
 4506SOL    HW124977   1.546   2.743   3.701  0.7501  1.4250  0.1285
 4506SOL    HW224978   1.600   2.629   3.773  0.4840 -0.0398  1.4472
 4507SOL     OW24979   4.426   0.393   3.670 -0.0685 -0.0006  0.2434
 4507SOL    HW124980   4.366   0.354   3.606  1.2050 -1.9753  0.2739
 4507SOL    HW224981   4.356   0.434   3.722 -0.8729 -0.0170 -0.8305
 4508SOL     OW24982   0.357   4.257   0.938 -0.2621 -0.1001 -0.1415
 4508SOL    HW124983   0.323   4.296   0.858 -1.5543 -1.4742 -0.2383
 4508SOL    HW224984   0.327   4.324   0.999 -1.3645  0.9236 -1.7992
 4509SOL     OW24985   2.339   4.218   4.143 -0.2895  0.2510  0.2189
 4509SOL    HW124986   2.260   4.215   4.196 -0.7251 -2.9418 -0.6055
 4509SOL    HW224987   2.311   4.264   4.064 -0.4930  1.2943  0.9054
 4510SOL     OW24988   4.531   0.685  15.901  0.3244  0.3404 -0.2784
 4510SOL    HW124989   4.515   0.595  15.929 -0.3400  0.5284 -0.0456
 4510SOL    HW224990   4.526   0.735  15.983  0.3583 -0.7978  0.4123
 4511SOL     OW24991   4.188   1.853   6.362  0.0546  0.6620 -0.0229
 4511SOL    HW124992   4.158   1.769   6.397 -0.4072 -0.8753 -4.1048
 4511SOL    HW224993   4.169   1.841   6.269 -1.4272  2.1352  0.0827
 4512SOL     OW24994   0.220   3.818   6.906 -0.0268  0.2870  0.7576
 4512SOL    HW124995   0.154   3.865   6.958  0.6149  3.0827 -0.9101
 4512SOL    HW224996   0.264   3.765   6.971 -2.9401 -2.3109  0.5985
 4513SOL     OW24997   2.396   1.984   6.530  0.6245 -0.4891 -0.7267
 4513SOL    HW124998   2.476   2.028   6.501 -0.0732 -0.5480 -2.7149
 4513SOL    HW224999   2.425   1.914   6.589 -0.6538 -2.1489 -2.1034
 4514SOL     OW25000   1.408   2.261   5.118  0.1860 -0.1465  0.2006
 4514SOL    HW125001   1.488   2.254   5.170  0.2833 -1.2311 -0.0942
 4514SOL    HW225002   1.347   2.303   5.178  1.4648  0.4468  1.0806
 4515SOL     OW25003   3.517   3.397  11.490 -0.2338 -0.0994 -0.0629
 4515SOL    HW125004   3.612   3.401  11.480 -0.3554  1.0339 -0.6642
 4515SOL    HW225005   3.492   3.419  11.400 -1.1371  0.1338  0.2384
 4516SOL     OW25006   0.618   2.909  16.839  0.3745  0.1232 -0.0121
 4516SOL    HW125007   0.693   2.851  16.851  1.6466  1.5775 -1.0197
 4516SOL    HW225008   0.628   2.975  16.907 -0.0733 -0.6564  0.8059
 4517SOL     OW25009   3.829   0.827   5.858 -0.3037  0.0578 -0.1748
 4517SOL    HW125010   3.909   0.776   5.852  0.2171  0.8622 -0.1308
 4517SOL    HW225011   3.865   0.915   5.847  1.2001 -0.2065  2.5450
 4518SOL     OW25012   4.554   2.036   5.639  0.0684  0.8801  0.1247
 4518SOL    HW125013   4.514   1.953   5.665 -0.2738  0.3242 -2.1728
 4518SOL    HW225014   4.553   2.086   5.720 -0.8702  0.7430  0.1913
 4519SOL     OW25015   3.999   0.161  10.309 -0.2879 -0.0590  0.2068
 4519SOL    HW125016   4.028   0.072  10.286  0.1174  0.1938 -0.2527
 4519SOL    HW225017   3.982   0.155  10.403 -1.1211  0.0300  0.0634
 4520SOL     OW25018   4.343   2.842   4.952  0.6107  0.1541  0.1284
 4520SOL    HW125019   4.326   2.936   4.945 -0.7583  0.0933  2.5722
 4520SOL    HW225020   4.286   2.820   5.026  1.1519  1.4259  0.9394
 4521SOL     OW25021   2.943   2.779   6.327  0.4769 -0.3015  0.1660
 4521SOL    HW125022   2.965   2.717   6.397  0.3856 -1.4749 -0.8454
 4521SOL    HW225023   2.966   2.859   6.373  0.8051  0.6225 -1.6037
 4522SOL     OW25024   0.505   3.967  12.716  0.2462 -0.2427  0.0187
 4522SOL    HW125025   0.503   3.997  12.625 -2.7201 -2.2189 -0.5671
 4522SOL    HW225026   0.538   4.042  12.766 -0.9142 -0.4462  1.0998
 4523SOL     OW25027   0.373   4.445  13.379 -0.5624 -0.0433  0.4593
 4523SOL    HW125028   0.460   4.404  13.381 -0.7476 -0.3967  1.3081
 4523SOL    HW225029   0.328   4.394  13.312  0.1513  0.0554 -0.0952
 4524SOL     OW25030   0.117   4.591   7.936 -0.4243 -0.1186  0.0826
 4524SOL    HW125031   0.151   4.602   7.847 -1.9386 -0.3682 -0.5168
 4524SOL    HW225032   0.119   4.683   7.962  0.0822  0.0401 -0.4907
 4525SOL     OW25033   2.562   2.277   8.024  0.0251 -0.2960  0.2452
 4525SOL    HW125034   2.501   2.204   8.031 -2.1517  1.4449 -0.4753
 4525SOL    HW225035   2.632   2.247   8.082  0.1748  0.7848  0.6398
 4526SOL     OW25036   4.345   1.891  16.069 -0.2912 -0.1212 -0.0686
 4526SOL    HW125037   4.261   1.849  16.048 -1.4312  1.8407  0.5438
 4526SOL    HW225038   4.361   1.854  16.156  1.0043 -0.2016 -0.3457
 4527SOL     OW25039   3.661   2.875  13.617 -0.1059 -0.6642  0.4550
 4527SOL    HW125040   3.568   2.890  13.603 -0.0797  1.0645  2.1115
 4527SOL    HW225041   3.665   2.852  13.710  2.0085  2.0635  1.0700
 4528SOL     OW25042   2.487   0.729   3.749 -0.1162 -0.7702  0.1384
 4528SOL    HW125043   2.445   0.784   3.684 -0.8943 -1.3434  0.1638
 4528SOL    HW225044   2.539   0.679   3.686 -0.3724 -0.1674 -0.5542
 4529SOL     OW25045   1.178   4.695   6.533  0.1419 -0.2241 -0.4864
 4529SOL    HW125046   1.173   4.655   6.620 -0.3003 -1.5727 -1.1355
 4529SOL    HW225047   1.260   4.656   6.505 -1.3538 -1.9293 -2.5178
 4530SOL     OW25048   0.750   4.250  11.340  0.6556  0.2096 -0.7092
 4530SOL    HW125049   0.697   4.192  11.286  1.7834 -1.6038  0.1192
 4530SOL    HW225050   0.824   4.267  11.282 -1.0862  2.0477 -2.3906
 4531SOL     OW25051   0.743   2.325  17.010 -0.7968  0.0738  0.0889
 4531SOL    HW125052   0.711   2.409  17.044 -2.4734 -1.6509  2.7089
 4531SOL    HW225053   0.663   2.274  17.007  0.1922 -1.3094 -2.1575
 4532SOL     OW25054   1.769   2.632   0.450 -0.0298 -0.1979 -0.0804
 4532SOL    HW125055   1.857   2.630   0.413 -0.1511 -1.4633 -0.2759
 4532SOL    HW225056   1.763   2.548   0.496  0.7918 -1.2228 -1.8571
 4533SOL     OW25057   0.423   3.398  16.329 -0.4421 -0.1623 -0.2198
 4533SOL    HW125058   0.408   3.442  16.246 -0.5894  0.8501  0.3411
 4533SOL    HW225059   0.447   3.317  16.285 -1.5947 -0.2300 -0.7037
 4534SOL     OW25060   0.704   4.013   8.246 -0.1975  0.3641 -0.5836
 4534SOL    HW125061   0.635   3.996   8.310  1.4155 -1.3404  0.6942
 4534SOL    HW225062   0.722   4.105   8.265  1.2509 -0.5799  2.5862
 4535SOL     OW25063   0.298   3.961   4.192  0.6777 -0.7784  0.9390
 4535SOL    HW125064   0.288   4.005   4.276 -0.3485 -2.0652  1.5041
 4535SOL    HW225065   0.245   3.882   4.205 -0.7779 -0.6456 -3.9842
 4536SOL     OW25066   3.284   4.693  12.773  0.0787  0.3247  0.3070
 4536SOL    HW125067   3.261   4.720  12.862 -1.2632 -0.5874  0.2420
 4536SOL    HW225068   3.240   4.609  12.757  1.7802  0.1030 -3.2797
 4537SOL     OW25069   3.353   3.777   2.544  0.1899 -0.0954 -0.3731
 4537SOL    HW125070   3.299   3.832   2.488 -2.2411 -1.6095  0.4811
 4537SOL    HW225071   3.284   3.741   2.601  0.3204  1.5794  0.8451
 4538SOL     OW25072   2.351   4.136   8.086 -0.0342 -0.0280  0.1650
 4538SOL    HW125073   2.368   4.189   8.164 -1.0117 -0.7120  0.8411
 4538SOL    HW225074   2.405   4.174   8.017 -0.1377 -1.6518 -0.8123
 4539SOL     OW25075   2.340   2.398   8.713 -0.2413 -0.2296  0.9038
 4539SOL    HW125076   2.328   2.491   8.731  0.4058 -0.0628  0.4660
 4539SOL    HW225077   2.308   2.385   8.623  2.4682 -1.2366  0.0822
 4540SOL     OW25078   1.285   3.294   1.271  0.6485 -0.1522 -0.6771
 4540SOL    HW125079   1.362   3.314   1.324 -0.1313  1.0034  0.0115
 4540SOL    HW225080   1.214   3.293   1.335  1.9414 -3.1866  0.7079
 4541SOL     OW25081   2.954   4.318   9.819  0.7114 -0.0194  0.0385
 4541SOL    HW125082   2.879   4.370   9.849  1.1542 -0.5942  2.1096
 4541SOL    HW225083   3.015   4.384   9.852  1.1523 -0.7188  0.6157
 4542SOL     OW25084   0.094   0.601  10.255  0.2666  0.1999  0.4660
 4542SOL    HW125085   0.187   0.606  10.276  0.1484 -0.3096  1.1169
 4542SOL    HW225086   0.060   0.654  10.327  0.3707  1.2941 -0.2854
 4543SOL     OW25087   4.388   3.701   6.806  0.2526 -0.0755 -0.5531
 4543SOL    HW125088   4.446   3.769   6.771  1.0497 -0.0842  0.7849
 4543SOL    HW225089   4.319   3.746   6.854 -0.6911 -0.7975 -1.2225
 4544SOL     OW25090   0.434   0.764   1.040  0.2975 -0.0290 -0.8748
 4544SOL    HW125091   0.499   0.800   0.980  0.9061  1.1326  0.4676
 4544SOL    HW225092   0.489   0.748   1.117 -0.7648  1.9295  0.3004
 4545SOL     OW25093   4.337   4.547   6.881 -0.1735  0.1665  0.2614
 4545SOL    HW125094   4.255   4.506   6.853  0.6966  0.2621 -2.4309
 4545SOL    HW225095   4.307   4.636   6.864  0.5727 -0.0965 -2.4357
 4546SOL     OW25096   1.570   3.537   4.689  0.5597  0.0822  0.7185
 4546SOL    HW125097   1.660   3.507   4.679 -0.0111 -1.7944  1.1411
 4546SOL    HW225098   1.551   3.557   4.597 -0.2768 -0.6536  0.7264
 4547SOL     OW25099   2.297   2.607   2.695 -0.2076 -0.0501 -0.3445
 4547SOL    HW125100   2.309   2.597   2.789  1.6343 -1.0245 -0.6727
 4547SOL    HW225101   2.370   2.561   2.653 -0.0286 -0.9105  0.9240
 4548SOL     OW25102   3.765   3.153   2.625 -0.5936  0.0318  0.1501
 4548SOL    HW125103   3.727   3.162   2.537  1.6475  0.6557 -0.7489
 4548SOL    HW225104   3.857   3.147   2.600 -0.0396  2.0600  1.7072
 4549SOL     OW25105   2.302   4.540   6.004 -0.3021 -0.1264  0.5901
 4549SOL    HW125106   2.362   4.613   5.993  0.7359 -0.9906  0.5000
 4549SOL    HW225107   2.373   4.481   6.028  1.1539  1.9019  1.2002
 4550SOL     OW25108   3.197   4.540   8.599  0.1148  0.4219  0.1622
 4550SOL    HW125109   3.251   4.605   8.554 -0.9755 -0.1509 -1.9910
 4550SOL    HW225110   3.239   4.524   8.684  0.2100  0.1358  0.0623
 4551SOL     OW25111   2.194   2.974   3.191 -0.9010 -0.2178  0.1824
 4551SOL    HW125112   2.201   2.936   3.278 -0.5787  0.0110  0.2563
 4551SOL    HW225113   2.191   2.892   3.142 -2.4260 -1.1838  1.9113
 4552SOL     OW25114   4.272   4.379   9.531  0.4555 -0.2597  0.2781
 4552SOL    HW125115   4.320   4.449   9.577  0.6961 -0.7040  0.7030
 4552SOL    HW225116   4.339   4.311   9.544 -0.3127 -0.7899  1.3971
 4553SOL     OW25117   2.714   3.277   0.818  0.2270 -0.2203  0.2045
 4553SOL    HW125118   2.801   3.262   0.781  0.6402  2.7638 -0.0281
 4553SOL    HW225119   2.672   3.195   0.845  2.4539 -1.1168  0.9401
 4554SOL     OW25120   2.759   3.171  11.680  0.0254 -0.6114 -0.3918
 4554SOL    HW125121   2.742   3.081  11.654  1.0966 -1.3530  1.5010
 4554SOL    HW225122   2.731   3.226  11.606  0.8803  1.0989  0.5594
 4555SOL     OW25123   2.751   3.318   3.630 -0.3471  0.2353  0.0629
 4555SOL    HW125124   2.792   3.392   3.585  1.3745 -0.1854  0.9174
 4555SOL    HW225125   2.731   3.358   3.715 -1.6920 -2.4300  1.0130
 4556SOL     OW25126   3.537   0.266   4.261  0.5044 -0.3112  0.4131
 4556SOL    HW125127   3.574   0.178   4.249  0.2600 -0.6129  1.8090
 4556SOL    HW225128   3.462   0.234   4.311 -0.0469 -1.3199 -1.0620
 4557SOL     OW25129   0.069   1.954   6.549  0.0671 -0.2744 -0.2917
 4557SOL    HW125130   0.061   2.048   6.565 -0.8026 -0.6021  1.1752
 4557SOL    HW225131   0.157   1.956   6.513  0.3978 -2.8032  0.3622
 4558SOL     OW25132   2.964   1.416  15.710  0.1937  0.2052  0.0410
 4558SOL    HW125133   2.995   1.501  15.741 -1.1795  0.3719  0.9283
 4558SOL    HW225134   3.049   1.393  15.672 -0.6613 -1.5026 -0.8368
 4559SOL     OW25135   4.322   3.517   8.820 -0.3125  0.1995 -0.5249
 4559SOL    HW125136   4.290   3.443   8.871  1.4430 -0.6866 -0.6801
 4559SOL    HW225137   4.365   3.571   8.887  1.7391 -0.5296 -1.2548
 4560SOL     OW25138   2.809   2.832   3.188  0.6254 -0.1792  0.4061
 4560SOL    HW125139   2.810   2.768   3.260 -0.9884  0.1839  0.7574
 4560SOL    HW225140   2.898   2.828   3.153  0.3282 -2.0537 -0.1402
 4561SOL     OW25141   2.443   0.985   8.052 -0.2474  0.1340 -0.0788
 4561SOL    HW125142   2.449   0.889   8.054  2.8487  0.3934  1.9027
 4561SOL    HW225143   2.447   0.996   7.957 -0.7848 -2.6149 -0.4191
 4562SOL     OW25144   4.294   3.946   4.121  0.3035  0.1262 -0.7291
 4562SOL    HW125145   4.284   3.960   4.215  0.7508  0.2449 -0.6972
 4562SOL    HW225146   4.274   4.030   4.079 -1.6939  0.9018  1.7924
 4563SOL     OW25147   2.766   0.715   8.000  0.6300 -0.1513 -0.3532
 4563SOL    HW125148   2.788   0.650   7.934  2.0646  1.5999 -1.5897
 4563SOL    HW225149   2.780   0.803   7.965  0.4094 -0.3654 -0.9800
 4564SOL     OW25150   3.565   1.122   5.707  0.3410 -0.2030 -0.0449
 4564SOL    HW125151   3.484   1.137   5.658  0.3194 -0.4026 -0.0710
 4564SOL    HW225152   3.597   1.211   5.719 -0.7753  0.1981 -0.0400
 4565SOL     OW25153   2.959   0.690   9.510 -0.2346 -0.1763 -0.1572
 4565SOL    HW125154   3.036   0.734   9.546  1.0417 -0.0235 -3.1306
 4565SOL    HW225155   2.892   0.693   9.579  0.7115  0.7350  0.7167
 4566SOL     OW25156   1.063   0.980   7.480 -0.3874 -0.0893  0.2086
 4566SOL    HW125157   1.058   0.992   7.575  4.9785 -0.4153  0.5402
 4566SOL    HW225158   0.971   0.983   7.454 -0.6801  0.1992  1.2599
 4567SOL     OW25159   0.162   0.928   9.766 -0.7771  0.1312 -0.2177
 4567SOL    HW125160   0.181   0.979   9.845 -0.9474  0.5313 -0.4348
 4567SOL    HW225161   0.253   0.913   9.740 -1.1655 -4.0737  0.8051
 4568SOL     OW25162   3.210   1.919   4.254 -0.0614 -0.4387  0.3655
 4568SOL    HW125163   3.281   1.888   4.198  0.6315  0.3208  0.8199
 4568SOL    HW225164   3.128   1.928   4.206 -0.6386 -0.6496  1.2965
 4569SOL     OW25165   0.528   1.955   7.467 -0.6949 -0.2020  0.2913
 4569SOL    HW125166   0.479   2.020   7.518  0.5353  1.2879 -0.4023
 4569SOL    HW225167   0.509   1.871   7.507 -1.3486  0.2018  0.8334
 4570SOL     OW25168   2.980   4.191   6.438  0.3566 -0.0548 -0.4894
 4570SOL    HW125169   3.020   4.169   6.522  0.8019  0.1267 -0.6554
 4570SOL    HW225170   2.885   4.179   6.448  0.1345  1.9651 -0.1894
 4571SOL     OW25171   0.396   1.543   6.057 -0.4762  0.3374  0.3663
 4571SOL    HW125172   0.363   1.631   6.073  0.6456  0.5587  1.4728
 4571SOL    HW225173   0.333   1.525   5.987 -1.1552  1.1258  0.7787
 4572SOL     OW25174   4.431   2.260   8.147  0.3938  0.0950 -0.3151
 4572SOL    HW125175   4.375   2.213   8.209 -0.6413 -0.2898 -1.5299
 4572SOL    HW225176   4.371   2.259   8.072 -0.2467  0.4525  0.1841
 4573SOL     OW25177   0.849   1.570   8.798  0.3607  0.4600  0.1251
 4573SOL    HW125178   0.905   1.625   8.853 -1.7175  1.3461  1.3581
 4573SOL    HW225179   0.903   1.499   8.763  0.3040 -0.0347  1.0183
 4574SOL     OW25180   0.371   3.037  13.444  0.5611 -0.3699 -0.1567
 4574SOL    HW125181   0.430   3.110  13.462  3.3425 -3.1125  1.9450
 4574SOL    HW225182   0.309   3.069  13.379 -1.7388 -1.3283  1.5913
 4575SOL     OW25183   1.079   0.773  11.381  0.7647 -0.3502 -0.2063
 4575SOL    HW125184   1.095   0.774  11.475  1.5994 -0.4192 -0.3481
 4575SOL    HW225185   0.986   0.748  11.377  0.9431 -1.3122  1.6981
 4576SOL     OW25186   3.130   1.289   1.672 -0.2164 -0.4532 -0.8379
 4576SOL    HW125187   3.133   1.234   1.750 -1.5534 -1.3986 -1.4599
 4576SOL    HW225188   3.074   1.232   1.619 -0.8981 -0.3683 -0.1948
 4577SOL     OW25189   3.550   4.140   1.411 -0.1657  0.0473  0.0678
 4577SOL    HW125190   3.583   4.200   1.345  0.4341  2.3806  2.4588
 4577SOL    HW225191   3.523   4.066   1.357 -1.5715  1.0474 -0.5798
 4578SOL     OW25192   3.219   2.789   0.848  0.2641  0.5635 -0.4037
 4578SOL    HW125193   3.289   2.747   0.898 -0.6677 -0.3203  0.1823
 4578SOL    HW225194   3.175   2.842   0.914 -0.9884  2.4260 -2.7154
 4579SOL     OW25195   2.773   1.952   2.996  0.5382  0.8496  0.3230
 4579SOL    HW125196   2.682   1.977   3.006  0.4260  0.5848 -0.0521
 4579SOL    HW225197   2.766   1.858   3.013  0.5202  0.4908 -1.7598
 4580SOL     OW25198   2.554   1.570   5.362 -0.2005 -0.2533  0.2429
 4580SOL    HW125199   2.578   1.663   5.367 -0.8255 -0.0295 -0.9662
 4580SOL    HW225200   2.494   1.578   5.436 -0.9629 -1.1940 -0.2826
 4581SOL     OW25201   2.506   4.714   5.985 -0.5204  0.1424  0.2446
 4581SOL    HW125202   2.601   4.704   5.988 -0.4472  1.7896  3.3279
 4581SOL    HW225203   2.499   0.084   6.001 -0.5149 -0.1065  1.6437
 4582SOL     OW25204   1.725   1.838   4.754 -0.3043 -0.3244  0.3219
 4582SOL    HW125205   1.677   1.756   4.758  0.4494 -0.7181  1.3153
 4582SOL    HW225206   1.684   1.896   4.690 -0.4972 -0.2385  0.5197
 4583SOL     OW25207   2.270   0.694   3.510  0.3297 -0.4050  0.2247
 4583SOL    HW125208   2.224   0.630   3.456  0.2249 -0.8827  0.8803
 4583SOL    HW225209   2.360   0.674   3.484 -0.0272 -0.3267 -1.0946
 4584SOL     OW25210   3.043   4.690   6.689  0.0511  0.0198 -0.0672
 4584SOL    HW125211   3.089   4.640   6.622 -1.8649 -2.4915  0.5120
 4584SOL    HW225212   3.013   4.621   6.749  0.8672 -1.3041 -1.1783
 4585SOL     OW25213   2.531   3.462   7.297  0.7098 -0.0534  0.5697
 4585SOL    HW125214   2.479   3.542   7.294  0.3954 -0.3144 -0.8100
 4585SOL    HW225215   2.600   3.483   7.235  0.2532 -0.6041 -0.1283
 4586SOL     OW25216   3.588   2.034   6.088  0.7058 -0.0243 -0.6356
 4586SOL    HW125217   3.642   2.084   6.027 -1.3008  2.4384 -0.3742
 4586SOL    HW225218   3.580   2.091   6.165  2.9747 -3.2368  1.9658
 4587SOL     OW25219   3.329   0.205  13.186 -0.0943  0.7746 -0.0320
 4587SOL    HW125220   3.370   0.140  13.130 -0.0001  0.9646 -0.1828
 4587SOL    HW225221   3.399   0.201  13.252  0.6503 -0.7456 -0.9206
 4588SOL     OW25222   3.802   1.728  10.744 -0.0152 -0.3105 -0.7344
 4588SOL    HW125223   3.735   1.666  10.772  0.2587 -2.2219 -4.2934
 4588SOL    HW225224   3.865   1.724  10.816  1.0703  0.8734 -1.6216
 4589SOL     OW25225   1.136   2.004   3.275  0.3893 -0.1657 -0.1260
 4589SOL    HW125226   1.193   2.076   3.247  0.0969  0.2192  0.2723
 4589SOL    HW225227   1.194   1.931   3.257  1.7608  0.8786  0.0235
 4590SOL     OW25228   0.388   3.242   8.437  0.3370 -0.5038  0.4086
 4590SOL    HW125229   0.381   3.326   8.392 -0.4152 -0.9003 -0.2083
 4590SOL    HW225230   0.404   3.278   8.525  0.0555 -1.0778  0.6963
 4591SOL     OW25231   2.507   4.199   6.924 -0.0302  0.3185  0.3057
 4591SOL    HW125232   2.416   4.188   6.898  0.7854  0.3110 -2.5589
 4591SOL    HW225233   2.500   4.286   6.961 -1.6449  0.4460 -0.3002
 4592SOL     OW25234   3.794   3.875  13.496  0.4444 -0.2404  0.3759
 4592SOL    HW125235   3.786   3.943  13.429  0.5877 -0.6958 -0.1091
 4592SOL    HW225236   3.712   3.875  13.546 -0.5016  1.6361 -1.1723
 4593SOL     OW25237   1.270   4.457   2.973 -0.2635  0.4903  0.0949
 4593SOL    HW125238   1.231   4.394   3.033  0.5890 -0.5752 -0.4514
 4593SOL    HW225239   1.337   4.396   2.940  0.0473  1.0194 -0.2543
 4594SOL     OW25240   2.633   2.665   6.740  1.0834  0.3455  0.1811
 4594SOL    HW125241   2.582   2.606   6.795 -3.1036  2.5067 -1.3512
 4594SOL    HW225242   2.632   2.617   6.657  1.6576  0.7812 -0.0770
 4595SOL     OW25243   3.982   2.965   6.211 -0.7172  0.3269  0.0010
 4595SOL    HW125244   3.922   3.036   6.190 -0.5300  1.1410  2.1816
 4595SOL    HW225245   4.046   3.007   6.268 -1.8279  2.5829 -0.4146
 4596SOL     OW25246   0.233   2.564   8.211 -0.1307  0.0514 -0.0702
 4596SOL    HW125247   0.172   2.550   8.283  0.1677  3.2992  0.8319
 4596SOL    HW225248   0.222   2.659   8.214 -1.9592 -0.1194 -1.7414
 4597SOL     OW25249   3.087   2.193  15.558  0.4730  0.4001  0.3148
 4597SOL    HW125250   3.181   2.187  15.575  0.8154  1.5845 -1.1807
 4597SOL    HW225251   3.050   2.113  15.594  0.3216  1.1715  1.8883
 4598SOL     OW25252   2.045   0.152  10.409  0.0939 -0.0817 -0.1073
 4598SOL    HW125253   2.010   0.099  10.337 -0.7373  2.2097 -1.3616
 4598SOL    HW225254   1.971   0.130  10.466 -1.1129 -0.9577 -1.9994
 4599SOL     OW25255   1.569   1.597   4.756 -0.2843 -0.4451  0.6776
 4599SOL    HW125256   1.500   1.576   4.818 -0.5311  1.4218  1.0452
 4599SOL    HW225257   1.649   1.562   4.796  0.0993  0.0638  0.3642
 4600SOL     OW25258   0.275   0.054   8.288 -0.2865 -0.5219 -0.4968
 4600SOL    HW125259   0.279   0.127   8.226 -0.2448 -0.5867 -0.5706
 4600SOL    HW225260   0.187   0.019   8.272 -0.9704  1.0021 -0.0669
 4601SOL     OW25261   2.900   4.144   9.593  0.0294 -0.0781  0.4589
 4601SOL    HW125262   2.925   4.224   9.639 -1.7498  0.2228  0.9143
 4601SOL    HW225263   2.947   4.068   9.626  1.5383 -1.0874 -4.0935
 4602SOL     OW25264   4.673   0.570   2.251 -0.1825 -0.1796  0.3171
 4602SOL    HW125265   4.626   0.524   2.321 -2.1324 -0.7384 -1.3731
 4602SOL    HW225266   4.616   0.529   2.186 -1.9086  0.7809  1.2229
 4603SOL     OW25267   3.898   1.104   2.034 -0.3378  0.0083 -0.6309
 4603SOL    HW125268   3.892   1.090   1.939  0.9740 -2.0629 -0.4054
 4603SOL    HW225269   3.968   1.170   2.033 -0.8649  0.5449 -1.8401
 4604SOL     OW25270   0.611   0.161   7.296  0.1292 -0.1518 -0.4370
 4604SOL    HW125271   0.599   0.080   7.246 -1.5237  0.0234 -0.3226
 4604SOL    HW225272   0.541   0.217   7.263 -0.9846 -1.6470 -0.6138
 4605SOL     OW25273   3.216   1.572  11.648  0.7298 -0.3762 -0.3032
 4605SOL    HW125274   3.167   1.536  11.574 -1.4504  0.8776  0.5392
 4605SOL    HW225275   3.262   1.493  11.675 -0.6533 -0.6781  1.1547
 4606SOL     OW25276   1.934   0.040   2.707 -0.1039 -0.3251 -0.6066
 4606SOL    HW125277   2.011   0.074   2.661 -0.1723  0.2420 -0.3058
 4606SOL    HW225278   1.875   0.044   2.632 -0.2854 -0.5727 -0.4774
 4607SOL     OW25279   2.473   2.414   3.887 -0.1908  0.1595 -0.0780
 4607SOL    HW125280   2.511   2.465   3.959 -1.2851  0.5654  0.2154
 4607SOL    HW225281   2.382   2.405   3.917 -0.8550 -2.0525 -2.7737
 4608SOL     OW25282   0.537   0.705   4.890 -0.2344  0.3176  0.5869
 4608SOL    HW125283   0.629   0.723   4.873 -1.0766  1.0512 -3.2162
 4608SOL    HW225284   0.498   0.793   4.895  0.5053  0.7165 -0.7991
 4609SOL     OW25285   0.588   1.691   2.230 -0.0076 -0.0353  0.2223
 4609SOL    HW125286   0.664   1.749   2.222 -0.6416  0.8109  0.2588
 4609SOL    HW225287   0.538   1.750   2.287  0.2593  0.9086 -0.5266
 4610SOL     OW25288   0.614   1.200  13.291  0.4324 -0.3832  0.3192
 4610SOL    HW125289   0.609   1.108  13.267 -0.5656 -0.5087  1.0250
 4610SOL    HW225290   0.640   1.190  13.383 -1.3512  1.1590  0.9920
 4611SOL     OW25291   1.991   4.717   2.278  0.2975 -0.0455  0.5590
 4611SOL    HW125292   1.954   0.032   2.199  0.6601 -0.6616  0.0904
 4611SOL    HW225293   2.084   0.006   2.260 -0.1250 -0.5392 -2.0326
 4612SOL     OW25294   2.534   2.852   1.870  0.6533 -0.3663 -0.1463
 4612SOL    HW125295   2.440   2.861   1.850  0.7379  1.5609  0.3124
 4612SOL    HW225296   2.561   2.940   1.843 -0.8848 -0.1931 -1.1407
 4613SOL     OW25297   3.691   3.721   8.700  0.0729  0.6457 -0.0265
 4613SOL    HW125298   3.655   3.785   8.638  0.4304  1.7833  0.9506
 4613SOL    HW225299   3.688   3.766   8.784  0.0078  2.2614 -0.8868
 4614SOL     OW25300   4.513   3.647   0.815  0.2172 -0.8955 -0.4348
 4614SOL    HW125301   4.589   3.606   0.773 -1.0448 -0.7019 -2.8627
 4614SOL    HW225302   4.494   3.583   0.885  0.9652  0.4865  1.0262
 4615SOL     OW25303   3.396   2.598  15.299 -0.3019 -0.0701  0.0786
 4615SOL    HW125304   3.486   2.615  15.273 -0.6818 -0.7283 -1.6732
 4615SOL    HW225305   3.377   2.665  15.365  0.6324  2.0320 -1.8289
 4616SOL     OW25306   0.740   1.248   9.344  0.1381  0.2242  0.4848
 4616SOL    HW125307   0.646   1.232   9.354 -0.0818  1.2552  0.0348
 4616SOL    HW225308   0.747   1.291   9.429  1.8779  1.4466 -0.2722
 4617SOL     OW25309   1.330   1.823   0.871  0.0835  0.1333 -0.1914
 4617SOL    HW125310   1.236   1.843   0.877 -0.3222 -1.3696 -1.6315
 4617SOL    HW225311   1.318   1.729   0.888  0.2851  0.4769  1.8819
 4618SOL     OW25312   2.275   0.586   6.367 -0.2160 -0.1952 -0.4341
 4618SOL    HW125313   2.316   0.578   6.280 -1.3627  1.1929 -1.1057
 4618SOL    HW225314   2.352   0.598   6.423 -0.4317 -1.0082  0.0379
 4619SOL     OW25315   3.898   0.901   3.342 -0.2278 -0.4286 -0.1256
 4619SOL    HW125316   3.847   0.948   3.276  0.2788 -0.6989 -0.7035
 4619SOL    HW225317   3.905   0.968   3.410 -0.9967 -1.7426  1.2606
 4620SOL     OW25318   1.006   3.995  14.410  0.3302  0.0090 -0.6687
 4620SOL    HW125319   0.951   4.016  14.334 -0.4224 -0.3750 -0.2297
 4620SOL    HW225320   0.940   4.010  14.478  0.6655 -0.3157 -0.2723
 4621SOL     OW25321   1.841   3.410   2.558  0.1848 -0.5479  0.4900
 4621SOL    HW125322   1.920   3.425   2.610  1.2656 -1.2402 -0.9384
 4621SOL    HW225323   1.853   3.473   2.487  0.1911 -0.8979  0.1770
 4622SOL     OW25324   1.495   2.025   6.996 -0.4268  0.7685 -0.1701
 4622SOL    HW125325   1.418   2.077   6.973 -0.5930  0.9509  0.7995
 4622SOL    HW225326   1.461   1.993   7.079  0.6564  1.2451  0.4567
 4623SOL     OW25327   3.391   0.375   1.262  0.1083 -0.1362  0.0444
 4623SOL    HW125328   3.464   0.339   1.211 -0.3280  0.4554 -1.0023
 4623SOL    HW225329   3.337   0.381   1.183 -2.0027 -0.1085  1.4871
 4624SOL     OW25330   0.123   2.521   8.749 -0.1089 -0.1919 -0.4281
 4624SOL    HW125331   0.139   2.604   8.703 -0.1527 -0.5422 -1.0685
 4624SOL    HW225332   0.029   2.510   8.735 -0.1586  0.9365 -0.9969
 4625SOL     OW25333   2.729   1.038  12.935  0.0885  0.3975 -0.0080
 4625SOL    HW125334   2.659   0.973  12.932 -1.9597  2.4914  3.0590
 4625SOL    HW225335   2.729   1.051  13.030 -0.3639 -0.6147  0.1273
 4626SOL     OW25336   0.390   1.481   3.534  0.0687  0.5085 -0.5099
 4626SOL    HW125337   0.428   1.400   3.499 -0.2130 -0.3238  1.1133
 4626SOL    HW225338   0.459   1.541   3.505 -0.0160  1.1033  0.4982
 4627SOL     OW25339   2.992   0.141   4.996  0.1496  0.1855  0.8451
 4627SOL    HW125340   3.086   0.151   5.007  0.0417  2.4272 -0.2461
 4627SOL    HW225341   2.978   0.079   4.925  1.0273 -0.0334  0.8681
 4628SOL     OW25342   2.991   3.240   4.580 -0.1474  0.1925  0.4428
 4628SOL    HW125343   2.915   3.183   4.592  0.3008 -0.8477 -1.7761
 4628SOL    HW225344   3.029   3.199   4.503 -0.9684 -0.8353  0.5756
 4629SOL     OW25345   3.903   2.584   5.578 -0.0702 -0.0805  0.2173
 4629SOL    HW125346   3.910   2.674   5.610 -1.5135  0.4276 -0.9314
 4629SOL    HW225347   3.933   2.539   5.657 -1.6257 -0.5060  0.5620
 4630SOL     OW25348   1.367   3.462   6.193 -0.4181  0.2025  0.3439
 4630SOL    HW125349   1.412   3.400   6.251  1.3678  1.3113  0.1430
 4630SOL    HW225350   1.341   3.397   6.127 -1.4675 -1.2772  2.2171
 4631SOL     OW25351   2.513   2.356  15.891  0.4114 -0.1264  0.1156
 4631SOL    HW125352   2.463   2.435  15.910  1.7259  1.6740 -4.0062
 4631SOL    HW225353   2.444   2.298  15.860 -0.3893  1.3785 -0.8541
 4632SOL     OW25354   1.910   2.154   5.666  0.0165  0.3703  0.0054
 4632SOL    HW125355   1.855   2.223   5.628  0.0105  0.2747 -0.1604
 4632SOL    HW225356   1.850   2.118   5.731 -0.8152  0.2583 -0.8262
 4633SOL     OW25357   0.843   0.950   2.436 -0.1677  0.4682  1.0752
 4633SOL    HW125358   0.887   1.034   2.449 -2.4226  1.7199  0.6599
 4633SOL    HW225359   0.841   0.950   2.341  0.6289  0.7735  1.0564
 4634SOL     OW25360   0.983   4.342  15.563  0.7299  0.0033 -0.0420
 4634SOL    HW125361   0.988   4.364  15.656  1.5952  0.5035 -0.2101
 4634SOL    HW225362   0.920   4.270  15.567 -1.2295  1.5989 -1.6963
 4635SOL     OW25363   4.523   4.417  13.768  0.0090  0.8632 -0.1375
 4635SOL    HW125364   4.579   4.474  13.717 -0.1458  1.9824  0.9294
 4635SOL    HW225365   4.485   4.363  13.700  0.2288  0.4363  0.0771
 4636SOL     OW25366   1.653   2.293   7.116  0.1871  0.3944  0.4833
 4636SOL    HW125367   1.594   2.227   7.152  2.5214 -0.7685  2.2246
 4636SOL    HW225368   1.638   2.285   7.022 -1.6898  2.4122  0.6191
 4637SOL     OW25369   4.292   1.841   8.895 -0.3999 -0.2091  0.0999
 4637SOL    HW125370   4.365   1.859   8.954  1.4001 -1.2805 -1.8254
 4637SOL    HW225371   4.225   1.846   8.964  0.3889  0.2178  0.8281
 4638SOL     OW25372   3.864   4.510  11.878 -0.0211 -0.3277 -0.5909
 4638SOL    HW125373   3.875   4.462  11.961  0.4453  2.3696  0.9106
 4638SOL    HW225374   3.791   4.566  11.905 -0.1049  0.1763 -1.8988
 4639SOL     OW25375   1.909   3.453   2.929 -0.6474  0.5497 -0.2648
 4639SOL    HW125376   1.879   3.368   2.961 -2.7833  0.5940 -2.1300
 4639SOL    HW225377   1.982   3.434   2.871  0.4208 -0.9096  1.5586
 4640SOL     OW25378   1.204   0.390  13.441  0.1584  0.0826  0.2282
 4640SOL    HW125379   1.155   0.423  13.366  0.9703 -0.5414 -0.5785
 4640SOL    HW225380   1.170   0.301  13.450  1.0541 -0.5397 -2.6271
 4641SOL     OW25381   1.383   0.897   5.836 -0.1672  0.1965  0.3178
 4641SOL    HW125382   1.436   0.883   5.757  1.6745  0.2509  1.5284
 4641SOL    HW225383   1.394   0.988   5.863  1.6964 -0.4739  1.8337
 4642SOL     OW25384   2.954   1.656   4.536 -0.5771  0.3872  0.6140
 4642SOL    HW125385   3.042   1.659   4.500 -0.3749 -0.9928  0.9783
 4642SOL    HW225386   2.920   1.736   4.496 -2.7155 -0.5548  0.5340
 4643SOL     OW25387   4.668   1.881   7.378  0.2646 -0.8789 -0.4039
 4643SOL    HW125388   4.701   1.948   7.437  0.9497  0.6188 -2.4685
 4643SOL    HW225389   4.620   1.822   7.436 -1.4917 -0.0040 -0.9773
 4644SOL     OW25390   3.850   0.864   9.166 -0.6234 -0.1962 -0.3719
 4644SOL    HW125391   3.767   0.866   9.215 -0.5902 -0.5135 -0.3044
 4644SOL    HW225392   3.836   0.781   9.119 -0.9913 -0.0392 -0.5458
 4645SOL     OW25393   2.362   2.647   4.252  0.4683  0.8154 -0.6320
 4645SOL    HW125394   2.415   2.664   4.331  1.6435 -1.4782 -0.9197
 4645SOL    HW225395   2.425   2.664   4.182  0.4159  0.5423 -0.7464
 4646SOL     OW25396   0.528   0.022  13.531 -0.1274  0.2359 -0.7791
 4646SOL    HW125397   0.538   0.091  13.597  1.9747  0.3133 -1.1789
 4646SOL    HW225398   0.445   4.711  13.564  0.7855  0.6436  1.9825
 4647SOL     OW25399   0.568   2.368  17.265 -0.7541  0.0295  0.5041
 4647SOL    HW125400   0.611   2.452  17.249  1.2086 -0.6136  2.4106
 4647SOL    HW225401   0.509   2.355  17.191  0.7189 -0.1920 -0.6419
 4648SOL     OW25402   4.634   3.750   2.489 -0.1024 -0.1934 -0.2715
 4648SOL    HW125403   0.005   3.740   2.483 -0.0402  1.7056 -2.4134
 4648SOL    HW225404   4.612   3.763   2.397 -0.2123  0.0813 -0.2089
 4649SOL     OW25405   3.755   3.819   2.171 -0.4272 -0.5132 -0.2713
 4649SOL    HW125406   3.661   3.833   2.160 -0.3830  0.3731  0.4343
 4649SOL    HW225407   3.776   3.811   2.264 -0.9761  0.6489 -0.0442
 4650SOL     OW25408   1.193   0.336   4.599  0.1072 -0.0219  0.6182
 4650SOL    HW125409   1.187   0.261   4.658 -1.8280 -1.0163 -0.8614
 4650SOL    HW225410   1.286   0.357   4.602  0.5129 -2.0382  2.1745
 4651SOL     OW25411   3.810   0.739   4.444 -0.2338 -0.4305 -0.6710
 4651SOL    HW125412   3.813   0.834   4.452  1.0140 -0.6576  1.6613
 4651SOL    HW225413   3.751   0.737   4.369 -2.5019 -0.0148  1.1133
 4652SOL     OW25414   0.821   3.601   2.815 -0.5493 -0.5029 -0.0702
 4652SOL    HW125415   0.746   3.653   2.786 -1.3578 -0.9380  1.2297
 4652SOL    HW225416   0.810   3.512   2.783 -0.9346 -0.1453 -0.9311
 4653SOL     OW25417   1.563   2.322  16.746  0.0642 -0.2232  0.3612
 4653SOL    HW125418   1.565   2.412  16.777  3.3136 -0.8983  2.0636
 4653SOL    HW225419   1.471   2.306  16.768 -0.2837  0.8634 -0.3158
 4654SOL     OW25420   1.854   2.958   7.704  0.5533  0.3447  0.3976
 4654SOL    HW125421   1.767   2.994   7.725  0.2606  0.6168 -1.2532
 4654SOL    HW225422   1.841   2.972   7.610  0.7487 -1.7692  0.0653
 4655SOL     OW25423   1.888   4.430   3.226  0.0199  0.7841  0.5402
 4655SOL    HW125424   1.810   4.448   3.174  1.6444  0.0030 -2.1993
 4655SOL    HW225425   1.862   4.342   3.253 -3.5070  2.5928  3.0211
 4656SOL     OW25426   3.032   3.373   1.165 -0.1612 -0.1993  0.2020
 4656SOL    HW125427   2.982   3.302   1.206 -1.1884  1.2841  1.5264
 4656SOL    HW225428   2.985   3.446   1.205  0.2379  0.1515  0.0252
 4657SOL     OW25429   4.299   0.745   5.698  0.1738 -0.0821 -0.2159
 4657SOL    HW125430   4.293   0.839   5.714  0.3773 -0.5336  2.4799
 4657SOL    HW225431   4.394   0.730   5.697  0.2132  0.3032 -2.0348
 4658SOL     OW25432   2.450   3.312   9.714  0.5059  0.0382  0.3244
 4658SOL    HW125433   2.359   3.309   9.684  0.2529  2.2439  0.8882
 4658SOL    HW225434   2.439   3.366   9.792  0.0951 -1.4121  1.2879
 4659SOL     OW25435   3.802   0.020  15.093  0.1399  0.2387 -0.6270
 4659SOL    HW125436   3.796   0.041  15.186 -1.2056 -2.5372 -0.0820
 4659SOL    HW225437   3.875   4.683  15.099 -0.7079 -0.5995  1.2447
 4660SOL     OW25438   2.106   3.241   7.444 -0.0049 -0.3549 -0.1543
 4660SOL    HW125439   2.170   3.207   7.507 -0.9872 -2.6109 -0.3787
 4660SOL    HW225440   2.046   3.167   7.449 -1.6375  0.8684 -2.0029
 4661SOL     OW25441   1.970   3.501   6.382 -0.4955 -0.4444  0.3098
 4661SOL    HW125442   2.003   3.444   6.451 -0.7848 -1.9752 -0.8036
 4661SOL    HW225443   1.933   3.577   6.426  2.4604  0.0375  1.9912
 4662SOL     OW25444   4.029   1.271   1.703  0.0776  0.0556 -0.3105
 4662SOL    HW125445   4.050   1.180   1.725  0.6969  0.5379  1.1304
 4662SOL    HW225446   3.937   1.264   1.729  0.1436  1.6799  0.3417
 4663SOL     OW25447   0.339   1.849   2.141 -0.1366 -0.2591 -0.4806
 4663SOL    HW125448   0.267   1.797   2.176  0.2057  0.5076  1.3637
 4663SOL    HW225449   0.402   1.785   2.106  0.9888  0.3854  0.3709
 4664SOL     OW25450   3.667   0.437  17.190  0.3418 -0.1102  0.2356
 4664SOL    HW125451   3.611   0.420  17.115  0.7948  1.3931 -0.4582
 4664SOL    HW225452   3.636   0.524  17.217  0.3046 -0.3291  0.8832
 4665SOL     OW25453   3.582   3.529  16.145 -0.0884 -0.3089  0.0782
 4665SOL    HW125454   3.629   3.588  16.204  0.5675 -0.1953 -0.5547
 4665SOL    HW225455   3.507   3.510  16.201  1.5257 -1.9439  1.7012
 4666SOL     OW25456   4.071   3.213   2.985 -0.1082  0.2743  0.1055
 4666SOL    HW125457   4.114   3.202   2.900 -1.6352  0.9215 -0.7660
 4666SOL    HW225458   4.135   3.276   3.019  0.1854 -0.2693  0.5519
 4667SOL     OW25459   1.709   4.470   6.656  0.0953  0.4378 -0.1297
 4667SOL    HW125460   1.771   4.496   6.588  1.0504  0.7770  0.8690
 4667SOL    HW225461   1.731   4.379   6.674  0.2543  0.0596 -2.2424
 4668SOL     OW25462   0.153   0.728  11.370  0.0076 -0.2105  0.2654
 4668SOL    HW125463   0.078   0.750  11.426 -0.9349  2.4226 -2.0199
 4668SOL    HW225464   0.204   0.660  11.415 -0.0599 -0.2583  0.2699
 4669SOL     OW25465   0.103   3.814   3.404  0.2416  0.4907 -0.3931
 4669SOL    HW125466   0.054   3.778   3.479 -1.3590  0.3901 -1.4889
 4669SOL    HW225467   0.132   3.731   3.366 -0.8380  0.9352 -2.1715
 4670SOL     OW25468   3.619   4.573  13.168  0.1085 -0.3616 -0.2590
 4670SOL    HW125469   3.635   4.479  13.176  1.8385  0.1048  1.6209
 4670SOL    HW225470   3.707   4.602  13.143  0.2667 -0.4412  0.2132
 4671SOL     OW25471   4.159   3.457   6.732  0.1245  0.0194  0.2409
 4671SOL    HW125472   4.239   3.437   6.781  0.1239 -0.9234 -0.1260
 4671SOL    HW225473   4.203   3.465   6.647  0.0368 -0.0222  0.1911
 4672SOL     OW25474   3.746   4.388   5.381 -0.7345  0.2166  0.1931
 4672SOL    HW125475   3.673   4.327   5.369 -0.9753  0.6978 -0.8160
 4672SOL    HW225476   3.790   4.371   5.298 -1.1166  0.9380 -0.1637
 4673SOL     OW25477   1.897   2.797  11.034 -0.2299 -0.6796  0.1148
 4673SOL    HW125478   1.803   2.782  11.043  0.1158 -2.1681  1.3599
 4673SOL    HW225479   1.930   2.713  11.000  1.3379 -0.1622  0.3255
 4674SOL     OW25480   3.179   0.806   1.791 -0.2906  0.0324 -0.1060
 4674SOL    HW125481   3.123   0.734   1.821 -0.2265  1.0376  2.4246
 4674SOL    HW225482   3.235   0.766   1.724 -0.2006  2.1429 -1.2872
 4675SOL     OW25483   3.554   1.288   2.556  0.1230 -0.0556 -0.1636
 4675SOL    HW125484   3.552   1.218   2.490 -0.0094  0.0528 -0.2776
 4675SOL    HW225485   3.576   1.370   2.511  0.7248 -0.1664 -0.0672
 4676SOL     OW25486   1.869   3.053   7.432 -0.5131 -0.3183  0.0881
 4676SOL    HW125487   1.833   2.983   7.379  0.0419  0.8770 -1.8669
 4676SOL    HW225488   1.802   3.121   7.428 -1.6710 -1.4955 -0.4755
 4677SOL     OW25489   2.131   3.128   0.785 -0.0586 -0.3225  0.0121
 4677SOL    HW125490   2.201   3.183   0.820 -0.9881  0.3746  0.7716
 4677SOL    HW225491   2.114   3.172   0.702  0.8265 -0.9931 -0.5343
 4678SOL     OW25492   1.195   3.994   3.464  0.1257  0.0886 -0.0329
 4678SOL    HW125493   1.166   3.922   3.521  2.2389  0.7170  1.8413
 4678SOL    HW225494   1.150   3.968   3.384 -0.7725  0.9186  0.2032
 4679SOL     OW25495   2.286   4.572   2.053 -0.1190  0.1981 -0.2586
 4679SOL    HW125496   2.357   4.526   2.008  1.7946  3.0213 -0.1083
 4679SOL    HW225497   2.333   4.653   2.075 -0.7851  0.2004  1.1186
 4680SOL     OW25498   1.538   1.587   2.571  0.4224  0.4118  0.2053
 4680SOL    HW125499   1.504   1.660   2.623 -2.0103 -1.4188  1.2074
 4680SOL    HW225500   1.625   1.616   2.545  0.0182  1.2595 -0.2132
 4681SOL     OW25501   1.376   2.524   6.465  0.7998  0.2003  0.5070
 4681SOL    HW125502   1.389   2.523   6.370 -1.7428  5.1427  0.1032
 4681SOL    HW225503   1.452   2.473   6.493  0.0249  0.2940  2.7406
 4682SOL     OW25504   0.991   4.062  13.109  0.2598  0.3454  0.0613
 4682SOL    HW125505   0.992   4.156  13.093  0.5031  0.1402 -1.1055
 4682SOL    HW225506   1.033   4.034  13.028  1.1192 -1.3989  1.1003
 4683SOL     OW25507   0.933   2.026   3.077 -0.8146 -0.0913  0.2318
 4683SOL    HW125508   0.982   2.012   3.158  0.5049  2.4309 -0.1126
 4683SOL    HW225509   0.854   2.056   3.121 -0.2983 -0.5584  1.4833
 4684SOL     OW25510   4.201   2.773   3.927  0.2845 -0.2459  0.3535
 4684SOL    HW125511   4.114   2.813   3.930 -0.2609 -1.3796 -0.3256
 4684SOL    HW225512   4.216   2.746   4.017  0.1330 -1.4688  0.0077
 4685SOL     OW25513   0.835   0.780   5.154  0.2696  0.3330  0.0097
 4685SOL    HW125514   0.867   0.832   5.227  1.1546 -0.5673  0.2708
 4685SOL    HW225515   0.805   0.702   5.201 -2.6622  0.0082 -2.4011
 4686SOL     OW25516   0.190   2.803   6.500  0.1219  0.3825 -0.1781
 4686SOL    HW125517   0.140   2.756   6.566  0.2813 -1.3192 -1.2628
 4686SOL    HW225518   0.280   2.775   6.520 -0.3311 -1.3358 -0.6294
 4687SOL     OW25519   4.094   4.374   6.321 -0.0562  0.3610  0.1305
 4687SOL    HW125520   4.118   4.282   6.336 -1.5212  0.2644  1.8081
 4687SOL    HW225521   4.013   4.358   6.272 -0.8169  0.9328  1.2115
 4688SOL     OW25522   1.946   4.459   4.281 -0.5621 -0.2246 -0.0655
 4688SOL    HW125523   1.969   4.548   4.254  0.9206 -1.3107 -2.3127
 4688SOL    HW225524   2.034   4.433   4.309  1.0388  2.3218 -2.6886
 4689SOL     OW25525   1.192   3.150   5.797 -0.0797 -0.4119  0.2920
 4689SOL    HW125526   1.111   3.143   5.748 -1.0657  1.5214  1.6556
 4689SOL    HW225527   1.259   3.134   5.730  0.7823 -1.5808  1.4304
 4690SOL     OW25528   0.767   3.177   3.403  0.2185 -0.5815 -0.3681
 4690SOL    HW125529   0.755   3.128   3.485  3.8819  0.6295  0.8798
 4690SOL    HW225530   0.858   3.149   3.394  0.6261  0.6007  0.0469
 4691SOL     OW25531   2.077   1.206   6.699 -0.1582  0.0027  0.4728
 4691SOL    HW125532   2.122   1.146   6.639 -0.5244 -1.8848  2.0659
 4691SOL    HW225533   2.078   1.163   6.785  0.2126 -2.1548 -0.6096
 4692SOL     OW25534   0.205   4.555   7.679  0.1712 -0.2022 -0.0231
 4692SOL    HW125535   0.196   4.636   7.629 -1.8519  0.3909  1.2751
 4692SOL    HW225536   0.194   4.491   7.609 -1.3601  1.8693 -1.6644
 4693SOL     OW25537   3.234   0.354   8.419 -0.6099 -0.2094 -0.6497
 4693SOL    HW125538   3.285   0.431   8.396 -1.6453  0.9860  1.0388
 4693SOL    HW225539   3.259   0.277   8.368 -0.3785 -2.1487  2.3398
 4694SOL     OW25540   3.875   1.242   7.743  0.3550  0.5791 -0.0471
 4694SOL    HW125541   3.797   1.195   7.715  2.1306 -1.5065 -1.4414
 4694SOL    HW225542   3.908   1.190   7.817 -1.6368 -0.1884  0.2990
 4695SOL     OW25543   3.514   2.623   8.532 -0.0271 -0.2265 -0.1770
 4695SOL    HW125544   3.474   2.537   8.519 -1.7796  0.5689 -0.0263
 4695SOL    HW225545   3.604   2.601   8.555  0.6350  0.3839 -2.1550
 4696SOL     OW25546   3.928   3.707  13.875 -0.2596  0.0625  0.2071
 4696SOL    HW125547   3.892   3.749  13.954 -0.2872 -1.3340  0.9296
 4696SOL    HW225548   4.022   3.718  13.886 -0.2591  2.3198 -2.1622
 4697SOL     OW25549   2.097   1.155   3.106 -0.4867 -0.0719 -0.5103
 4697SOL    HW125550   2.136   1.223   3.051  0.1360 -0.1885 -0.2144
 4697SOL    HW225551   2.002   1.159   3.101 -0.4101  1.1320 -1.1092
 4698SOL     OW25552   1.845   3.739  14.969 -0.1199  0.4996 -0.4558
 4698SOL    HW125553   1.771   3.695  14.927  0.1245 -1.2291  0.9302
 4698SOL    HW225554   1.916   3.721  14.907 -0.5807  0.4604 -0.9753
 4699SOL     OW25555   4.568   3.099   5.283  0.1890  0.1473  0.2635
 4699SOL    HW125556   4.644   3.155   5.263 -0.3453  1.0419  0.7338
 4699SOL    HW225557   4.495   3.161   5.290 -1.3582 -1.6680  0.1386
 4700SOL     OW25558   0.275   3.642   3.167 -0.1800  0.4149  0.8706
 4700SOL    HW125559   0.371   3.635   3.173  0.0399  1.6761 -1.2332
 4700SOL    HW225560   0.268   3.693   3.086  1.5104 -0.7739 -0.0547
 4701SOL     OW25561   3.674   0.158   9.637  0.0991 -0.5552 -0.1808
 4701SOL    HW125562   3.646   0.067   9.653 -0.4784 -1.0519 -3.9333
 4701SOL    HW225563   3.657   0.158   9.543  0.0253 -1.3175 -0.1686
 4702SOL     OW25564   3.367   0.116   1.944 -0.6616 -0.3870 -0.6255
 4702SOL    HW125565   3.453   0.075   1.944 -0.5823 -0.1801 -3.5457
 4702SOL    HW225566   3.363   0.150   1.855  1.5222  2.0274  0.1602
 4703SOL     OW25567   4.061   1.887   8.196 -0.3520  0.2363  0.0695
 4703SOL    HW125568   4.027   1.914   8.281 -0.3215 -0.7736  0.4066
 4703SOL    HW225569   4.120   1.813   8.211 -0.2368  0.4384  0.6083
 4704SOL     OW25570   1.369   2.842   4.126  0.3774  0.2338  0.2688
 4704SOL    HW125571   1.449   2.793   4.111 -0.4487 -1.0826  0.1576
 4704SOL    HW225572   1.307   2.779   4.163 -0.5679 -0.0531 -1.8340
 4705SOL     OW25573   4.261   0.483   9.567  0.2098 -0.1285  0.5094
 4705SOL    HW125574   4.263   0.387   9.559  1.0168 -0.1690  1.1594
 4705SOL    HW225575   4.241   0.485   9.660 -0.0910  0.8894  0.4183
 4706SOL     OW25576   4.259   2.097   8.269  0.0737 -0.4836  0.3594
 4706SOL    HW125577   4.312   2.066   8.342  1.1449  0.1517 -0.1448
 4706SOL    HW225578   4.175   2.052   8.278 -1.9179  3.1727  0.1107
 4707SOL     OW25579   1.807   2.915   2.354  0.5237  0.1365 -0.0272
 4707SOL    HW125580   1.788   2.923   2.260  1.2543 -2.3627 -0.3840
 4707SOL    HW225581   1.785   3.006   2.374  1.7054  0.3479  0.2957
 4708SOL     OW25582   1.542   0.801   5.612 -0.4082  0.5536  0.1348
 4708SOL    HW125583   1.559   0.873   5.551  0.2657  0.7145  0.5165
 4708SOL    HW225584   1.504   0.726   5.566 -1.4632  2.5913 -2.2969
 4709SOL     OW25585   1.416   2.422   4.250  0.0815  0.0405 -0.0467
 4709SOL    HW125586   1.377   2.381   4.328  0.2483  2.3891  1.2777
 4709SOL    HW225587   1.505   2.390   4.264 -0.4596 -2.0241 -1.4222
 4710SOL     OW25588   0.157   2.746   8.536 -0.0679  0.2201  0.0854
 4710SOL    HW125589   0.213   2.786   8.603  1.4018 -1.0417 -0.3821
 4710SOL    HW225590   0.100   2.818   8.509 -0.8500 -0.3993  0.0908
 4711SOL     OW25591   2.783   0.190   5.156  0.1599  0.1408  0.0350
 4711SOL    HW125592   2.777   0.277   5.196 -2.4652 -1.0263  2.2266
 4711SOL    HW225593   2.873   0.182   5.125  0.8402 -2.3078  2.6510
 4712SOL     OW25594   2.912   1.114   6.026 -0.0765 -0.0583  0.1572
 4712SOL    HW125595   2.843   1.051   6.003 -1.6702  1.0773  1.8174
 4712SOL    HW225596   2.890   1.131   6.117  0.6960  0.0597  0.3194
 4713SOL     OW25597   0.350   1.221   5.945  0.3375 -0.1026 -0.7933
 4713SOL    HW125598   0.378   1.245   5.857  0.4874  0.2997 -0.6334
 4713SOL    HW225599   0.299   1.299   5.967  3.9378  1.9775  0.0606
 4714SOL     OW25600   0.665   2.558  16.098 -1.0098  0.1013  0.0547
 4714SOL    HW125601   0.677   2.463  16.095 -1.7897 -0.0008  0.3503
 4714SOL    HW225602   0.599   2.577  16.031  0.5596 -0.1228 -1.5794
 4715SOL     OW25603   0.828   3.376  12.169  0.1293  0.4331 -0.3755
 4715SOL    HW125604   0.797   3.285  12.166 -0.7768  0.7645 -0.9326
 4715SOL    HW225605   0.754   3.427  12.199  0.8913  1.6107 -0.4956
 4716SOL     OW25606   4.075   0.704   5.837 -0.8302  0.0670 -0.5904
 4716SOL    HW125607   4.150   0.716   5.778 -0.4694  0.4901 -0.0508
 4716SOL    HW225608   4.053   0.616   5.807 -1.1534 -0.3597  0.8869
 4717SOL     OW25609   1.590   1.628   8.779  0.2575 -0.2704 -0.2164
 4717SOL    HW125610   1.566   1.593   8.865  1.6542  0.4019  0.4514
 4717SOL    HW225611   1.532   1.703   8.763 -0.4555 -0.7992 -0.0992
 4718SOL     OW25612   4.652   2.819   2.494  0.1585 -0.3885 -0.1302
 4718SOL    HW125613   4.686   2.846   2.579 -0.9499  1.0556 -0.1558
 4718SOL    HW225614   4.590   2.889   2.474  0.3664 -0.6191 -1.5631
 4719SOL     OW25615   0.547   0.012   8.523 -0.3216  0.5020 -0.0017
 4719SOL    HW125616   0.472   4.689   8.561  0.4638 -1.0904 -0.4113
 4719SOL    HW225617   0.509   0.048   8.442 -1.2251 -0.6738 -0.0945
 4720SOL     OW25618   2.732   4.356   7.623  0.2574 -0.5088 -1.1928
 4720SOL    HW125619   2.730   4.388   7.533  1.3144 -0.7805 -1.3050
 4720SOL    HW225620   2.700   4.267   7.609 -0.4938 -0.4245 -0.0095
 4721SOL     OW25621   4.276   4.536   6.153  0.2839  0.0475  0.0410
 4721SOL    HW125622   4.345   4.535   6.219  0.0048 -0.3467  0.3226
 4721SOL    HW225623   4.202   4.495   6.198  0.2573 -0.7910 -0.7816
 4722SOL     OW25624   1.904   1.908   8.745  0.2586  0.2024  0.1753
 4722SOL    HW125625   1.935   1.823   8.775 -1.3681 -0.0824  1.0493
 4722SOL    HW225626   1.868   1.880   8.661 -1.1651  1.7671  0.2423
 4723SOL     OW25627   3.391   2.095  12.361 -0.1049 -0.2011  0.5138
 4723SOL    HW125628   3.348   2.180  12.363 -0.4319 -0.3127 -2.5324
 4723SOL    HW225629   3.473   2.115  12.316  0.1297 -2.3274 -0.0178
 4724SOL     OW25630   4.303   3.359   3.058 -0.0269  0.9893 -0.3874
 4724SOL    HW125631   4.381   3.321   3.017 -0.0218  0.4136  0.1568
 4724SOL    HW225632   4.279   3.428   2.996  3.5964  1.5698 -1.1597
 4725SOL     OW25633   0.655   2.743   3.940 -0.2055  0.5770 -0.6529
 4725SOL    HW125634   0.607   2.826   3.932  0.0990  0.7170 -1.0271
 4725SOL    HW225635   0.746   2.756   3.967 -0.1562  0.8700 -0.9510
 4726SOL     OW25636   3.018   3.674   1.553  0.5180 -0.0080 -0.2781
 4726SOL    HW125637   3.068   3.744   1.511 -1.5128  0.1798 -2.4058
 4726SOL    HW225638   2.956   3.726   1.605  2.6955  0.6302  1.6705
 4727SOL     OW25639   2.098   2.047   4.215 -0.1562  0.7073 -0.0965
 4727SOL    HW125640   2.010   2.078   4.192 -0.2867  0.1362 -0.3594
 4727SOL    HW225641   2.110   1.975   4.153 -0.3299  0.9469 -0.4112
 4728SOL     OW25642   3.129   3.104   6.505  0.2043  0.3307 -0.0378
 4728SOL    HW125643   3.045   3.148   6.514 -0.6314 -1.3850  0.6292
 4728SOL    HW225644   3.139   3.065   6.592 -0.6093  1.0441  0.3666
 4729SOL     OW25645   0.745   4.338   2.674 -0.4512  0.7701  0.4256
 4729SOL    HW125646   0.658   4.297   2.677 -0.5974  0.8452 -2.8811
 4729SOL    HW225647   0.746   4.374   2.585 -0.8943 -0.8030 -0.2254
 4730SOL     OW25648   1.379   3.940   7.199 -0.0659  0.2144 -0.4579
 4730SOL    HW125649   1.356   3.853   7.168 -2.0589  0.4177  0.4163
 4730SOL    HW225650   1.427   3.977   7.125  0.1456 -0.5146 -0.6772
 4731SOL     OW25651   1.366   4.104   1.692 -0.3873 -0.0075  0.4163
 4731SOL    HW125652   1.383   4.054   1.612 -0.2761 -2.6763  2.0939
 4731SOL    HW225653   1.373   4.037   1.760  0.3194 -0.6557 -0.2995
 4732SOL     OW25654   4.544   4.678   9.368 -0.3053 -0.1410 -0.1714
 4732SOL    HW125655   4.588   4.636   9.442  0.4832  0.1456 -0.4769
 4732SOL    HW225656   4.535   4.605   9.307 -1.0001  0.3712 -0.6750
 4733SOL     OW25657   3.517   2.381   6.079 -0.0922 -0.1604 -0.1159
 4733SOL    HW125658   3.589   2.365   6.140 -0.6981 -2.7604 -0.0645
 4733SOL    HW225659   3.465   2.448   6.123  0.3105  0.2091 -0.2120
 4734SOL     OW25660   4.604   2.098   6.781  0.1608  0.0687 -0.4776
 4734SOL    HW125661   4.612   2.147   6.699  3.3305 -1.2550 -0.9531
 4734SOL    HW225662   4.633   2.011   6.753 -0.0297 -0.1412 -0.0231
 4735SOL     OW25663   1.938   0.724   2.450  0.1988 -0.2231 -0.5994
 4735SOL    HW125664   1.888   0.801   2.474  0.2987 -0.2781 -0.2118
 4735SOL    HW225665   1.985   0.701   2.530 -2.5498 -2.1840  0.4147
 4736SOL     OW25666   2.139   0.156   2.540 -0.4536 -0.0707 -0.0261
 4736SOL    HW125667   2.106   0.177   2.453 -0.8468 -0.6675 -0.0209
 4736SOL    HW225668   2.231   0.182   2.544  0.2279 -2.3069 -1.1670
 4737SOL     OW25669   1.615   0.018   6.539 -0.4179  0.1711 -0.7705
 4737SOL    HW125670   1.572   4.656   6.540 -1.6589  0.7863 -1.8573
 4737SOL    HW225671   1.611   0.040   6.631 -1.2588 -1.8576 -0.3146
 4738SOL     OW25672   3.501   0.644   0.870  0.4825  0.3295  0.4642
 4738SOL    HW125673   3.545   0.559   0.861  0.0990  0.1442  0.3242
 4738SOL    HW225674   3.558   0.694   0.928  1.6561  0.0170 -0.4131
 4739SOL     OW25675   3.745   3.638   6.174 -0.3316 -0.1626 -0.9967
 4739SOL    HW125676   3.668   3.679   6.214 -0.7416 -0.1434 -1.7989
 4739SOL    HW225677   3.775   3.567   6.231 -1.1193 -1.2281 -1.9090
 4740SOL     OW25678   1.139   0.623   9.127  0.2615 -0.4531 -0.0447
 4740SOL    HW125679   1.187   0.567   9.066 -1.5272 -1.5046 -0.4952
 4740SOL    HW225680   1.118   0.557   9.192  1.9080  0.9576  1.9292
 4741SOL     OW25681   3.648   0.133   9.372 -0.1086  0.2803 -0.2711
 4741SOL    HW125682   3.597   0.074   9.318  1.3045 -2.8336  1.8216
 4741SOL    HW225683   3.732   0.134   9.326  0.3930  1.2473  0.6793
 4742SOL     OW25684   3.540   4.602   6.254  0.4758 -0.1623  0.0795
 4742SOL    HW125685   3.513   4.690   6.280 -1.1409 -1.1242  1.6586
 4742SOL    HW225686   3.631   4.613   6.283  1.4228  0.1744 -3.0435
 4743SOL     OW25687   3.708   3.769   8.294  0.1758 -0.4485  0.0132
 4743SOL    HW125688   3.685   3.800   8.206  0.2878 -0.3546  0.0168
 4743SOL    HW225689   3.627   3.749   8.340 -0.4766  0.7506 -0.6328
 4744SOL     OW25690   3.766   4.077   8.145  0.4710  0.1723  0.5287
 4744SOL    HW125691   3.790   4.125   8.224 -0.7442 -0.1549  1.0851
 4744SOL    HW225692   3.812   4.143   8.091  0.1735  0.9365  1.2054
 4745SOL     OW25693   2.619   1.748   4.282  0.3855  0.0811 -0.1973
 4745SOL    HW125694   2.553   1.691   4.321 -1.1512  1.4630 -0.8078
 4745SOL    HW225695   2.602   1.831   4.326  0.6947  0.8547 -1.5709
 4746SOL     OW25696   3.658   0.242   1.657  0.3492  0.1571  0.1086
 4746SOL    HW125697   3.662   0.160   1.608  2.2798  0.5827 -0.4303
 4746SOL    HW225698   3.564   0.246   1.677 -0.3164 -1.8683 -2.4849
 4747SOL     OW25699   0.491   1.087   4.760  0.5087  0.4318 -0.5722
 4747SOL    HW125700   0.491   1.005   4.712  1.1979 -2.6199  4.5988
 4747SOL    HW225701   0.444   1.071   4.842 -0.9289 -1.3796 -1.7546
 4748SOL     OW25702   1.659   2.716   5.626 -0.0421 -0.2750 -0.2525
 4748SOL    HW125703   1.598   2.703   5.698  0.4128  0.1489  0.2103
 4748SOL    HW225704   1.608   2.685   5.551 -2.7896 -0.8244  1.8488
 4749SOL     OW25705   4.067   0.417   8.781  0.2360 -0.0319  0.1669
 4749SOL    HW125706   4.150   0.460   8.756  0.0605 -0.5494 -1.3433
 4749SOL    HW225707   4.077   0.432   8.875 -1.2116  2.3620 -0.0557
 4750SOL     OW25708   1.141   4.228   8.144  0.0410  0.0549 -0.1694
 4750SOL    HW125709   1.165   4.237   8.237  0.9451 -1.8453 -0.2233
 4750SOL    HW225710   1.128   4.318   8.115 -0.6203  0.3285  0.9533
 4751SOL     OW25711   1.213   1.426  12.802  0.3189  0.2626  0.0686
 4751SOL    HW125712   1.287   1.403  12.745 -0.5080  2.7563 -2.0104
 4751SOL    HW225713   1.258   1.427  12.886 -0.9529 -1.4307  0.7640
 4752SOL     OW25714   2.737   2.439   2.234  0.3457 -0.6241  0.2927
 4752SOL    HW125715   2.799   2.368   2.252 -0.6261 -1.0483  1.9952
 4752SOL    HW225716   2.678   2.398   2.171  0.2401 -0.4081  0.2486
 4753SOL     OW25717   1.732   0.004   5.223  0.1551 -0.0674 -0.4076
 4753SOL    HW125718   1.692   0.071   5.167 -1.0167 -1.5472 -1.3395
 4753SOL    HW225719   1.819   0.040   5.241  0.3888  0.0924 -1.8203
 4754SOL     OW25720   3.390   4.505   8.364  0.3616  0.0248  0.0738
 4754SOL    HW125721   3.439   4.423   8.378  1.1185  0.3708 -0.5770
 4754SOL    HW225722   3.396   4.550   8.448  1.8223 -1.3286  0.7030
 4755SOL     OW25723   4.544   2.182   3.295 -0.0830 -0.1424  0.4291
 4755SOL    HW125724   4.608   2.246   3.263  0.5296 -1.4467 -0.9557
 4755SOL    HW225725   4.508   2.145   3.214 -0.6106 -1.4295  1.2574
 4756SOL     OW25726   1.650   0.149   5.564 -0.8175  0.1219  0.3753
 4756SOL    HW125727   1.741   0.152   5.594 -1.1832  0.8453  1.4244
 4756SOL    HW225728   1.641   0.198   5.482 -2.6203  0.4320  0.7478
 4757SOL     OW25729   0.815   4.464   4.399  0.2017  0.4276 -0.5347
 4757SOL    HW125730   0.779   4.538   4.448 -0.5367  0.0077 -0.4319
 4757SOL    HW225731   0.867   4.510   4.335 -0.6870  0.4744 -1.2241
 4758SOL     OW25732   3.529   2.934  17.056 -0.2551  0.2307 -0.0799
 4758SOL    HW125733   3.604   2.978  17.015  1.0120 -0.7789  1.1755
 4758SOL    HW225734   3.479   2.913  16.977 -1.9128  0.5686  0.8953
 4759SOL     OW25735   0.786   0.213  17.039  0.2099  0.0396 -0.3313
 4759SOL    HW125736   0.854   0.152  17.066 -1.6548 -2.2903 -0.9428
 4759SOL    HW225737   0.788   0.262  17.121  1.9976 -0.8531  0.1708
 4760SOL     OW25738   0.250   0.766   5.115  0.3878 -0.2750 -0.0483
 4760SOL    HW125739   0.345   0.770   5.106  0.3249 -1.6888 -1.5228
 4760SOL    HW225740   0.251   0.743   5.208  1.1733  1.0378  0.2693
 4761SOL     OW25741   1.607   0.075   3.032  0.6296  0.5236 -0.7650
 4761SOL    HW125742   1.613   0.140   3.102  0.2620  1.8512 -1.9518
 4761SOL    HW225743   1.624   4.717   3.078  1.8744  0.8762 -0.5814
 4762SOL     OW25744   0.686   0.919  11.459 -0.5398 -0.1736  0.0443
 4762SOL    HW125745   0.763   0.944  11.511  1.9151 -1.7005 -2.8097
 4762SOL    HW225746   0.731   0.841  11.425 -1.9267 -0.9370 -0.0430
 4763SOL     OW25747   1.211   1.746   7.977 -0.8340  0.6916  0.3273
 4763SOL    HW125748   1.273   1.815   7.952 -2.0243  1.9763  0.9206
 4763SOL    HW225749   1.193   1.793   8.058  1.3563 -0.7945  1.6733
 4764SOL     OW25750   2.716   4.242   9.416  0.0643  0.2442  0.1008
 4764SOL    HW125751   2.769   4.203   9.485  0.6657  2.0769  0.6785
 4764SOL    HW225752   2.748   4.185   9.346  1.3655  1.1342 -0.0466
 4765SOL     OW25753   2.676   3.825   4.122  0.4292 -0.6317 -1.2028
 4765SOL    HW125754   2.652   3.911   4.087  0.0371  1.0397  3.1344
 4765SOL    HW225755   2.771   3.842   4.119  0.6086 -1.5596 -0.5885
 4766SOL     OW25756   3.220   2.250   5.534  0.6159  0.4489  0.1323
 4766SOL    HW125757   3.153   2.223   5.471 -0.5527  0.3503  1.4290
 4766SOL    HW225758   3.166   2.233   5.610 -0.2209 -1.1936 -0.8454
 4767SOL     OW25759   3.452   1.174  10.934  0.6295  0.0980  0.1006
 4767SOL    HW125760   3.359   1.190  10.915  0.7726 -0.1063 -0.7773
 4767SOL    HW225761   3.465   1.245  10.997 -0.6560 -2.0022  2.7685
 4768SOL     OW25762   0.630   4.273   5.836 -0.2654 -0.5126  0.1321
 4768SOL    HW125763   0.583   4.190   5.844 -1.9462  0.5804  1.6156
 4768SOL    HW225764   0.667   4.269   5.748 -0.5650 -1.3573  0.0437
 4769SOL     OW25765   3.021   0.529   6.823  0.8006  0.3283 -0.5976
 4769SOL    HW125766   3.001   0.611   6.868 -0.6514 -0.7730  0.7959
 4769SOL    HW225767   2.953   0.470   6.857  2.3740 -2.2369 -1.8578
 4770SOL     OW25768   2.675   2.554   5.243  0.1219  0.2858  0.4116
 4770SOL    HW125769   2.722   2.636   5.259 -2.7294  2.2184 -1.1059
 4770SOL    HW225770   2.598   2.570   5.298 -0.3569 -4.3157  1.0434
 4771SOL     OW25771   4.471   4.512   8.941 -0.5749  0.2905  0.1537
 4771SOL    HW125772   4.509   4.450   8.880 -3.3547  1.5412 -2.8409
 4771SOL    HW225773   4.420   4.558   8.874 -1.7324 -1.5683 -0.2282
 4772SOL     OW25774   2.038   3.063   8.938 -0.0860 -0.3361 -0.6734
 4772SOL    HW125775   2.006   3.139   8.890 -1.2710 -0.3969  0.0188
 4772SOL    HW225776   2.000   3.089   9.022  0.8978 -1.5846  0.1671
 4773SOL     OW25777   3.887   1.979  10.067  0.2002 -0.4530  0.1227
 4773SOL    HW125778   3.813   2.005  10.011  2.1451  1.1141 -1.7069
 4773SOL    HW225779   3.944   2.055  10.056  1.5445 -1.3683  0.7675
 4774SOL     OW25780   2.662   4.189   1.679 -0.4044 -0.5407  0.5373
 4774SOL    HW125781   2.644   4.282   1.666  1.6569  0.1525  2.5539
 4774SOL    HW225782   2.594   4.166   1.741 -1.1619  0.2618  0.0109
 4775SOL     OW25783   3.783   2.033   9.196  0.0028  0.0996  0.5832
 4775SOL    HW125784   3.707   2.012   9.251 -2.0691  0.9932 -1.9417
 4775SOL    HW225785   3.754   2.024   9.105  2.1633  3.6725 -0.4533
 4776SOL     OW25786   3.701   0.592   1.519 -0.4945 -0.1974 -0.1487
 4776SOL    HW125787   3.791   0.623   1.529 -0.1485 -1.1138 -0.4203
 4776SOL    HW225788   3.714   0.515   1.464  0.8388  0.9026 -1.3512
 4777SOL     OW25789   2.159   3.415   3.158  0.1562 -0.6800 -0.5703
 4777SOL    HW125790   2.093   3.346   3.160 -0.0864 -0.4303  0.1239
 4777SOL    HW225791   2.187   3.429   3.068  0.0728 -0.4079 -0.5568
 4778SOL     OW25792   2.703   2.496  12.275 -0.0104 -0.6218  0.0900
 4778SOL    HW125793   2.757   2.446  12.335 -0.8027 -0.6774  0.7606
 4778SOL    HW225794   2.696   2.443  12.195  0.8073 -1.3387  0.4975
 4779SOL     OW25795   2.475   4.459   6.985  0.1757 -0.5366 -0.0261
 4779SOL    HW125796   2.421   4.523   6.939  0.8112 -0.7538 -1.0757
 4779SOL    HW225797   2.479   4.503   7.070  0.2410 -0.8652  0.1427
 4780SOL     OW25798   2.879   2.416   6.391  0.0555 -0.2373  0.0637
 4780SOL    HW125799   2.830   2.455   6.318 -0.8830 -1.9123 -0.2003
 4780SOL    HW225800   2.851   2.470   6.464  0.9761 -1.3335  1.2185
 4781SOL     OW25801   2.043   3.825   8.874  0.4735 -0.3633 -0.2330
 4781SOL    HW125802   1.979   3.776   8.926  0.0985 -1.7009 -1.9588
 4781SOL    HW225803   2.043   3.911   8.917  0.9248 -0.0713 -0.8270
 4782SOL     OW25804   1.278   2.845   5.681 -0.3484  0.2267  0.3556
 4782SOL    HW125805   1.335   2.918   5.658  0.2262 -1.0459 -2.2788
 4782SOL    HW225806   1.262   2.803   5.596 -4.0166  0.8550  0.7001
 4783SOL     OW25807   4.637   1.033  10.759 -0.9567 -0.2316  0.3101
 4783SOL    HW125808   4.631   1.100  10.827 -1.0710 -1.0853  1.1331
 4783SOL    HW225809   0.007   1.017  10.748 -1.2034 -0.8387 -0.9406
 4784SOL     OW25810   4.187   4.065  10.866  0.0987 -0.5250  0.0848
 4784SOL    HW125811   4.159   4.137  10.922  1.2472  0.7355 -0.9785
 4784SOL    HW225812   4.270   4.039  10.906  0.8987 -1.8515 -2.4559
 4785SOL     OW25813   1.174   2.924  14.520 -0.1236 -0.0487  0.0352
 4785SOL    HW125814   1.208   3.004  14.480 -0.5594  0.1146 -0.0091
 4785SOL    HW225815   1.114   2.894  14.453  0.6550 -0.5037 -0.4555
 4786SOL     OW25816   1.618   4.337  14.583  0.7068 -0.1813 -0.0009
 4786SOL    HW125817   1.549   4.355  14.647  1.9388  2.8608  0.4714
 4786SOL    HW225818   1.572   4.303  14.506 -0.0990  2.2209 -0.6118
 4787SOL     OW25819   4.237   3.424   7.581 -0.0131  0.0974 -0.3986
 4787SOL    HW125820   4.164   3.482   7.560 -0.1382 -1.1406 -3.4234
 4787SOL    HW225821   4.221   3.409   7.674 -0.3142 -1.1089 -0.6471
 4788SOL     OW25822   0.476   4.055  12.467 -0.0974  0.3527 -0.1268
 4788SOL    HW125823   0.395   4.106  12.465  0.0393  0.5420 -1.0808
 4788SOL    HW225824   0.511   4.080  12.381  1.1083 -1.9951 -0.2982
 4789SOL     OW25825   4.193   3.030  13.071 -0.6960  0.2924  0.1409
 4789SOL    HW125826   4.195   3.045  12.976  0.9629  2.1407  0.4583
 4789SOL    HW225827   4.099   3.024  13.086 -0.5001  0.2881  1.3839
 4790SOL     OW25828   3.128   4.431   4.511 -0.1261  0.3180 -0.3416
 4790SOL    HW125829   3.035   4.409   4.514  0.0748 -0.3978  0.4673
 4790SOL    HW225830   3.176   4.369   4.565  0.9039 -0.8087 -2.5574
 4791SOL     OW25831   0.685   2.838  15.099 -0.3227 -0.6844  0.5411
 4791SOL    HW125832   0.727   2.785  15.167  1.8753  0.9905  0.4928
 4791SOL    HW225833   0.746   2.911  15.086 -0.8917 -0.4573 -0.7911
 4792SOL     OW25834   1.148   4.176   2.942 -0.9483  0.6386 -0.7971
 4792SOL    HW125835   1.123   4.129   2.862 -1.6313 -0.1953 -0.0885
 4792SOL    HW225836   1.067   4.227   2.948 -0.6496  0.8784  1.0915
 4793SOL     OW25837   4.122   1.222   9.165  0.3130  0.2013 -0.0812
 4793SOL    HW125838   4.029   1.227   9.190 -0.0744 -2.1803 -1.1168
 4793SOL    HW225839   4.125   1.270   9.082  2.0195 -1.8593 -1.2046
 4794SOL     OW25840   2.760   2.312  15.287  0.6071 -0.3758  0.2257
 4794SOL    HW125841   2.799   2.286  15.371  0.3006 -0.2886  0.3966
 4794SOL    HW225842   2.806   2.396  15.281  0.6457 -0.2927  1.6597
 4795SOL     OW25843   1.963   4.486   6.883 -0.4653 -0.3431  0.4257
 4795SOL    HW125844   1.875   4.512   6.912  0.1679 -1.1235  3.0577
 4795SOL    HW225845   1.975   4.399   6.920 -0.5340 -0.8451 -0.7421
 4796SOL     OW25846   1.399   0.710  13.281  0.1058  0.1538 -0.4527
 4796SOL    HW125847   1.410   0.656  13.360 -3.7001 -0.5724 -0.4134
 4796SOL    HW225848   1.352   0.784  13.320  1.6469  0.4349  0.8936
 4797SOL     OW25849   3.921   3.099   5.555  0.3619  0.3290  0.2457
 4797SOL    HW125850   3.988   3.136   5.497  0.5996 -0.5909 -0.0532
 4797SOL    HW225851   3.957   3.137   5.636 -0.0671 -1.5742  1.3140
 4798SOL     OW25852   4.332   1.906   2.198 -0.4548  0.6554 -0.6156
 4798SOL    HW125853   4.264   1.891   2.132  0.2543 -1.4406 -0.8511
 4798SOL    HW225854   4.319   2.001   2.206 -0.6214  0.5284  0.6656
 4799SOL     OW25855   0.631   2.576  11.209  0.4425 -0.4260 -0.0956
 4799SOL    HW125856   0.681   2.495  11.214  1.1525  0.0965  1.0548
 4799SOL    HW225857   0.617   2.605  11.299  2.1962  2.2871 -0.6869
 4800SOL     OW25858   1.277   0.964   3.888 -0.4110  0.3259 -0.2558
 4800SOL    HW125859   1.240   0.953   3.800  0.7766 -0.9749 -0.6027
 4800SOL    HW225860   1.233   0.898   3.941  0.0680  1.1568  1.1621
 4801SOL     OW25861   2.807   3.952   4.745  0.1846 -0.3983  0.0214
 4801SOL    HW125862   2.878   4.013   4.765 -0.0978 -0.4340  1.1574
 4801SOL    HW225863   2.740   4.005   4.702 -1.7245 -2.9475 -0.1089
 4802SOL     OW25864   2.675   0.137  10.967 -0.0212 -0.1791  0.2797
 4802SOL    HW125865   2.615   0.066  10.991  1.3019 -2.1264 -2.1067
 4802SOL    HW225866   2.689   0.116  10.874 -2.5329 -2.2334  0.3782
 4803SOL     OW25867   0.033   2.970   8.480 -0.0113  1.4201 -0.0212
 4803SOL    HW125868   0.043   3.017   8.397 -0.3506  1.6078  0.0450
 4803SOL    HW225869   0.001   3.046   8.529  0.5101  1.4658  0.2507
 4804SOL     OW25870   0.025   1.894   5.510 -0.4030  0.2643 -0.5981
 4804SOL    HW125871   4.703   1.822   5.553  1.5492 -0.9387 -0.5224
 4804SOL    HW225872   0.046   1.946   5.588  0.0210 -0.2874 -0.3476
 4805SOL     OW25873   1.554   2.364   3.040 -0.5039  0.7901  0.7958
 4805SOL    HW125874   1.476   2.381   2.987  0.9129 -1.0350 -1.8568
 4805SOL    HW225875   1.628   2.400   2.992  0.3042  1.5455  2.6169
 4806SOL     OW25876   4.426   1.021  10.506 -0.5866  0.4024 -0.2972
 4806SOL    HW125877   4.402   1.114  10.500 -2.3178 -0.0259 -0.2308
 4806SOL    HW225878   4.466   1.015  10.593 -0.0999 -0.0326 -0.5590
 4807SOL     OW25879   4.386   3.579   6.049 -0.3355  0.0126 -1.0687
 4807SOL    HW125880   4.364   3.528   5.971 -0.6004 -0.9972 -0.3317
 4807SOL    HW225881   4.438   3.522   6.105 -2.7161 -2.9800 -1.9196
 4808SOL     OW25882   3.944   2.358   1.606  0.3998  0.0803 -0.0678
 4808SOL    HW125883   3.973   2.306   1.681  1.0600 -0.1818 -0.5031
 4808SOL    HW225884   3.849   2.350   1.615  0.4282  0.7611  0.7522
 4809SOL     OW25885   0.535   3.721  16.241 -0.0271 -0.1091 -0.1601
 4809SOL    HW125886   0.515   3.788  16.305 -1.6464  0.1561 -0.9535
 4809SOL    HW225887   0.449   3.714  16.201  0.1931  0.4044 -0.7244
 4810SOL     OW25888   2.909   1.993  15.718  0.1468  0.2076 -0.4491
 4810SOL    HW125889   2.842   1.997  15.786 -0.4559  0.4094 -1.0463
 4810SOL    HW225890   2.988   1.999  15.772 -0.5256  1.4401  0.3934
 4811SOL     OW25891   2.303   2.698   6.867 -0.6679  0.0469 -0.1829
 4811SOL    HW125892   2.286   2.792   6.877 -1.0174 -0.1183  0.7487
 4811SOL    HW225893   2.304   2.670   6.958 -2.4509 -2.4201 -0.9047
 4812SOL     OW25894   3.974   0.176  16.650 -0.5312  0.4269 -0.2662
 4812SOL    HW125895   4.042   0.190  16.584 -2.0315  0.9370 -1.7101
 4812SOL    HW225896   3.911   0.118  16.606 -0.5677  1.5971 -1.7749
 4813SOL     OW25897   0.475   2.380  10.071 -0.2261  0.0505 -0.5452
 4813SOL    HW125898   0.506   2.319  10.004  1.7639  2.0185 -1.4071
 4813SOL    HW225899   0.409   2.421  10.015 -0.2622  0.2562 -0.3511
 4814SOL     OW25900   4.176   0.469   3.274 -0.5975  0.2346 -0.1195
 4814SOL    HW125901   4.269   0.475   3.250 -1.0173  1.4665 -1.3934
 4814SOL    HW225902   4.137   0.556   3.284 -1.9812 -0.1802 -2.1614
 4815SOL     OW25903   3.010   1.518   5.118  0.1331  0.1420  0.1967
 4815SOL    HW125904   2.971   1.574   5.184  0.9089  0.4601  0.3799
 4815SOL    HW225905   2.946   1.518   5.046  1.4925  2.9465 -1.0044
 4816SOL     OW25906   4.204   0.360   8.533 -0.2415 -0.1447  0.0047
 4816SOL    HW125907   4.152   0.429   8.491  1.7282  0.1201 -1.9951
 4816SOL    HW225908   4.135   0.312   8.580 -1.6107  2.5715  0.7634
 4817SOL     OW25909   4.143   0.712  12.219 -0.5026  0.3796  0.3891
 4817SOL    HW125910   4.200   0.785  12.196  1.7224 -1.4916 -0.1097
 4817SOL    HW225911   4.190   0.635  12.185 -0.4690  2.2758 -3.8515
 4818SOL     OW25912   4.592   1.672   5.912 -0.1576 -0.1442 -0.0859
 4818SOL    HW125913   4.660   1.633   5.967 -1.1953  0.9800  1.9993
 4818SOL    HW225914   4.513   1.628   5.944 -2.1230  0.9586 -3.3886
 4819SOL     OW25915   3.180   1.083   1.872 -0.1350  0.2850 -0.0694
 4819SOL    HW125916   3.149   1.106   1.959 -0.2445  0.1956 -0.0854
 4819SOL    HW225917   3.156   0.991   1.873  0.3388  0.1545 -0.6301
 4820SOL     OW25918   4.698   2.244  11.452 -0.2528  0.4424 -0.4822
 4820SOL    HW125919   4.692   2.201  11.367  1.3423 -0.8980  0.0632
 4820SOL    HW225920   0.019   2.185  11.514 -0.8574 -0.2318 -0.6866
 4821SOL     OW25921   4.312   0.158   9.112  0.2112  0.0816  0.6299
 4821SOL    HW125922   4.237   0.199   9.069  0.0741 -1.6824 -0.7913
 4821SOL    HW225923   4.365   0.149   9.034  0.4547  1.3381  0.6527
 4822SOL     OW25924   3.320   2.265   2.031  0.2044 -1.0129  0.3953
 4822SOL    HW125925   3.264   2.342   2.030  2.9060  0.9373  0.7588
 4822SOL    HW225926   3.323   2.241   2.124  1.8649  0.4502  0.7137
 4823SOL     OW25927   3.597   1.411  11.383  0.0028 -0.0052  0.5834
 4823SOL    HW125928   3.611   1.402  11.478 -0.4548 -1.2944  0.5429
 4823SOL    HW225929   3.594   1.505  11.369 -2.4924  0.0103  1.1534
 4824SOL     OW25930   1.434   3.893   3.136 -0.0211  0.4843  0.2988
 4824SOL    HW125931   1.525   3.882   3.163 -0.1298  0.9199  0.8420
 4824SOL    HW225932   1.381   3.835   3.189 -1.6321 -0.8925 -2.8546
 4825SOL     OW25933   2.677   0.173   9.603 -0.2049  0.1615 -0.0629
 4825SOL    HW125934   2.644   0.157   9.691  2.6258 -0.3993  0.8704
 4825SOL    HW225935   2.750   0.232   9.623  1.3086 -0.2598 -4.3718
 4826SOL     OW25936   3.484   3.556   8.311  0.3486 -0.4407  0.0766
 4826SOL    HW125937   3.391   3.581   8.307  0.6116  0.3730 -0.9402
 4826SOL    HW225938   3.511   3.576   8.221  1.6082 -2.0179  0.1122
 4827SOL     OW25939   1.428   0.126   6.753  0.0546 -0.1737  0.5233
 4827SOL    HW125940   1.449   0.214   6.785 -2.1492  0.9110 -0.9966
 4827SOL    HW225941   1.362   0.103   6.819 -1.1973 -0.0933 -0.6874
 4828SOL     OW25942   1.459   3.736   6.759  0.0527  0.0531 -0.0458
 4828SOL    HW125943   1.438   3.689   6.678 -0.7656  1.2493 -0.5343
 4828SOL    HW225944   1.458   3.829   6.734  0.3949 -0.1422 -0.7780
 4829SOL     OW25945   1.013   1.037  11.390  0.0401  0.3552  0.3696
 4829SOL    HW125946   1.042   1.026  11.300 -0.0875 -1.7191  0.5733
 4829SOL    HW225947   1.049   0.958  11.431  0.0287 -0.3251 -0.9516
 4830SOL     OW25948   0.914   0.671   6.587  0.1665  0.0239 -0.0985
 4830SOL    HW125949   0.886   0.660   6.496 -1.5011 -1.1198  0.5496
 4830SOL    HW225950   0.950   0.759   6.596 -0.4856  0.5512 -2.7654
 4831SOL     OW25951   3.817   3.587   7.076 -0.4899  0.1674  0.0775
 4831SOL    HW125952   3.834   3.495   7.092  2.6446  0.7873  0.2350
 4831SOL    HW225953   3.871   3.636   7.138 -1.1453 -0.3343  1.0454
 4832SOL     OW25954   0.263   1.842   5.337  0.1015 -0.0479  0.1604
 4832SOL    HW125955   0.320   1.829   5.412 -1.7891 -2.0080  1.2547
 4832SOL    HW225956   0.180   1.880   5.368  0.0971  0.7808 -0.8435
 4833SOL     OW25957   2.098   0.070  13.545  0.3784 -0.5448 -0.6556
 4833SOL    HW125958   2.093   0.147  13.601 -1.2041 -0.7266 -0.5518
 4833SOL    HW225959   2.159   0.112  13.485 -0.0648  1.0409  0.0066
 4834SOL     OW25960   1.844   1.073   2.800  0.6452  0.2225  0.7505
 4834SOL    HW125961   1.841   1.076   2.705 -1.2439  0.2897  0.8201
 4834SOL    HW225962   1.878   1.155   2.834  1.6724  0.3773 -0.6529
 4835SOL     OW25963   4.204   0.722   3.677 -0.3275  0.0951  0.0774
 4835SOL    HW125964   4.185   0.643   3.728 -2.2116  2.1601  2.6097
 4835SOL    HW225965   4.166   0.697   3.593  0.2256 -0.7249  0.0703
 4836SOL     OW25966   3.152   0.877   9.264  0.3080 -0.0957  0.1879
 4836SOL    HW125967   3.228   0.935   9.268  0.1766  0.0010  1.0631
 4836SOL    HW225968   3.087   0.945   9.246 -0.3257 -0.7257  0.1202
 4837SOL     OW25969   0.006   0.271  10.574  0.1827 -0.3843 -0.0833
 4837SOL    HW125970   0.088   0.319  10.566 -0.6520  0.9683 -0.5419
 4837SOL    HW225971   4.684   0.324  10.509  0.2905 -0.0598  0.1070
 4838SOL     OW25972   0.235   3.489   7.910  0.2969 -0.3342  0.0439
 4838SOL    HW125973   0.234   3.426   7.982  1.2869  1.8174  1.9251
 4838SOL    HW225974   0.157   3.539   7.935 -1.1782 -1.6795 -1.8108
 4839SOL     OW25975   1.689   3.146  11.613 -0.7422 -0.4989 -0.1093
 4839SOL    HW125976   1.620   3.201  11.648  0.4256  0.7268  0.2391
 4839SOL    HW225977   1.737   3.198  11.549 -0.1272 -1.1293 -0.1667
 4840SOL     OW25978   1.629   2.623   0.056  0.1540 -0.1181  0.1500
 4840SOL    HW125979   1.672   2.690   0.004  0.3203  0.2968  0.8181
 4840SOL    HW225980   1.576   2.570  17.693  0.1316 -0.9441  0.8986
 4841SOL     OW25981   3.560   1.054   2.393 -1.2319 -0.4034  0.5507
 4841SOL    HW125982   3.607   0.971   2.391 -0.0923  0.2440  0.3758
 4841SOL    HW225983   3.592   1.101   2.316  0.0979 -3.7366 -0.8912
 4842SOL     OW25984   0.943   4.693  11.551  0.7900 -0.1883 -0.4733
 4842SOL    HW125985   1.019   4.643  11.521 -0.7729 -2.8863  0.0641
 4842SOL    HW225986   0.973   0.057  11.528  2.0260 -0.1967  1.0681
 4843SOL     OW25987   2.089   2.696   4.898  0.0365  0.5801 -0.4285
 4843SOL    HW125988   2.025   2.765   4.915  1.5774  1.9729 -0.2860
 4843SOL    HW225989   2.040   2.631   4.847 -0.6421  0.1075  0.8239
 4844SOL     OW25990   2.455   0.264  15.232  1.0507  0.2824 -0.2252
 4844SOL    HW125991   2.448   0.302  15.144  2.2791 -2.0026 -1.3084
 4844SOL    HW225992   2.481   0.340  15.284  1.7198  1.6084 -2.5060
 4845SOL     OW25993   0.672   0.204  11.725  0.2822 -0.2888  0.0748
 4845SOL    HW125994   0.670   0.216  11.630  0.9653 -1.9039 -0.1456
 4845SOL    HW225995   0.695   0.111  11.724 -0.2706 -0.4530  2.8553
 4846SOL     OW25996   1.987   1.462   6.998  0.0790 -0.0151  0.6178
 4846SOL    HW125997   2.077   1.485   6.973 -0.1597 -0.2034 -0.4417
 4846SOL    HW225998   1.990   1.367   6.989 -2.4389 -0.0653  0.3766
 4847SOL     OW25999   0.721   2.624  15.295  0.3376 -0.0786 -0.4608
 4847SOL    HW126000   0.774   2.591  15.368  0.2434  1.7111  0.4263
 4847SOL    HW226001   0.640   2.645  15.343  1.0643  0.4018  0.5649
 4848SOL     OW26002   4.190   3.005   3.358 -0.1440  0.1350  0.3094
 4848SOL    HW126003   4.217   2.923   3.318  0.0217 -0.1681  1.0389
 4848SOL    HW226004   4.275   3.035   3.389  0.1994 -1.5583  1.0087
 4849SOL     OW26005   1.517   3.254   7.965  0.8871  0.0051  0.4538
 4849SOL    HW126006   1.547   3.344   7.977  1.7105 -0.2347  0.2167
 4849SOL    HW226007   1.423   3.253   7.984  0.3996  1.5901 -1.8502
 4850SOL     OW26008   3.911   0.048   2.137 -0.1651  0.1700 -0.0721
 4850SOL    HW126009   3.880   0.014   2.053  0.6270  1.9115 -1.0656
 4850SOL    HW226010   3.827   0.061   2.181 -0.3939  0.7064 -0.6621
 4851SOL     OW26011   1.882   1.924   5.955 -0.5067 -0.4141 -0.4365
 4851SOL    HW126012   1.956   1.864   5.947 -1.9293 -2.3713  0.9852
 4851SOL    HW226013   1.853   1.900   6.044  0.7565 -0.6980 -0.1068
 4852SOL     OW26014   1.542   3.102  11.928  0.2629 -0.4495  0.4816
 4852SOL    HW126015   1.477   3.121  11.860  0.8985 -2.2862 -0.6313
 4852SOL    HW226016   1.492   3.137  12.002 -3.7041 -2.4417 -1.2890
 4853SOL     OW26017   2.008   4.186   7.293  0.3348  0.5966 -0.3986
 4853SOL    HW126018   1.927   4.173   7.343 -0.1738 -0.2546 -1.4356
 4853SOL    HW226019   1.981   4.237   7.216  3.4750 -0.6609 -2.2985
 4854SOL     OW26020   1.885   4.510   3.526 -0.1369 -0.3624  1.1225
 4854SOL    HW126021   1.922   4.598   3.540 -1.4597  0.3928 -0.1608
 4854SOL    HW226022   1.831   4.522   3.449  1.6946  0.0993 -0.0920
 4855SOL     OW26023   4.710   0.535   6.048 -0.5776 -0.1712  0.2125
 4855SOL    HW126024   4.663   0.472   6.103 -1.1632 -1.7776 -2.1523
 4855SOL    HW226025   0.032   0.590   6.112 -2.2118  2.2692 -0.7270
 4856SOL     OW26026   2.328   0.161  10.317 -0.0420 -0.1696 -1.0384
 4856SOL    HW126027   2.382   0.116  10.382 -1.5014 -1.8882 -1.0014
 4856SOL    HW226028   2.245   0.152  10.364  0.1102  0.4795 -0.6432
 4857SOL     OW26029   3.135   3.096  16.538 -0.0188 -0.5680  0.1570
 4857SOL    HW126030   3.171   3.044  16.466  0.3929  1.4796 -1.0920
 4857SOL    HW226031   3.076   3.032  16.579  0.2722 -0.3323  0.9547
 4858SOL     OW26032   3.413   1.120   1.743 -0.5942  0.9773  0.6295
 4858SOL    HW126033   3.459   1.157   1.819  2.0756  0.7434 -0.8480
 4858SOL    HW226034   3.326   1.111   1.782 -0.1608  3.1512  2.1034
 4859SOL     OW26035   2.312   2.912   0.391 -0.3895  0.1736  0.8531
 4859SOL    HW126036   2.342   3.001   0.407  1.7644 -0.4758  0.3425
 4859SOL    HW226037   2.350   2.866   0.466  2.4136  1.3628  0.1305
 4860SOL     OW26038   4.522   3.921   2.873  0.1065  0.0266 -0.0271
 4860SOL    HW126039   4.543   3.935   2.965  0.1706 -0.4169  0.0230
 4860SOL    HW226040   4.554   4.002   2.833  0.2162 -0.4068 -0.8039
 4861SOL     OW26041   4.096   1.887   6.075 -0.3010  0.0485  0.4405
 4861SOL    HW126042   4.002   1.880   6.064 -0.4595  2.6231  0.0884
 4861SOL    HW226043   4.118   1.977   6.051 -0.2711 -0.2062 -0.4722
 4862SOL     OW26044   3.359   1.159   5.498  0.0676 -0.2899  0.2694
 4862SOL    HW126045   3.313   1.243   5.497  0.3096 -0.1560  1.0339
 4862SOL    HW226046   3.309   1.096   5.549  1.3971 -0.4371  1.3666
 4863SOL     OW26047   2.154   3.738  16.287 -0.0573 -0.1427 -0.7048
 4863SOL    HW126048   2.133   3.645  16.296  0.0640 -0.0936  0.0921
 4863SOL    HW226049   2.161   3.753  16.193  0.3761 -1.6882 -0.9076
 4864SOL     OW26050   2.989   1.612   5.597 -0.3040  0.0308  0.0150
 4864SOL    HW126051   2.910   1.665   5.591 -1.4267 -1.5893  0.6696
 4864SOL    HW226052   3.044   1.673   5.646 -1.5397  1.8398 -0.8571
 4865SOL     OW26053   2.595   4.322   2.436 -0.1403  0.1173  0.1850
 4865SOL    HW126054   2.606   4.357   2.524 -1.9064 -0.8487  0.7852
 4865SOL    HW226055   2.533   4.250   2.449  2.2147 -2.0010 -0.3668
 4866SOL     OW26056   1.899   1.511   5.960  0.2636  0.5183 -0.0300
 4866SOL    HW126057   1.905   1.490   5.866  1.2857 -0.7062  0.3119
 4866SOL    HW226058   1.986   1.546   5.978  0.7938 -0.6261 -0.3045
 4867SOL     OW26059   4.619   0.598   0.577  0.1041  0.3628  0.6805
 4867SOL    HW126060   4.661   0.684   0.585 -0.4764  0.5844  1.2816
 4867SOL    HW226061   4.598   0.588   0.670  0.5016  0.7170  0.8063
 4868SOL     OW26062   0.177   1.349   5.593  0.4789 -0.2744  0.2234
 4868SOL    HW126063   0.201   1.441   5.577  1.2942 -0.9466 -2.3689
 4868SOL    HW226064   0.085   1.356   5.620  0.0894  1.1845 -1.4926
 4869SOL     OW26065   3.282   0.850   9.558  0.3834  0.2237  0.4695
 4869SOL    HW126066   3.330   0.905   9.620 -0.5568 -0.7921  2.1050
 4869SOL    HW226067   3.240   0.917   9.504  0.8121 -0.5027 -0.7751
 4870SOL     OW26068   2.857   0.431   5.901  0.1345 -0.3487 -1.1655
 4870SOL    HW126069   2.935   0.410   5.953  0.0180 -0.6182 -1.0975
 4870SOL    HW226070   2.796   0.454   5.971  1.4769  0.0678 -0.1333
 4871SOL     OW26071   0.350   4.324  13.703  0.0722 -0.3653 -0.0640
 4871SOL    HW126072   0.413   4.334  13.774 -1.6493 -0.8735  1.5674
 4871SOL    HW226073   0.363   4.230  13.691 -0.2010 -0.0885 -2.4917
 4872SOL     OW26074   3.615   0.463   4.628 -0.0876  0.0695  0.1027
 4872SOL    HW126075   3.563   0.385   4.613  2.4911 -1.7330  0.4553
 4872SOL    HW226076   3.645   0.454   4.718 -1.7577  0.7318  0.7259
 4873SOL     OW26077   1.553   1.548   1.772 -0.0152  0.0560  0.3517
 4873SOL    HW126078   1.536   1.610   1.701 -2.2233  1.8982  2.5247
 4873SOL    HW226079   1.555   1.603   1.850  0.5073  1.2710 -0.5234
 4874SOL     OW26080   1.455   4.025   3.516  0.2445 -0.5794  0.4172
 4874SOL    HW126081   1.360   4.019   3.508  0.3264 -0.6364 -0.4696
 4874SOL    HW226082   1.482   3.938   3.489  0.6535  0.1411 -1.4996
 4875SOL     OW26083   3.688   2.434  12.883  0.3589  0.1214 -0.2785
 4875SOL    HW126084   3.734   2.495  12.942  0.4790 -1.8602  1.6782
 4875SOL    HW226085   3.707   2.347  12.918  1.7583 -0.0147 -1.3689
 4876SOL     OW26086   3.040   1.026   7.838  0.2696 -0.6007  0.2761
 4876SOL    HW126087   2.970   0.971   7.872 -0.5679  0.2997  0.0029
 4876SOL    HW226088   3.019   1.116   7.862 -1.0293 -0.7112 -0.4635
 4877SOL     OW26089   3.055   3.394  15.120  0.3880  0.1272 -0.3396
 4877SOL    HW126090   3.070   3.465  15.181 -0.7512  0.8754 -0.9437
 4877SOL    HW226091   3.141   3.352  15.117  0.3788  0.1484 -0.8506
 4878SOL     OW26092   3.987   3.391   2.217 -0.5168 -0.0417 -0.3899
 4878SOL    HW126093   3.927   3.436   2.158 -0.1054  2.5849  1.1741
 4878SOL    HW226094   4.030   3.333   2.154 -0.5845 -0.2163 -0.2756
 4879SOL     OW26095   3.116   2.859  15.364 -0.0635 -0.2254  0.1650
 4879SOL    HW126096   3.081   2.850  15.452  0.6815 -0.4201  0.4417
 4879SOL    HW226097   3.187   2.795  15.363  0.8008  0.7461 -1.4397
 4880SOL     OW26098   2.103   1.907   4.957 -0.0896  0.5307  0.1224
 4880SOL    HW126099   2.169   1.844   4.986  0.2674  0.7527 -0.2148
 4880SOL    HW226100   2.075   1.934   5.045  1.1761 -2.6774  1.4910
 4881SOL     OW26101   3.624   0.083   3.487 -0.0408 -0.4602 -0.1387
 4881SOL    HW126102   3.555   0.128   3.438 -0.7388 -4.4011 -2.7781
 4881SOL    HW226103   3.698   0.143   3.488 -1.0663  0.8177 -0.5182
 4882SOL     OW26104   2.663   3.840   8.377  0.3516  0.5552  0.1917
 4882SOL    HW126105   2.632   3.895   8.449  0.0900  0.6285  0.0198
 4882SOL    HW226106   2.612   3.868   8.301 -0.3793 -0.5433  0.2704
 4883SOL     OW26107   0.904   4.027   8.042 -0.1849  0.1284 -0.4779
 4883SOL    HW126108   0.811   4.025   8.063  0.0710 -0.4080  0.6043
 4883SOL    HW226109   0.929   4.109   8.085 -1.1455  0.9996 -1.5604
 4884SOL     OW26110   1.611   4.609   5.444  0.5380  0.2520 -0.3056
 4884SOL    HW126111   1.670   4.644   5.377  1.0698  0.6251  0.3527
 4884SOL    HW226112   1.608   4.680   5.509  0.9365 -0.5939  0.6504
 4885SOL     OW26113   2.258   2.721  16.129 -0.0709  0.6120  0.9306
 4885SOL    HW126114   2.288   2.810  16.108  1.3997 -0.2146 -0.4476
 4885SOL    HW226115   2.176   2.733  16.177  0.0993  0.7519  1.1909
 4886SOL     OW26116   4.034   4.201   9.247 -0.6503  0.4642  0.2740
 4886SOL    HW126117   3.977   4.210   9.323  1.1784  1.5854  1.5102
 4886SOL    HW226118   4.058   4.293   9.242 -1.6463  0.6990  0.0141
 4887SOL     OW26119   3.876   3.087  10.112  0.9760  0.4123 -0.1497
 4887SOL    HW126120   3.879   3.013  10.172  0.5662  1.1015  0.7177
 4887SOL    HW226121   3.968   3.111  10.108  1.1343 -0.2993 -1.0204
 4888SOL     OW26122   4.135   0.577   8.380  0.7777  0.0141 -0.1376
 4888SOL    HW126123   4.055   0.629   8.368  2.3025  2.2053 -0.7919
 4888SOL    HW226124   4.126   0.514   8.309 -0.0308 -0.2209  0.1662
 4889SOL     OW26125   4.230   0.067  10.763 -0.5748  0.0807 -0.2775
 4889SOL    HW126126   4.267   0.146  10.723 -0.8160  0.0830 -0.4940
 4889SOL    HW226127   4.224   0.007  10.688  0.2805  0.3580 -0.5702
 4890SOL     OW26128   1.616   1.056   1.759  0.0587 -0.1328  0.2284
 4890SOL    HW126129   1.627   1.071   1.665 -1.5291  0.4977  0.1502
 4890SOL    HW226130   1.590   1.138   1.799  0.1934 -0.5225  1.1224
 4891SOL     OW26131   1.720   2.905   1.346 -0.0027  0.0856  0.6141
 4891SOL    HW126132   1.703   2.908   1.252  1.7803 -1.7832  0.2287
 4891SOL    HW226133   1.656   2.965   1.384 -0.7211  0.0647 -0.5653
 4892SOL     OW26134   4.595   4.599   6.015  0.2845  0.5793  0.5204
 4892SOL    HW126135   4.601   4.649   5.934  1.9904 -2.4123 -1.1853
 4892SOL    HW226136   4.605   4.665   6.084 -1.6996 -0.5818  1.9309
 4893SOL     OW26137   0.882   1.173   5.028  0.0105  0.0229  0.3710
 4893SOL    HW126138   0.826   1.153   5.103  0.6047 -1.7562  0.3373
 4893SOL    HW226139   0.817   1.226   4.982 -2.0946 -1.7555  1.3472
 4894SOL     OW26140   3.776   4.091  14.094 -0.5953  0.6377 -0.0039
 4894SOL    HW126141   3.784   4.018  14.155 -2.3990 -0.2663 -0.8553
 4894SOL    HW226142   3.816   4.059  14.013  1.1845  0.8890  0.7786
 4895SOL     OW26143   3.385   4.057   2.518 -0.1551  0.0952  0.4170
 4895SOL    HW126144   3.312   4.047   2.457 -0.3786 -1.5934  0.9412
 4895SOL    HW226145   3.337   4.089   2.594 -0.2805  0.4529  0.1844
 4896SOL     OW26146   1.970   2.476   6.866 -0.6419 -0.3256  0.7137
 4896SOL    HW126147   2.056   2.439   6.845 -0.9273  0.0958 -1.2042
 4896SOL    HW226148   1.915   2.420   6.811  2.1173 -0.8486 -1.5578
 4897SOL     OW26149   3.724   1.397  12.384  0.2127  0.6990  0.0584
 4897SOL    HW126150   3.633   1.389  12.357  0.8984  1.8162 -2.6088
 4897SOL    HW226151   3.727   1.411  12.479 -0.5450  1.4927 -0.0384
 4898SOL     OW26152   4.628   2.602   2.879 -0.3360 -0.0102 -0.3915
 4898SOL    HW126153   4.706   2.550   2.896 -0.8845 -0.0276  2.0151
 4898SOL    HW226154   4.652   2.619   2.788  1.8129 -0.9587  0.0020
 4899SOL     OW26155   2.245   2.499   3.142  0.0457  0.4218  0.4817
 4899SOL    HW126156   2.255   2.502   3.237  1.1986  0.6938  0.3603
 4899SOL    HW226157   2.329   2.535   3.111 -0.1208  0.4468  0.0668
 4900SOL     OW26158   1.387   0.113  17.603  0.3103 -0.2296 -0.2623
 4900SOL    HW126159   1.298   0.130  17.574 -0.6846 -1.7762  1.9066
 4900SOL    HW226160   1.416   0.046  17.541  1.5670 -0.6707  0.7966
 4901SOL     OW26161   0.855   3.068  14.078 -0.0433 -0.0264 -0.5920
 4901SOL    HW126162   0.829   2.997  14.019  1.5605 -0.8960 -0.2568
 4901SOL    HW226163   0.775   3.077  14.129 -0.9666 -0.4835 -1.9639
 4902SOL     OW26164   0.597   0.010   5.975  0.2573  0.6942  0.2413
 4902SOL    HW126165   0.598   4.670   5.904  2.0605 -0.3843  1.2184
 4902SOL    HW226166   0.634   4.681   6.046  0.9541  1.5754  0.5327
 4903SOL     OW26167   2.917   2.677  10.183  0.2223 -0.1588 -0.2365
 4903SOL    HW126168   2.912   2.613  10.112 -1.9870  0.2343 -0.4299
 4903SOL    HW226169   3.003   2.709  10.157 -1.1550  2.3660 -1.6128
 4904SOL     OW26170   4.387   3.102   4.510 -0.5270  0.6698  0.2251
 4904SOL    HW126171   4.327   3.028   4.521 -2.3424  2.0780 -0.3464
 4904SOL    HW226172   4.425   3.087   4.597 -0.2364 -1.7308 -0.3216
 4905SOL     OW26173   2.769   1.065   1.122  0.0168 -0.0519  0.1899
 4905SOL    HW126174   2.778   1.156   1.149 -0.3047  0.4134 -1.2888
 4905SOL    HW226175   2.833   1.057   1.052 -0.0112  3.9020 -0.2911
 4906SOL     OW26176   3.736   1.223   1.683 -0.9697  0.1909  0.2277
 4906SOL    HW126177   3.720   1.132   1.661  2.1238 -0.3147  0.0042
 4906SOL    HW226178   3.678   1.240   1.758 -1.1575 -0.6763  0.2744
 4907SOL     OW26179   3.909   3.163   7.772 -0.2116  0.2639 -0.5917
 4907SOL    HW126180   3.857   3.128   7.700 -0.0127 -0.1547 -0.5353
 4907SOL    HW226181   3.915   3.251   7.734 -1.9258  1.0116  0.8461
 4908SOL     OW26182   2.127   1.686   1.841  0.6518  0.1715  0.1829
 4908SOL    HW126183   2.052   1.685   1.899  0.7868 -0.4192  0.3512
 4908SOL    HW226184   2.100   1.606   1.794 -0.4091  2.0483 -2.4045
 4909SOL     OW26185   0.262   3.309  16.537  0.2836 -0.4718  0.0940
 4909SOL    HW126186   0.318   3.354  16.474 -0.5325  1.7230  0.9221
 4909SOL    HW226187   0.316   3.332  16.613  0.9477  1.8755 -1.0900
 4910SOL     OW26188   4.595   4.481   2.124  0.1114  0.2604 -0.4372
 4910SOL    HW126189   4.614   4.388   2.116 -0.1771  0.1418  0.2741
 4910SOL    HW226190   4.640   4.501   2.042  1.2541  1.0991  0.3788
 4911SOL     OW26191   4.506   1.910   5.311 -0.0110  0.6526  0.0003
 4911SOL    HW126192   4.526   1.955   5.393  0.5975  0.7315 -0.1942
 4911SOL    HW226193   4.504   1.818   5.334 -1.2901  0.7669  0.3522
 4912SOL     OW26194   3.312   2.728   7.585  0.2787  0.0351  0.3627
 4912SOL    HW126195   3.398   2.686   7.577  1.1966  1.9602  0.1072
 4912SOL    HW226196   3.261   2.666   7.637 -0.0635  1.6243  1.9278
 4913SOL     OW26197   0.279   4.341   7.221  0.1125  0.4770 -0.2051
 4913SOL    HW126198   0.295   4.257   7.179  1.2670 -0.0440  1.2782
 4913SOL    HW226199   0.370   4.372   7.226  0.0631  0.8240 -1.3854
 4914SOL     OW26200   0.328   0.728   2.403 -0.4604  0.0793 -0.6380
 4914SOL    HW126201   0.235   0.740   2.423  0.0380  0.1862  1.6526
 4914SOL    HW226202   0.352   0.645   2.442 -1.3503  0.6062  1.0437
 4915SOL     OW26203   1.931   2.046   6.496  0.5828  0.1408  0.1761
 4915SOL    HW126204   1.929   2.098   6.416  0.0224  0.5882  0.4829
 4915SOL    HW226205   2.018   2.071   6.529 -0.9017  4.1419  1.0092
 4916SOL     OW26206   2.796   1.510  15.526  0.2603  0.4572 -0.3553
 4916SOL    HW126207   2.793   1.606  15.523  2.0734  0.5930  2.0706
 4916SOL    HW226208   2.847   1.491  15.605  0.1886 -0.3764 -0.5067
 4917SOL     OW26209   0.753   3.911   3.376  0.2220 -0.0175  0.2217
 4917SOL    HW126210   0.751   3.938   3.468 -1.2461  1.7933 -0.3362
 4917SOL    HW226211   0.772   3.818   3.392 -3.6716 -0.8628 -0.1110
 4918SOL     OW26212   3.087   1.486   5.955 -0.1240  0.3301 -0.2631
 4918SOL    HW126213   3.090   1.578   5.927  1.5770  1.1609  2.6256
 4918SOL    HW226214   2.996   1.487   5.982  0.0569 -0.4171  0.3724
 4919SOL     OW26215   0.867   4.673   3.137 -0.3142 -0.5441  0.2996
 4919SOL    HW126216   0.799   4.633   3.192  0.4602 -0.2190  1.4871
 4919SOL    HW226217   0.817   4.681   3.056  0.2492  2.2445  0.2556
 4920SOL     OW26218   1.452   0.225  17.038 -0.0173  0.0408  0.0659
 4920SOL    HW126219   1.535   0.261  17.009  1.6449 -2.2748  1.9955
 4920SOL    HW226220   1.444   0.280  17.116 -1.4064  0.8528 -0.6514
 4921SOL     OW26221   0.377   4.090   1.165 -0.4883  0.1868 -0.5971
 4921SOL    HW126222   0.289   4.102   1.200  0.3202 -0.3301  1.6141
 4921SOL    HW226223   0.364   4.137   1.083 -0.3586  1.1058 -0.0916
 4922SOL     OW26224   2.122   4.108   8.431  0.7245  0.1887 -0.4408
 4922SOL    HW126225   2.040   4.098   8.480  0.2864 -0.1556 -1.2453
 4922SOL    HW226226   2.148   4.016   8.427  0.1646  0.0209 -0.2282
 4923SOL     OW26227   2.126   0.839  10.662 -0.2865  0.8338 -0.5661
 4923SOL    HW126228   2.134   0.747  10.635 -0.6470  0.4992  0.4562
 4923SOL    HW226229   2.140   0.887  10.581 -2.5860  0.8171 -0.9833
 4924SOL     OW26230   3.223   0.400   2.251 -0.2394 -0.6286 -0.3105
 4924SOL    HW126231   3.203   0.345   2.176 -0.1226  0.0469 -0.8407
 4924SOL    HW226232   3.141   0.437   2.284 -1.4774 -1.8410 -2.0581
 4925SOL     OW26233   3.650   2.964   2.785  0.4034  0.1075 -0.0749
 4925SOL    HW126234   3.701   3.024   2.731 -1.0266  1.4243  0.0370
 4925SOL    HW226235   3.635   3.020   2.860  2.0200 -0.0542  0.3796
 4926SOL     OW26236   4.433   3.306  13.382 -0.2526  0.0523  0.2158
 4926SOL    HW126237   4.473   3.221  13.364  1.1448  0.5344  0.9631
 4926SOL    HW226238   4.360   3.320  13.323 -0.6620 -0.7168  0.5472
 4927SOL     OW26239   0.443   2.139   8.262  0.3610  0.0415 -0.7624
 4927SOL    HW126240   0.464   2.069   8.199 -0.4253 -1.6834  0.9038
 4927SOL    HW226241   0.353   2.123   8.289  0.0045 -0.9856 -2.5817
 4928SOL     OW26242   4.183   4.669   5.595  0.5413 -0.0806  0.0515
 4928SOL    HW126243   4.092   4.698   5.594  0.3228 -0.8018 -2.1636
 4928SOL    HW226244   4.167   4.580   5.627  0.0355  0.3548  1.0196
 4929SOL     OW26245   1.705   2.267   7.692 -0.2129  0.0982  0.0013
 4929SOL    HW126246   1.760   2.334   7.734  1.9919 -0.3435 -2.1957
 4929SOL    HW226247   1.617   2.298   7.713 -1.1446 -1.5979 -1.4338
 4930SOL     OW26248   4.421   1.980   1.645 -0.1547  0.4044  0.0410
 4930SOL    HW126249   4.379   1.925   1.579  0.0428  0.4529 -0.1234
 4930SOL    HW226250   4.343   1.981   1.701  0.5792  0.1483  1.0719
 4931SOL     OW26251   4.168   4.205   8.004  0.2929  0.2256 -0.4450
 4931SOL    HW126252   4.092   4.264   8.009 -0.3747 -0.6627 -0.1700
 4931SOL    HW226253   4.244   4.262   7.999 -0.4056  1.1657 -0.3913
 4932SOL     OW26254   1.974   4.164  17.169  0.0992  0.6650 -0.7702
 4932SOL    HW126255   2.056   4.163  17.218 -0.8456 -4.0261  0.7062
 4932SOL    HW226256   1.986   4.220  17.092 -1.6772  0.0783 -1.4668
 4933SOL     OW26257   4.570   3.156   7.509  0.2492 -0.9752  0.2993
 4933SOL    HW126258   4.528   3.241   7.494  0.9891 -0.9931 -1.8587
 4933SOL    HW226259   4.601   3.176   7.597 -1.4320 -0.4514  0.7644
 4934SOL     OW26260   3.897   4.335   3.113 -0.1922 -0.1956  0.0831
 4934SOL    HW126261   3.962   4.322   3.044 -0.1066  1.2181 -0.1065
 4934SOL    HW226262   3.908   4.255   3.163 -3.3384 -0.3572  0.5061
 4935SOL     OW26263   0.886   0.996   9.377  0.2247 -0.2127  0.1054
 4935SOL    HW126264   0.879   1.075   9.323  1.4018 -0.2721 -0.1219
 4935SOL    HW226265   0.829   1.019   9.451 -0.6778  0.1649 -0.7012
 4936SOL     OW26266   0.996   2.972   3.574  0.1352  0.1195 -0.5665
 4936SOL    HW126267   0.917   2.921   3.556 -0.0848  0.8229 -1.5645
 4936SOL    HW226268   0.983   3.010   3.661 -0.9946 -0.9797 -0.2481
 4937SOL     OW26269   0.734   3.600   5.811  0.0842  0.3172 -0.4035
 4937SOL    HW126270   0.683   3.630   5.735 -1.1255 -2.5456 -0.7260
 4937SOL    HW226271   0.765   3.516   5.777 -0.7406 -0.4085  0.6410
 4938SOL     OW26272   0.822   3.390   8.917 -0.2619  0.1581  0.0245
 4938SOL    HW126273   0.729   3.377   8.898 -0.0924  0.2812 -0.8982
 4938SOL    HW226274   0.820   3.436   9.001 -0.4671  0.0475  0.0811
 4939SOL     OW26275   0.600   1.532   9.210  0.2355  0.1858 -0.3037
 4939SOL    HW126276   0.536   1.476   9.255  1.0769 -1.1346 -0.7764
 4939SOL    HW226277   0.621   1.490   9.127 -1.0800  1.9474 -1.5272
 4940SOL     OW26278   3.796   0.804  13.767  0.0253 -0.4961 -0.0901
 4940SOL    HW126279   3.766   0.843  13.849  1.8135  1.6891 -0.4811
 4940SOL    HW226280   3.808   0.880  13.710 -1.3569 -0.5688 -0.4738
 4941SOL     OW26281   2.318   3.206  14.564  0.5430 -0.1406 -0.0637
 4941SOL    HW126282   2.348   3.176  14.650 -0.7885 -3.9995 -0.9564
 4941SOL    HW226283   2.224   3.189  14.571  0.1770  1.4703 -1.0239
 4942SOL     OW26284   0.397   0.883   3.740 -0.3551  0.1448  0.3212
 4942SOL    HW126285   0.354   0.808   3.781 -0.5837  0.0552 -0.0831
 4942SOL    HW226286   0.382   0.865   3.647 -0.2511 -0.0188  0.3356
 4943SOL     OW26287   2.228   3.549   6.783  0.0643  0.1204  0.0988
 4943SOL    HW126288   2.201   3.509   6.866  1.0530  0.4925  0.5990
 4943SOL    HW226289   2.149   3.580   6.740 -0.5525 -1.0021  0.4153
 4944SOL     OW26290   0.644   3.560   7.597  0.3549  0.1903 -0.1197
 4944SOL    HW126291   0.669   3.519   7.680  0.4866 -2.9479 -1.7064
 4944SOL    HW226292   0.548   3.564   7.605  0.4888  1.0113  1.0531
 4945SOL     OW26293   0.926   2.834   5.624  0.2218 -0.1549  0.3168
 4945SOL    HW126294   0.868   2.884   5.682  1.0901 -0.1322  1.1611
 4945SOL    HW226295   0.939   2.753   5.673  1.9560 -0.4617 -0.6351
 4946SOL     OW26296   4.681   1.284   3.532  0.2542 -0.0710  0.6509
 4946SOL    HW126297   0.049   1.294   3.558  0.4803  3.7422 -1.5355
 4946SOL    HW226298   4.668   1.353   3.466  3.3484  2.3222  2.5770
 4947SOL     OW26299   1.239   1.926  17.405 -0.2427  0.4733 -0.5685
 4947SOL    HW126300   1.223   1.950  17.496 -1.0707 -0.5398 -0.4484
 4947SOL    HW226301   1.232   1.831  17.402  0.2197  0.3643  1.4001
 4948SOL     OW26302   2.767   0.621  13.578 -0.5354 -0.1100 -0.2442
 4948SOL    HW126303   2.856   0.599  13.551  0.4653  2.9447  0.5576
 4948SOL    HW226304   2.777   0.621  13.673  1.9136 -1.2594 -0.4885
 4949SOL     OW26305   4.080   2.709   3.562 -0.1380  0.4920 -0.4855
 4949SOL    HW126306   4.158   2.759   3.586 -0.0710  0.8270 -1.3781
 4949SOL    HW226307   4.052   2.671   3.645  1.6830 -2.0706 -1.0498
 4950SOL     OW26308   3.798   0.209   8.135  0.1072 -0.4025  0.1489
 4950SOL    HW126309   3.771   0.139   8.075  0.3844  0.4496 -0.9671
 4950SOL    HW226310   3.728   0.196   8.199  2.8152  1.2302  3.4023
 4951SOL     OW26311   2.015   1.913   0.436  0.0599  0.3799 -0.2607
 4951SOL    HW126312   2.073   1.859   0.380  1.9882  2.6762 -0.4773
 4951SOL    HW226313   2.032   2.007   0.428  2.3961  0.0829  1.0936
 4952SOL     OW26314   2.879   1.552   7.979  0.2772  0.6096 -0.1269
 4952SOL    HW126315   2.802   1.499   7.958  1.2638 -0.7715 -0.2661
 4952SOL    HW226316   2.919   1.569   7.893 -1.7236 -0.3538 -1.2562
 4953SOL     OW26317   3.307   3.060   7.696  1.0646 -0.0273 -0.1366
 4953SOL    HW126318   3.222   3.098   7.672  1.2018 -0.5378 -1.4201
 4953SOL    HW226319   3.300   2.999   7.769  1.6804 -0.9576 -0.8507
 4954SOL     OW26320   2.035   4.680   9.077  0.0708  0.3322 -0.6647
 4954SOL    HW126321   1.969   0.025   9.076  0.1455  0.3989 -1.5116
 4954SOL    HW226322   1.997   4.625   9.145  1.2514 -0.3102 -0.5143
 4955SOL     OW26323   0.808   4.389   7.214  0.1270 -0.3697 -0.5814
 4955SOL    HW126324   0.813   4.315   7.153  2.6674  2.1898 -3.5071
 4955SOL    HW226325   0.879   4.363   7.272 -0.4562 -2.9287 -1.0372
 4956SOL     OW26326   1.590   0.923   8.422  0.1759 -0.2405 -0.5813
 4956SOL    HW126327   1.676   0.929   8.462  0.1190 -0.1716 -0.4697
 4956SOL    HW226328   1.575   1.012   8.389  0.9942 -0.7681 -2.3949
 4957SOL     OW26329   3.124   0.583   9.237 -0.1441 -0.2425  0.0537
 4957SOL    HW126330   3.051   0.594   9.298 -0.2612 -2.2359  0.2637
 4957SOL    HW226331   3.149   0.675   9.225 -2.0682  0.4365  1.2649
 4958SOL     OW26332   0.383   1.599   4.463 -0.1415  0.1000  0.3450
 4958SOL    HW126333   0.371   1.512   4.502 -1.6702 -0.0453 -0.4527
 4958SOL    HW226334   0.473   1.624   4.483 -1.0289  1.5462  2.4418
 4959SOL     OW26335   3.615   1.255   1.907 -0.2568 -0.1261 -0.2017
 4959SOL    HW126336   3.662   1.333   1.937  0.4362  0.3084 -2.3940
 4959SOL    HW226337   3.624   1.187   1.974  2.2901  1.1513  0.7338
 4960SOL     OW26338   0.246   0.271   3.256  0.2780  0.2706 -0.2125
 4960SOL    HW126339   0.219   0.351   3.211  2.1787  1.5424  0.9075
 4960SOL    HW226340   0.229   0.197   3.198  0.4463 -1.2652  1.7131
 4961SOL     OW26341   4.327   1.949   7.334  0.9279 -0.6736  0.0040
 4961SOL    HW126342   4.303   1.871   7.384 -0.8573 -0.4013 -0.4347
 4961SOL    HW226343   4.290   1.925   7.249  0.2816 -1.1373  0.4163
 4962SOL     OW26344   2.660   0.237   6.074  0.0443  0.2237 -0.8704
 4962SOL    HW126345   2.721   0.286   6.129 -0.6962  2.0979 -1.7160
 4962SOL    HW226346   2.732   0.190   6.034 -1.9865 -2.0578 -1.8064
 4963SOL     OW26347   3.967   3.858   6.114  0.2796 -0.1241  0.2865
 4963SOL    HW126348   3.912   3.937   6.121 -1.0818 -0.7148 -3.6687
 4963SOL    HW226349   3.899   3.793   6.099  1.0529 -0.9583  0.4306
 4964SOL     OW26350   3.804   4.178   2.613  0.3535 -0.2375  0.9566
 4964SOL    HW126351   3.887   4.130   2.617  0.9890  0.9158  1.6128
 4964SOL    HW226352   3.786   4.157   2.521 -0.9878 -0.7218  1.3341
 4965SOL     OW26353   0.963   4.687   6.757 -0.2089  0.1135 -0.0155
 4965SOL    HW126354   0.942   0.026   6.687  0.1025  0.6330  0.3606
 4965SOL    HW226355   0.880   4.664   6.800 -0.5182 -2.0509 -1.7684
 4966SOL     OW26356   2.925   3.664   7.041 -0.7922  0.2153 -0.3267
 4966SOL    HW126357   2.856   3.724   7.014  0.1003  2.1850  1.7699
 4966SOL    HW226358   2.974   3.651   6.960 -0.5040  1.1801 -0.3089
 4967SOL     OW26359   0.301   4.608  12.543  0.1009  0.1155  0.7121
 4967SOL    HW126360   0.304   4.585  12.450 -1.5695  4.0555 -0.3043
 4967SOL    HW226361   0.210   4.609  12.573 -0.2939 -0.7605 -0.4878
 4968SOL     OW26362   1.879   2.062   2.868 -0.2874 -0.6291  0.1846
 4968SOL    HW126363   1.790   2.097   2.878 -0.0941 -0.3902  1.1341
 4968SOL    HW226364   1.872   2.030   2.779  2.0544 -2.2142  0.5744
 4969SOL     OW26365   2.561   2.938   9.095 -0.6860  0.3095  0.0270
 4969SOL    HW126366   2.606   3.022   9.086  0.2687 -0.0888  1.1198
 4969SOL    HW226367   2.471   2.956   9.125 -0.4553  1.6089 -0.0572
 4970SOL     OW26368   3.407   1.876   8.498 -0.2031  0.1460  0.2717
 4970SOL    HW126369   3.377   1.820   8.570  1.9701  0.6850  1.5952
 4970SOL    HW226370   3.390   1.818   8.423  2.5496 -1.0643  0.5834
 4971SOL     OW26371   2.558   2.964  12.376  0.0232  0.2827  0.4481
 4971SOL    HW126372   2.636   3.018  12.366  1.3046 -1.4956  0.7230
 4971SOL    HW226373   2.558   2.953  12.471 -0.5112  0.5844  0.4846
 4972SOL     OW26374   4.593   3.024   4.963 -0.0047  0.4694  0.4350
 4972SOL    HW126375   4.508   3.065   4.944 -0.7570  0.1576  3.2120
 4972SOL    HW226376   4.575   2.999   5.053  1.2186 -0.8597  0.3052
 4973SOL     OW26377   3.344   0.362   5.525  0.9986 -0.1614 -0.3054
 4973SOL    HW126378   3.329   0.334   5.435 -0.8062  0.5300 -0.2257
 4973SOL    HW226379   3.404   0.436   5.511  0.0894  0.7303  0.5342
 4974SOL     OW26380   3.526   1.975  12.553  0.6953 -0.5825  0.0795
 4974SOL    HW126381   3.474   2.011  12.481  0.4124  0.3583  0.7576
 4974SOL    HW226382   3.600   1.934  12.508  0.3155  0.1002 -1.1700
 4975SOL     OW26383   1.505   4.201   6.393  0.1707 -0.3387 -0.6925
 4975SOL    HW126384   1.544   4.183   6.479  1.0950 -0.1697 -1.0776
 4975SOL    HW226385   1.587   4.221   6.347  0.5403 -0.1933  0.0279
 4976SOL     OW26386   4.525   4.531   4.946  0.4631  0.1476 -0.1672
 4976SOL    HW126387   4.467   4.472   4.994  0.1901 -0.7835 -1.6377
 4976SOL    HW226388   4.576   4.465   4.898 -0.1564 -0.3351 -0.1523
 4977SOL     OW26389   2.523   2.470  13.643 -0.1429  0.0689  0.3900
 4977SOL    HW126390   2.533   2.561  13.614 -1.2142 -0.5908 -2.0185
 4977SOL    HW226391   2.440   2.479  13.691  0.9961  1.9956  2.0110
 4978SOL     OW26392   2.342   2.106   5.811  0.0545 -0.1036  0.1550
 4978SOL    HW126393   2.265   2.083   5.863 -0.1073  0.6250  0.2416
 4978SOL    HW226394   2.306   2.177   5.758  0.1079 -1.1740 -1.3033
 4979SOL     OW26395   3.094   2.418   6.970  0.2038 -0.1569 -0.1777
 4979SOL    HW126396   3.156   2.374   7.028  1.3415  0.3074 -1.0358
 4979SOL    HW226397   3.161   2.458   6.914 -0.5277 -0.2780 -1.1317
 4980SOL     OW26398   3.408   3.646   4.070 -0.1426 -0.7904 -0.3392
 4980SOL    HW126399   3.371   3.585   4.135 -0.2146  0.7294  1.0318
 4980SOL    HW226400   3.479   3.682   4.123 -0.9059 -0.1499  0.2518
 4981SOL     OW26401   4.689   2.364   7.391  0.5354  0.1882  0.4832
 4981SOL    HW126402   4.601   2.384   7.358  0.2489 -0.8021  0.6310
 4981SOL    HW226403   4.698   2.440   7.448 -1.1379  1.1704 -0.5487
 4982SOL     OW26404   3.593   4.150   9.431 -0.3951  0.5562  0.0097
 4982SOL    HW126405   3.596   4.074   9.489 -1.5384  0.7929  0.3862
 4982SOL    HW226406   3.542   4.217   9.476 -0.2996  0.1205  0.7562
 4983SOL     OW26407   2.119   2.945   2.103 -0.4530  0.2536  0.2288
 4983SOL    HW126408   2.143   3.029   2.141 -0.3834  1.9136 -3.5154
 4983SOL    HW226409   2.103   2.895   2.183  1.0710  0.4442  0.6611
 4984SOL     OW26410   0.262   0.862   9.441 -0.0341 -0.5482 -0.0063
 4984SOL    HW126411   0.324   0.849   9.512  0.2201  1.7947  0.2153
 4984SOL    HW226412   0.223   0.945   9.471  0.6086  0.1111 -0.9678
 4985SOL     OW26413   0.019   4.674   4.875  0.4529  0.1680 -0.1052
 4985SOL    HW126414   4.724   0.042   4.853  0.4077 -0.0471 -0.9895
 4985SOL    HW226415   4.667   4.625   4.906  0.0682 -0.6551 -2.3460
 4986SOL     OW26416   2.148   4.577   3.221  0.2634  0.3056 -0.1004
 4986SOL    HW126417   2.068   4.533   3.194  0.3896 -0.8581  1.3714
 4986SOL    HW226418   2.107   4.661   3.241  0.8712  0.6524 -0.3015
 4987SOL     OW26419   3.593   3.763   4.241  0.0518 -0.1398 -0.6076
 4987SOL    HW126420   3.629   3.716   4.316  1.0365  1.9206  0.1948
 4987SOL    HW226421   3.576   3.855   4.260 -0.6552 -0.6340  1.1920
 4988SOL     OW26422   4.012   0.371  14.586  0.2715 -0.2264  0.2141
 4988SOL    HW126423   3.942   0.314  14.552  1.1561 -1.1497 -0.0642
 4988SOL    HW226424   3.965   0.401  14.663  0.2599 -2.3859  1.0437
 4989SOL     OW26425   1.903   3.489   4.335  0.0677  0.3027  0.2339
 4989SOL    HW126426   1.926   3.422   4.270  0.0147  1.3877 -0.9190
 4989SOL    HW226427   1.823   3.528   4.301 -0.7889 -0.1320  1.7677
 4990SOL     OW26428   1.493   2.400   5.671  0.0237 -0.1905 -0.4055
 4990SOL    HW126429   1.542   2.412   5.752  2.4624  0.0756 -1.9227
 4990SOL    HW226430   1.416   2.350   5.698 -0.5931  0.8751 -0.1764
 4991SOL     OW26431   4.035   3.736   0.491 -0.0296  0.2582 -0.3607
 4991SOL    HW126432   3.973   3.664   0.485 -0.9580  0.9848  0.6481
 4991SOL    HW226433   3.997   3.815   0.453 -0.1653 -0.1419 -1.0729
 4992SOL     OW26434   3.271   3.980   8.079  0.0470 -0.1812  0.0671
 4992SOL    HW126435   3.195   3.930   8.048  0.3317 -1.5111  1.4914
 4992SOL    HW226436   3.343   3.930   8.039 -0.5188 -0.6783 -0.3366
 4993SOL     OW26437   3.147   3.508  16.508 -0.7026 -0.4920 -0.5153
 4993SOL    HW126438   3.101   3.591  16.502 -0.3232 -0.3841 -1.8337
 4993SOL    HW226439   3.097   3.476  16.583  0.0197 -0.3260  0.0438
 4994SOL     OW26440   3.586   1.179   8.313  0.0285 -0.6329  0.4459
 4994SOL    HW126441   3.616   1.170   8.404 -0.0347  0.1648  0.5390
 4994SOL    HW226442   3.528   1.255   8.309  0.2647 -0.4335  0.7921
 4995SOL     OW26443   4.468   4.216  12.389 -0.0973 -0.9193 -0.3966
 4995SOL    HW126444   4.547   4.225  12.442 -1.0773  1.2985  0.6736
 4995SOL    HW226445   4.398   4.262  12.434 -1.3601 -1.2076 -2.0914
 4996SOL     OW26446   1.730   1.605  13.924  0.2207  0.6044 -0.0883
 4996SOL    HW126447   1.801   1.540  13.925 -0.1240  0.2271 -0.1587
 4996SOL    HW226448   1.775   1.689  13.932 -1.0067  1.1392  1.1536
 4997SOL     OW26449   4.444   2.241   4.644 -0.2106  0.8474  0.2618
 4997SOL    HW126450   4.471   2.183   4.573 -3.1624 -0.6527  0.3894
 4997SOL    HW226451   4.452   2.322   4.593  2.1030  0.3892 -0.1249
 4998SOL     OW26452   2.737   3.649   2.178 -0.4825  0.2493  0.0085
 4998SOL    HW126453   2.812   3.667   2.235 -0.6342 -1.9773  0.8955
 4998SOL    HW226454   2.747   3.557   2.153  0.8710  0.9576 -2.1220
 4999SOL     OW26455   1.168   2.932   2.338  0.5694  0.3277 -0.0718
 4999SOL    HW126456   1.232   2.882   2.288 -2.4650 -1.9336 -1.7418
 4999SOL    HW226457   1.080   2.897   2.323  0.2244  1.7246 -1.3691
 5000SOL     OW26458   4.247   2.225   7.942  0.4650  0.3537  0.0999
 5000SOL    HW126459   4.240   2.221   7.846  0.4350  1.2205  0.0708
 5000SOL    HW226460   4.196   2.147   7.965  1.3159 -1.0483 -2.7075
 5001SOL     OW26461   2.717   2.905   6.998 -0.5712 -0.1226 -0.2647
 5001SOL    HW126462   2.635   2.952   6.982  0.9338  3.4300  2.4112
 5001SOL    HW226463   2.740   2.887   6.907  1.9654  2.8445 -0.1961
 5002SOL     OW26464   1.913   0.860   5.750 -0.0703 -0.0993 -0.2922
 5002SOL    HW126465   1.835   0.830   5.796  1.3429 -4.3543 -0.6337
 5002SOL    HW226466   1.888   0.890   5.663 -1.9093  0.9475  0.6091
 5003SOL     OW26467   1.412   2.069  17.274 -0.2727  0.3956 -0.1312
 5003SOL    HW126468   1.350   2.016  17.324 -1.4097  1.6489 -0.2013
 5003SOL    HW226469   1.458   2.002  17.224 -1.1446  0.7343 -1.4006
 5004SOL     OW26470   3.715   2.207  11.341  0.0840  0.0874 -0.8674
 5004SOL    HW126471   3.676   2.234  11.258 -0.6082  1.6547 -0.0286
 5004SOL    HW226472   3.777   2.157  11.289 -0.1962 -0.9937 -0.1648
 5005SOL     OW26473   0.933   1.201   1.924  0.1994  0.1186  0.2920
 5005SOL    HW126474   1.027   1.216   1.921 -0.0770  1.4507 -2.0425
 5005SOL    HW226475   0.905   1.245   2.004 -1.6252 -0.4413 -0.0390
 5006SOL     OW26476   0.827   0.736   0.285  0.2724  0.2982  0.0557
 5006SOL    HW126477   0.816   0.824   0.250  0.0024  0.8903  1.6019
 5006SOL    HW226478   0.743   0.728   0.330  0.9855 -0.2121  1.3126
 5007SOL     OW26479   0.606   2.066   4.000  0.2869  0.5777 -0.3868
 5007SOL    HW126480   0.662   1.999   3.961 -0.2136  0.3370 -0.6926
 5007SOL    HW226481   0.582   2.034   4.088 -1.0758  1.7030 -0.3456
 5008SOL     OW26482   2.759   1.212   2.666 -0.2184 -0.2996  0.4261
 5008SOL    HW126483   2.688   1.236   2.606 -0.5916  0.0590  1.0011
 5008SOL    HW226484   2.780   1.125   2.632  1.3036 -0.2520  1.2322
 5009SOL     OW26485   1.548   0.994   0.393  0.2671 -0.0178 -0.4237
 5009SOL    HW126486   1.541   0.917   0.449 -1.0704 -0.5612 -1.3533
 5009SOL    HW226487   1.485   0.980   0.322 -0.5239  2.0212 -0.1285
 5010SOL     OW26488   3.599   1.330   8.877 -0.2168  0.3385  0.1939
 5010SOL    HW126489   3.599   1.385   8.954 -0.1090  1.0050 -0.2841
 5010SOL    HW226490   3.541   1.264   8.916 -1.4004  0.7252 -0.8868
 5011SOL     OW26491   0.725   1.751  14.684 -0.1463 -0.4097  0.0594
 5011SOL    HW126492   0.726   1.826  14.743  2.8292  0.6662 -1.3291
 5011SOL    HW226493   0.662   1.778  14.617 -0.7656  0.3752  0.9692
 5012SOL     OW26494   3.261   1.373  13.080 -0.0653 -0.1905 -0.1424
 5012SOL    HW126495   3.284   1.309  13.013 -1.1239  0.6796 -1.3409
 5012SOL    HW226496   3.322   1.361  13.152 -1.8064 -0.0637  1.3696
 5013SOL     OW26497   0.695   4.630   9.109  0.6324  0.4869 -0.2830
 5013SOL    HW126498   0.757   4.654   9.178  2.4875  1.7595 -2.4373
 5013SOL    HW226499   0.610   4.656   9.145 -0.2845  0.4378 -2.4500
 5014SOL     OW26500   4.493   3.966  14.479  0.0268  0.9207  0.0874
 5014SOL    HW126501   4.488   3.916  14.561  3.0775 -0.9009 -0.8028
 5014SOL    HW226502   4.577   4.011  14.488 -0.0752  0.7639  1.8049
 5015SOL     OW26503   4.137   2.182   5.083 -0.8130 -0.4561 -0.1076
 5015SOL    HW126504   4.158   2.205   4.992  0.2404  1.6927  0.6692
 5015SOL    HW226505   4.209   2.121   5.098 -1.4791 -1.3847 -0.6653
 5016SOL     OW26506   0.996   0.738  16.980 -0.0691 -0.1997 -0.6547
 5016SOL    HW126507   1.028   0.649  16.965 -0.7757 -0.7993  1.4071
 5016SOL    HW226508   1.067   0.790  16.942 -1.4318  0.8112 -1.8183
 5017SOL     OW26509   2.140   3.385   6.975  0.0936  0.6963  0.6911
 5017SOL    HW126510   2.099   3.308   6.936 -3.0133  2.0499  1.2847
 5017SOL    HW226511   2.110   3.381   7.065  0.6584  0.6183  0.8773
 5018SOL     OW26512   1.386   4.626   3.983  0.3129 -0.0559  0.1896
 5018SOL    HW126513   1.389   4.560   4.052 -0.2681 -0.3199 -0.0405
 5018SOL    HW226514   1.376   4.576   3.902 -1.6245 -0.1831  0.5314
 5019SOL     OW26515   2.441   2.023   7.525  0.1528  0.3773  0.4477
 5019SOL    HW126516   2.378   2.091   7.552  0.8214  1.3498 -0.4483
 5019SOL    HW226517   2.377   1.952   7.533  2.1454 -1.1824  2.3835
 5020SOL     OW26518   0.619   2.205   9.409 -0.5331 -0.3096 -0.0385
 5020SOL    HW126519   0.702   2.231   9.369 -1.2215 -1.1420 -2.0020
 5020SOL    HW226520   0.567   2.164   9.340 -0.5243  1.4821 -1.1052
 5021SOL     OW26521   1.395   1.548   5.659 -0.4820  0.5255 -0.1741
 5021SOL    HW126522   1.434   1.483   5.600  1.3198  1.1964  0.2980
 5021SOL    HW226523   1.407   1.500   5.742  0.2154  0.8829 -0.0682
 5022SOL     OW26524   0.125   4.200   1.221  0.7731 -0.4639  0.0915
 5022SOL    HW126525   0.141   4.271   1.160  0.5758  0.7605  1.4553
 5022SOL    HW226526   0.097   4.249   1.299  0.3855  2.1873 -1.7097
 5023SOL     OW26527   3.803   1.925  11.963  0.4925 -0.1533 -0.3273
 5023SOL    HW126528   3.830   1.974  11.885  2.0654  0.7577  0.8070
 5023SOL    HW226529   3.817   1.995  12.026 -1.0190 -0.4546  0.3352
 5024SOL     OW26530   0.756   3.769  16.131  0.2512 -0.0426  0.2318
 5024SOL    HW126531   0.784   3.819  16.207  2.2942 -1.8863  0.7060
 5024SOL    HW226532   0.663   3.760  16.148 -0.1798  1.1447 -1.5003
 5025SOL     OW26533   1.650   2.200   0.031 -0.4982 -0.2213 -0.1631
 5025SOL    HW126534   1.629   2.184  17.636  1.8745 -2.7709 -0.2788
 5025SOL    HW226535   1.732   2.248   0.023  0.9680 -2.9176 -1.3400
 5026SOL     OW26536   3.261   4.096   8.343 -0.0130 -0.3300  0.6018
 5026SOL    HW126537   3.313   4.081   8.265 -1.5688 -1.1752 -0.2883
 5026SOL    HW226538   3.331   4.131   8.398 -1.7503 -1.4257  3.5464
 5027SOL     OW26539   0.392   3.282  11.011 -0.0916 -0.5704 -0.2105
 5027SOL    HW126540   0.430   3.194  11.015 -1.7587 -1.2927 -0.3321
 5027SOL    HW226541   0.474   3.332  11.008  0.4498 -1.4965 -1.0165
 5028SOL     OW26542   1.276   3.210  14.447  0.4056 -0.3103  0.0676
 5028SOL    HW126543   1.282   3.297  14.486  0.1278  0.1894 -1.0063
 5028SOL    HW226544   1.312   3.230  14.361 -1.1214  3.2239  0.2592
 5029SOL     OW26545   2.255   1.696   8.010 -0.6545  0.0904  0.1199
 5029SOL    HW126546   2.197   1.715   8.084  3.0799  2.4756  2.4397
 5029SOL    HW226547   2.227   1.757   7.942 -0.2913 -1.3087 -1.2819
 5030SOL     OW26548   2.936   0.830   3.078 -0.4319 -0.0109 -0.7105
 5030SOL    HW126549   2.853   0.848   3.034 -0.1629  2.4160 -0.2520
 5030SOL    HW226550   2.981   0.777   3.013 -1.1003 -0.2396 -0.9871
 5031SOL     OW26551   2.463   1.242   2.051  0.3911 -0.4888 -0.4607
 5031SOL    HW126552   2.498   1.273   2.135 -0.6271 -1.4933  0.3284
 5031SOL    HW226553   2.391   1.303   2.033  1.3816  1.0031  0.6551
 5032SOL     OW26554   1.722   2.161   3.167  0.1988 -0.5428 -0.2546
 5032SOL    HW126555   1.670   2.164   3.087  0.0614  1.3934 -0.1132
 5032SOL    HW226556   1.691   2.238   3.216  1.3988 -0.3321  0.1857
 5033SOL     OW26557   2.543   4.535   4.934 -0.1478 -0.5262  0.1191
 5033SOL    HW126558   2.498   4.534   5.018 -1.2853  0.2120 -0.4880
 5033SOL    HW226559   2.565   4.628   4.940 -0.6161 -0.5385  1.9008
 5034SOL     OW26560   0.772   4.341   6.813 -0.3691 -0.3358 -0.1828
 5034SOL    HW126561   0.811   4.318   6.897 -0.5766  3.0942  0.8630
 5034SOL    HW226562   0.708   4.409   6.835  0.3850 -0.6857  3.1381
 5035SOL     OW26563   3.152   3.877   6.900 -0.3681  0.6018  0.0188
 5035SOL    HW126564   3.136   3.962   6.941  1.0271  1.7818 -1.8826
 5035SOL    HW226565   3.230   3.852   6.950 -0.2850 -0.2592 -0.5378
 5036SOL     OW26566   2.789   2.372   4.525 -0.3646  0.0865 -0.0044
 5036SOL    HW126567   2.837   2.415   4.454 -0.5616 -1.6282 -1.1769
 5036SOL    HW226568   2.769   2.290   4.479 -0.2625 -0.0452  0.1874
 5037SOL     OW26569   3.325   1.004   5.879  0.3440  0.2307 -0.5171
 5037SOL    HW126570   3.287   0.991   5.791  2.4192 -1.9474 -1.0995
 5037SOL    HW226571   3.280   1.083   5.907  1.1446  0.4490  0.1436
 5038SOL     OW26572   4.555   2.225  17.258  0.2673  0.6805 -0.2421
 5038SOL    HW126573   4.568   2.320  17.257 -1.9181  0.9964  0.5282
 5038SOL    HW226574   4.573   2.212  17.351  4.5097  1.8248 -0.9234
 5039SOL     OW26575   3.520   1.124   6.177 -0.2751  0.1729 -0.0913
 5039SOL    HW126576   3.605   1.153   6.209 -0.2258 -0.6526  0.5132
 5039SOL    HW226577   3.545   1.081   6.095  2.2085 -0.1150  0.8196
 5040SOL     OW26578   1.178   3.287   8.405  0.4296  0.3375 -0.9381
 5040SOL    HW126579   1.093   3.261   8.442  0.1809 -1.0128 -2.4231
 5040SOL    HW226580   1.176   3.382   8.405  2.8727  0.3754 -0.4678
 5041SOL     OW26581   2.652   3.266  12.803 -0.3090  0.2762  0.6875
 5041SOL    HW126582   2.729   3.310  12.767 -1.3045  0.2708 -1.4857
 5041SOL    HW226583   2.680   3.175  12.806  1.1256  0.6059 -3.4552
 5042SOL     OW26584   0.867   3.400   6.295 -0.3956 -0.1694 -0.1690
 5042SOL    HW126585   0.918   3.384   6.216 -0.3462 -2.8674  0.4105
 5042SOL    HW226586   0.932   3.414   6.363  0.7118 -0.1872 -1.2156
 5043SOL     OW26587   0.779   1.441   5.674 -0.0168  0.5772  0.2050
 5043SOL    HW126588   0.797   1.404   5.761 -0.7426 -2.0673 -0.7537
 5043SOL    HW226589   0.836   1.392   5.615 -0.7740 -2.1624  1.7328
 5044SOL     OW26590   3.105   4.076   4.608 -0.0406 -0.3754 -0.0511
 5044SOL    HW126591   3.159   4.044   4.535 -1.6296  1.7069 -2.1299
 5044SOL    HW226592   3.025   4.080   4.556 -0.5122 -0.8768  0.6436
 5045SOL     OW26593   4.664   1.487   6.134  0.0576 -0.0435 -0.5202
 5045SOL    HW126594   0.024   1.533   6.132 -0.5167  0.9635 -1.5894
 5045SOL    HW226595   4.648   1.482   6.228 -2.1410 -1.2361 -0.9531
 5046SOL     OW26596   1.536   3.189   7.622 -0.0771  0.6793  0.6908
 5046SOL    HW126597   1.512   3.259   7.561 -1.7697 -0.2802  0.2554
 5046SOL    HW226598   1.588   3.233   7.689 -1.8426  2.2899  0.9886
 5047SOL     OW26599   4.370   3.494  17.121  0.2861  0.0846  0.1636
 5047SOL    HW126600   4.364   3.574  17.174  1.0012 -0.1424  0.5754
 5047SOL    HW226601   4.465   3.492  17.119  0.2436  0.2508 -1.9912
 5048SOL     OW26602   4.134   0.478   1.492 -0.3930  0.0264  0.0013
 5048SOL    HW126603   4.211   0.425   1.510 -0.9189 -0.7503 -0.0101
 5048SOL    HW226604   4.072   0.405   1.501 -1.9272  1.6285  2.2265
 5049SOL     OW26605   3.852   2.606  13.041 -0.1421  0.2402  0.3439
 5049SOL    HW126606   3.916   2.625  12.973  1.4055 -1.3365  1.3684
 5049SOL    HW226607   3.895   2.647  13.116  0.3637  2.5622 -1.2189
 5050SOL     OW26608   4.405   4.244   2.293  0.0216  0.0423  0.0391
 5050SOL    HW126609   4.449   4.310   2.347  0.9931 -0.5471 -0.0139
 5050SOL    HW226610   4.476   4.197   2.249 -0.0488 -0.7862  0.8130
 5051SOL     OW26611   0.039   1.225   2.545 -0.4486 -0.0943 -0.3237
 5051SOL    HW126612   4.702   1.156   2.519 -2.3707  1.3414  0.3951
 5051SOL    HW226613   0.117   1.170   2.548  0.5911  1.4616  1.2026
 5052SOL     OW26614   1.974   1.194   4.558  0.1162  0.1297  0.1905
 5052SOL    HW126615   1.958   1.113   4.509 -0.0244  0.8591 -0.9729
 5052SOL    HW226616   1.894   1.243   4.538  1.5238  1.2399 -2.6360
 5053SOL     OW26617   2.476   4.089   0.414 -0.0855  0.2462 -0.5909
 5053SOL    HW126618   2.500   4.083   0.506 -3.2648  2.1725  0.3932
 5053SOL    HW226619   2.396   4.139   0.432  0.6908  0.9322  0.9561
 5054SOL     OW26620   1.982   2.245   3.260  0.4558 -0.3734  0.8283
 5054SOL    HW126621   1.903   2.246   3.205  1.6475 -0.1581 -0.8794
 5054SOL    HW226622   2.037   2.225   3.185  0.4581 -1.5719  1.1592
 5055SOL     OW26623   1.100   0.780   5.336  0.0249  0.4123  0.3424
 5055SOL    HW126624   1.082   0.846   5.269 -0.7974  0.2041  0.3669
 5055SOL    HW226625   1.161   0.826   5.393  1.1751 -0.7393  0.0596
 5056SOL     OW26626   1.161   1.961   2.909 -0.2384 -0.1884 -0.0769
 5056SOL    HW126627   1.086   1.985   2.965 -0.6202  0.5804 -0.9181
 5056SOL    HW226628   1.138   2.011   2.831  0.2161  0.5423  0.2495
 5057SOL     OW26629   2.531   0.527   3.015 -0.1710  0.0081  0.4160
 5057SOL    HW126630   2.615   0.527   3.062  1.2922  3.0847 -2.1759
 5057SOL    HW226631   2.492   0.443   3.037  2.1885 -0.7451  1.7678
 5058SOL     OW26632   1.608   2.846  12.188 -0.6067  0.7790 -0.3771
 5058SOL    HW126633   1.672   2.861  12.257 -0.9311 -1.7336  0.4717
 5058SOL    HW226634   1.523   2.840  12.231 -0.5447 -0.3864 -0.4077
 5059SOL     OW26635   3.935   4.037   9.872  0.0344 -0.4724  0.2421
 5059SOL    HW126636   3.965   4.124   9.898 -2.2392 -0.3407  2.4588
 5059SOL    HW226637   3.865   4.025   9.937  0.4777 -0.4440  0.7216
 5060SOL     OW26638   3.220   0.379   3.325 -0.2950 -0.4254 -0.2655
 5060SOL    HW126639   3.137   0.389   3.371 -0.3511 -0.4579 -0.3595
 5060SOL    HW226640   3.211   0.442   3.253  0.7038  1.9521  1.7027
 5061SOL     OW26641   0.968   3.089   6.717  0.3887 -0.2415  0.0345
 5061SOL    HW126642   0.991   3.022   6.652  1.4833 -0.4832  0.6742
 5061SOL    HW226643   0.874   3.092   6.729  0.5406  1.0635  0.8210
 5062SOL     OW26644   2.546   3.497   4.111 -0.6015  0.2756  0.3256
 5062SOL    HW126645   2.598   3.540   4.044  1.3149 -1.0800  0.9437
 5062SOL    HW226646   2.507   3.574   4.152  1.1606  1.3714 -0.0808
 5063SOL     OW26647   2.825   1.164   8.667  0.1303  0.1367 -0.0921
 5063SOL    HW126648   2.745   1.153   8.718  0.8304  1.7691  1.3814
 5063SOL    HW226649   2.882   1.180   8.742  0.1307 -1.2557  0.1952
 5064SOL     OW26650   2.959   4.087   5.487  0.4257  0.7376  0.2993
 5064SOL    HW126651   3.004   4.157   5.534  0.3003 -0.5017  2.2456
 5064SOL    HW226652   3.026   4.065   5.421  1.3338  1.3235  1.0220
 5065SOL     OW26653   4.623   1.055   5.337 -0.2467 -0.5782 -0.0465
 5065SOL    HW126654   4.584   1.037   5.252 -2.2796  0.5459  0.6362
 5065SOL    HW226655   4.671   0.972   5.345  0.5343 -0.0041  1.2220
 5066SOL     OW26656   0.925   1.334  14.541  0.3594  0.3412  0.5492
 5066SOL    HW126657   0.963   1.386  14.470 -0.7345 -0.3871 -0.5513
 5066SOL    HW226658   0.890   1.407  14.592  0.6429  0.5233  0.4867
 5067SOL     OW26659   3.940   0.828   9.768  0.3035  0.0737 -0.1742
 5067SOL    HW126660   3.930   0.794   9.679 -0.0391 -1.0540  0.3010
 5067SOL    HW226661   3.931   0.747   9.817 -1.1540  0.8517  0.8430
 5068SOL     OW26662   1.238   2.010   7.215  0.1578  0.1176  0.7416
 5068SOL    HW126663   1.232   2.063   7.135 -1.4016 -1.4595 -0.2050
 5068SOL    HW226664   1.195   1.934   7.174 -0.7026  0.6402  0.6743
 5069SOL     OW26665   1.576   0.168   2.443 -0.4157 -0.3812 -0.4398
 5069SOL    HW126666   1.492   0.124   2.436  0.0433 -1.3689  0.1853
 5069SOL    HW226667   1.586   0.210   2.358 -0.7476  2.6524  1.0084
 5070SOL     OW26668   0.051   3.673   0.673  0.0026  0.2294  0.0311
 5070SOL    HW126669   4.720   3.742   0.637 -1.2379  0.1790  1.8025
 5070SOL    HW226670   0.078   3.626   0.595  0.1011  1.7750 -0.8698
 5071SOL     OW26671   0.306   2.500   0.564  0.6426 -0.2518 -0.0840
 5071SOL    HW126672   0.211   2.506   0.551  0.7765 -1.5629 -1.6623
 5071SOL    HW226673   0.325   2.594   0.571  1.7600 -0.4711 -0.1923
 5072SOL     OW26674   2.080   2.754   2.301 -0.0745 -0.7237 -0.3077
 5072SOL    HW126675   2.014   2.820   2.318 -0.0852 -0.6608 -0.6020
 5072SOL    HW226676   2.040   2.669   2.320  2.6406 -1.8003  0.6282
 5073SOL     OW26677   2.297   2.173   3.228  0.3545 -0.4041 -0.1912
 5073SOL    HW126678   2.261   2.217   3.151  0.4001  0.6711  0.3969
 5073SOL    HW226679   2.344   2.243   3.273  1.9190 -1.4947 -0.1113
 5074SOL     OW26680   1.496   4.466  16.053 -0.6794  0.8239  0.4417
 5074SOL    HW126681   1.466   4.553  16.079 -0.5168  0.8427  0.5657
 5074SOL    HW226682   1.575   4.472  16.107  1.6182  0.5586 -2.9222
 5075SOL     OW26683   1.147   2.589  10.990 -0.2507  0.0102 -0.3315
 5075SOL    HW126684   1.060   2.593  10.950 -0.9233  1.4691  1.2113
 5075SOL    HW226685   1.127   2.551  11.076 -1.2610  0.5202 -0.3300
 5076SOL     OW26686   2.440   1.676  13.865 -0.0463  0.0989  0.4391
 5076SOL    HW126687   2.522   1.723  13.881  1.3053 -2.6693  1.5157
 5076SOL    HW226688   2.447   1.628  13.947  0.6158 -1.0668 -0.3017
 5077SOL     OW26689   4.336   1.210   3.439 -0.1666  0.4482 -0.8567
 5077SOL    HW126690   4.375   1.252   3.515  0.0923 -0.8311 -0.2802
 5077SOL    HW226691   4.339   1.281   3.375 -1.6453  0.8003 -0.5414
 5078SOL     OW26692   0.843   2.272   8.889 -0.4574 -0.3349  0.4351
 5078SOL    HW126693   0.749   2.292   8.881 -0.6889 -0.3584  3.0376
 5078SOL    HW226694   0.875   2.358   8.861  1.3303 -0.7569  1.1954
 5079SOL     OW26695   1.621   3.699  11.576  0.3903 -0.0375  0.8076
 5079SOL    HW126696   1.535   3.672  11.543  0.5519  0.6258 -0.1490
 5079SOL    HW226697   1.596   3.765  11.640  0.1327 -0.7307  1.4256
 5080SOL     OW26698   1.542   3.563   7.734 -0.6663 -0.1312  0.4359
 5080SOL    HW126699   1.605   3.503   7.773  0.6812 -0.6017 -2.4798
 5080SOL    HW226700   1.460   3.519   7.756 -0.5712 -1.1170 -1.1960
 5081SOL     OW26701   2.475   0.710   8.067  0.0908 -0.6268  0.0270
 5081SOL    HW126702   2.566   0.691   8.043  0.1977 -1.2209  0.8795
 5081SOL    HW226703   2.478   0.672   8.155 -0.2199  0.3431  0.4452
 5082SOL     OW26704   1.124   0.338   7.496  0.1966  0.0299 -0.1667
 5082SOL    HW126705   1.159   0.384   7.419 -1.8048  1.3849 -0.2640
 5082SOL    HW226706   1.043   0.302   7.461 -0.3960  3.4448 -2.3023
 5083SOL     OW26707   2.702   0.622   6.349  0.0076 -0.1487  0.4010
 5083SOL    HW126708   2.639   0.619   6.421 -0.8217  0.8356 -0.2793
 5083SOL    HW226709   2.736   0.533   6.338  0.2824 -0.1423  1.1710
 5084SOL     OW26710   2.631   0.138   0.296  0.4824  0.4076  0.1796
 5084SOL    HW126711   2.726   0.151   0.300  0.2192  2.5642 -0.8986
 5084SOL    HW226712   2.607   0.219   0.341 -1.4232  1.2953 -2.4269
 5085SOL     OW26713   1.911   1.714  16.745  0.0335  0.4576  0.2575
 5085SOL    HW126714   1.922   1.746  16.834 -0.2720  0.3539  0.3331
 5085SOL    HW226715   1.899   1.621  16.759  3.8155  0.1757  1.4368
 5086SOL     OW26716   3.469   4.272  10.392 -0.8313  0.3592 -0.1652
 5086SOL    HW126717   3.385   4.231  10.373  0.1669  0.0258 -3.7322
 5086SOL    HW226718   3.520   4.259  10.312  1.2608 -2.1946  1.5708
 5087SOL     OW26719   3.522   1.800   9.052 -0.1402 -0.2577  0.1740
 5087SOL    HW126720   3.530   1.746   8.974 -1.4117 -0.3437  0.1052
 5087SOL    HW226721   3.537   1.734   9.120 -2.5782 -0.2618  0.7160
 5088SOL     OW26722   4.077   3.402  15.158 -0.0040 -1.3367  0.0987
 5088SOL    HW126723   4.129   3.471  15.199 -0.8937 -0.9849  0.6290
 5088SOL    HW226724   4.129   3.326  15.185 -0.5238 -0.3768  3.7178
 5089SOL     OW26725   2.209   2.084   9.272 -0.4314  0.2329 -0.3141
 5089SOL    HW126726   2.173   2.134   9.199 -1.4209  1.0588  0.7320
 5089SOL    HW226727   2.283   2.139   9.298  0.6430 -0.5970 -1.5990
 5090SOL     OW26728   3.947   2.336   3.614  0.1200  0.1622  0.2646
 5090SOL    HW126729   3.993   2.344   3.530  2.2573 -2.3591  1.1967
 5090SOL    HW226730   3.928   2.425   3.644  0.0393  0.3071 -0.2045
 5091SOL     OW26731   2.604   2.418   5.633  0.4460  0.4975 -0.1245
 5091SOL    HW126732   2.661   2.395   5.560  0.6556 -1.8585  0.7738
 5091SOL    HW226733   2.671   2.432   5.700 -1.4489  0.2006  1.8262
 5092SOL     OW26734   3.068   2.012  16.880 -0.3592 -0.9086  1.2651
 5092SOL    HW126735   2.990   2.068  16.880  1.7627  2.0775  0.7288
 5092SOL    HW226736   3.091   2.019  16.788  0.4956 -0.7513  1.4925
 5093SOL     OW26737   4.020   0.912   6.582  0.1209  0.2326  0.1066
 5093SOL    HW126738   4.047   0.918   6.490 -0.6715 -1.6873 -0.2561
 5093SOL    HW226739   4.030   0.818   6.595  2.2807  0.8343  2.8809
 5094SOL     OW26740   1.743   2.901  11.720  0.4454  0.8441  0.0632
 5094SOL    HW126741   1.836   2.911  11.744  0.9951 -0.6449 -1.4305
 5094SOL    HW226742   1.730   2.983  11.673 -0.4611  1.0179  0.6149
 5095SOL     OW26743   3.873   3.780   7.760  0.0190  0.0954  0.0653
 5095SOL    HW126744   3.842   3.762   7.849 -1.0028  1.5188 -0.0037
 5095SOL    HW226745   3.797   3.781   7.703 -0.5741  0.5309  0.8735
 5096SOL     OW26746   0.316   3.229   1.890 -0.3545 -0.8202  0.1027
 5096SOL    HW126747   0.262   3.216   1.812  0.2164 -3.4847  0.1609
 5096SOL    HW226748   0.350   3.142   1.910  1.6042 -0.6701 -2.5021
 5097SOL     OW26749   0.705   2.729   8.587 -0.1892  0.0817 -0.0660
 5097SOL    HW126750   0.635   2.728   8.522 -0.6665 -0.5552  0.4657
 5097SOL    HW226751   0.766   2.792   8.548  1.0645 -1.0553  0.0477
 5098SOL     OW26752   3.653   0.397   8.517 -0.3019  0.0968 -0.4855
 5098SOL    HW126753   3.652   0.492   8.525 -1.9747  0.0542 -0.1135
 5098SOL    HW226754   3.698   0.374   8.598 -1.7007  0.2475  0.3481
 5099SOL     OW26755   2.784   0.639   8.903  0.2006  0.0978 -0.4130
 5099SOL    HW126756   2.876   0.622   8.923  0.2367 -2.3062 -2.6648
 5099SOL    HW226757   2.754   0.554   8.870 -0.3949  0.0525  0.2434
 5100SOL     OW26758   3.888   2.991   7.325  0.5510  0.1947 -0.2670
 5100SOL    HW126759   3.928   3.037   7.251  0.8006 -0.8244 -0.7675
 5100SOL    HW226760   3.873   2.905   7.286 -0.0575  0.0337  0.3203
 5101SOL     OW26761   4.585   1.019   2.490 -0.0899  0.1472  0.4728
 5101SOL    HW126762   4.553   0.969   2.566 -0.4399  0.4908  0.5516
 5101SOL    HW226763   4.610   0.946   2.433  2.8084  1.9030 -0.4597
 5102SOL     OW26764   0.065   2.275   3.721  0.5423  0.6384 -0.8082
 5102SOL    HW126765   0.115   2.316   3.791  0.3076 -0.4002 -0.0308
 5102SOL    HW226766   0.034   2.198   3.769  1.2982 -0.1454 -1.5661
 5103SOL     OW26767   1.455   1.295   2.325  0.6208  0.3082 -0.4752
 5103SOL    HW126768   1.540   1.332   2.302 -0.2178  2.3759 -0.2330
 5103SOL    HW226769   1.424   1.351   2.396 -1.8212 -0.5007 -0.8985
 5104SOL     OW26770   3.997   1.610   2.088  0.5884  0.2392  0.5667
 5104SOL    HW126771   4.086   1.577   2.071 -0.0864 -1.6697  0.7022
 5104SOL    HW226772   3.984   1.680   2.025 -4.9489  0.2390  1.7508
 5105SOL     OW26773   1.256   1.885   2.381  0.3604 -0.2185  0.8932
 5105SOL    HW126774   1.259   1.802   2.428 -0.8037 -1.7719 -1.7408
 5105SOL    HW226775   1.209   1.858   2.302  2.3927 -1.2346  0.0435
 5106SOL     OW26776   2.956   2.207   7.746 -0.0452 -0.7874 -0.0807
 5106SOL    HW126777   3.018   2.148   7.704 -1.3939 -1.1073 -1.6170
 5106SOL    HW226778   2.915   2.251   7.672 -1.0406 -1.7455 -0.0854
 5107SOL     OW26779   0.098   3.250  11.048  0.8159 -0.1017  0.5644
 5107SOL    HW126780   0.190   3.273  11.037  2.0553 -4.9757  0.9538
 5107SOL    HW226781   0.049   3.327  11.020 -0.3422 -0.7717  0.7410
 5108SOL     OW26782   2.313   0.791   1.714  0.3986  0.8294  0.6342
 5108SOL    HW126783   2.376   0.743   1.661 -1.5666  0.8394 -1.7019
 5108SOL    HW226784   2.370   0.852   1.761 -0.0808 -0.7752  3.3125
 5109SOL     OW26785   3.239   3.119   5.568 -0.5811 -0.1332  0.3399
 5109SOL    HW126786   3.323   3.133   5.612 -0.8050  0.8795  0.4282
 5109SOL    HW226787   3.245   3.041   5.512  0.9382  2.8105 -3.6404
 5110SOL     OW26788   2.895   1.611   8.248  0.4324  0.7789 -0.1966
 5110SOL    HW126789   2.799   1.616   8.241  0.0253 -3.9225  2.7614
 5110SOL    HW226790   2.909   1.561   8.168  1.2590 -0.1625  0.5385
 5111SOL     OW26791   4.162   0.785   3.339 -0.5050 -0.5160  0.2272
 5111SOL    HW126792   4.228   0.847   3.369 -1.0190  0.9083 -1.5983
 5111SOL    HW226793   4.083   0.840   3.344 -0.0958  0.1266 -0.3464
 5112SOL     OW26794   2.325   2.429  12.928  0.0852 -0.3934 -0.2509
 5112SOL    HW126795   2.233   2.429  12.954  0.2794 -0.2616  0.4271
 5112SOL    HW226796   2.350   2.337  12.942  1.6399 -0.1753 -1.5770
 5113SOL     OW26797   0.137   4.045   8.729 -0.1397 -0.7579 -0.5205
 5113SOL    HW126798   0.054   4.064   8.773  0.4027  2.5197 -0.9565
 5113SOL    HW226799   0.148   3.952   8.750 -0.6808 -0.4580  1.0937
 5114SOL     OW26800   4.234   3.618  10.132  0.6762  0.0283  0.1073
 5114SOL    HW126801   4.226   3.522  10.131 -1.1005  0.1773 -0.7413
 5114SOL    HW226802   4.174   3.646  10.063  0.9175  0.3007  0.0125
 5115SOL     OW26803   1.098   1.811   3.607 -0.2368  0.6460 -0.0959
 5115SOL    HW126804   1.086   1.750   3.679  1.6386 -1.2425 -1.3727
 5115SOL    HW226805   1.194   1.811   3.597 -0.1275  1.3388  0.9500
 5116SOL     OW26806   3.445   3.835   8.952 -0.4027 -0.6523 -0.5740
 5116SOL    HW126807   3.415   3.821   9.041  0.0194  2.9955  0.1692
 5116SOL    HW226808   3.531   3.798   8.971 -0.2373 -0.8572 -1.7270
 5117SOL     OW26809   3.296   4.240   6.184  0.6876 -0.1497  0.3146
 5117SOL    HW126810   3.390   4.255   6.170  0.9340  0.1858  2.2719
 5117SOL    HW226811   3.263   4.330   6.193 -2.2312 -1.4587  2.7945
 5118SOL     OW26812   2.076   0.855   1.566 -0.0833 -0.7674 -0.0364
 5118SOL    HW126813   2.159   0.843   1.611 -0.1994 -2.0995 -0.1626
 5118SOL    HW226814   2.026   0.784   1.607 -2.1186  1.5964  1.6142
 5119SOL     OW26815   0.477   3.230  16.129 -0.2725  0.2392 -0.1197
 5119SOL    HW126816   0.398   3.273  16.096  0.4426  0.6874 -1.2678
 5119SOL    HW226817   0.482   3.142  16.089 -0.4769  0.2023 -0.0607
 5120SOL     OW26818   2.555   0.902   9.757  0.2937  0.4696 -0.3224
 5120SOL    HW126819   2.476   0.852   9.737 -0.6041  1.9910 -0.6024
 5120SOL    HW226820   2.519   0.956   9.828  0.9026 -1.4005  1.4109
 5121SOL     OW26821   1.630   4.014   8.448  0.1326 -0.2728  0.1823
 5121SOL    HW126822   1.562   4.070   8.410  0.8850  0.3829 -0.1967
 5121SOL    HW226823   1.619   3.928   8.408 -1.9542 -0.7712  1.8026
 5122SOL     OW26824   2.887   4.435   2.656 -0.6829  0.1003  0.1065
 5122SOL    HW126825   2.935   4.432   2.739  0.1623 -0.6898 -0.4056
 5122SOL    HW226826   2.804   4.399   2.687 -0.7726  0.4731  0.3001
 5123SOL     OW26827   2.342   3.954   0.913  0.0615 -0.5772 -0.0887
 5123SOL    HW126828   2.324   3.864   0.940 -0.4554 -0.3917  0.1753
 5123SOL    HW226829   2.252   3.984   0.907 -0.0059 -0.9178 -0.8087
 5124SOL     OW26830   3.219   1.276  15.160 -0.1440 -0.7606  0.6045
 5124SOL    HW126831   3.294   1.219  15.145  0.0224 -0.0574 -1.2564
 5124SOL    HW226832   3.206   1.246  15.250 -0.2108 -1.7467  0.2632
 5125SOL     OW26833   0.170   0.224   4.481  0.4787  0.1088 -0.1902
 5125SOL    HW126834   0.194   0.242   4.572  0.8996 -0.7455 -0.1361
 5125SOL    HW226835   0.243   0.257   4.427 -0.1733  1.7921 -0.0517
 5126SOL     OW26836   3.799   2.204  15.104  0.2981 -0.1679 -0.4402
 5126SOL    HW126837   3.735   2.136  15.084  1.2923 -1.6077  1.2865
 5126SOL    HW226838   3.755   2.247  15.177  1.4755  1.2312 -0.5518
 5127SOL     OW26839   3.050   3.958   3.121  0.4149 -0.4076  0.2804
 5127SOL    HW126840   2.968   4.005   3.136  0.5659  0.4098 -1.4619
 5127SOL    HW226841   3.044   3.955   3.026  0.1772 -1.9924  0.3409
 5128SOL     OW26842   3.300   4.218   2.757  0.6855  0.1552 -0.4834
 5128SOL    HW126843   3.207   4.200   2.769  0.8800  1.2370  2.7055
 5128SOL    HW226844   3.323   4.275   2.830  3.1527  0.9116 -1.8282
 5129SOL     OW26845   2.661   0.576   0.077 -0.5796  0.3794  0.1741
 5129SOL    HW126846   2.576   0.601   0.042  0.1243  1.1298 -1.0369
 5129SOL    HW226847   2.645   0.552   0.168  1.5715  2.4426  1.0984
 5130SOL     OW26848   0.366   0.264   1.963 -0.1402  0.3084  0.0992
 5130SOL    HW126849   0.391   0.339   1.910 -0.0466 -1.2979 -2.1526
 5130SOL    HW226850   0.422   0.274   2.040  1.5061 -2.7750 -0.6843
 5131SOL     OW26851   1.104   4.614   8.685 -0.0633 -0.1112  0.2743
 5131SOL    HW126852   1.043   4.687   8.679  1.2918  1.1373  1.6949
 5131SOL    HW226853   1.171   4.650   8.627 -0.4713  0.6742  0.2877
 5132SOL     OW26854   4.118   2.761   7.994 -0.1888 -0.0219 -0.3342
 5132SOL    HW126855   4.135   2.803   8.078 -1.7968  1.0763 -0.5458
 5132SOL    HW226856   4.129   2.839   7.940 -0.8276 -0.7742 -1.5580
 5133SOL     OW26857   4.253   1.424   3.175  0.0656  0.0224 -0.0942
 5133SOL    HW126858   4.224   1.504   3.131 -1.5399  0.4432  1.7095
 5133SOL    HW226859   4.208   1.354   3.129 -1.8902  1.6573 -0.7004
 5134SOL     OW26860   4.487   0.570   9.454 -0.1347  0.6842 -0.4234
 5134SOL    HW126861   4.408   0.542   9.501 -1.0649  0.1847 -2.2800
 5134SOL    HW226862   4.446   0.612   9.378 -2.0310 -0.1534  0.1422
 5135SOL     OW26863   1.485   1.060   7.051 -0.6492 -0.1473 -0.0341
 5135SOL    HW126864   1.432   1.127   7.093 -1.9687 -0.7844 -0.6711
 5135SOL    HW226865   1.551   1.041   7.117  0.4387  0.5065 -0.9299
 5136SOL     OW26866   3.629   4.219   6.530  0.2082  0.0274  0.0335
 5136SOL    HW126867   3.637   4.278   6.605 -1.3410 -0.2208  0.3950
 5136SOL    HW226868   3.535   4.202   6.540  0.3726 -0.7461  0.2333
 5137SOL     OW26869   0.804   3.263   5.925  0.2643 -0.0623  0.0605
 5137SOL    HW126870   0.890   3.263   5.966 -0.6307 -0.4306  1.9555
 5137SOL    HW226871   0.746   3.226   5.993 -1.1310  0.1108 -1.0287
 5138SOL     OW26872   1.538   0.631   3.907  0.0955 -0.3554  1.1118
 5138SOL    HW126873   1.489   0.633   3.990  0.3344 -0.5340  1.2580
 5138SOL    HW226874   1.542   0.537   3.886 -0.5683  0.0022 -0.6015
 5139SOL     OW26875   3.421   4.470  13.399 -0.2405  0.1478  0.7598
 5139SOL    HW126876   3.501   4.452  13.450  0.9611  1.6631 -0.5867
 5139SOL    HW226877   3.460   4.524  13.331  1.8022  0.1284  1.9057
 5140SOL     OW26878   3.958   0.117   1.241 -0.3713 -0.6720  0.2510
 5140SOL    HW126879   3.985   0.029   1.214  0.0392 -0.4204 -0.1599
 5140SOL    HW226880   3.896   0.137   1.172 -0.4062  0.5980  0.6555
 5141SOL     OW26881   0.211   1.249   8.284  0.2297  0.2154  0.2021
 5141SOL    HW126882   0.271   1.208   8.347 -0.4992 -1.1540 -0.0021
 5141SOL    HW226883   0.155   1.292   8.348 -0.9327  0.0460 -0.7088
 5142SOL     OW26884   1.078   3.637   2.358  0.1409  0.2231 -0.5356
 5142SOL    HW126885   0.984   3.654   2.362  0.2497  0.3672  1.4753
 5142SOL    HW226886   1.091   3.562   2.301 -2.5191  1.1117 -2.2920
 5143SOL     OW26887   0.431   2.905  13.169 -0.3785 -0.0917 -0.5595
 5143SOL    HW126888   0.414   2.926  13.261 -3.9644  1.9352 -1.6475
 5143SOL    HW226889   0.525   2.910  13.157 -0.0562  1.1917  2.4590
 5144SOL     OW26890   2.554   1.667   6.104 -0.8710 -0.7306 -0.4866
 5144SOL    HW126891   2.520   1.613   6.176 -0.8319 -0.5794 -0.3524
 5144SOL    HW226892   2.629   1.711   6.144 -1.0613 -0.4318 -0.4544
 5145SOL     OW26893   4.148   0.805   9.540 -0.4363  0.4238  0.0571
 5145SOL    HW126894   4.062   0.790   9.501 -0.9765 -2.9278  2.5378
 5145SOL    HW226895   4.130   0.786   9.632 -1.4036 -0.4410 -0.3063
 5146SOL     OW26896   1.578   1.027   9.303  0.1290  0.1964  0.6308
 5146SOL    HW126897   1.665   1.064   9.288 -0.3165  0.7255 -0.6367
 5146SOL    HW226898   1.539   1.100   9.351  0.9819  1.0530  0.0285
 5147SOL     OW26899   3.360   3.993  17.241 -0.1452  0.7561 -0.0279
 5147SOL    HW126900   3.379   3.902  17.220  0.5871  0.4473  2.0454
 5147SOL    HW226901   3.330   4.036  17.161 -0.4423 -1.3610 -1.0595
 5148SOL     OW26902   0.028   1.780   5.104  0.4319  0.2124  0.3008
 5148SOL    HW126903   4.693   1.743   5.038 -0.1056  1.9315 -0.1970
 5148SOL    HW226904   0.057   1.707   5.158  1.1694  0.0579 -0.3057
 5149SOL     OW26905   2.918   3.717   5.508  0.0521  0.2212  0.0532
 5149SOL    HW126906   2.949   3.796   5.552 -0.7684  0.1140  0.8151
 5149SOL    HW226907   2.930   3.741   5.416 -1.9244  0.4790 -0.1266
 5150SOL     OW26908   0.680   1.246   7.120  0.2133 -0.1420 -0.1602
 5150SOL    HW126909   0.640   1.209   7.199 -1.0163 -0.4650 -0.9325
 5150SOL    HW226910   0.675   1.337   7.148 -1.1996 -0.7541  1.6329
 5151SOL     OW26911   2.556   2.451   6.152 -0.4552 -0.5479  0.2161
 5151SOL    HW126912   2.615   2.381   6.125  0.3089 -0.2221  1.0728
 5151SOL    HW226913   2.608   2.532   6.156 -0.0027 -0.8034 -0.5425
 5152SOL     OW26914   0.872   1.628   7.706  0.0187 -0.6263  0.0965
 5152SOL    HW126915   0.895   1.608   7.797 -0.8778  0.0923  0.4802
 5152SOL    HW226916   0.797   1.686   7.697  1.8720  1.6055 -0.7446
 5153SOL     OW26917   2.983   3.596   8.086  0.1106 -0.2247  0.2115
 5153SOL    HW126918   2.982   3.541   8.008  0.2080  0.6596 -0.4049
 5153SOL    HW226919   3.007   3.681   8.050 -0.2926 -0.5183 -0.7451
 5154SOL     OW26920   4.381   0.384   4.816  0.0435 -0.2315  0.3649
 5154SOL    HW126921   4.301   0.355   4.862  0.7498 -2.4104  0.2257
 5154SOL    HW226922   4.423   0.426   4.890  1.7266 -1.1593 -0.0723
 5155SOL     OW26923   3.593   0.076   3.985  0.2092 -0.0162  0.3789
 5155SOL    HW126924   3.619   0.049   4.073 -0.7088  0.9635  0.9571
 5155SOL    HW226925   3.669   0.130   3.965  0.7567 -0.5867  0.9509
 5156SOL     OW26926   1.455   1.574  11.793 -0.1000  0.0701  0.5186
 5156SOL    HW126927   1.445   1.534  11.706 -3.2260  1.8630  0.0695
 5156SOL    HW226928   1.408   1.657  11.785 -1.9479 -0.9393  0.9166
 5157SOL     OW26929   2.796   4.702   3.859 -0.2256  0.5246 -0.0654
 5157SOL    HW126930   2.879   0.013   3.891 -1.3618  2.3368  0.9516
 5157SOL    HW226931   2.764   4.659   3.939  1.4945  0.2776  0.4953
 5158SOL     OW26932   1.755   4.471   5.125 -1.3029  0.4670 -0.0398
 5158SOL    HW126933   1.843   4.471   5.087 -0.7773 -0.0782  1.1928
 5158SOL    HW226934   1.745   4.559   5.162  1.6776  0.3268  1.0803
 5159SOL     OW26935   4.674   2.739   7.405 -0.0191 -0.1316  0.1626
 5159SOL    HW126936   0.018   2.788   7.451 -1.3306  1.2423  0.6388
 5159SOL    HW226937   4.652   2.670   7.467  1.3833  0.8733  1.7693
 5160SOL     OW26938   3.170   4.487  11.783 -0.3561  0.0144  0.0934
 5160SOL    HW126939   3.153   4.521  11.695  1.3727 -1.5799 -0.8698
 5160SOL    HW226940   3.266   4.477  11.779 -0.2761  0.2424  1.7472
 5161SOL     OW26941   0.056   0.096   6.026  0.0892 -0.2331 -0.5988
 5161SOL    HW126942   0.018   0.085   6.113  1.9950  0.9141  0.3684
 5161SOL    HW226943   0.114   0.171   6.037  0.4516 -0.5252 -0.5193
 5162SOL     OW26944   0.461   0.940   3.121  0.1643  0.0362  0.3122
 5162SOL    HW126945   0.536   0.950   3.179  2.1739  0.3022 -2.3155
 5162SOL    HW226946   0.434   0.848   3.129 -2.7559  0.8523 -0.3657
 5163SOL     OW26947   1.558   2.082   0.246 -0.3933 -0.6365 -0.2943
 5163SOL    HW126948   1.617   2.078   0.322  0.2432 -3.2027 -0.9066
 5163SOL    HW226949   1.612   2.124   0.179 -0.1624  0.9708  0.9055
 5164SOL     OW26950   0.402   2.715   7.013  0.6665 -0.2922 -0.0869
 5164SOL    HW126951   0.397   2.671   7.098  3.5320  0.7637  0.6268
 5164SOL    HW226952   0.497   2.706   7.006  0.7670  1.2702 -0.7195
 5165SOL     OW26953   4.212   0.961   7.251  0.2481 -0.0563 -0.2296
 5165SOL    HW126954   4.136   0.991   7.301  0.5969 -0.3884  0.4982
 5165SOL    HW226955   4.207   1.033   7.188  4.0923  0.5596  0.1511
 5166SOL     OW26956   1.011   4.246   3.740  0.5510  0.0898 -0.4083
 5166SOL    HW126957   1.068   4.217   3.811 -0.8856  0.0353  0.7254
 5166SOL    HW226958   0.958   4.166   3.735  2.3022 -1.0345 -1.0208
 5167SOL     OW26959   0.366   4.563   8.623 -0.1655  0.6336 -0.3667
 5167SOL    HW126960   0.296   4.544   8.686 -1.3111  0.5852 -1.6341
 5167SOL    HW226961   0.387   4.477   8.587 -0.4566  0.0982  0.7346
 5168SOL     OW26962   3.834   2.372   0.624 -0.2802  0.1694  0.6261
 5168SOL    HW126963   3.857   2.372   0.717  0.1174  1.8705  0.5186
 5168SOL    HW226964   3.873   2.456   0.602  2.9543 -1.3207  0.7640
 5169SOL     OW26965   2.925   2.423   6.763  0.1066  0.1116 -1.0272
 5169SOL    HW126966   2.997   2.386   6.711  0.3168 -0.7794 -0.0983
 5169SOL    HW226967   2.971   2.437   6.845 -1.3722 -0.0240 -0.1797
 5170SOL     OW26968   4.408   2.438  10.380 -0.3640 -0.1140  0.0481
 5170SOL    HW126969   4.410   2.343  10.387 -1.1305 -0.0311  1.2243
 5170SOL    HW226970   4.501   2.461  10.370 -0.2656 -0.5878 -0.1316
 5171SOL     OW26971   0.907   1.788   8.085 -1.1006 -0.0357  0.0806
 5171SOL    HW126972   0.974   1.773   8.151  1.5329 -1.4661 -2.9457
 5171SOL    HW226973   0.853   1.857   8.125 -0.1897  0.2234  0.8501
 5172SOL     OW26974   3.366   2.045   9.509  0.4404 -0.1570 -0.1651
 5172SOL    HW126975   3.288   2.067   9.561  2.5324  0.6123  2.6196
 5172SOL    HW226976   3.331   2.065   9.421 -0.6103  0.3080  0.3543
 5173SOL     OW26977   1.436   3.535  12.810 -0.3051  0.5110  0.5520
 5173SOL    HW126978   1.490   3.473  12.859  0.4007  1.3796  0.8690
 5173SOL    HW226979   1.504   3.602  12.803  1.1646 -0.8166  2.3584
 5174SOL     OW26980   0.000   0.742  11.606 -0.7091 -0.2823  0.2903
 5174SOL    HW126981   4.680   0.671  11.559 -0.5942 -0.3783  0.3281
 5174SOL    HW226982   0.047   0.698  11.676 -0.3381 -0.6429 -0.1806
 5175SOL     OW26983   0.883   4.145   5.692  0.6033  0.4722 -0.0531
 5175SOL    HW126984   0.978   4.154   5.696  0.7434  0.2822 -2.5778
 5175SOL    HW226985   0.865   4.204   5.619 -1.2970  1.8201  1.5019
 5176SOL     OW26986   2.644   3.077   6.757  0.1973 -0.6624  0.5232
 5176SOL    HW126987   2.597   3.110   6.680  0.9185  0.8610  0.7442
 5176SOL    HW226988   2.571   3.071   6.820  1.1940  2.8463  2.0020
 5177SOL     OW26989   4.219   4.307  11.007 -0.1379  0.5289 -0.0220
 5177SOL    HW126990   4.184   4.341  11.089  2.7742  0.7170  1.1520
 5177SOL    HW226991   4.211   4.379  10.943 -0.8010 -0.8052 -1.4484
 5178SOL     OW26992   4.524   3.449   4.986 -0.5598  0.0273 -0.4762
 5178SOL    HW126993   4.592   3.459   5.053  1.3053 -2.8381 -1.9688
 5178SOL    HW226994   4.453   3.416   5.041  0.9264 -1.4747  0.5510
 5179SOL     OW26995   0.226   2.614  14.472  0.0395 -0.2092 -0.1023
 5179SOL    HW126996   0.131   2.614  14.459  0.3046  3.0219 -2.0594
 5179SOL    HW226997   0.229   2.698  14.517 -0.9782 -0.6443  0.7658
 5180SOL     OW26998   0.919   0.208   5.984 -0.3614 -0.0245  0.8643
 5180SOL    HW126999   0.827   0.224   5.961 -0.2400  0.5905  0.8125
 5180SOL    HW227000   0.916   0.115   6.008 -0.4633 -0.7275 -1.8737
 5181SOL     OW27001   4.400   3.000   7.388 -0.4083  0.5726  0.5540
 5181SOL    HW127002   4.481   3.040   7.420  0.1826  0.4039 -0.7022
 5181SOL    HW227003   4.341   3.072   7.409 -1.6856  0.2964 -2.1094
 5182SOL     OW27004   2.627   0.952   8.249 -0.2983  0.7912  0.3567
 5182SOL    HW127005   2.655   1.036   8.287  1.6623  0.7335 -0.9388
 5182SOL    HW227006   2.545   0.969   8.203  1.5161  2.2601 -2.3449
 5183SOL     OW27007   1.607   3.230   3.422 -0.3748  0.1901 -0.4033
 5183SOL    HW127008   1.642   3.158   3.368  1.5719  0.6861  0.1840
 5183SOL    HW227009   1.679   3.283   3.458  1.9206 -3.9125  1.0906
 5184SOL     OW27010   1.218   2.304   7.517 -0.0145  0.2285  0.8873
 5184SOL    HW127011   1.232   2.268   7.605  3.3678  0.1325  0.3428
 5184SOL    HW227012   1.284   2.374   7.519  0.8299 -0.5637  0.9570
 5185SOL     OW27013   2.577   0.645   4.400 -1.0470 -0.0553 -0.1554
 5185SOL    HW127014   2.576   0.741   4.401  0.0538 -0.0280 -1.5473
 5185SOL    HW227015   2.594   0.625   4.308 -0.3432  1.8607 -0.4566
 5186SOL     OW27016   3.422   2.357   8.133  0.0652  0.5156  0.0956
 5186SOL    HW127017   3.374   2.380   8.053  2.8657 -1.5841 -2.2021
 5186SOL    HW227018   3.505   2.365   8.086 -0.3806  1.0406 -0.6064
 5187SOL     OW27019   2.647   1.856   8.990 -0.7181  0.2760 -0.0436
 5187SOL    HW127020   2.714   1.811   9.041  1.2500 -0.0936 -2.9159
 5187SOL    HW227021   2.707   1.886   8.921  1.5640 -1.2445  1.2747
 5188SOL     OW27022   1.840   2.171   3.492 -0.2615 -0.1445 -0.4032
 5188SOL    HW127023   1.852   2.241   3.556 -0.9255  2.1003 -2.7837
 5188SOL    HW227024   1.893   2.211   3.423 -1.1889 -1.8991 -2.1151
 5189SOL     OW27025   2.041   3.488   8.559  0.3693 -0.4041 -0.1903
 5189SOL    HW127026   2.005   3.522   8.477 -0.6619 -0.2232  0.3366
 5189SOL    HW227027   2.043   3.565   8.616  1.1185 -1.7767  1.6392
 5190SOL     OW27028   3.604   1.602   4.050  0.0941 -0.3811 -0.4884
 5190SOL    HW127029   3.602   1.678   3.992 -0.9234 -1.0243 -1.2865
 5190SOL    HW227030   3.601   1.533   3.985 -1.0493  0.0031 -0.8364
 5191SOL     OW27031   0.472   1.483  11.554 -0.0229 -0.2015 -0.3324
 5191SOL    HW127032   0.562   1.450  11.555 -0.5781 -1.7254  0.0416
 5191SOL    HW227033   0.481   1.549  11.485 -0.8383 -1.7408 -1.9034
 5192SOL     OW27034   0.056   3.178   3.917  0.2527 -0.1547  0.6528
 5192SOL    HW127035   4.717   3.189   3.989 -1.6294 -0.7523 -0.8880
 5192SOL    HW227036   0.131   3.224   3.953 -0.6990  0.2625  2.0845
 5193SOL     OW27037   3.452   3.862   4.624  0.0649  0.3693  0.4885
 5193SOL    HW127038   3.401   3.912   4.560 -1.0222 -1.3820 -0.0478
 5193SOL    HW227039   3.386   3.834   4.688  1.0223 -1.3180  0.7401
 5194SOL     OW27040   4.241   3.770   6.586  0.4469 -0.4437  0.0917
 5194SOL    HW127041   4.272   3.743   6.500  0.6259 -0.3245  0.1185
 5194SOL    HW227042   4.294   3.720   6.647 -0.1084 -1.8144 -0.5580
 5195SOL     OW27043   1.443   1.580   9.011 -0.0022 -0.3472  0.8266
 5195SOL    HW127044   1.486   1.516   9.068 -3.7849 -2.2253  1.6078
 5195SOL    HW227045   1.365   1.606   9.062  1.7023  1.5472  2.5042
 5196SOL     OW27046   2.715   1.007   5.333  0.5727 -0.5245 -0.5507
 5196SOL    HW127047   2.789   1.064   5.312 -0.4164  0.5550 -1.0477
 5196SOL    HW227048   2.639   1.065   5.332 -0.5508 -1.9391  1.4690
 5197SOL     OW27049   0.824   4.252   8.302  0.5347 -0.1301  0.0557
 5197SOL    HW127050   0.764   4.325   8.286  3.6492  2.4893  0.2203
 5197SOL    HW227051   0.880   4.285   8.372 -0.0641  1.9267 -0.4404
 5198SOL     OW27052   3.628   0.001   1.975 -0.0596  0.3599 -0.3841
 5198SOL    HW127053   3.692   0.072   1.973  0.3386 -0.0186 -1.1889
 5198SOL    HW227054   3.684   4.662   1.929 -1.6229  0.0827 -1.8971
 5199SOL     OW27055   4.292   1.968   3.058  0.4705  0.1793 -0.3962
 5199SOL    HW127056   4.220   2.028   3.075  1.6465  1.3686  0.4137
 5199SOL    HW227057   4.364   2.030   3.046  1.5612 -0.7699  1.1414
 5200SOL     OW27058   1.088   2.845   3.290  0.2038  0.8741  0.3037
 5200SOL    HW127059   1.066   2.933   3.319 -1.0280  0.6216  0.1086
 5200SOL    HW227060   1.164   2.829   3.346 -1.3657 -0.6546  1.9829
 5201SOL     OW27061   2.662   1.770   7.733 -0.5051 -0.0252  0.0956
 5201SOL    HW127062   2.632   1.845   7.785  1.6874  0.7351  0.2633
 5201SOL    HW227063   2.677   1.814   7.650  0.3408  2.9451  1.8104
 5202SOL     OW27064   3.378   0.247   1.711  0.1796 -0.3544  0.1659
 5202SOL    HW127065   3.321   0.194   1.655 -1.3006  0.4805  0.8797
 5202SOL    HW227066   3.361   0.334   1.675  0.0436 -0.2472  0.4885
 5203SOL     OW27067   0.291   2.001   9.739 -0.3423  0.3147  0.2369
 5203SOL    HW127068   0.345   2.027   9.813  0.8488  0.6645 -0.7617
 5203SOL    HW227069   0.218   2.063   9.733 -0.2513  0.3552 -0.3918
 5204SOL     OW27070   4.077   2.453   7.671 -0.1282 -0.0352  0.1186
 5204SOL    HW127071   4.113   2.537   7.644 -0.6404 -0.0001 -0.4602
 5204SOL    HW227072   4.152   2.394   7.672 -0.7077 -0.7745  0.4593
 5205SOL     OW27073   2.017   1.495   3.415 -0.8507 -0.0050 -0.1661
 5205SOL    HW127074   2.070   1.573   3.396  1.2152 -1.1273  0.9357
 5205SOL    HW227075   1.998   1.476   3.324  1.6026 -1.4106 -0.3826
 5206SOL     OW27076   2.088   4.398   2.037 -0.2151 -0.4567 -0.3774
 5206SOL    HW127077   2.145   4.325   2.015  0.3567  0.1979 -1.0416
 5206SOL    HW227078   2.141   4.477   2.030 -0.8464  0.1181  1.2063
 5207SOL     OW27079   3.734   0.650   7.737 -0.0625 -0.5345  0.3033
 5207SOL    HW127080   3.730   0.555   7.725  0.3391 -0.7083  1.5655
 5207SOL    HW227081   3.642   0.674   7.724 -0.2406 -0.9490  0.8153
 5208SOL     OW27082   2.648   2.764   8.902 -0.8382  0.2813  0.6532
 5208SOL    HW127083   2.737   2.732   8.917 -0.4041  2.1079  2.0498
 5208SOL    HW227084   2.639   2.819   8.980 -0.2896 -0.3081  1.1297
 5209SOL     OW27085   3.669   1.804  12.407 -0.6455  0.0622 -0.3848
 5209SOL    HW127086   3.698   1.751  12.333  0.7070 -1.7120  1.4294
 5209SOL    HW227087   3.739   1.780  12.468 -0.7814 -0.9089 -0.6200
 5210SOL     OW27088   2.137   0.791   4.094 -0.0123 -0.3050 -0.7339
 5210SOL    HW127089   2.180   0.807   4.010  1.4546  1.3079  0.3122
 5210SOL    HW227090   2.099   0.706   4.074  0.2727 -0.1804 -1.7664
 5211SOL     OW27091   2.834   2.677   2.115  0.0370  0.0009  0.6611
 5211SOL    HW127092   2.821   2.653   2.024  0.5912  0.4179  0.4772
 5211SOL    HW227093   2.802   2.602   2.166 -3.0174  1.5198  0.9989
 5212SOL     OW27094   1.613   2.115   2.836 -0.1396  0.2234  0.3772
 5212SOL    HW127095   1.623   2.077   2.750  0.1148 -2.0847  1.4313
 5212SOL    HW227096   1.555   2.188   2.813 -1.9341 -1.9506 -1.9518
 5213SOL     OW27097   1.275   1.635   2.489  0.0081 -0.1007 -0.3491
 5213SOL    HW127098   1.209   1.587   2.540  0.4682 -1.6689 -1.2065
 5213SOL    HW227099   1.357   1.587   2.500 -0.0011 -0.2445 -0.9106
 5214SOL     OW27100   3.127   0.276  16.549  0.3491  0.2040  0.3977
 5214SOL    HW127101   3.199   0.267  16.487  0.1468  2.1144 -0.1158
 5214SOL    HW227102   3.052   0.288  16.490 -1.7435  0.0782  2.9984
 5215SOL     OW27103   3.941   2.182   8.100 -0.3213 -0.1920 -0.5747
 5215SOL    HW127104   3.873   2.131   8.055  0.5337 -0.9825 -0.9530
 5215SOL    HW227105   3.998   2.189   8.023 -1.0406  1.7218 -0.9517
 5216SOL     OW27106   4.166   1.668   9.464 -0.1818  0.3307  0.1070
 5216SOL    HW127107   4.130   1.627   9.385  1.5595  0.1135 -0.5649
 5216SOL    HW227108   4.213   1.741   9.423  2.4483 -0.4254  1.7814
 5217SOL     OW27109   3.243   0.610   9.672  0.2345  0.5495  0.0526
 5217SOL    HW127110   3.242   0.694   9.627 -0.7190  0.7453  0.4494
 5217SOL    HW227111   3.220   0.632   9.762 -1.0163  0.7742 -0.3122
 5218SOL     OW27112   0.232   3.128  16.322  0.4293  0.0989  0.2024
 5218SOL    HW127113   0.201   3.185  16.251  1.5766  1.6372  0.9383
 5218SOL    HW227114   0.247   3.187  16.396 -1.5906 -0.4611  1.0658
 5219SOL     OW27115   0.026   2.523   3.530 -0.2438  0.0808  0.4736
 5219SOL    HW127116   0.093   2.589   3.513  1.1966 -1.3955  0.3982
 5219SOL    HW227117   0.065   2.443   3.495 -1.7381 -1.2752  1.8976
 5220SOL     OW27118   4.070   2.446   5.159 -0.0231 -0.3947  0.1985
 5220SOL    HW127119   4.094   2.355   5.142 -0.9804 -0.5140 -0.5212
 5220SOL    HW227120   4.009   2.464   5.087 -0.5984  0.2372  0.8474
 5221SOL     OW27121   2.356   0.649   0.077  0.1412 -0.4565  0.1866
 5221SOL    HW127122   2.384   0.738   0.098 -1.4622  0.1119 -0.1141
 5221SOL    HW227123   2.262   0.662   0.091  0.3712 -0.4407  1.7300
 5222SOL     OW27124   1.964   0.618   0.870  0.0952  0.5930 -0.1083
 5222SOL    HW127125   2.005   0.598   0.787  2.5242  0.2520  1.1773
 5222SOL    HW227126   1.882   0.572   0.851  0.1907 -0.1954  1.3894
 5223SOL     OW27127   2.451   4.032   2.992 -0.3760 -0.2749 -0.4679
 5223SOL    HW127128   2.380   4.084   2.955 -2.1960 -0.3651  2.8639
 5223SOL    HW227129   2.499   4.009   2.913 -1.9456 -1.6935 -0.9959
 5224SOL     OW27130   0.112   1.666   4.516  0.1057 -0.7947  0.0803
 5224SOL    HW127131   0.207   1.672   4.524  0.2547 -0.5151 -1.8113
 5224SOL    HW227132   0.099   1.573   4.496 -0.2700 -0.4892 -1.1135
 5225SOL     OW27133   4.623   3.837   4.866  0.0846 -0.6822  0.2246
 5225SOL    HW127134   4.615   3.747   4.897 -1.2723 -0.5161  0.3440
 5225SOL    HW227135   4.612   3.882   4.950  2.5119 -0.7551  0.6074
 5226SOL     OW27136   1.708   1.088  10.484 -0.2099 -0.0405 -0.3493
 5226SOL    HW127137   1.641   1.154  10.500 -0.3124 -0.2897  0.2794
 5226SOL    HW227138   1.765   1.096  10.561  1.8466 -0.7224 -1.8111
 5227SOL     OW27139   1.872   3.779   2.843  0.0860  0.1961 -0.0861
 5227SOL    HW127140   1.893   3.800   2.752 -1.2699 -1.1617 -0.7193
 5227SOL    HW227141   1.830   3.695   2.827 -2.9889  1.8856 -1.0022
 5228SOL     OW27142   2.567   2.569  16.089  0.2414  0.2772 -0.1111
 5228SOL    HW127143   2.553   2.612  16.173  0.3243 -0.0119  0.0478
 5228SOL    HW227144   2.576   2.477  16.111 -0.3800  0.5046  1.0615
 5229SOL     OW27145   4.503   3.011   6.518  0.2106  0.5809  0.3534
 5229SOL    HW127146   4.585   2.986   6.561 -1.3828 -0.3424  2.8595
 5229SOL    HW227147   4.450   2.940   6.553  1.9062 -0.7170  0.3202
 5230SOL     OW27148   3.930   1.234  13.516  1.0711  0.3776 -0.2462
 5230SOL    HW127149   3.967   1.317  13.547  0.4780  0.7283 -0.4776
 5230SOL    HW227150   3.893   1.263  13.433  2.0421  1.7058 -0.2155
 5231SOL     OW27151   1.058   4.068   7.745  0.2055 -0.2021  0.3050
 5231SOL    HW127152   1.121   4.140   7.746  0.0081  0.0116 -1.4420
 5231SOL    HW227153   1.080   4.014   7.821 -1.2516 -1.2321 -0.0121
 5232SOL     OW27154   1.453   3.863  12.669 -0.4678  0.0360 -0.2111
 5232SOL    HW127155   1.445   3.949  12.711  2.0341 -0.8342  2.0463
 5232SOL    HW227156   1.376   3.861  12.612 -1.7741 -0.0380  1.5675
 5233SOL     OW27157   1.883   2.991   8.053 -0.1754  0.3881 -0.2724
 5233SOL    HW127158   1.839   2.999   7.968 -0.2746  0.7317 -0.1890
 5233SOL    HW227159   1.865   3.078   8.089  1.1785 -0.1961  1.7667
 5234SOL     OW27160   4.692   3.231  15.975  0.7388  0.0257  0.0945
 5234SOL    HW127161   4.639   3.305  15.945 -1.8678 -3.0735 -2.7513
 5234SOL    HW227162   0.046   3.270  16.016 -0.2922 -1.7886  3.7845
 5235SOL     OW27163   1.026   0.472  15.221  0.2478  0.4092 -0.0491
 5235SOL    HW127164   1.027   0.551  15.275  0.4510 -0.7668  1.6656
 5235SOL    HW227165   0.931   0.460  15.214  0.2161  0.4969  0.2613
 5236SOL     OW27166   4.669   2.833   4.518  0.1039  0.5194  0.3683
 5236SOL    HW127167   0.016   2.795   4.570 -1.3248 -0.7891  1.4032
 5236SOL    HW227168   4.594   2.814   4.575 -1.1084 -0.9457 -1.7059
 5237SOL     OW27169   4.255   0.639   8.712 -0.0682  0.2294  0.7022
 5237SOL    HW127170   4.303   0.716   8.681  2.1509 -1.1421  0.7373
 5237SOL    HW227171   4.279   0.642   8.804 -0.6176  0.3991  0.8415
 5238SOL     OW27172   2.252   0.162  17.076 -0.3187  0.1775  0.6729
 5238SOL    HW127173   2.340   0.130  17.060  0.0188  1.5364 -0.2244
 5238SOL    HW227174   2.261   0.252  17.043 -1.2598  0.1889  0.4417
 5239SOL     OW27175   1.084   4.396   2.619  0.1706  0.3329 -0.0540
 5239SOL    HW127176   1.053   4.442   2.697  0.2158  1.5672 -0.7717
 5239SOL    HW227177   1.168   4.370   2.658  0.1241  0.9307  0.4410
 5240SOL     OW27178   1.078   2.499  11.276  0.7398  0.1517  0.3621
 5240SOL    HW127179   1.068   2.414  11.318  1.1908  0.5619  1.3102
 5240SOL    HW227180   1.159   2.526  11.320  0.2444  0.5694  1.0196
 5241SOL     OW27181   0.606   1.298   1.607  0.2863  0.6791 -0.4589
 5241SOL    HW127182   0.559   1.221   1.638  1.2202  0.5738  0.7099
 5241SOL    HW227183   0.661   1.309   1.685  1.0680 -0.3533 -0.8760
 5242SOL     OW27184   0.620   2.824   0.105  0.1815 -0.1374  0.4041
 5242SOL    HW127185   0.642   2.816   0.198 -0.8296 -2.0371  0.4825
 5242SOL    HW227186   0.641   2.736   0.073  0.3936 -0.2146  0.7549
 5243SOL     OW27187   1.898   1.741   8.091  0.2548  0.3285 -0.0861
 5243SOL    HW127188   1.954   1.674   8.049 -0.9597 -1.0917  0.5541
 5243SOL    HW227189   1.832   1.752   8.023  0.4278 -0.4776 -0.3923
 5244SOL     OW27190   0.734   3.876   3.900  0.0836  0.4597  0.2876
 5244SOL    HW127191   0.687   3.931   3.963 -1.5839 -1.0576  0.3996
 5244SOL    HW227192   0.808   3.846   3.953  0.5136 -0.0251 -0.5922
 5245SOL     OW27193   2.533   3.482   3.726  0.2607 -0.5533  0.0317
 5245SOL    HW127194   2.557   3.521   3.642 -1.0679  0.1359 -0.0385
 5245SOL    HW227195   2.565   3.538   3.796 -1.1139  0.5893 -0.2452
 5246SOL     OW27196   2.412   3.941   7.103 -0.0373 -0.2161 -0.1309
 5246SOL    HW127197   2.411   3.910   7.194  0.9215  1.0735  0.3214
 5246SOL    HW227198   2.409   4.035   7.121  1.9655 -0.0426 -0.7085
 5247SOL     OW27199   3.274   2.712   3.391  0.0703  0.2863 -0.0670
 5247SOL    HW127200   3.234   2.798   3.380 -0.2714  0.1197 -0.1294
 5247SOL    HW227201   3.216   2.651   3.345  1.2754 -1.9399  1.3906
 5248SOL     OW27202   2.399   2.198   5.425 -0.0177 -0.3112 -0.0549
 5248SOL    HW127203   2.451   2.154   5.492  0.6679  0.6596  0.0409
 5248SOL    HW227204   2.332   2.241   5.478  0.2058 -0.5805  0.4470
 5249SOL     OW27205   2.271   4.042   6.719  0.3606 -0.2220 -0.1192
 5249SOL    HW127206   2.223   4.047   6.802  2.9263 -0.9075  1.4090
 5249SOL    HW227207   2.300   3.951   6.726 -1.5708 -0.7458  1.0613
 5250SOL     OW27208   4.208   1.848  12.321 -0.3170 -0.1551 -0.0071
 5250SOL    HW127209   4.299   1.876  12.306 -1.0914  1.6714 -1.3289
 5250SOL    HW227210   4.181   1.866  12.231  0.9914 -2.0592 -0.7832
 5251SOL     OW27211   3.695   4.006   7.367 -0.1402  0.5358 -0.0008
 5251SOL    HW127212   3.698   4.090   7.322  0.8574 -0.3730 -1.6386
 5251SOL    HW227213   3.642   4.023   7.445  0.8222 -1.2212  1.0410
 5252SOL     OW27214   4.023   0.586   6.632 -0.3923  0.0489 -0.3399
 5252SOL    HW127215   4.062   0.571   6.546 -0.2507 -1.2334 -0.0615
 5252SOL    HW227216   3.984   0.502   6.658 -1.0334  0.5842  0.4161
 5253SOL     OW27217   2.769   1.113  13.182 -1.1881 -0.2537  0.1239
 5253SOL    HW127218   2.861   1.090  13.173 -1.3438 -0.2410 -1.4678
 5253SOL    HW227219   2.744   1.072  13.265 -3.3139 -0.2168 -0.4857
 5254SOL     OW27220   1.372   0.860   8.114 -0.4273  0.4348  0.1895
 5254SOL    HW127221   1.366   0.770   8.081 -1.7179  0.7065 -0.2705
 5254SOL    HW227222   1.288   0.883   8.152 -1.0827 -1.5769 -0.0404
 5255SOL     OW27223   4.275   3.754   2.474  0.3458  0.3075  0.2541
 5255SOL    HW127224   4.240   3.752   2.385  0.8657 -1.8654  0.1009
 5255SOL    HW227225   4.360   3.797   2.466  0.2367  0.8017  1.6541
 5256SOL     OW27226   0.320   3.355   8.140  0.1087  0.0767  0.0709
 5256SOL    HW127227   0.351   3.417   8.207 -1.6017  1.0696 -0.0633
 5256SOL    HW227228   0.407   3.322   8.116 -0.8619 -1.2397 -1.5704
 5257SOL     OW27229   4.300   0.721   4.735 -0.1636  0.9812  0.1411
 5257SOL    HW127230   4.226   0.756   4.783 -3.3042 -3.8905 -1.1222
 5257SOL    HW227231   4.362   0.701   4.805 -0.0492  1.0394  0.0573
 5258SOL     OW27232   1.938   2.124  10.815 -0.1023  0.3336  0.0224
 5258SOL    HW127233   1.866   2.170  10.857 -0.7055 -0.6027  0.0113
 5258SOL    HW227234   1.960   2.069  10.891 -1.1182 -0.9574 -0.6167
 5259SOL     OW27235   1.577   2.530  12.000  0.4100  0.1381  0.6818
 5259SOL    HW127236   1.535   2.525  12.086 -0.6444 -0.1055  0.1495
 5259SOL    HW227237   1.559   2.621  11.977 -1.1876 -0.6454 -1.1572
 5260SOL     OW27238   2.125   4.401  14.621  1.1136  0.4729 -0.5605
 5260SOL    HW127239   2.037   4.426  14.648  2.1616  0.0689  3.1959
 5260SOL    HW227240   2.176   4.415  14.701 -1.3553 -0.7800  1.2390
 5261SOL     OW27241   3.401   4.438   3.446  0.0424 -0.4540 -0.6757
 5261SOL    HW127242   3.471   4.390   3.489  0.8594  1.2133 -0.1598
 5261SOL    HW227243   3.356   4.466   3.526 -1.3996 -1.4061 -1.1393
 5262SOL     OW27244   3.313   2.696  12.422 -0.0550  0.2462 -0.1493
 5262SOL    HW127245   3.378   2.764  12.436 -2.5104  2.8110 -1.1944
 5262SOL    HW227246   3.302   2.701  12.327  0.4377 -2.0040 -0.3328
 5263SOL     OW27247   2.335   0.833   9.004  0.1786 -0.6245  0.0662
 5263SOL    HW127248   2.333   0.791   9.090  0.8101  1.2579  1.0133
 5263SOL    HW227249   2.285   0.774   8.949  0.3665 -1.0981  0.4080
 5264SOL     OW27250   1.176   2.809   6.946  0.0163 -0.6061 -0.0791
 5264SOL    HW127251   1.195   2.749   7.018  0.1183  0.5766  0.8842
 5264SOL    HW227252   1.171   2.754   6.868 -1.1566  0.0065 -0.4454
 5265SOL     OW27253   2.776   3.661   6.726 -0.2663 -0.0597  0.2802
 5265SOL    HW127254   2.786   3.570   6.753 -1.0151  0.1580  1.2844
 5265SOL    HW227255   2.869   3.681   6.728 -0.1932 -0.6217  2.7300
 5266SOL     OW27256   2.758   1.656  13.677  0.2465  0.2169  0.0752
 5266SOL    HW127257   2.728   1.707  13.752 -0.9884 -1.3852  0.6729
 5266SOL    HW227258   2.769   1.575  13.727 -0.6590  0.1262  0.1318
 5267SOL     OW27259   2.264   4.092   7.300 -0.7883 -0.1072  0.6308
 5267SOL    HW127260   2.258   4.000   7.327  2.0425  0.2117  2.3614
 5267SOL    HW227261   2.175   4.126   7.308 -1.3735 -1.2895 -0.7634
 5268SOL     OW27262   2.610   4.567   4.297  0.4570  0.0002  0.1422
 5268SOL    HW127263   2.601   4.511   4.219 -2.4735 -0.3775  0.7551
 5268SOL    HW227264   2.593   4.497   4.360 -0.4695 -0.1577 -0.2816
 5269SOL     OW27265   0.475   3.539   1.970 -0.0387 -0.0250 -0.3467
 5269SOL    HW127266   0.465   3.589   1.889 -1.7030  0.4312  0.1423
 5269SOL    HW227267   0.403   3.571   2.024  1.1891  1.8564  0.2134
 5270SOL     OW27268   2.013   0.365   5.474  0.7448 -0.0286  0.8116
 5270SOL    HW127269   2.076   0.437   5.474  1.2499 -0.4825 -1.6226
 5270SOL    HW227270   1.988   0.354   5.566  0.8483  0.4880  0.8986
 5271SOL     OW27271   0.776   3.367  10.672 -0.3305 -0.0327  0.3762
 5271SOL    HW127272   0.833   3.395  10.600  0.5206 -4.7886 -0.8148
 5271SOL    HW227273   0.828   3.373  10.752 -0.3325  0.8975  0.3105
 5272SOL     OW27274   1.424   1.039   1.315 -0.0644 -0.2825  0.1551
 5272SOL    HW127275   1.507   1.026   1.360 -1.0972  1.1231  2.4220
 5272SOL    HW227276   1.466   1.064   1.232  1.9918 -0.4774  1.1502
 5273SOL     OW27277   4.601   1.836  12.116 -0.7047  0.4103 -0.2004
 5273SOL    HW127278   4.585   1.852  12.209  0.5100  2.0893 -0.2817
 5273SOL    HW227279   4.695   1.821  12.128 -0.8039  0.2526  0.3805
 5274SOL     OW27280   1.286   3.052   6.857 -0.1281 -0.0572  0.3550
 5274SOL    HW127281   1.372   3.016   6.835  0.3847  0.1843  1.9440
 5274SOL    HW227282   1.244   2.971   6.888 -0.3662  0.6896  1.9937
 5275SOL     OW27283   3.636   4.489   4.942 -0.4670  0.0070  0.1125
 5275SOL    HW127284   3.570   4.538   4.992  0.8614  1.9362 -0.0113
 5275SOL    HW227285   3.575   4.429   4.899 -1.0451  0.6585  0.0134
 5276SOL     OW27286   3.067   1.768   5.956 -0.3650 -0.3576  0.5188
 5276SOL    HW127287   3.139   1.799   6.010  0.1221 -0.2041 -0.2127
 5276SOL    HW227288   2.999   1.832   5.976  1.0513  1.3601 -0.1261
 5277SOL     OW27289   4.145   3.062  10.074 -0.1277  0.3854  0.0930
 5277SOL    HW127290   4.206   3.040  10.003 -0.4919 -3.9037  1.1142
 5277SOL    HW227291   4.128   2.980  10.120  0.8625  0.0164 -0.2061
 5278SOL     OW27292   3.295   1.285   3.491 -0.0651 -0.2613  0.3162
 5278SOL    HW127293   3.241   1.278   3.413 -0.3035  0.6306  0.3986
 5278SOL    HW227294   3.359   1.348   3.456 -1.9950  1.1924 -0.5830
 5279SOL     OW27295   0.848   1.361  13.918 -0.0160  0.4816  0.3171
 5279SOL    HW127296   0.938   1.336  13.939 -0.5710  0.3906  2.6429
 5279SOL    HW227297   0.842   1.291  13.853 -1.0167 -0.7075  1.6806
 5280SOL     OW27298   0.251   3.081   2.725  0.3470 -0.1331  0.7715
 5280SOL    HW127299   0.240   3.176   2.722 -3.3782 -0.5230  1.5666
 5280SOL    HW227300   0.160   3.056   2.709  0.1695 -0.5752  2.4165
 5281SOL     OW27301   2.237   0.089   4.335 -0.3002  0.1443  0.3051
 5281SOL    HW127302   2.214   0.042   4.415 -2.8875  1.1687  0.1417
 5281SOL    HW227303   2.157   0.136   4.315 -0.9748 -0.6902  1.0687
 5282SOL     OW27304   0.366   4.670   5.368 -0.1683  0.3948 -0.2705
 5282SOL    HW127305   0.366   4.660   5.463  0.0044  1.7635 -0.1276
 5282SOL    HW227306   0.458   4.687   5.347  0.6883 -2.7065  0.9664
 5283SOL     OW27307   0.834   2.789   7.370  0.3083 -0.1640 -0.0504
 5283SOL    HW127308   0.760   2.768   7.427 -0.0855  1.0536 -0.1089
 5283SOL    HW227309   0.799   2.845   7.301 -2.4219 -0.6534  0.9338
 5284SOL     OW27310   3.496   4.490   5.641 -0.3149  0.7191  0.3849
 5284SOL    HW127311   3.430   4.472   5.575  0.8911 -1.1413 -0.3181
 5284SOL    HW227312   3.548   4.547   5.585  0.8964 -1.4144 -0.6484
 5285SOL     OW27313   2.712   2.164  11.691  0.7759  0.0944 -0.3018
 5285SOL    HW127314   2.620   2.150  11.669  0.6062  1.6376 -0.5553
 5285SOL    HW227315   2.725   2.109  11.768 -0.5945  3.2598  2.1926
 5286SOL     OW27316   3.184   2.336  15.826 -0.0101 -0.4227  0.1702
 5286SOL    HW127317   3.214   2.390  15.752  2.0383  0.5895  1.7497
 5286SOL    HW227318   3.198   2.386  15.906 -2.2324  0.1199  0.2184
 5287SOL     OW27319   2.224   2.753   0.184 -0.2493  0.1946  0.1416
 5287SOL    HW127320   2.231   2.817   0.112  2.4689  1.1192  1.2220
 5287SOL    HW227321   2.261   2.794   0.262 -1.0251 -1.2176  1.2480
 5288SOL     OW27322   2.694   1.268  15.496  0.1689 -0.2755  0.0913
 5288SOL    HW127323   2.737   1.351  15.518  1.1079 -0.5851 -0.5823
 5288SOL    HW227324   2.639   1.289  15.421 -1.1489 -1.3282  0.7685
 5289SOL     OW27325   2.822   2.401   5.455  0.1426 -0.1054  0.3040
 5289SOL    HW127326   2.905   2.447   5.473  0.3532  0.5927 -2.4609
 5289SOL    HW227327   2.779   2.453   5.387 -2.2423  0.1263  1.9867
 5290SOL     OW27328   3.639   2.185  14.508 -0.7814  0.0574  0.0647
 5290SOL    HW127329   3.716   2.129  14.504  0.7912  2.2291  0.0967
 5290SOL    HW227330   3.654   2.224  14.594  1.7211  1.4473 -1.0066
 5291SOL     OW27331   2.135   0.441  10.413 -0.6332 -0.8082  0.5041
 5291SOL    HW127332   2.097   0.354  10.426 -1.2725 -0.0802  3.4602
 5291SOL    HW227333   2.067   0.492  10.369 -1.4153 -1.2040  1.2493
 5292SOL     OW27334   3.149   3.447   4.567  0.1702 -0.3021 -0.0173
 5292SOL    HW127335   3.093   3.521   4.593 -0.1689 -0.7862  0.6216
 5292SOL    HW227336   3.091   3.372   4.577 -1.6137  0.8643 -1.4305
 5293SOL     OW27337   1.750   1.936   0.427  0.1091  0.0234  0.6590
 5293SOL    HW127338   1.724   1.846   0.409  1.4582 -0.3603  0.5728
 5293SOL    HW227339   1.845   1.938   0.442  0.3268  1.4238 -0.8371
 5294SOL     OW27340   3.463   2.593   4.376 -0.3548 -0.6137  0.0910
 5294SOL    HW127341   3.499   2.542   4.449 -0.8657  0.4327  1.0680
 5294SOL    HW227342   3.501   2.676   4.404  1.0742 -2.1035  2.5248
 5295SOL     OW27343   3.520   1.461   8.623 -0.3573  0.0229 -0.0823
 5295SOL    HW127344   3.509   1.523   8.695 -2.3284 -0.1110 -0.2532
 5295SOL    HW227345   3.551   1.376   8.652  1.3460  0.3257 -1.0401
 5296SOL     OW27346   1.562   2.791   8.454  0.7638 -0.0626  0.2265
 5296SOL    HW127347   1.540   2.746   8.535  0.6479 -0.2885  0.0699
 5296SOL    HW227348   1.481   2.785   8.402 -0.2606  0.6588  1.7515
 5297SOL     OW27349   1.030   2.490   4.100 -0.2658 -0.0430  0.1598
 5297SOL    HW127350   0.946   2.476   4.057 -0.9902  4.3798  0.1619
 5297SOL    HW227351   1.036   2.412   4.155  0.3222 -0.2355 -0.1708
 5298SOL     OW27352   3.083   1.240  11.517 -0.1797 -0.1021  0.3965
 5298SOL    HW127353   3.084   1.322  11.468  1.9039  0.4137  1.3147
 5298SOL    HW227354   3.159   1.201  11.473  0.3640 -1.4700  2.5319
 5299SOL     OW27355   4.404   2.613  12.357 -0.1034  0.1263  0.1533
 5299SOL    HW127356   4.471   2.577  12.299 -1.8512 -0.4503 -1.5178
 5299SOL    HW227357   4.390   2.537  12.414 -0.0631 -1.6513 -2.2031
 5300SOL     OW27358   4.686   2.997  14.525 -0.8729  0.2363 -0.7667
 5300SOL    HW127359   4.686   3.085  14.489  2.4342  1.0021  1.1183
 5300SOL    HW227360   4.609   2.954  14.487 -2.2615  0.9144  1.2425
 5301SOL     OW27361   2.247   3.629   2.669  0.6573 -0.0518  0.2772
 5301SOL    HW127362   2.320   3.577   2.701  0.1295  0.2430  1.9633
 5301SOL    HW227363   2.290   3.664   2.591  0.1363  0.3387  0.1564
 5302SOL     OW27364   1.727   0.431  12.747 -0.1121 -1.0591  0.4797
 5302SOL    HW127365   1.671   0.507  12.764 -0.2350 -1.4409  1.7448
 5302SOL    HW227366   1.680   0.398  12.670 -2.5369  0.0339  1.4938
 5303SOL     OW27367   1.842   2.065   3.997  0.0822 -0.4048  0.5871
 5303SOL    HW127368   1.881   2.022   3.921  0.0862  0.1242  0.2890
 5303SOL    HW227369   1.766   2.011   4.016  0.0175 -0.1650  1.0069
 5304SOL     OW27370   0.729   4.158   3.228 -0.7036 -0.0455 -0.1131
 5304SOL    HW127371   0.773   4.175   3.311 -0.7829  0.4247 -0.1649
 5304SOL    HW227372   0.713   4.066   3.245  1.7121 -0.0459  2.0289
 5305SOL     OW27373   1.799   0.460   6.786 -0.5102  0.0379  0.2368
 5305SOL    HW127374   1.829   0.383   6.834  2.1307  1.4569  0.8516
 5305SOL    HW227375   1.845   0.445   6.704 -0.0003  0.8122  0.3847
 5306SOL     OW27376   2.202   1.402  16.452 -0.3995  0.0392  0.4879
 5306SOL    HW127377   2.221   1.406  16.546  0.7180  2.9243  0.1253
 5306SOL    HW227378   2.125   1.459  16.449 -0.4598 -0.1368 -1.1073
 5307SOL     OW27379   0.433   1.048   6.500 -0.1136 -0.1822 -0.2629
 5307SOL    HW127380   0.447   0.970   6.446  0.2213 -0.6921  0.5567
 5307SOL    HW227381   0.522   1.070   6.528 -0.0288 -1.6911  0.6708
 5308SOL     OW27382   4.534   3.065  13.363  0.6385 -0.4979 -0.5341
 5308SOL    HW127383   4.460   3.021  13.321 -0.4501 -1.2863  2.2155
 5308SOL    HW227384   4.584   2.988  13.388  1.8612  0.9660  1.5005
 5309SOL     OW27385   2.055   0.929   9.215 -0.6493 -0.1369  0.9087
 5309SOL    HW127386   2.099   1.009   9.185 -0.3998 -0.1097  1.3471
 5309SOL    HW227387   1.979   0.942   9.159 -0.9866  0.1881  1.4389
 5310SOL     OW27388   1.639   4.379  12.703 -0.1978 -0.5367 -0.4816
 5310SOL    HW127389   1.594   4.440  12.645  1.2806 -1.0714 -2.1759
 5310SOL    HW227390   1.715   4.430  12.730  0.1010 -1.6258  0.7498
 5311SOL     OW27391   2.686   1.276   4.266  0.0449  0.2073  0.4622
 5311SOL    HW127392   2.704   1.335   4.193  2.9775  0.2063  1.1546
 5311SOL    HW227393   2.672   1.188   4.229 -1.3659  0.6055  0.0714
 5312SOL     OW27394   4.172   2.449   7.336  0.0483  0.0374 -0.7445
 5312SOL    HW127395   4.100   2.419   7.280 -0.9083 -1.2196  1.1663
 5312SOL    HW227396   4.142   2.455   7.427 -1.4503 -2.6230 -1.0691
 5313SOL     OW27397   0.989   0.126  15.495 -0.2806  0.4307  0.6680
 5313SOL    HW127398   0.896   0.141  15.473  0.1172  0.9983 -0.6546
 5313SOL    HW227399   0.986   0.035  15.464  0.1162  0.1394  1.5096
 5314SOL     OW27400   1.528   3.391  11.696  0.3748 -0.3603  0.1476
 5314SOL    HW127401   1.549   3.477  11.659  0.1909  0.1415  1.2231
 5314SOL    HW227402   1.588   3.379  11.770  0.4822  0.8667  0.2586
 5315SOL     OW27403   2.181   0.110  10.663  0.3554  0.7748  0.4156
 5315SOL    HW127404   2.136   0.066  10.591  0.5078 -0.8217  1.3011
 5315SOL    HW227405   2.264   0.146  10.632  0.7306  0.7757  1.4116
 5316SOL     OW27406   3.113   2.145   0.750 -0.1027 -0.1083 -0.6476
 5316SOL    HW127407   3.133   2.239   0.752 -2.2867  0.4001 -3.6444
 5316SOL    HW227408   3.076   2.118   0.834  1.0494 -0.1637 -0.1520
 5317SOL     OW27409   3.697   3.584   3.622  0.9694  0.2317 -0.0642
 5317SOL    HW127410   3.667   3.653   3.563 -1.2609 -0.5206  0.1730
 5317SOL    HW227411   3.634   3.602   3.692  1.3378  0.2555  0.2598
 5318SOL     OW27412   0.226   0.734  14.584 -0.2428  0.0167 -0.0896
 5318SOL    HW127413   0.280   0.729  14.663  2.6895  2.3260 -1.9475
 5318SOL    HW227414   0.236   0.827  14.567  0.3191  0.3212  1.8557
 5319SOL     OW27415   2.655   3.567   8.730  0.3218  0.1152 -0.0952
 5319SOL    HW127416   2.661   3.561   8.825 -0.5072  3.1388  0.1470
 5319SOL    HW227417   2.673   3.477   8.703  1.1821  0.9941 -2.4884
 5320SOL     OW27418   1.863   2.822   8.641 -0.1955 -0.5065  0.1222
 5320SOL    HW127419   1.926   2.867   8.586 -2.1605 -0.7435 -2.3278
 5320SOL    HW227420   1.870   2.734   8.604 -1.2531 -0.2487 -0.6977
 5321SOL     OW27421   2.767   0.843   6.064  0.4253  0.1167  0.0109
 5321SOL    HW127422   2.705   0.839   5.991  0.7030 -1.6858 -0.1189
 5321SOL    HW227423   2.707   0.855   6.138 -0.1132 -2.0715 -0.0759
 5322SOL     OW27424   1.303   2.808  11.020 -0.2519  0.5980  0.2033
 5322SOL    HW127425   1.238   2.739  11.007  0.0789  0.3348 -0.0498
 5322SOL    HW227426   1.377   2.777  10.966 -0.8102  1.6929 -1.1720
 5323SOL     OW27427   2.836   1.468   5.417  0.0929 -0.1937 -0.0462
 5323SOL    HW127428   2.763   1.517   5.378 -0.3426 -0.0013  1.0096
 5323SOL    HW227429   2.874   1.525   5.484  1.0693  0.8823 -1.5029
 5324SOL     OW27430   3.006   1.179   2.084 -0.2302  0.2401  0.4189
 5324SOL    HW127431   2.914   1.194   2.062 -0.4644  0.5142  1.5936
 5324SOL    HW227432   3.033   1.270   2.097  0.0971  0.3023 -0.6969
 5325SOL     OW27433   0.491   1.900   8.610 -0.3124  0.0635  0.2663
 5325SOL    HW127434   0.533   1.818   8.583 -0.9287  0.3457 -1.5745
 5325SOL    HW227435   0.401   1.878   8.586  0.0594 -1.0421 -0.1225
 5326SOL     OW27436   3.086   3.600   3.349  0.3429  0.1605  0.7065
 5326SOL    HW127437   3.149   3.531   3.372  0.2564  0.5461  2.1335
 5326SOL    HW227438   3.138   3.676   3.376  0.2457  0.6503 -0.4910
 5327SOL     OW27439   2.824   1.899   3.898 -0.4659  0.0817  0.3151
 5327SOL    HW127440   2.832   1.808   3.870  0.8843  0.3717 -0.2374
 5327SOL    HW227441   2.730   1.908   3.914 -0.9606 -0.6490 -2.0138
 5328SOL     OW27442   3.771   0.126   6.051 -0.1081 -0.0426 -0.2383
 5328SOL    HW127443   3.851   0.135   6.000 -0.3924  1.0620 -0.5030
 5328SOL    HW227444   3.730   0.075   5.982  1.1535 -1.4526  0.0554
 5329SOL     OW27445   1.589   3.381   3.118 -0.3607 -0.5769  0.3686
 5329SOL    HW127446   1.557   3.446   3.056  1.7138 -3.3821 -3.6237
 5329SOL    HW227447   1.663   3.347   3.067  0.1064 -0.1685  0.7753
 5330SOL     OW27448   2.246   3.388   8.168 -0.2838  0.1150 -0.0577
 5330SOL    HW127449   2.322   3.352   8.123 -1.1375 -1.6436 -0.1000
 5330SOL    HW227450   2.274   3.469   8.211  0.3447 -1.2571  2.0903
 5331SOL     OW27451   1.040   3.187   7.122 -0.4887  0.7655 -0.4823
 5331SOL    HW127452   0.963   3.238   7.145 -0.4252 -0.4772  2.5556
 5331SOL    HW227453   1.002   3.111   7.077 -0.1590 -0.6389  1.5937
 5332SOL     OW27454   4.541   2.141   0.856 -0.2337 -0.1602 -0.0324
 5332SOL    HW127455   4.619   2.092   0.829 -0.9664 -1.6222  0.5392
 5332SOL    HW227456   4.511   2.158   0.767  2.0539 -0.4939 -0.8770
 5333SOL     OW27457   2.145   1.258  12.384  0.2871 -0.1935 -0.9439
 5333SOL    HW127458   2.069   1.215  12.345 -1.5827  0.1076  2.4208
 5333SOL    HW227459   2.157   1.210  12.466  1.6032  1.6764 -0.0409
 5334SOL     OW27460   3.887   0.840   5.518  0.3097 -0.4249  0.4372
 5334SOL    HW127461   3.912   0.784   5.592  0.4103  0.6243  1.2037
 5334SOL    HW227462   3.906   0.779   5.447  2.4835 -0.4732  1.0492
 5335SOL     OW27463   3.609   4.104   2.384 -0.1612 -0.1583  0.4546
 5335SOL    HW127464   3.626   4.010   2.390 -0.1519 -0.2321 -0.5725
 5335SOL    HW227465   3.515   4.117   2.397 -0.2123  2.9148 -2.8852
 5336SOL     OW27466   3.213   1.214   7.238  0.5952  0.8573  0.0016
 5336SOL    HW127467   3.174   1.230   7.324  1.1326  1.4519  0.1348
 5336SOL    HW227468   3.147   1.243   7.176  0.4720 -0.4074 -0.4608
 5337SOL     OW27469   3.367   1.760   5.548  0.5828 -0.5946  0.7087
 5337SOL    HW127470   3.298   1.774   5.612  1.0343 -0.2695  1.1259
 5337SOL    HW227471   3.434   1.817   5.585  2.8180 -0.4720 -3.4962
 5338SOL     OW27472   1.146   1.547  10.947 -0.0477  0.3530 -0.1273
 5338SOL    HW127473   1.143   1.604  10.870 -2.7428  1.3591  0.7077
 5338SOL    HW227474   1.051   1.540  10.957 -0.5243  2.1061 -3.1974
 5339SOL     OW27475   3.385   1.972   6.567 -0.2390 -0.0130 -0.1781
 5339SOL    HW127476   3.341   1.896   6.606  4.1128 -2.0748  0.6805
 5339SOL    HW227477   3.382   1.934   6.479 -1.6318  1.1252 -0.6234
 5340SOL     OW27478   2.456   4.586  13.535 -0.2694  0.4597  0.0900
 5340SOL    HW127479   2.507   4.645  13.590  0.6865  0.3838 -0.7081
 5340SOL    HW227480   2.433   4.515  13.595  0.8172  0.6848  0.7702
 5341SOL     OW27481   2.458   3.365  12.608  0.4637 -0.2637 -0.0653
 5341SOL    HW127482   2.516   3.361  12.532 -1.7632 -0.0271 -1.7778
 5341SOL    HW227483   2.516   3.330  12.676  0.2153  0.4075  0.4955
 5342SOL     OW27484   2.640   0.077   4.953 -0.4268  0.1496 -0.1924
 5342SOL    HW127485   2.691   0.116   5.025 -0.3833 -0.7854  0.2842
 5342SOL    HW227486   2.572   0.141   4.931 -3.2782 -2.5147  0.7593
 5343SOL     OW27487   0.015   4.691  13.283  0.1891 -0.1503 -0.0958
 5343SOL    HW127488   4.652   4.712  13.250  0.5525  2.1127  0.3890
 5343SOL    HW227489   0.004   4.601  13.314 -0.4479 -0.1655 -0.3788
 5344SOL     OW27490   2.572   4.403   4.491  0.1507  0.2581 -0.0250
 5344SOL    HW127491   2.492   4.351   4.488  0.4008 -0.2706  2.3238
 5344SOL    HW227492   2.563   4.424   4.584  0.4697 -0.0137  0.0661
 5345SOL     OW27493   0.289   2.630   2.957 -0.3591  0.0088  0.5718
 5345SOL    HW127494   0.271   2.547   3.002 -1.6481 -0.2426 -0.4188
 5345SOL    HW227495   0.331   2.587   2.882  1.2140  0.5946  1.1155
 5346SOL     OW27496   3.501   3.871   9.311  0.7541  0.1607 -0.0239
 5346SOL    HW127497   3.564   3.887   9.242  0.7740 -2.3063 -0.5658
 5346SOL    HW227498   3.571   3.842   9.370 -1.0178 -0.4181  1.8238
 5347SOL     OW27499   3.618   3.383   4.044 -0.1134  0.1541 -0.2988
 5347SOL    HW127500   3.623   3.402   3.950  1.6011 -0.4150 -0.3350
 5347SOL    HW227501   3.695   3.328   4.058 -2.5718 -3.6505 -1.5960
 5348SOL     OW27502   3.554   2.824  12.445  0.3611  0.4264  0.6524
 5348SOL    HW127503   3.624   2.858  12.389 -1.8404  1.5945 -1.3945
 5348SOL    HW227504   3.504   2.905  12.456 -0.3301  0.2782 -1.3955
 5349SOL     OW27505   4.589   0.185   9.237 -0.4777 -0.0827  0.1847
 5349SOL    HW127506   4.582   0.112   9.299 -1.3340  0.3275  0.5607
 5349SOL    HW227507   4.505   0.177   9.192  0.5742 -0.7686 -1.6578
 5350SOL     OW27508   3.689   2.179   8.301 -0.1766  0.0089  0.4664
 5350SOL    HW127509   3.757   2.146   8.242 -0.9080  0.3503 -0.5657
 5350SOL    HW227510   3.679   2.103   8.359  1.3407 -1.9407 -1.8517
 5351SOL     OW27511   2.749   4.470   9.251  0.9138  0.3575  0.0844
 5351SOL    HW127512   2.738   4.385   9.293  1.9731  0.7875  1.2266
 5351SOL    HW227513   2.758   4.525   9.329  1.1284 -0.9834  0.9930
 5352SOL     OW27514   0.805   4.424  12.468  0.1810  0.2496 -0.1586
 5352SOL    HW127515   0.710   4.419  12.478  0.3117 -0.6049  0.6616
 5352SOL    HW227516   0.833   4.471  12.547 -2.2130  0.1486  0.7471
 5353SOL     OW27517   0.772   0.773   5.478 -0.4091 -0.4259  0.0375
 5353SOL    HW127518   0.736   0.722   5.405  0.2681 -0.2418 -0.4204
 5353SOL    HW227519   0.785   0.707   5.546 -1.2874 -0.3195  0.3036
 5354SOL     OW27520   4.254   3.990   2.788 -0.7048 -0.0698  0.1932
 5354SOL    HW127521   4.242   4.036   2.705 -0.2266  0.7636  0.5892
 5354SOL    HW227522   4.349   3.983   2.796 -0.5282  0.7707 -1.1483
 5355SOL     OW27523   2.124   3.004  14.964 -0.5119  0.0810  0.1780
 5355SOL    HW127524   2.188   2.953  15.013 -0.3143 -0.2847 -0.4715
 5355SOL    HW227525   2.176   3.040  14.893  1.2634 -0.2018  1.3308
 5356SOL     OW27526   0.532   3.955  16.841 -0.4608 -0.0420  0.8479
 5356SOL    HW127527   0.575   4.007  16.909 -0.1560 -0.9167  1.3171
 5356SOL    HW227528   0.578   3.872  16.846 -0.7278 -0.1387  1.6087
 5357SOL     OW27529   3.890   3.401   7.936  0.2107 -0.0331 -0.1194
 5357SOL    HW127530   3.898   3.496   7.944 -1.9678  0.0162  1.5055
 5357SOL    HW227531   3.950   3.373   8.004  0.6848 -1.5278 -1.1315
 5358SOL     OW27532   1.395   3.142   9.495  0.3265  0.1341  0.4414
 5358SOL    HW127533   1.390   3.187   9.580 -0.9000  1.6685 -0.4571
 5358SOL    HW227534   1.328   3.074   9.503  1.8343 -1.0594  2.9715
 5359SOL     OW27535   0.413   2.593   5.253 -0.2157 -0.0539  0.0246
 5359SOL    HW127536   0.476   2.545   5.306 -0.2506  1.3094  1.3142
 5359SOL    HW227537   0.336   2.539   5.270 -2.1704  2.6903 -0.1074
 5360SOL     OW27538   0.482   4.294   8.519  0.8512 -0.1089  0.1518
 5360SOL    HW127539   0.417   4.259   8.580  1.9356 -2.4356 -0.0050
 5360SOL    HW227540   0.468   4.219   8.460  0.9850 -0.0551  0.0519
 5361SOL     OW27541   3.803   4.489  16.715  0.3411  0.1380  0.5887
 5361SOL    HW127542   3.844   4.539  16.786  0.4954  0.1831  0.4680
 5361SOL    HW227543   3.799   4.403  16.757  3.0799  0.8146  2.2373
 5362SOL     OW27544   4.533   3.477   8.575 -0.6470 -0.6350  0.3522
 5362SOL    HW127545   4.573   3.495   8.659  0.9539  0.1144 -0.5755
 5362SOL    HW227546   4.451   3.430   8.593 -0.4259 -1.3005 -0.3463
 5363SOL     OW27547   0.901   0.666   9.571 -0.2808 -0.0176 -0.1497
 5363SOL    HW127548   0.966   0.732   9.548  0.7008 -0.4797  1.2558
 5363SOL    HW227549   0.918   0.612   9.493  2.1416 -1.3194  1.2674
 5364SOL     OW27550   3.068   1.801   1.644  0.5700  0.5107 -0.4226
 5364SOL    HW127551   3.075   1.873   1.707  1.2735 -2.6670  3.1528
 5364SOL    HW227552   3.085   1.717   1.688  4.0576  1.4236 -0.0470
 5365SOL     OW27553   4.521   1.114   8.010  0.0399  0.2904  0.4256
 5365SOL    HW127554   4.436   1.107   8.055  0.1402  0.9232  0.7091
 5365SOL    HW227555   4.538   1.020   8.009 -0.5990  0.1964 -2.2020
 5366SOL     OW27556   1.641   4.187  17.221 -0.2560  0.0645  0.0227
 5366SOL    HW127557   1.616   4.176  17.129 -1.3791 -0.5938  0.4184
 5366SOL    HW227558   1.585   4.258  17.253 -0.2668  0.8629 -1.7343
 5367SOL     OW27559   4.012   2.501   5.817  0.1725  0.2265  0.2414
 5367SOL    HW127560   4.081   2.523   5.879  0.5066 -0.6032  0.1647
 5367SOL    HW227561   3.964   2.430   5.861  1.6347 -0.8428  0.1222
 5368SOL     OW27562   3.990   3.236   4.418 -0.1130 -0.3228  0.0473
 5368SOL    HW127563   3.928   3.207   4.352 -0.3469  0.2493  0.0213
 5368SOL    HW227564   4.071   3.236   4.367 -0.3186  2.1594 -0.2441
 5369SOL     OW27565   2.838   3.001   4.536  0.5048 -0.1144  0.1945
 5369SOL    HW127566   2.866   2.935   4.599  2.5007  0.7967  0.2329
 5369SOL    HW227567   2.775   2.955   4.481 -1.1820  2.8969 -0.3751
 5370SOL     OW27568   2.376   1.222   5.604  0.1924  0.0181 -0.3517
 5370SOL    HW127569   2.298   1.181   5.642 -0.2500  0.3118 -0.9427
 5370SOL    HW227570   2.355   1.315   5.600  1.8308  0.3197 -1.9957
 5371SOL     OW27571   3.624   1.452  12.632  0.7038 -0.6477 -0.0783
 5371SOL    HW127572   3.531   1.456  12.607  0.6303 -0.9882  0.1368
 5371SOL    HW227573   3.626   1.513  12.705  2.1270  1.1275 -1.5963
 5372SOL     OW27574   4.417   2.010   5.987 -0.3393  0.7721  0.0609
 5372SOL    HW127575   4.480   2.052   5.927 -0.7086 -0.6079 -1.2785
 5372SOL    HW227576   4.338   2.065   5.987  0.2542  1.6361 -1.0354
 5373SOL     OW27577   4.697   0.710  13.553 -0.0379  0.2503  0.6821
 5373SOL    HW127578   0.012   0.625  13.534  0.4645  0.7233 -0.3975
 5373SOL    HW227579   4.604   0.686  13.551  0.2914 -0.8565 -1.3135
 5374SOL     OW27580   2.565   1.272   5.998 -0.3851  0.1689 -0.1561
 5374SOL    HW127581   2.500   1.202   5.994 -1.3165  1.0867 -0.8162
 5374SOL    HW227582   2.634   1.242   5.939 -1.2693 -0.0273 -1.0839
 5375SOL     OW27583   2.469   4.261   7.877 -0.0208  0.3338 -0.6346
 5375SOL    HW127584   2.460   4.204   7.801 -2.2627 -0.1995  0.0105
 5375SOL    HW227585   2.559   4.250   7.908  1.1552 -0.3911 -4.3503
 5376SOL     OW27586   0.530   4.141   1.447 -0.4705 -0.2070 -0.4414
 5376SOL    HW127587   0.558   4.050   1.438 -0.3609 -0.4332  2.1216
 5376SOL    HW227588   0.608   4.191   1.424 -1.5278  1.8040  0.3767
 5377SOL     OW27589   3.523   2.985  17.312  0.0157 -0.0608 -0.3916
 5377SOL    HW127590   3.532   2.951  17.223 -2.3504 -0.5096 -0.4638
 5377SOL    HW227591   3.560   3.071  17.295 -0.2481  0.3023  0.8954
 5378SOL     OW27592   2.429   3.780  13.530 -0.0256 -1.0453 -0.5906
 5378SOL    HW127593   2.447   3.743  13.444  2.0730 -1.0737 -0.1608
 5378SOL    HW227594   2.497   3.848  13.534 -1.6867  0.7960 -3.6409
 5379SOL     OW27595   1.074   2.354   8.697  0.0085  0.1697 -0.3607
 5379SOL    HW127596   0.991   2.396   8.678 -0.9988  0.3232  4.2126
 5379SOL    HW227597   1.069   2.279   8.638 -0.9339  0.2000 -0.3169
 5380SOL     OW27598   4.126   0.856   0.720  0.0034  0.5075  0.1922
 5380SOL    HW127599   4.189   0.848   0.792 -0.5531 -1.3165  0.4519
 5380SOL    HW227600   4.103   0.947   0.740 -0.0889 -0.0048  2.4002
 5381SOL     OW27601   0.732   4.649  15.523  0.7359 -0.3995  0.2381
 5381SOL    HW127602   0.744   4.657  15.618 -0.5735  3.1340  0.1089
 5381SOL    HW227603   0.664   4.715  15.517  0.2956 -0.7948  0.8922
 5382SOL     OW27604   3.223   4.351  11.533 -0.2541 -0.2383  0.4828
 5382SOL    HW127605   3.137   4.322  11.564 -1.7746  2.1980 -1.4820
 5382SOL    HW227606   3.230   4.314  11.445 -1.4421  2.9093 -0.9289
 5383SOL     OW27607   1.320   2.283   4.462 -0.7514  0.4379  0.8385
 5383SOL    HW127608   1.237   2.255   4.501 -0.0813 -2.5134  0.1518
 5383SOL    HW227609   1.374   2.295   4.540  2.8499  2.2630 -1.9239
 5384SOL     OW27610   1.339   4.310   0.818 -0.1237  0.3226  0.0872
 5384SOL    HW127611   1.256   4.318   0.865  1.6119 -1.5217  3.4825
 5384SOL    HW227612   1.316   4.348   0.734 -0.5208  1.7114  0.8258
 5385SOL     OW27613   4.412   2.503   2.408  0.4746 -0.1240  0.5333
 5385SOL    HW127614   4.361   2.559   2.466 -1.9393 -0.6897 -1.0484
 5385SOL    HW227615   4.504   2.518   2.430  0.7946  2.1235 -2.2922
 5386SOL     OW27616   0.029   3.327   0.199  0.3149 -0.5671 -0.0273
 5386SOL    HW127617   0.064   3.241   0.174 -0.7064 -0.9978  0.0289
 5386SOL    HW227618   0.111   3.361   0.236 -0.2495  0.0540  0.6332
 5387SOL     OW27619   4.173   0.595  17.103  0.1351 -0.1811 -0.5312
 5387SOL    HW127620   4.257   0.580  17.059 -0.6896  0.2098 -2.1938
 5387SOL    HW227621   4.119   0.544  17.044  0.3111 -0.0452 -0.8108
 5388SOL     OW27622   4.448   1.592   9.993  0.1983  0.4463 -0.3935
 5388SOL    HW127623   4.504   1.615   9.918 -0.1591 -0.9347 -1.0953
 5388SOL    HW227624   4.491   1.603  10.077 -0.1192  1.4323 -0.3628
 5389SOL     OW27625   1.822   1.124   3.154 -0.2220  0.1721  0.7791
 5389SOL    HW127626   1.815   1.156   3.244  0.3968 -0.7721  1.1563
 5389SOL    HW227627   1.730   1.099   3.144  0.0078 -0.4698  0.3039
 5390SOL     OW27628   4.123   1.162   2.407 -0.6796  0.3702  0.0149
 5390SOL    HW127629   4.142   1.215   2.330 -0.5832 -1.0180 -0.9174
 5390SOL    HW227630   4.044   1.203   2.443  1.1850  4.3392 -0.4054
 5391SOL     OW27631   2.661   0.801   8.610 -0.1062  0.0462 -0.2174
 5391SOL    HW127632   2.575   0.843   8.607  0.4831  1.1884 -1.3496
 5391SOL    HW227633   2.715   0.874   8.637 -0.2078 -0.4676  1.3629
 5392SOL     OW27634   3.826   2.801   5.316  0.1739  0.1274  0.1582
 5392SOL    HW127635   3.767   2.848   5.374 -1.4653 -2.2463  0.4259
 5392SOL    HW227636   3.811   2.717   5.360 -0.7594  0.7543  1.0390
 5393SOL     OW27637   4.117   1.046   1.800 -0.1013  0.1306  0.2252
 5393SOL    HW127638   4.132   1.039   1.706 -0.9547  1.3342  0.0032
 5393SOL    HW227639   4.175   0.977   1.832 -0.3757 -1.0423 -1.8050
 5394SOL     OW27640   0.019   3.443   6.233  0.0163  0.0435  0.3468
 5394SOL    HW127641   0.071   3.394   6.296 -0.1423 -1.5686 -0.7867
 5394SOL    HW227642   0.079   3.438   6.158 -0.6691 -2.4474 -0.0358
 5395SOL     OW27643   0.082   4.059   6.479 -0.0355  0.1930 -0.3220
 5395SOL    HW127644   0.102   3.980   6.530  1.4718  1.0477  0.3899
 5395SOL    HW227645   0.102   4.118   6.552 -3.4542  0.1183  0.7215
 5396SOL     OW27646   3.623   4.648   9.798  0.6101 -0.3450  0.4305
 5396SOL    HW127647   3.700   4.669   9.745 -0.5327 -0.4926 -1.3126
 5396SOL    HW227648   3.650   4.673   9.886  1.3472 -0.1270  0.1420
 5397SOL     OW27649   0.886   1.259  11.490 -0.1226 -0.0558 -0.0717
 5397SOL    HW127650   0.962   1.316  11.494  0.1866 -0.6280  2.2154
 5397SOL    HW227651   0.927   1.186  11.444  1.8283  1.5968 -0.9359
 5398SOL     OW27652   1.545   2.129   8.364  0.3621  0.2733 -0.3613
 5398SOL    HW127653   1.472   2.067   8.360 -1.4006  2.2807  0.8604
 5398SOL    HW227654   1.548   2.148   8.458 -0.8919 -1.5219  0.0399
 5399SOL     OW27655   3.710   0.030   4.564 -0.0984  0.7168  0.1932
 5399SOL    HW127656   3.707   0.022   4.660 -1.2301 -0.3533  0.0789
 5399SOL    HW227657   3.621   0.004   4.540  0.5085 -0.8088 -0.3537
 5400SOL     OW27658   0.238   0.938  11.223  0.0213  0.1520 -0.3165
 5400SOL    HW127659   0.331   0.916  11.224  0.0368  0.2057 -0.5305
 5400SOL    HW227660   0.202   0.869  11.279 -0.2541  1.1136  0.6994
 5401SOL     OW27661   0.568   4.313   4.863 -0.7798 -0.4487 -0.3367
 5401SOL    HW127662   0.513   4.375   4.911  0.5602  0.4204  0.0844
 5401SOL    HW227663   0.499   4.250   4.839 -0.5659 -0.0132 -2.0804
 5402SOL     OW27664   0.092   3.209  15.176  0.0897 -0.4379 -0.0728
 5402SOL    HW127665   0.077   3.224  15.082 -0.5722  2.1105  0.4543
 5402SOL    HW227666   0.126   3.119  15.173 -1.0909 -0.8144 -2.2802
 5403SOL     OW27667   0.737   1.864   3.879  0.7289  0.5084 -0.1166
 5403SOL    HW127668   0.734   1.774   3.913 -0.3446  0.3563 -0.6203
 5403SOL    HW227669   0.729   1.844   3.785  1.4446  4.3075 -0.9937
 5404SOL     OW27670   3.021   0.048   7.672 -0.3692 -0.3288  0.2401
 5404SOL    HW127671   3.046   0.038   7.764  3.0732 -0.8598 -0.7767
 5404SOL    HW227672   3.096   0.092   7.631 -0.0884 -0.6102  0.4495
 5405SOL     OW27673   2.656   2.170   4.714  0.7268 -0.4023  0.0786
 5405SOL    HW127674   2.684   2.147   4.803 -2.7728 -1.5412  0.9030
 5405SOL    HW227675   2.711   2.243   4.690  1.0932  0.0397  2.2257
 5406SOL     OW27676   2.579   0.494   6.968 -0.4660 -0.3989  0.1603
 5406SOL    HW127677   2.544   0.516   7.054  0.3468  0.0267  0.3760
 5406SOL    HW227678   2.500   0.446   6.942  0.2872 -0.8020 -1.4026
 5407SOL     OW27679   3.041   0.102   5.341 -0.1908 -0.0813  0.4693
 5407SOL    HW127680   3.051   0.182   5.289 -1.0870  0.0108  0.4455
 5407SOL    HW227681   3.095   0.123   5.418  1.5815  3.6421 -1.7695
 5408SOL     OW27682   0.908   1.985   2.510 -0.2214  0.2331  0.1855
 5408SOL    HW127683   0.830   1.998   2.564 -0.3146 -1.6110  0.5066
 5408SOL    HW227684   0.977   1.995   2.575 -1.5995  1.9738  1.3881
 5409SOL     OW27685   2.394   4.015   4.436 -0.0416  0.3013  0.3064
 5409SOL    HW127686   2.428   4.079   4.373 -1.4043 -1.6053 -2.3712
 5409SOL    HW227687   2.335   3.974   4.373  1.4316 -2.1733  0.5260
 5410SOL     OW27688   1.024   0.798   5.716  0.0122  0.2369 -0.3212
 5410SOL    HW127689   1.115   0.772   5.726 -0.9467 -2.8487  0.4920
 5410SOL    HW227690   1.030   0.878   5.664 -2.0807 -0.5256 -1.7373
 5411SOL     OW27691   2.600   1.577  16.276 -0.5011 -0.9504  0.1782
 5411SOL    HW127692   2.659   1.582  16.201 -0.7354  1.6661  0.1410
 5411SOL    HW227693   2.582   1.671  16.274 -0.5167 -1.0024 -1.9013
 5412SOL     OW27694   4.000   3.703   3.685  0.0539 -0.0012 -0.1166
 5412SOL    HW127695   4.065   3.694   3.615  3.2412 -0.6876  2.9322
 5412SOL    HW227696   3.922   3.675   3.637  1.0876 -1.2986 -1.0346
 5413SOL     OW27697   0.728   4.652   5.046  0.1700  0.1260 -0.3145
 5413SOL    HW127698   0.732   4.556   5.046  1.4070  0.1924 -2.8480
 5413SOL    HW227699   0.822   4.662   5.060  0.4852 -0.2691 -2.1233
 5414SOL     OW27700   2.632   0.074   6.944  0.3117  0.3274 -0.2769
 5414SOL    HW127701   2.685   0.150   6.917  2.6220 -1.1602  0.0286
 5414SOL    HW227702   2.644   0.083   7.038  2.2977  1.1350 -0.5978
 5415SOL     OW27703   1.174   2.947  17.662  0.1543  0.2507 -0.2149
 5415SOL    HW127704   1.208   2.978  17.578 -0.4331  1.0826 -0.1482
 5415SOL    HW227705   1.242   2.974   0.027 -0.4229 -2.3038  1.5363
 5416SOL     OW27706   4.714   3.112   8.249 -0.0349  0.0713 -0.2935
 5416SOL    HW127707   4.659   3.189   8.264  1.2289  0.9501 -0.1080
 5416SOL    HW227708   4.679   3.066   8.173  0.5067 -1.1650  0.1947
 5417SOL     OW27709   3.087   0.405   9.586  0.2437 -0.3982 -0.0199
 5417SOL    HW127710   3.135   0.322   9.590  0.8980 -0.0412 -0.4815
 5417SOL    HW227711   3.155   0.469   9.608 -1.8291  1.7032  0.2128
 5418SOL     OW27712   3.797   1.596  13.468 -0.3590 -0.1190 -0.0766
 5418SOL    HW127713   3.750   1.514  13.483 -0.5492  0.4930  2.6315
 5418SOL    HW227714   3.889   1.570  13.473 -0.3462 -0.2629 -1.0112
 5419SOL     OW27715   2.926   3.486   7.832 -0.4314  0.0386 -0.1008
 5419SOL    HW127716   2.894   3.395   7.830 -0.4809  0.0997 -1.8942
 5419SOL    HW227717   2.855   3.524   7.780  0.8932  3.0261  0.3197
 5420SOL     OW27718   1.366   1.394   6.513 -0.1471  0.1161 -0.1834
 5420SOL    HW127719   1.371   1.488   6.491  0.7342 -0.5171 -2.6778
 5420SOL    HW227720   1.318   1.392   6.595  1.1955 -2.7508  0.5268
 5421SOL     OW27721   3.920   2.840   5.612  0.6306  0.4869  0.0639
 5421SOL    HW127722   3.909   2.929   5.578  0.9377 -0.1339 -1.6780
 5421SOL    HW227723   3.970   2.862   5.691 -0.0847 -0.3222  0.7333
 5422SOL     OW27724   2.468   1.474   4.437  0.1402  0.4279 -0.5201
 5422SOL    HW127725   2.521   1.407   4.394 -0.1124 -1.1143  1.5661
 5422SOL    HW227726   2.508   1.484   4.523  1.3393 -0.1929 -0.9977
 5423SOL     OW27727   3.976   3.671   8.920 -0.4085 -0.0569  0.3254
 5423SOL    HW127728   3.984   3.746   8.861 -2.9865 -0.4500 -0.5220
 5423SOL    HW227729   3.958   3.602   8.856 -0.4485 -1.1426  1.4987
 5424SOL     OW27730   3.504   0.372   9.066  0.1444  0.5444 -0.0952
 5424SOL    HW127731   3.476   0.366   9.157 -0.8913  0.1672 -0.4428
 5424SOL    HW227732   3.448   0.306   9.024  1.4439 -1.6702  1.6463
 5425SOL     OW27733   2.064   2.474  11.990 -0.2303 -0.3274  0.4003
 5425SOL    HW127734   2.025   2.510  12.069  1.7141 -0.8312  1.5969
 5425SOL    HW227735   1.984   2.440  11.949 -0.0394  0.2722 -0.4778
 5426SOL     OW27736   3.622   4.449   6.671 -0.4758  0.0027  0.1741
 5426SOL    HW127737   3.620   4.525   6.730 -0.7365 -0.9107  1.3488
 5426SOL    HW227738   3.530   4.440   6.644 -0.7130  0.6140  0.7625
 5427SOL     OW27739   3.875   0.154   3.915  0.3792 -0.5962 -0.2268
 5427SOL    HW127740   3.962   0.195   3.912  0.3040 -0.3403  1.1502
 5427SOL    HW227741   3.826   0.227   3.951 -1.2565 -2.6256  1.6202
 5428SOL     OW27742   3.831   4.333   1.460 -0.0073  0.4618 -0.2251
 5428SOL    HW127743   3.878   4.353   1.378 -1.8842  1.4872 -1.0520
 5428SOL    HW227744   3.744   4.343   1.421 -0.1371 -1.6294 -0.4519
 5429SOL     OW27745   4.509   1.346   9.039  0.1104 -0.6579 -0.6907
 5429SOL    HW127746   4.458   1.374   8.963 -0.2346  0.0107 -0.2099
 5429SOL    HW227747   4.499   1.251   9.028  0.0584 -0.8038  0.6871
 5430SOL     OW27748   4.647   0.830   1.874 -0.5649  0.3749 -0.0226
 5430SOL    HW127749   4.601   0.913   1.860 -0.8950  0.1924 -0.0096
 5430SOL    HW227750   4.667   0.814   1.782 -1.3097 -0.1111 -0.0964
 5431SOL     OW27751   2.893   1.256  12.928 -0.1383 -0.0337 -0.5758
 5431SOL    HW127752   2.854   1.170  12.918 -0.0508 -0.1914  0.3874
 5431SOL    HW227753   2.811   1.298  12.902  0.2700  2.0225  1.3504
 5432SOL     OW27754   2.931   3.101  11.385  0.3678 -0.2414  0.2429
 5432SOL    HW127755   2.946   3.043  11.310 -2.5148 -1.7167  0.8076
 5432SOL    HW227756   2.950   3.034  11.450  0.6463  2.0449  2.5381
 5433SOL     OW27757   2.278   0.599   1.175  0.0099 -0.0558 -0.4897
 5433SOL    HW127758   2.346   0.557   1.228  0.5799 -0.6010 -1.6656
 5433SOL    HW227759   2.198   0.558   1.209 -1.3295  4.0845  1.3841
 5434SOL     OW27760   2.928   1.853   3.589 -0.0276 -0.1603  0.3428
 5434SOL    HW127761   2.876   1.923   3.628  1.1923  1.4205 -0.8372
 5434SOL    HW227762   2.976   1.819   3.665  1.6887  0.3842 -0.4820
 5435SOL     OW27763   4.182   3.323  10.809 -0.2578  0.1174  0.1177
 5435SOL    HW127764   4.195   3.228  10.807  1.0404  0.2790  0.8066
 5435SOL    HW227765   4.267   3.352  10.843 -1.3008  0.3024  2.6132
 5436SOL     OW27766   3.899   4.186   7.529 -0.0048  0.0990 -0.0933
 5436SOL    HW127767   3.956   4.215   7.458  0.8539  0.7532  0.8610
 5436SOL    HW227768   3.830   4.246   7.504 -0.6419 -0.6108 -0.0455
 5437SOL     OW27769   1.536   4.348   7.631 -0.6186 -0.3472 -0.2239
 5437SOL    HW127770   1.613   4.404   7.616 -1.2245  0.1668 -1.4267
 5437SOL    HW227771   1.526   4.355   7.726 -0.4787 -0.8078 -0.1778
 5438SOL     OW27772   4.518   0.822  13.265  0.1074 -0.3499  0.1087
 5438SOL    HW127773   4.517   0.729  13.287  3.2856 -0.4543 -0.1650
 5438SOL    HW227774   4.435   0.850  13.226 -1.2953  0.4007  3.6340
 5439SOL     OW27775   3.859   2.819   3.930  0.1965  0.7268 -0.4859
 5439SOL    HW127776   3.843   2.804   4.024 -1.9000  0.3906 -0.8926
 5439SOL    HW227777   3.772   2.844   3.899 -0.1447 -1.1598 -1.0714
 5440SOL     OW27778   0.917   4.492   7.597  0.8247  0.4480  0.1954
 5440SOL    HW127779   0.983   4.561   7.600  0.6855  0.5277  1.3674
 5440SOL    HW227780   0.963   4.440   7.530  1.0917  0.3698  0.4408
 5441SOL     OW27781   4.541   1.493  12.890  0.2315  0.0605 -0.4364
 5441SOL    HW127782   4.635   1.480  12.905  0.1815  0.6848  0.4131
 5441SOL    HW227783   4.535   1.541  12.807  0.6736 -0.6085 -0.8561
 5442SOL     OW27784   2.873   0.249   0.879 -0.4050  0.1849  0.7264
 5442SOL    HW127785   2.833   0.283   0.799 -0.8969  1.6077  1.5679
 5442SOL    HW227786   2.946   0.310   0.888 -0.2617 -0.1473  1.8514
 5443SOL     OW27787   1.905   3.093   3.384 -0.0730  0.5575  0.0551
 5443SOL    HW127788   1.953   3.079   3.465  3.4675  0.1099 -2.1555
 5443SOL    HW227789   1.891   3.000   3.367 -1.5966  0.7273  0.3001
 5444SOL     OW27790   0.787   2.961   7.180 -0.3672 -0.1847 -0.0607
 5444SOL    HW127791   0.855   2.957   7.113  1.1492 -1.9660  1.5707
 5444SOL    HW227792   0.756   3.050   7.165  3.2485  1.0322 -0.2217
 5445SOL     OW27793   3.019   2.751   7.750  0.1981  0.0568 -0.3306
 5445SOL    HW127794   3.097   2.805   7.759 -1.4454  2.1329  1.2535
 5445SOL    HW227795   2.976   2.796   7.677  0.9957 -2.5737 -2.4496
 5446SOL     OW27796   3.014   2.045   8.283  0.1333 -0.2290 -0.6956
 5446SOL    HW127797   2.996   2.075   8.372 -0.4797 -1.1866 -0.4935
 5446SOL    HW227798   3.075   2.117   8.267 -1.6016  0.7996 -2.6028
 5447SOL     OW27799   1.123   3.731  11.008 -0.0984 -0.5036  0.0747
 5447SOL    HW127800   1.218   3.723  11.018 -0.0945 -0.4484  0.0808
 5447SOL    HW227801   1.100   3.805  10.953  0.6197  0.2047  0.7174
 5448SOL     OW27802   2.993   3.682   4.574  0.0554 -0.6422  0.5738
 5448SOL    HW127803   2.930   3.633   4.627 -2.8531  0.4571 -1.9297
 5448SOL    HW227804   2.945   3.677   4.492  1.0695  1.8070 -0.1570
 5449SOL     OW27805   4.188   3.335   3.360 -0.1087  0.1964  0.0155
 5449SOL    HW127806   4.222   3.357   3.273 -0.2665  1.3724  0.2465
 5449SOL    HW227807   4.246   3.267   3.393  0.7964  1.1948  0.4960
 5450SOL     OW27808   2.709   3.599   4.381  0.4520 -0.6616  0.6729
 5450SOL    HW127809   2.749   3.680   4.349 -0.2372 -0.5692  0.0445
 5450SOL    HW227810   2.631   3.627   4.430 -0.1059  1.1940 -1.2752
 5451SOL     OW27811   4.087   1.729   8.539  0.1032  0.4117 -0.7440
 5451SOL    HW127812   3.996   1.760   8.539  1.0514  3.1873 -0.6347
 5451SOL    HW227813   4.131   1.814   8.537  0.4486  0.2011 -1.8935
 5452SOL     OW27814   4.602   0.372   2.451 -0.3608  0.0054 -0.3197
 5452SOL    HW127815   4.515   0.386   2.489  0.1040  0.3010  0.6199
 5452SOL    HW227816   4.610   0.278   2.469  2.0296 -0.0605 -1.7602
 5453SOL     OW27817   4.045   1.226   6.332  0.9018  0.0254 -0.0312
 5453SOL    HW127818   4.136   1.256   6.336  0.2250  2.1208 -0.1824
 5453SOL    HW227819   4.040   1.200   6.424  1.1877 -0.5672 -0.1842
 5454SOL     OW27820   3.873   3.693   9.719  0.0447  0.1276  0.2177
 5454SOL    HW127821   3.885   3.616   9.776 -2.1459  0.8994  1.7156
 5454SOL    HW227822   3.946   3.744   9.754  2.3174 -2.7259 -0.3335
 5455SOL     OW27823   0.747   1.385   1.839 -0.0202 -0.1944  0.0982
 5455SOL    HW127824   0.799   1.321   1.888  0.2218 -0.0640  0.0162
 5455SOL    HW227825   0.710   1.440   1.909 -0.6973 -0.2663 -0.2051
 5456SOL     OW27826   0.297   2.799  14.261 -0.1667  0.3578 -0.6115
 5456SOL    HW127827   0.359   2.840  14.322 -0.3818 -0.8166  0.3888
 5456SOL    HW227828   0.320   2.706  14.268  1.0932  0.8375  1.5428
 5457SOL     OW27829   1.674   0.080   9.456 -0.2797  0.2642  0.1013
 5457SOL    HW127830   1.643   4.714   9.457 -0.0411  0.1204 -2.9463
 5457SOL    HW227831   1.652   0.119   9.540  1.1760 -0.9920  1.0484
 5458SOL     OW27832   4.645   2.954  15.875 -0.5875  0.0965 -0.3099
 5458SOL    HW127833   4.571   2.946  15.936 -1.1493 -1.0009 -1.1494
 5458SOL    HW227834   4.664   3.046  15.894  2.4958 -0.0336 -2.7889
 5459SOL     OW27835   0.078   3.787  17.385  0.4553 -0.4775 -0.4074
 5459SOL    HW127836   0.043   3.840  17.313  0.6424  1.7670  1.1535
 5459SOL    HW227837   0.066   3.844  17.461  3.2797 -0.1000 -0.2175
 5460SOL     OW27838   1.361   1.442   7.386 -0.1152  0.1921 -0.2730
 5460SOL    HW127839   1.300   1.436   7.460 -1.5200  1.2791 -1.3266
 5460SOL    HW227840   1.401   1.529   7.390  1.8801 -0.7207 -0.5226
 5461SOL     OW27841   1.702   1.055   7.265  0.6042  0.4917  0.8350
 5461SOL    HW127842   1.667   1.117   7.328 -0.7712 -0.7129  1.2521
 5461SOL    HW227843   1.767   1.111   7.221  1.1924 -0.6310  0.2733
 5462SOL     OW27844   3.242   2.174   4.036  0.5605  0.2524 -0.0952
 5462SOL    HW127845   3.209   2.111   3.972 -0.4784  2.0358 -1.2953
 5462SOL    HW227846   3.240   2.255   3.985  1.3568 -0.9949 -2.1313
 5463SOL     OW27847   0.580   0.544   6.386 -0.1127  0.4402 -0.3766
 5463SOL    HW127848   0.596   0.450   6.383 -2.2175  0.0839 -0.4577
 5463SOL    HW227849   0.548   0.556   6.475 -1.8861 -1.0911 -0.7957
 5464SOL     OW27850   1.970   1.523   5.434 -0.2922 -0.3957  0.6550
 5464SOL    HW127851   2.030   1.590   5.401  0.9828 -2.1611 -0.6704
 5464SOL    HW227852   1.889   1.547   5.389  0.0753 -0.0128  0.2026
 5465SOL     OW27853   2.244   2.046   4.586  0.5001  0.2019  0.0457
 5465SOL    HW127854   2.233   1.982   4.656  4.2667  2.1198  2.3931
 5465SOL    HW227855   2.303   2.110   4.625 -0.5144  1.2872 -0.1919
 5466SOL     OW27856   1.427   1.995   1.043  0.0028 -0.1193  0.1301
 5466SOL    HW127857   1.381   1.942   0.979  0.3183 -0.1077 -0.1103
 5466SOL    HW227858   1.517   2.004   1.010  0.4266 -1.1249  1.0008
 5467SOL     OW27859   1.700   0.299   7.548  0.3004  0.0444 -0.0540
 5467SOL    HW127860   1.698   0.284   7.454 -0.0575  0.7737 -0.1664
 5467SOL    HW227861   1.612   0.284   7.584 -0.0879  0.5884 -0.7775
 5468SOL     OW27862   2.429   0.380   3.381 -0.2933  0.4931  0.5174
 5468SOL    HW127863   2.432   0.302   3.326  2.7251  0.0570  1.3048
 5468SOL    HW227864   2.335   0.394   3.393 -0.3764  0.2720  0.1222
 5469SOL     OW27865   2.056   3.749   6.989  0.3170  0.2422  0.1292
 5469SOL    HW127866   2.030   3.715   6.904  0.8224  0.1279  0.0179
 5469SOL    HW227867   1.976   3.731   7.038  0.1584 -0.2353 -0.3062
 5470SOL     OW27868   1.293   2.517   3.322 -0.0443 -0.1959 -0.4388
 5470SOL    HW127869   1.263   2.485   3.407 -2.5827  1.5789 -0.6645
 5470SOL    HW227870   1.229   2.485   3.258  0.0983 -4.2996  1.4627
 5471SOL     OW27871   1.087   2.290   4.276  0.4733 -0.3691 -0.3504
 5471SOL    HW127872   1.102   2.201   4.244  0.1824 -0.2031 -0.9458
 5471SOL    HW227873   1.117   2.282   4.367 -0.4972 -1.2243 -0.1070
 5472SOL     OW27874   1.040   0.990   3.079  0.0092  0.1443  0.1677
 5472SOL    HW127875   0.957   1.039   3.082 -0.8067 -1.3088  1.2579
 5472SOL    HW227876   1.016   0.906   3.119 -1.2898 -1.2700 -3.5395
 5473SOL     OW27877   4.427   2.825   1.137 -0.1636  0.0204  0.4106
 5473SOL    HW127878   4.348   2.879   1.144 -0.9690 -0.9279 -1.3908
 5473SOL    HW227879   4.469   2.854   1.218  0.4640  1.5281 -0.4588
 5474SOL     OW27880   0.174   2.870   7.029  0.5869 -0.6539  0.6524
 5474SOL    HW127881   0.249   2.814   7.010  0.3381 -0.4531 -0.9227
 5474SOL    HW227882   0.100   2.809   7.028  0.0160  0.0882 -1.3958
 5475SOL     OW27883   4.115   3.108  11.767  0.2892 -0.1063  0.0005
 5475SOL    HW127884   4.178   3.141  11.832 -1.5317  1.0505  1.1754
 5475SOL    HW227885   4.172   3.041  11.728 -2.6402 -1.5898 -1.7002
 5476SOL     OW27886   2.477   2.736   3.391 -0.4538  0.2550 -0.3578
 5476SOL    HW127887   2.529   2.748   3.470 -0.3639  1.0472 -0.5443
 5476SOL    HW227888   2.492   2.821   3.350 -0.8851 -0.1926 -1.4634
 5477SOL     OW27889   2.413   2.937   7.987 -0.3226 -0.1910  0.3599
 5477SOL    HW127890   2.415   3.016   8.040  1.6598 -0.8471  1.2603
 5477SOL    HW227891   2.320   2.920   7.972 -0.7198  2.5451 -0.2148
 5478SOL     OW27892   0.973   0.145   0.981  0.9908 -0.1859  0.4412
 5478SOL    HW127893   1.046   0.084   0.993 -1.4743 -2.8294  1.8848
 5478SOL    HW227894   1.018   0.216   0.934 -1.6167  0.7058 -0.6871
 5479SOL     OW27895   3.084   1.653  15.752 -0.3271  0.3145 -0.4376
 5479SOL    HW127896   3.117   1.677  15.839 -0.2741  1.6913 -0.8236
 5479SOL    HW227897   3.129   1.714  15.693 -2.7611  1.3052 -1.2588
 5480SOL     OW27898   1.753   1.406   6.169 -0.3343 -0.3510  0.5687
 5480SOL    HW127899   1.814   1.450   6.110 -0.8487 -0.8088 -0.3118
 5480SOL    HW227900   1.676   1.458   6.144 -0.0081  0.1411  0.5878
 5481SOL     OW27901   2.906   1.328   8.215  0.4651 -0.0299 -0.4799
 5481SOL    HW127902   2.960   1.342   8.293 -0.0134  1.1051 -0.3518
 5481SOL    HW227903   2.851   1.253   8.238  0.8515 -0.5698 -1.3173
 5482SOL     OW27904   0.125   0.155   1.609  0.4506 -0.1791  0.0949
 5482SOL    HW127905   0.162   0.097   1.542  1.3314 -0.8251  1.1238
 5482SOL    HW227906   0.098   0.089   1.673 -1.7504  0.1195 -0.5352
 5483SOL     OW27907   4.238   3.110   9.333 -0.1263  0.4831 -0.7480
 5483SOL    HW127908   4.175   3.119   9.404  0.4257  0.4208 -0.2512
 5483SOL    HW227909   4.263   3.200   9.313  0.7898  0.3175 -0.3499
 5484SOL     OW27910   2.139   2.186   5.489 -0.2576 -0.5571  0.1735
 5484SOL    HW127911   2.109   2.218   5.404  0.4575 -2.1830 -0.6880
 5484SOL    HW227912   2.064   2.181   5.548 -0.1837  1.0149  0.4027
 5485SOL     OW27913   3.961   4.224   2.872  0.2488  0.1869 -0.1535
 5485SOL    HW127914   4.000   4.303   2.835  0.4246  1.2852  2.4094
 5485SOL    HW227915   3.889   4.207   2.811 -0.3884 -2.4974  1.3491
 5486SOL     OW27916   3.902   4.211   6.627  0.0802 -0.0005  0.5472
 5486SOL    HW127917   3.961   4.147   6.667 -0.5801 -0.7404  0.3562
 5486SOL    HW227918   3.853   4.156   6.565  2.2720 -0.9710 -0.3368
 5487SOL     OW27919   1.141   3.806   6.854 -0.2394  0.3218  0.1737
 5487SOL    HW127920   1.161   3.764   6.770 -1.7439  0.4155 -0.2454
 5487SOL    HW227921   1.152   3.898   6.829  0.4585  0.4985  1.1634
 5488SOL     OW27922   3.299   1.755   6.751 -0.3068  0.4272  0.8804
 5488SOL    HW127923   3.241   1.804   6.809  1.3824  2.0018  1.2732
 5488SOL    HW227924   3.373   1.732   6.807  0.4384 -1.5309 -0.9235
 5489SOL     OW27925   4.195   3.810  13.875 -0.2067  0.1959  0.0847
 5489SOL    HW127926   4.258   3.738  13.881 -0.5475 -0.0965  0.1576
 5489SOL    HW227927   4.234   3.860  13.804 -1.5433  1.5552  0.3293
 5490SOL     OW27928   4.630   4.632  10.500 -0.2611 -0.3885 -0.0832
 5490SOL    HW127929   4.577   4.579  10.440 -2.3800  0.9250  0.6056
 5490SOL    HW227930   4.704   4.574  10.485  0.5783  1.0965 -1.6582
 5491SOL     OW27931   1.368   1.611  15.939 -0.3127 -0.3743 -0.2980
 5491SOL    HW127932   1.306   1.602  16.011  0.0694  0.5528  0.1447
 5491SOL    HW227933   1.447   1.632  15.988  0.7413  1.0322 -2.5897
 5492SOL     OW27934   4.426   2.066   0.058 -0.0434 -0.1831  0.0292
 5492SOL    HW127935   4.334   2.062   0.086 -0.8626  2.4816 -2.3159
 5492SOL    HW227936   4.472   2.090   0.138 -0.8857 -0.6195  0.6436
 5493SOL     OW27937   2.730   1.685   1.232 -0.2973 -0.4264 -0.4493
 5493SOL    HW127938   2.779   1.736   1.297  1.4415 -2.6315 -0.0198
 5493SOL    HW227939   2.676   1.629   1.288 -0.8975  0.7597  0.1448
 5494SOL     OW27940   0.639   2.569  11.505  0.4401  0.1260  0.5830
 5494SOL    HW127941   0.573   2.507  11.536 -0.6612  0.8656 -0.2636
 5494SOL    HW227942   0.721   2.536  11.542  0.1202 -0.7081  0.5592
 5495SOL     OW27943   1.960   0.061  14.679  0.2857  0.2196 -0.4306
 5495SOL    HW127944   1.959   0.024  14.591 -0.1313  2.6399 -1.4313
 5495SOL    HW227945   1.871   0.096  14.689  0.2508 -0.2688  1.0830
 5496SOL     OW27946   1.791   3.053  11.089 -0.4898 -0.3007 -0.1981
 5496SOL    HW127947   1.823   2.964  11.104 -2.1282 -1.3819 -3.0695
 5496SOL    HW227948   1.831   3.074  11.005 -0.9019  2.0939  0.2247
 5497SOL     OW27949   3.064   4.555   5.310 -0.2475 -0.2684  0.4076
 5497SOL    HW127950   2.996   4.515   5.363 -1.9374  3.5965  1.1972
 5497SOL    HW227951   3.045   4.649   5.315  0.8553 -0.0411  0.3401
 5498SOL     OW27952   3.434   0.467   3.722  0.0177 -0.8362 -0.5946
 5498SOL    HW127953   3.453   0.516   3.802  1.0877 -0.1537 -1.2744
 5498SOL    HW227954   3.520   0.425   3.720  0.4105  0.0681 -2.1340
 5499SOL     OW27955   1.303   4.397   7.514  0.0996  0.0884 -0.2566
 5499SOL    HW127956   1.388   4.387   7.557 -1.1408  1.0026  2.4087
 5499SOL    HW227957   1.335   4.399   7.424  0.4988  0.8005 -0.0980
 5500SOL     OW27958   4.222   0.392  10.787  0.2448  0.5022 -0.3968
 5500SOL    HW127959   4.182   0.479  10.784 -1.0462 -0.1283 -1.8685
 5500SOL    HW227960   4.209   0.373  10.880  2.1761  2.4064  0.2472
 5501SOL     OW27961   0.780   3.416  17.541  0.9516  0.7222 -0.3987
 5501SOL    HW127962   0.705   3.378  17.587  0.1487  2.7531 -0.0081
 5501SOL    HW227963   0.764   3.375  17.457 -1.0649 -0.4610  0.5506
 5502SOL     OW27964   4.485   0.189  14.825 -0.4542  0.0654 -0.1689
 5502SOL    HW127965   4.542   0.222  14.756  0.8125 -1.1447  0.3165
 5502SOL    HW227966   4.405   0.176  14.773 -0.8221 -0.3675  0.5073
 5503SOL     OW27967   0.629   1.117   5.783  0.1175 -0.5562  0.2884
 5503SOL    HW127968   0.675   1.084   5.705  1.6724 -0.1401  1.0371
 5503SOL    HW227969   0.555   1.171   5.754  1.4207 -0.7888 -3.5336
 5504SOL     OW27970   3.693   1.969   4.396  0.1250 -0.5579  0.3736
 5504SOL    HW127971   3.691   1.883   4.437  0.0699 -1.1497 -0.8734
 5504SOL    HW227972   3.639   2.014   4.462  0.0948  1.2660 -0.8794
 5505SOL     OW27973   0.865   1.454   2.937 -0.6983 -0.2184 -0.0024
 5505SOL    HW127974   0.788   1.468   2.883 -0.7248 -1.8676 -0.4021
 5505SOL    HW227975   0.861   1.524   3.001  1.6307  0.8374 -0.9751
 5506SOL     OW27976   4.123   2.035  13.093  0.1455  0.0826  0.0589
 5506SOL    HW127977   4.101   1.943  13.077  0.9048  0.4258 -3.0499
 5506SOL    HW227978   4.213   2.033  13.060  0.3228 -0.3322  0.5740
 5507SOL     OW27979   2.657   4.708   2.856 -0.3356  0.1107 -0.0861
 5507SOL    HW127980   2.579   4.699   2.801 -0.9717 -0.1702  0.8587
 5507SOL    HW227981   2.729   4.703   2.794  0.1955 -1.1944  0.6442
 5508SOL     OW27982   1.069   1.846   7.435  0.6248 -0.2806 -0.4589
 5508SOL    HW127983   1.098   1.807   7.517  0.4469  0.5917  0.0178
 5508SOL    HW227984   0.989   1.885   7.469  0.4630  0.3672 -1.5889
 5509SOL     OW27985   1.896   3.861   5.786  0.4408 -0.1421 -0.3842
 5509SOL    HW127986   1.957   3.803   5.832  1.0168 -0.2452 -1.2796
 5509SOL    HW227987   1.937   3.948   5.793  2.2096 -0.9241 -1.0780
 5510SOL     OW27988   3.387   3.639  16.570  0.3585 -0.2904 -0.1189
 5510SOL    HW127989   3.299   3.602  16.555 -0.3216  2.3250 -2.6106
 5510SOL    HW227990   3.424   3.581  16.636 -1.9898 -1.0965  0.4998
 5511SOL     OW27991   2.830   1.671   3.002  0.3874 -0.2981  0.3221
 5511SOL    HW127992   2.921   1.643   3.011  0.3766  0.7551  3.4037
 5511SOL    HW227993   2.798   1.639   3.086  2.3387  0.8585  1.4828
 5512SOL     OW27994   4.059   2.726   9.030 -0.0412 -0.7491 -0.4243
 5512SOL    HW127995   4.134   2.773   9.065 -0.3588  0.5301 -1.4280
 5512SOL    HW227996   4.028   2.675   9.104  0.7825 -0.2048  0.2906
 5513SOL     OW27997   1.074   0.214   6.474  0.7067  0.8750 -0.6056
 5513SOL    HW127998   1.122   0.136   6.505 -0.2138  0.9463  0.9997
 5513SOL    HW227999   1.136   0.269   6.522  2.0197 -0.7324 -0.4485
 5514SOL     OW28000   2.578   1.103   9.553 -0.3344 -0.2599 -0.0527
 5514SOL    HW128001   2.583   1.063   9.639  2.0474  0.5995  0.2190
 5514SOL    HW228002   2.617   1.190   9.565  0.4752 -0.8127  1.2084
 5515SOL     OW28003   0.920   1.325  15.373  0.0842  0.2363 -0.1183
 5515SOL    HW128004   0.847   1.383  15.352  0.6737  1.1205  0.2654
 5515SOL    HW228005   0.879   1.242  15.350 -0.1806  1.0382 -2.5302
 5516SOL     OW28006   3.219   3.624   8.291  0.0757 -0.1042 -0.1832
 5516SOL    HW128007   3.140   3.600   8.241 -1.8250 -0.4941  2.9792
 5516SOL    HW228008   3.189   3.699   8.342  1.4328  1.1994 -1.3036
 5517SOL     OW28009   2.004   0.812   2.190  0.2193  0.2736 -0.0933
 5517SOL    HW128010   2.099   0.802   2.197  0.0550 -2.2945 -1.2869
 5517SOL    HW228011   1.978   0.763   2.268 -0.3101 -0.9513 -1.0346
 5518SOL     OW28012   0.685   3.259   5.677 -0.0176  0.4467 -0.0216
 5518SOL    HW128013   0.607   3.306   5.705 -1.5789 -1.2368 -1.5554
 5518SOL    HW228014   0.739   3.262   5.756  3.1374  0.1745 -2.1566
 5519SOL     OW28015   2.270   0.415  11.576  0.5630  0.3722 -0.4434
 5519SOL    HW128016   2.242   0.483  11.637  0.1008  0.8526 -1.2081
 5519SOL    HW228017   2.275   0.477  11.504 -2.2554  2.4158  1.1473
 5520SOL     OW28018   0.070   0.829   9.039  0.3690 -0.2229  0.3030
 5520SOL    HW128019   0.055   0.913   9.082 -2.3864 -0.4524 -0.2106
 5520SOL    HW228020   0.061   0.770   9.114  2.6205 -1.1637 -0.1917
 5521SOL     OW28021   4.657   2.296   4.800 -0.0941  0.4706 -1.1080
 5521SOL    HW128022   4.567   2.326   4.787 -0.6569 -1.1017 -0.8215
 5521SOL    HW228023   4.650   2.201   4.794  0.7319  0.3477 -0.0596
 5522SOL     OW28024   3.959   3.768   4.707  0.5011  0.4637 -0.8295
 5522SOL    HW128025   3.942   3.703   4.638  0.2609 -0.2384 -0.1043
 5522SOL    HW228026   3.878   3.818   4.695  1.0885  1.5377 -0.2702
 5523SOL     OW28027   0.374   2.104  13.846 -0.3215 -0.4031 -0.0844
 5523SOL    HW128028   0.303   2.167  13.860 -0.5642 -1.1878  2.3280
 5523SOL    HW228029   0.338   2.059  13.770  2.2762 -1.5779 -0.6196
 5524SOL     OW28030   2.295   0.159   5.466  0.0763 -0.0447 -0.0374
 5524SOL    HW128031   2.235   0.141   5.538  0.9273  1.1693  0.9872
 5524SOL    HW228032   2.241   0.219   5.415 -1.6840 -0.6904  1.0858
 5525SOL     OW28033   4.718   4.421  11.893  0.0920  0.0548 -0.2549
 5525SOL    HW128034   0.052   4.406  11.818  1.1018  0.6284  0.4113
 5525SOL    HW228035   4.634   4.419  11.847 -0.4030  0.4316  0.6173
 5526SOL     OW28036   1.698   0.918   8.805 -0.0204 -0.7366 -0.2335
 5526SOL    HW128037   1.749   0.968   8.869 -1.2854 -1.3700  1.2651
 5526SOL    HW228038   1.695   0.834   8.851 -2.4132 -0.9339 -0.7844
 5527SOL     OW28039   1.400   2.391   2.118 -0.0182  0.5141 -0.4724
 5527SOL    HW128040   1.485   2.435   2.106 -0.1968  0.7230 -0.9614
 5527SOL    HW228041   1.429   2.315   2.169  1.0031  0.8760 -0.5092
 5528SOL     OW28042   1.503   1.339  16.386  0.0030 -0.1600 -0.0716
 5528SOL    HW128043   1.484   1.430  16.407 -1.5647 -0.3908 -0.5294
 5528SOL    HW228044   1.508   1.308  16.476  2.8974 -0.0806 -0.2090
 5529SOL     OW28045   0.024   2.544   5.819 -0.3204 -0.2128  0.0020
 5529SOL    HW128046   4.689   2.534   5.893  1.8237 -0.2389  1.7155
 5529SOL    HW228047   0.052   2.634   5.832  0.5901 -0.2074 -1.9268
 5530SOL     OW28048   0.376   0.591   8.409  0.0870  0.0200 -0.3559
 5530SOL    HW128049   0.430   0.642   8.348 -0.0896 -0.8439 -1.2373
 5530SOL    HW228050   0.410   0.621   8.493 -0.7824  1.8519 -0.6539
 5531SOL     OW28051   3.586   3.872  13.659  0.7089  0.0426  0.1364
 5531SOL    HW128052   3.533   3.805  13.701 -1.0387  1.5709  0.3936
 5531SOL    HW228053   3.518   3.927  13.620  1.5741  1.6694  0.8709
 5532SOL     OW28054   3.248   0.762  11.489 -0.3685  0.1881 -0.3893
 5532SOL    HW128055   3.343   0.773  11.484 -0.4827  1.9185  0.9253
 5532SOL    HW228056   3.226   0.845  11.532  0.7578 -0.0888  0.7430
 5533SOL     OW28057   1.726   3.857  16.381 -0.1821  0.1701  0.3827
 5533SOL    HW128058   1.647   3.894  16.343 -0.9754 -0.1516  1.7102
 5533SOL    HW228059   1.746   3.786  16.320 -0.3749  0.4795 -0.0388
 5534SOL     OW28060   3.464   1.472   3.352  0.7270  0.0273  0.3086
 5534SOL    HW128061   3.514   1.392   3.365  1.5407  0.4911  0.0688
 5534SOL    HW228062   3.539   1.522   3.320 -1.2457  2.0090 -1.2388
 5535SOL     OW28063   4.542   1.653   6.925  0.4080  0.9963 -0.1014
 5535SOL    HW128064   4.600   1.715   6.881  2.8382 -1.1489  0.0402
 5535SOL    HW228065   4.459   1.664   6.880  1.1483 -0.1540 -1.7556
 5536SOL     OW28066   2.776   3.807   8.777 -0.5945  0.0554 -0.1776
 5536SOL    HW128067   2.865   3.774   8.764 -0.2868  0.3561  1.1906
 5536SOL    HW228068   2.726   3.751   8.718 -2.2716  1.8246 -0.4259
 5537SOL     OW28069   2.484   1.081  16.273  0.2840  0.0926 -0.7915
 5537SOL    HW128070   2.459   1.161  16.318  0.7988 -1.2863  1.9327
 5537SOL    HW228071   2.560   1.115  16.226  1.9583 -2.1139  0.2913
 5538SOL     OW28072   2.076   3.379  10.177 -0.3749  0.3067 -0.4366
 5538SOL    HW128073   2.069   3.331  10.095  1.6788 -1.2214  0.2764
 5538SOL    HW228074   2.143   3.336  10.231  0.1147  1.5485 -0.0407
 5539SOL     OW28075   1.959   1.452   3.159 -0.0865  0.2666 -0.1484
 5539SOL    HW128076   2.029   1.490   3.107 -0.1327 -0.7477 -0.9689
 5539SOL    HW228077   1.905   1.423   3.085 -0.1992  0.1510 -0.0223
 5540SOL     OW28078   0.355   3.936   3.877 -0.3360 -0.3542 -0.0706
 5540SOL    HW128079   0.404   3.951   3.958 -0.2919 -0.2927 -0.1084
 5540SOL    HW228080   0.332   3.846   3.900 -0.7880 -0.3349 -0.4638
 5541SOL     OW28081   2.099   1.424   1.738 -0.4767  0.2638 -0.7208
 5541SOL    HW128082   2.127   1.363   1.670  2.7007  0.9538 -0.0572
 5541SOL    HW228083   2.005   1.411   1.748 -0.3969  0.8549  0.8675
 5542SOL     OW28084   3.802   0.426   2.599 -0.2914 -0.6018  0.0115
 5542SOL    HW128085   3.858   0.389   2.531 -0.9456 -1.2392 -0.1800
 5542SOL    HW228086   3.746   0.476   2.539  1.4324  0.7641 -0.4475
 5543SOL     OW28087   0.372   2.908   4.816 -0.1480 -0.6201 -0.4713
 5543SOL    HW128088   0.345   2.821   4.846  1.2660 -0.2346  1.9130
 5543SOL    HW228089   0.458   2.919   4.857 -1.2165  4.1834  0.5310
 5544SOL     OW28090   0.749   3.754   8.143  0.6022  0.2449  0.4468
 5544SOL    HW128091   0.725   3.837   8.184  0.6913 -0.3837  1.7701
 5544SOL    HW228092   0.672   3.735   8.089  1.3081 -2.6600  0.4539
 5545SOL     OW28093   0.555   4.268   5.312  0.2075 -0.0177 -0.9236
 5545SOL    HW128094   0.497   4.215   5.257  0.4906 -0.7880 -0.4870
 5545SOL    HW228095   0.574   4.344   5.258  1.1150  1.8837  2.0726
 5546SOL     OW28096   4.434   0.851   8.649  0.2799  0.2105 -0.6488
 5546SOL    HW128097   4.515   0.878   8.693 -1.0083  0.1304  1.8231
 5546SOL    HW228098   4.467   0.803   8.574  1.5466  0.7307 -0.4252
 5547SOL     OW28099   2.742   3.799   9.365 -0.6476 -0.0922  0.7920
 5547SOL    HW128100   2.774   3.890   9.362  1.5183 -0.8872 -0.2631
 5547SOL    HW228101   2.657   3.823   9.327  0.1410 -0.7676 -1.4390
 5548SOL     OW28102   0.413   3.133   6.850  0.0728 -0.5391  0.3713
 5548SOL    HW128103   0.385   3.151   6.761 -1.2308 -2.8386  0.2946
 5548SOL    HW228104   0.475   3.061   6.835 -0.6631 -0.4323 -3.0505
 5549SOL     OW28105   0.143   0.344  12.486 -0.1487  0.2648 -0.3280
 5549SOL    HW128106   0.212   0.278  12.493  0.3612  0.9266  0.8356
 5549SOL    HW228107   0.101   0.347  12.572  1.4297 -0.2508  0.4628
 5550SOL     OW28108   0.272   2.825  12.317 -0.5376 -0.2968 -0.4782
 5550SOL    HW128109   0.261   2.815  12.412 -1.6247 -1.1587 -0.6874
 5550SOL    HW228110   0.189   2.821  12.271 -0.2795 -0.6989 -0.9137
 5551SOL     OW28111   3.265   1.485   4.777 -0.2627 -0.3677  0.1233
 5551SOL    HW128112   3.229   1.574   4.769 -1.8512 -1.1471 -1.4647
 5551SOL    HW228113   3.287   1.469   4.685  2.2004  2.6862  0.1815
 5552SOL     OW28114   3.282   0.054   1.555 -0.0763  0.1758  0.0794
 5552SOL    HW128115   3.190   0.030   1.560  0.2190 -0.7520  1.0016
 5552SOL    HW228116   3.326   4.695   1.576  0.1109  0.1985 -0.2154
 5553SOL     OW28117   1.010   1.577   6.746  0.1728 -0.2187  0.4179
 5553SOL    HW128118   1.096   1.541   6.766  0.9141  0.8786 -0.7842
 5553SOL    HW228119   1.007   1.647   6.811 -0.3735 -0.1052  0.2759
 5554SOL     OW28120   0.153   0.859   3.448 -1.0388 -0.1281  0.3308
 5554SOL    HW128121   0.212   0.783   3.445  0.7817  1.3691 -1.9431
 5554SOL    HW228122   0.105   0.849   3.366  2.6075  0.2377 -1.8522
 5555SOL     OW28123   3.215   4.647   3.051  0.0292 -0.1331 -0.2987
 5555SOL    HW128124   3.261   4.693   3.121 -1.0297  0.5882 -0.0708
 5555SOL    HW228125   3.251   4.695   2.977  1.7108 -1.3039 -0.2538
 5556SOL     OW28126   4.620   4.639   4.182 -0.4369 -0.2573  0.0951
 5556SOL    HW128127   4.681   4.699   4.227  0.3332 -0.1668 -1.0663
 5556SOL    HW228128   4.591   4.584   4.255 -1.3106 -0.7627 -0.6469
 5557SOL     OW28129   3.570   1.053   7.350 -0.0574  0.2863  0.3695
 5557SOL    HW128130   3.645   1.103   7.383 -0.0075  0.5196 -0.0916
 5557SOL    HW228131   3.540   1.111   7.280 -1.9317 -0.2212  0.7345
 5558SOL     OW28132   0.073   0.443   6.595 -0.2515 -0.0264  0.6574
 5558SOL    HW128133   0.078   0.351   6.568 -1.4023  0.3989 -1.0251
 5558SOL    HW228134   0.165   0.467   6.585 -0.5739  1.0610  0.3063
 5559SOL     OW28135   4.051   2.061   6.468  0.0788 -0.1239 -0.3359
 5559SOL    HW128136   4.083   1.974   6.442 -1.2310 -1.2527  1.8432
 5559SOL    HW228137   4.089   2.073   6.555 -1.0151 -1.4669  0.3234
 5560SOL     OW28138   0.266   2.537   1.931  0.5655  0.0837  0.2448
 5560SOL    HW128139   0.201   2.605   1.913  0.1630 -0.5604 -0.7153
 5560SOL    HW228140   0.274   2.553   2.025 -0.8539 -0.8857  0.5237
 5561SOL     OW28141   0.038   2.483   5.554 -0.1325 -0.2683  0.0122
 5561SOL    HW128142   0.018   2.392   5.534 -1.0627  0.2630 -1.4414
 5561SOL    HW228143   0.031   2.490   5.650  0.3023  0.2796  0.0106
 5562SOL     OW28144   0.752   2.438   5.743  0.0247  0.0841 -0.3293
 5562SOL    HW128145   0.771   2.364   5.801 -3.2222  1.1936  2.1450
 5562SOL    HW228146   0.743   2.508   5.808 -2.1643 -1.6557  1.2205
 5563SOL     OW28147   3.509   2.513   4.973  0.1001 -0.9265 -0.3477
 5563SOL    HW128148   3.575   2.444   4.966  0.1028 -0.8859 -0.7403
 5563SOL    HW228149   3.444   2.481   4.911  0.6578  0.8662 -1.8503
 5564SOL     OW28150   0.702   0.763   9.253 -0.3438 -0.6189 -0.0781
 5564SOL    HW128151   0.717   0.849   9.293 -5.2114 -0.4344  1.3624
 5564SOL    HW228152   0.667   0.785   9.167  1.8307 -0.2377 -0.8534
 5565SOL     OW28153   0.670   4.282  12.765  0.7184 -0.5365  0.1645
 5565SOL    HW128154   0.595   4.296  12.823 -0.7803 -1.6001 -1.5138
 5565SOL    HW228155   0.635   4.328  12.688 -2.5459  0.4725  2.2697
 5566SOL     OW28156   3.357   3.307   4.046  0.1693  0.5958 -0.0777
 5566SOL    HW128157   3.426   3.354   3.998  0.4447  0.9775  0.6991
 5566SOL    HW228158   3.417   3.239   4.075  1.6384  2.0236  0.2524
 5567SOL     OW28159   4.691   1.973  14.200 -0.0985  0.2957  0.9015
 5567SOL    HW128160   4.599   1.950  14.200  0.2874 -1.2333 -0.0342
 5567SOL    HW228161   0.005   1.920  14.270 -1.3131 -0.7348  0.7694
 5568SOL     OW28162   4.699   3.424   3.192  0.0256 -0.0782 -0.0813
 5568SOL    HW128163   4.697   3.513   3.155  0.5592  0.4947  1.2714
 5568SOL    HW228164   0.069   3.407   3.197 -0.2198 -0.7888  1.9830
 5569SOL     OW28165   1.571   2.881   1.107 -0.1823 -0.0909  0.3647
 5569SOL    HW128166   1.488   2.919   1.135 -0.0780  0.7823 -0.5074
 5569SOL    HW228167   1.607   2.947   1.047 -1.7562 -0.0910 -0.5725
 5570SOL     OW28168   2.158   4.444   2.327 -0.0568  0.0829 -0.0773
 5570SOL    HW128169   2.138   4.460   2.235 -0.2340 -0.2691 -0.0999
 5570SOL    HW228170   2.109   4.367   2.356 -0.0248  0.5297  1.1536
 5571SOL     OW28171   2.006   4.487   8.824  0.8104  0.4321 -0.0583
 5571SOL    HW128172   1.989   4.538   8.745  2.2799 -0.6355 -1.0633
 5571SOL    HW228173   2.050   4.539   8.890 -0.1331  2.8273 -1.3242
 5572SOL     OW28174   0.693   4.077  13.863  0.0748  0.6249 -0.0504
 5572SOL    HW128175   0.782   4.111  13.852 -0.5682  2.2486 -0.3028
 5572SOL    HW228176   0.688   4.000  13.807  1.7454  0.7338 -0.3633
 5573SOL     OW28177   3.613   4.417   9.030  0.3235  0.2115 -0.2863
 5573SOL    HW128178   3.664   4.460   9.098 -0.3055 -0.2814  0.4956
 5573SOL    HW228179   3.632   4.327   9.057 -1.4455 -0.7399 -2.1231
 5574SOL     OW28180   2.500   4.635   3.250  0.0718  0.4057 -0.8357
 5574SOL    HW128181   2.459   4.576   3.187  3.0377 -0.1798 -2.2167
 5574SOL    HW228182   2.443   4.624   3.325  2.3406 -0.8428  0.6897
 5575SOL     OW28183   1.226   4.319   3.213  0.4942 -0.3660  0.0413
 5575SOL    HW128184   1.309   4.294   3.253 -0.0014 -1.2121  0.5390
 5575SOL    HW228185   1.200   4.229   3.195  3.5388 -1.3472  0.5579
 5576SOL     OW28186   2.997   3.385   8.338 -0.4179 -0.6458 -0.9116
 5576SOL    HW128187   2.923   3.402   8.280 -1.3106  0.8066  0.6391
 5576SOL    HW228188   3.069   3.435   8.300  1.0001 -1.0320  1.2258
 5577SOL     OW28189   3.046   3.518   2.818 -0.1033  0.8070 -0.3832
 5577SOL    HW128190   3.006   3.547   2.900  1.6577 -0.2636  0.8626
 5577SOL    HW228191   3.083   3.434   2.846  1.9497  2.2459  1.2784
 5578SOL     OW28192   3.202   0.621   4.236 -0.1118 -0.0460  0.0177
 5578SOL    HW128193   3.290   0.608   4.272  0.4572  1.5824 -0.7852
 5578SOL    HW228194   3.159   0.663   4.311  1.7829 -0.4133  1.3107
 5579SOL     OW28195   3.396   3.762  17.468  0.5719 -0.2379 -0.5958
 5579SOL    HW128196   3.333   3.755  17.540  0.9568 -0.3971 -0.2796
 5579SOL    HW228197   3.333   3.739  17.399 -0.6986  0.9147  0.1622
 5580SOL     OW28198   1.884   4.241   0.182 -0.1231 -0.3543 -0.0923
 5580SOL    HW128199   1.902   4.312   0.243 -0.9154  0.9128 -1.3309
 5580SOL    HW228200   1.908   4.158   0.223 -0.6282 -1.3318 -1.7593
 5581SOL     OW28201   3.596   0.729   9.550  0.1884  0.0895 -0.1585
 5581SOL    HW128202   3.545   0.685   9.482  2.3738 -1.4596 -0.7909
 5581SOL    HW228203   3.554   0.682   9.623  3.6489 -1.1708  1.0025
 5582SOL     OW28204   0.969   1.198   2.795 -0.1247  0.1477  0.3058
 5582SOL    HW128205   0.965   1.144   2.874 -2.1023  0.9810  0.7774
 5582SOL    HW228206   0.959   1.288   2.825  0.6336  0.1936  0.4109
 5583SOL     OW28207   4.592   3.953  17.589 -0.0547  0.2693 -0.2425
 5583SOL    HW128208   4.604   3.862  17.615 -2.5225 -0.0695 -0.2848
 5583SOL    HW228209   4.543   3.947  17.507  0.1955 -1.4683 -0.2653
 5584SOL     OW28210   2.709   3.101   3.165  0.4627  0.2361  0.3721
 5584SOL    HW128211   2.717   3.076   3.257  1.5454  0.1762  0.2649
 5584SOL    HW228212   2.718   3.016   3.123  1.5188  0.9919 -0.9480
 5585SOL     OW28213   3.666   2.117  16.769 -0.0483 -0.2146 -0.0876
 5585SOL    HW128214   3.702   2.189  16.717 -1.0044 -0.2459 -0.7988
 5585SOL    HW228215   3.600   2.084  16.707 -2.4149  3.6893  0.3107
 5586SOL     OW28216   1.932   1.443   5.705 -0.0343  0.1053 -0.1420
 5586SOL    HW128217   1.941   1.459   5.612 -0.4764 -1.7377 -0.5045
 5586SOL    HW228218   1.891   1.356   5.697  2.2358 -1.0077  0.3710
 5587SOL     OW28219   3.226   2.943  16.341 -0.0816 -0.3055 -0.2168
 5587SOL    HW128220   3.156   2.907  16.286  1.0249  0.1969 -1.9771
 5587SOL    HW228221   3.309   2.923  16.296  0.7214  0.0479  1.1260
 5588SOL     OW28222   1.355   4.391   5.757 -0.1265  0.3735  0.6927
 5588SOL    HW128223   1.387   4.441   5.681  0.1724 -0.8531  0.0101
 5588SOL    HW228224   1.324   4.468   5.806  0.3924  1.1814 -0.2357
 5589SOL     OW28225   2.933   4.491   6.956 -0.9754  0.3768 -0.3332
 5589SOL    HW128226   2.898   4.445   7.033 -0.2850 -3.0395 -2.0445
 5589SOL    HW228227   2.852   4.512   6.910 -0.0257  0.7979 -1.8290
 5590SOL     OW28228   4.576   1.118  15.707 -0.7203 -0.4619 -0.0616
 5590SOL    HW128229   4.589   1.057  15.635 -2.4144 -0.1764 -0.6095
 5590SOL    HW228230   4.569   1.201  15.659  0.2271  0.3951  1.2566
 5591SOL     OW28231   4.637   0.936  15.514 -0.2490 -0.3132 -0.0848
 5591SOL    HW128232   4.720   0.888  15.515  0.5474  1.0866  1.0329
 5591SOL    HW228233   4.584   0.881  15.456 -2.9626 -0.2946  2.4247
 5592SOL     OW28234   1.423   0.120  13.801  0.4280  0.4543 -0.0100
 5592SOL    HW128235   1.475   0.152  13.874 -2.0921  1.3996  1.3785
 5592SOL    HW228236   1.337   0.124  13.843 -0.7491 -2.9549 -2.1550
 5593SOL     OW28237   3.033   3.546   8.846 -0.0496 -0.4982 -0.0435
 5593SOL    HW128238   3.094   3.580   8.781  3.2839 -0.5689  3.0856
 5593SOL    HW228239   3.018   3.458   8.812 -1.7869 -0.3382  0.2628
 5594SOL     OW28240   2.471   3.213  10.592 -0.3140 -0.1597  0.2523
 5594SOL    HW128241   2.561   3.199  10.565 -0.6802 -0.6342 -0.7081
 5594SOL    HW228242   2.468   3.150  10.665  1.9321  1.0265  1.3833
 5595SOL     OW28243   3.488   1.288  12.870  0.7571 -0.9674  0.1061
 5595SOL    HW128244   3.395   1.267  12.858  0.6552 -0.2104 -0.4362
 5595SOL    HW228245   3.522   1.200  12.884 -1.3624 -1.5092  1.8523
 5596SOL     OW28246   3.488   0.870   3.556  0.4226  0.5701  0.0379
 5596SOL    HW128247   3.432   0.911   3.490 -0.3963  1.1055  1.0590
 5596SOL    HW228248   3.440   0.787   3.560  1.1107  0.2306  1.2613
 5597SOL     OW28249   4.208   1.885   1.462 -0.1944 -0.5989 -0.4707
 5597SOL    HW128250   4.141   1.863   1.398 -0.0569 -1.1257 -0.4412
 5597SOL    HW228251   4.151   1.930   1.525  1.0790  1.0769 -0.5402
 5598SOL     OW28252   1.691   1.810  15.371 -0.1727  0.1741  0.4665
 5598SOL    HW128253   1.724   1.763  15.448  3.0017 -0.3867 -1.2299
 5598SOL    HW228254   1.625   1.751  15.337 -0.3342  0.3799  0.4214
 5599SOL     OW28255   3.321   0.582   3.971  0.0933  0.4825  0.5143
 5599SOL    HW128256   3.268   0.585   4.051 -1.2021 -3.0893 -0.2149
 5599SOL    HW228257   3.368   0.501   3.990  1.6868  1.2626 -0.1510
 5600SOL     OW28258   1.520   0.006   2.780  0.0494 -0.1724  0.2708
 5600SOL    HW128259   1.543   0.009   2.873 -1.6630 -0.4481  0.7049
 5600SOL    HW228260   1.550   0.094   2.755 -0.0113 -0.1243  0.3640
 5601SOL     OW28261   3.242   4.594   4.775 -0.0730  0.5244  0.1668
 5601SOL    HW128262   3.148   4.609   4.762  0.0696  2.6185  1.5944
 5601SOL    HW228263   3.257   4.584   4.869  1.9381 -1.6500 -0.3900
 5602SOL     OW28264   3.106   1.212  15.470  0.1011  0.0303 -0.0352
 5602SOL    HW128265   3.092   1.189  15.562 -0.2152  1.6402  0.3197
 5602SOL    HW228266   3.027   1.171  15.435  0.7873  0.0280 -1.5839
 5603SOL     OW28267   0.411   3.038   2.509 -0.4609  0.1825  0.2234
 5603SOL    HW128268   0.355   3.057   2.584 -2.0294 -2.6120 -0.2734
 5603SOL    HW228269   0.380   3.096   2.440  1.8706 -0.8484 -1.7031
 5604SOL     OW28270   2.504   0.280   5.665 -0.3193 -0.0474 -0.0264
 5604SOL    HW128271   2.578   0.284   5.725  0.6355  0.3786 -1.2338
 5604SOL    HW228272   2.516   0.186   5.648 -0.1280 -0.0412  0.0823
 5605SOL     OW28273   1.813   1.905  13.090 -0.5638 -0.2891 -0.6851
 5605SOL    HW128274   1.825   1.812  13.108  2.0642  0.0266 -0.9258
 5605SOL    HW228275   1.801   1.938  13.179 -3.5809  0.4988 -1.3800
 5606SOL     OW28276   0.416   2.670   3.297 -0.4552  0.4208  0.5550
 5606SOL    HW128277   0.377   2.649   3.212  0.1725  0.4135  0.2718
 5606SOL    HW228278   0.485   2.731   3.274  0.3557 -1.4690 -1.9519
 5607SOL     OW28279   3.456   2.053   0.809 -0.2095  0.3161 -0.3884
 5607SOL    HW128280   3.441   2.013   0.724 -1.1272 -0.4186  0.1135
 5607SOL    HW228281   3.536   2.095   0.779  1.3182 -1.5681  1.0494
 5608SOL     OW28282   4.544   0.377   2.016  0.7123  0.2674  0.0228
 5608SOL    HW128283   4.626   0.348   1.975  0.6033 -2.1945  1.6139
 5608SOL    HW228284   4.509   0.298   2.057  1.5466  0.4682  1.1290
 5609SOL     OW28285   3.540   4.681   3.727  0.6827 -0.1373  0.4034
 5609SOL    HW128286   3.567   0.024   3.665 -1.4222 -1.5421 -2.0019
 5609SOL    HW228287   3.554   0.006   3.809 -1.5172  0.3405  0.4929
 5610SOL     OW28288   4.590   4.064   5.838  0.0390 -0.7175  0.0938
 5610SOL    HW128289   4.559   4.125   5.905 -0.6093 -1.4895  0.4939
 5610SOL    HW228290   4.579   3.979   5.880 -0.8169 -0.1040  1.1046
 5611SOL     OW28291   3.416   0.477  13.245 -0.3333  0.1101 -0.2001
 5611SOL    HW128292   3.488   0.467  13.182 -0.2311  4.3294 -0.7213
 5611SOL    HW228293   3.449   0.442  13.328  0.1960  3.9913  1.2054
 5612SOL     OW28294   1.450   1.696  15.209 -0.3521 -0.7268 -0.0460
 5612SOL    HW128295   1.427   1.618  15.159 -1.0042 -0.7278  0.2604
 5612SOL    HW228296   1.403   1.678  15.290 -0.8964  1.3120  0.0799
 5613SOL     OW28297   0.200   2.686   4.955  0.0820  0.0231  0.0635
 5613SOL    HW128298   0.262   2.615   4.940  1.9183  1.2530  1.9091
 5613SOL    HW228299   0.162   2.668   5.041  2.8221  1.7858  1.6234
 5614SOL     OW28300   0.196   3.049   2.248  0.2663 -0.1046 -0.5392
 5614SOL    HW128301   0.100   3.059   2.247  0.1372 -1.3079  0.5438
 5614SOL    HW228302   0.223   3.131   2.207  0.5549  0.6582  1.1905
 5615SOL     OW28303   2.505   2.593   5.446  0.2964 -0.1525 -0.0673
 5615SOL    HW128304   2.448   2.661   5.482  2.5930  2.4496 -1.3382
 5615SOL    HW228305   2.523   2.543   5.526  1.7731 -1.4789 -1.2282
 5616SOL     OW28306   4.132   0.059   3.359 -0.0274 -0.7319 -0.0461
 5616SOL    HW128307   4.136   0.017   3.446  3.0374 -1.7227 -0.6744
 5616SOL    HW228308   4.075   0.000   3.309 -0.1897 -2.2548  1.8922
 5617SOL     OW28309   1.081   0.855   4.702  0.2307  0.0234  0.0155
 5617SOL    HW128310   1.053   0.859   4.611  2.6737 -1.5863 -0.7789
 5617SOL    HW228311   1.137   0.778   4.703  2.5354  1.7158  0.8671
 5618SOL     OW28312   4.641   3.928   7.322 -0.9161  0.6959  0.3629
 5618SOL    HW128313   4.591   4.010   7.322 -0.1363  1.1713  2.7170
 5618SOL    HW228314   4.579   3.864   7.356 -0.2264 -1.6281 -2.7946
 5619SOL     OW28315   2.742   3.590   8.240 -0.3482 -0.4012 -0.4764
 5619SOL    HW128316   2.747   3.655   8.311  2.3301 -2.0212  0.8437
 5619SOL    HW228317   2.815   3.613   8.182  0.3958  1.6738  1.2324
 5620SOL     OW28318   3.860   3.423   6.320  0.5862 -0.2454 -0.0996
 5620SOL    HW128319   3.871   3.354   6.386 -0.0903 -0.2203  0.0399
 5620SOL    HW228320   3.923   3.492   6.340  1.5322 -2.3781  4.2254
 5621SOL     OW28321   2.684   2.190   3.219 -0.3324 -0.0292 -0.1781
 5621SOL    HW128322   2.682   2.226   3.131 -0.8339  1.1375  0.3089
 5621SOL    HW228323   2.624   2.116   3.212  0.4945 -0.5593 -1.5892
 5622SOL     OW28324   2.470   0.779   2.086  0.1042 -0.5097  0.3901
 5622SOL    HW128325   2.426   0.725   2.152  1.4165 -2.6145 -0.4416
 5622SOL    HW228326   2.524   0.723   2.031  0.8625 -0.2005  0.8187
 5623SOL     OW28327   4.173   1.990   4.307 -0.2869 -0.0224  0.0825
 5623SOL    HW128328   4.156   1.985   4.212 -1.7411 -1.8252  0.4390
 5623SOL    HW228329   4.254   2.039   4.303 -0.3769  0.1842  0.8580
 5624SOL     OW28330   2.628   0.448  10.118  0.2853 -0.2366 -0.5011
 5624SOL    HW128331   2.666   0.386  10.179  0.1143 -0.7048 -0.8699
 5624SOL    HW228332   2.534   0.444  10.138  0.4691 -0.5430  0.2748
 5625SOL     OW28333   3.377   2.566   7.161 -0.0322 -0.0919 -0.4513
 5625SOL    HW128334   3.336   2.480   7.158  3.0964 -1.5671 -0.8832
 5625SOL    HW228335   3.299   2.621   7.162 -0.6304 -0.9268 -0.7720
 5626SOL     OW28336   1.469   3.513   5.901  0.1930 -0.3258 -0.1391
 5626SOL    HW128337   1.540   3.572   5.877  0.2037 -0.6080 -0.7912
 5626SOL    HW228338   1.485   3.490   5.993  0.0163  0.2662  0.0373
 5627SOL     OW28339   0.028   3.451   1.296  0.0603 -0.0928  0.1595
 5627SOL    HW128340   4.681   3.460   1.360  0.1253 -0.9017  0.3373
 5627SOL    HW228341   0.104   3.451   1.354 -1.2677 -0.5037  1.9119
 5628SOL     OW28342   2.400   3.761   9.077  0.3192  0.2203  0.5751
 5628SOL    HW128343   2.444   3.846   9.076 -2.1480  1.4906  0.8479
 5628SOL    HW228344   2.370   3.765   8.986  0.6456 -0.8678  0.4175
 5629SOL     OW28345   0.243   3.349   7.195  0.1146 -0.4942  0.3704
 5629SOL    HW128346   0.226   3.270   7.144  2.6216 -0.6140 -0.2934
 5629SOL    HW228347   0.329   3.322   7.227  1.1426  1.2045 -0.9218
 5630SOL     OW28348   1.992   2.445  14.649  0.4180 -0.7717 -0.0771
 5630SOL    HW128349   2.077   2.453  14.692  1.1651  1.3125 -2.0078
 5630SOL    HW228350   1.938   2.498  14.708 -1.1147 -1.3394 -0.9746
 5631SOL     OW28351   2.820   4.575   1.380 -0.9354 -0.0971  0.2106
 5631SOL    HW128352   2.905   4.535   1.361 -0.3216  1.4883 -0.3863
 5631SOL    HW228353   2.808   4.638   1.309 -1.5504 -2.4454 -1.7687
 5632SOL     OW28354   4.625   0.840   5.990  0.3079  0.0309  0.7845
 5632SOL    HW128355   4.560   0.812   6.053  2.1089 -0.3846  2.4578
 5632SOL    HW228356   4.699   0.788   6.022  0.6716  0.8373  1.2690
 5633SOL     OW28357   2.853   0.039  11.543 -0.0088 -0.2901 -0.3415
 5633SOL    HW128358   2.945   0.062  11.527 -1.3635  4.9251 -0.7265
 5633SOL    HW228359   2.837   0.094  11.619  0.2312  1.1553 -1.3262
 5634SOL     OW28360   1.047   3.751   5.148  0.1884  0.0656  0.0651
 5634SOL    HW128361   0.995   3.672   5.134  1.8258 -0.6498 -2.0004
 5634SOL    HW228362   1.133   3.710   5.146 -0.3424 -1.0508  0.9840
 5635SOL     OW28363   0.825   1.549   8.362 -0.5804 -0.6969 -0.1073
 5635SOL    HW128364   0.769   1.571   8.436 -2.0083 -0.3943 -1.2583
 5635SOL    HW228365   0.852   1.634   8.329 -1.4439 -1.0157 -1.6486
 5636SOL     OW28366   3.131   4.673   2.054 -0.1099  0.4651 -0.0926
 5636SOL    HW128367   3.170   4.589   2.080 -0.4935  0.5912  0.8845
 5636SOL    HW228368   3.205   4.715   2.010  2.1554 -2.2356  1.1638
 5637SOL     OW28369   3.331   3.532   2.202 -0.0901 -0.2402 -0.0556
 5637SOL    HW128370   3.398   3.485   2.251  1.6234  0.9729 -1.2133
 5637SOL    HW228371   3.250   3.497   2.239 -0.4621 -1.0012 -1.5779
 5638SOL     OW28372   0.405   4.041  13.737 -0.3683 -0.4116 -0.5657
 5638SOL    HW128373   0.466   3.975  13.769  0.9640  2.0227  1.9808
 5638SOL    HW228374   0.336   3.992  13.693 -0.4958 -1.0534  0.3642
 5639SOL     OW28375   4.582   1.476   8.200 -0.0039  0.2971  0.5265
 5639SOL    HW128376   4.523   1.551   8.198  1.6038  1.5299 -0.6101
 5639SOL    HW228377   4.563   1.429   8.119 -2.2846 -1.7700  2.2765
 5640SOL     OW28378   3.079   3.964   2.842 -0.1977 -0.2593  0.6634
 5640SOL    HW128379   3.112   3.888   2.795  0.7198 -0.1840  1.1835
 5640SOL    HW228380   3.019   3.994   2.774 -0.4839  0.0699  1.0613
 5641SOL     OW28381   0.488   0.853   4.656  0.2569  0.2738 -0.0290
 5641SOL    HW128382   0.507   0.889   4.569  1.9548 -1.5442 -0.4254
 5641SOL    HW228383   0.539   0.772   4.654  0.8487  0.6321  0.6954
 5642SOL     OW28384   2.364   0.418  10.230 -0.2504  0.3348  0.1809
 5642SOL    HW128385   2.367   0.323  10.243 -2.4585  0.3972  1.1077
 5642SOL    HW228386   2.285   0.430  10.284 -0.4348  2.7417 -0.6442
 5643SOL     OW28387   1.991   0.181   4.992  0.4461  0.3094  0.2846
 5643SOL    HW128388   2.005   0.160   5.085 -0.2347 -0.0139  0.3192
 5643SOL    HW228389   2.076   0.202   4.953  0.3180 -0.5350 -0.4576
 5644SOL     OW28390   3.349   1.508   7.058  0.3716 -0.3453 -0.2369
 5644SOL    HW128391   3.337   1.450   6.982  2.8256 -1.6907  0.3860
 5644SOL    HW228392   3.435   1.488   7.096 -0.1274  0.0891  1.1217
 5645SOL     OW28393   2.531   3.438   8.196 -0.1543 -0.3953  0.0856
 5645SOL    HW128394   2.596   3.501   8.226  2.5651 -2.3254 -1.7910
 5645SOL    HW228395   2.525   3.388   8.278  1.0648  0.1273  0.4904
 5646SOL     OW28396   0.477   3.683   8.056  0.2917 -0.3487  0.1176
 5646SOL    HW128397   0.445   3.688   8.147 -1.8285 -1.0211 -0.5957
 5646SOL    HW228398   0.425   3.752   8.017 -2.0657 -1.0863  1.9274
 5647SOL     OW28399   2.389   0.708   6.778 -0.7247  0.5001 -0.3304
 5647SOL    HW128400   2.333   0.631   6.784 -0.9211  0.6495 -0.2419
 5647SOL    HW228401   2.324   0.775   6.799  1.1293  2.7316 -1.8066
 5648SOL     OW28402   3.963   3.989   2.464 -0.2872  0.2460  0.4050
 5648SOL    HW128403   3.981   4.002   2.371  0.0368 -0.1022  0.4156
 5648SOL    HW228404   4.049   4.006   2.502 -0.7936  2.0600  0.7307
 5649SOL     OW28405   1.758   4.101   9.339 -0.9346  0.6166  0.1730
 5649SOL    HW128406   1.803   4.019   9.359 -0.0971  1.4357  1.5983
 5649SOL    HW228407   1.736   4.089   9.246  3.0158  0.2906 -0.6997
 5650SOL     OW28408   1.354   3.034   1.172  0.6665 -0.2470 -0.0368
 5650SOL    HW128409   1.286   3.027   1.239  0.6084  1.5585  0.1091
 5650SOL    HW228410   1.392   3.119   1.195 -0.0683  0.7105 -2.3135
 5651SOL     OW28411   1.437   4.225   3.689  0.0781  0.4212 -0.1374
 5651SOL    HW128412   1.459   4.146   3.640 -0.8817  0.9164 -1.3626
 5651SOL    HW228413   1.519   4.272   3.676  1.1884 -1.1928  1.1342
 5652SOL     OW28414   3.559   0.144   6.234 -0.3078 -0.5316 -0.1928
 5652SOL    HW128415   3.628   0.131   6.170 -1.0893  1.1806 -1.4116
 5652SOL    HW228416   3.553   0.239   6.223  0.5620 -0.2181  2.1541
 5653SOL     OW28417   3.420   1.047   9.733 -0.0242 -0.4808 -0.6416
 5653SOL    HW128418   3.481   1.119   9.750  1.1026 -0.5646 -4.4686
 5653SOL    HW228419   3.389   1.032   9.822 -0.4986  1.6877 -0.4298
 5654SOL     OW28420   4.638   3.934   3.963 -0.3056 -0.6685  0.0239
 5654SOL    HW128421   4.675   3.936   4.051  0.8853 -1.8639 -0.4622
 5654SOL    HW228422   4.674   4.009   3.917 -1.3469 -0.3466 -0.2542
 5655SOL     OW28423   4.349   0.715  17.568 -0.8801  0.0587  0.1451
 5655SOL    HW128424   4.296   0.637  17.583  1.0084 -0.6471  2.9980
 5655SOL    HW228425   4.406   0.719  17.644 -2.5577  0.0299  1.4070
 5656SOL     OW28426   3.397   4.069   8.814  0.3651 -0.8428  0.2458
 5656SOL    HW128427   3.376   4.139   8.875 -0.5885 -2.0932  1.3364
 5656SOL    HW228428   3.429   3.999   8.871 -0.5526 -0.5533  1.1015
 5657SOL     OW28429   3.891   1.027   2.581  0.0839 -0.3255  0.4650
 5657SOL    HW128430   3.857   0.955   2.528  1.7850 -2.4143  2.2107
 5657SOL    HW228431   3.829   1.100   2.578  0.2701 -0.1659  0.4949
 5658SOL     OW28432   1.762   1.053   0.233  0.2813  0.3357  0.3594
 5658SOL    HW128433   1.793   1.064   0.323  1.0718  0.7569  0.0322
 5658SOL    HW228434   1.675   1.014   0.246  0.4235  0.5559  2.0304
 5659SOL     OW28435   1.113   3.792   6.047  0.6665 -0.2971 -0.4718
 5659SOL    HW128436   1.103   3.775   6.140  2.0423 -0.0338 -0.2661
 5659SOL    HW228437   1.065   3.873   6.032  2.0277  0.5222 -0.4503
 5660SOL     OW28438   2.539   0.513   0.321  0.3099 -0.1226  0.0997
 5660SOL    HW128439   2.548   0.447   0.390  0.4446 -0.5500 -0.3240
 5660SOL    HW228440   2.449   0.546   0.325 -0.0995 -1.3389  0.9519
 5661SOL     OW28441   0.789   2.709   5.400  0.2164 -0.9577 -0.2303
 5661SOL    HW128442   0.838   2.753   5.469 -2.3637 -0.5882  1.3495
 5661SOL    HW228443   0.786   2.780   5.336  0.5561 -0.9019 -0.1878
 5662SOL     OW28444   2.015   2.425   2.150  0.0926  0.0745 -0.1686
 5662SOL    HW128445   1.959   2.464   2.082 -0.1963 -0.3125 -0.1517
 5662SOL    HW228446   1.993   2.488   2.218  2.6555  0.1675  0.5570
 5663SOL     OW28447   4.494   2.563   4.816 -0.6486 -0.0713  0.5661
 5663SOL    HW128448   4.438   2.514   4.876  1.2647 -1.0902  1.5176
 5663SOL    HW228449   4.567   2.590   4.872  0.0029 -1.8188  0.5605
 5664SOL     OW28450   3.456   4.619   4.584 -0.5282  0.2010  0.5727
 5664SOL    HW128451   3.510   4.540   4.584 -0.3667  0.3115  0.4269
 5664SOL    HW228452   3.386   4.598   4.646  1.4543  0.0359  2.7522
 5665SOL     OW28453   2.572   4.527   7.852  0.2000 -0.0864 -0.0150
 5665SOL    HW128454   2.553   4.436   7.833 -1.1228  0.1507  0.1708
 5665SOL    HW228455   2.524   4.549   7.932  0.4013 -1.8647  0.5852
 5666SOL     OW28456   1.424   4.429   5.466 -0.0561 -0.7550  0.6604
 5666SOL    HW128457   1.494   4.488   5.437 -0.9485 -0.0158 -0.0158
 5666SOL    HW228458   1.339   4.471   5.451  0.1655 -0.1331  1.1605
 5667SOL     OW28459   0.698   2.741   7.017  0.0832  0.0908  0.1189
 5667SOL    HW128460   0.730   2.820   7.060 -3.6709  0.8458  1.5090
 5667SOL    HW228461   0.739   2.667   7.061  0.3597  0.4175  0.4009
 5668SOL     OW28462   1.035   3.882   4.037  0.2265  0.0674  0.1281
 5668SOL    HW128463   1.109   3.912   4.089  0.6167 -0.4962 -0.1002
 5668SOL    HW228464   1.005   3.810   4.093 -4.3053 -0.1433 -2.5828
 5669SOL     OW28465   3.778   0.031   8.633  0.2143 -0.7407  0.6736
 5669SOL    HW128466   3.759   4.704   8.554 -0.7710  0.0108  0.4368
 5669SOL    HW228467   3.771   0.122   8.606  0.8227 -1.0768 -0.6519
 5670SOL     OW28468   3.691   0.711  15.598  0.1662  0.4823  1.1082
 5670SOL    HW128469   3.750   0.680  15.666  2.3836  0.4430 -0.8400
 5670SOL    HW228470   3.610   0.727  15.647 -0.7680 -2.7220  0.5938
 5671SOL     OW28471   0.455   2.657   7.463  0.0269  0.3317 -0.3155
 5671SOL    HW128472   0.487   2.606   7.389 -3.3406 -0.5511 -1.1705
 5671SOL    HW228473   0.441   2.581   7.520  0.0632 -0.4457 -1.3490
 5672SOL     OW28474   2.570   3.128   3.574 -0.3416 -0.2289  0.5308
 5672SOL    HW128475   2.502   3.178   3.620  0.2983  0.7508  0.4252
 5672SOL    HW228476   2.644   3.174   3.614  1.0777 -1.6418 -0.5043
 5673SOL     OW28477   4.450   3.160   6.286  0.3813  0.5116  0.0793
 5673SOL    HW128478   4.513   3.121   6.346  1.6454  1.1492 -0.8254
 5673SOL    HW228479   4.413   3.082   6.246  1.2674  0.4807 -0.6804
 5674SOL     OW28480   3.326   2.541   0.474 -0.3227  0.3737 -0.1776
 5674SOL    HW128481   3.252   2.591   0.510 -2.0346 -3.6063  1.7900
 5674SOL    HW228482   3.347   2.587   0.393  2.1956  0.7502  0.6860
 5675SOL     OW28483   2.463   1.019   6.096 -0.0326  0.3271  0.4183
 5675SOL    HW128484   2.518   0.996   6.171 -0.5063 -2.8340 -0.1882
 5675SOL    HW228485   2.429   0.930   6.083 -0.0603  0.1974  1.3517
 5676SOL     OW28486   4.568   2.500   8.744  0.2639 -0.6581 -0.2939
 5676SOL    HW128487   4.542   2.408   8.750 -4.5816  0.7167  0.5107
 5676SOL    HW228488   4.531   2.532   8.826 -3.8375 -4.0556 -0.7915
 5677SOL     OW28489   0.282   3.933  12.880 -0.1878  0.1236 -0.6217
 5677SOL    HW128490   0.332   3.909  12.802 -1.4672  0.0860 -1.4282
 5677SOL    HW228491   0.333   3.896  12.952 -0.7591  1.7740  0.6617
 5678SOL     OW28492   3.907   3.926   5.038 -0.0065 -0.0963  0.0376
 5678SOL    HW128493   3.981   3.984   5.018  1.9866 -2.9558 -0.8842
 5678SOL    HW228494   3.953   3.846   5.012  0.2134 -0.4573  1.5475
 5679SOL     OW28495   2.391   2.317   6.331  0.0594  0.3503  0.0673
 5679SOL    HW128496   2.331   2.265   6.277  1.3632 -2.2882  1.1636
 5679SOL    HW228497   2.440   2.366   6.265 -0.1321 -0.9548 -1.0460
 5680SOL     OW28498   2.748   4.266   8.612  0.2367 -0.2100  0.4527
 5680SOL    HW128499   2.806   4.195   8.641 -0.6795 -1.3796 -0.5977
 5680SOL    HW228500   2.798   4.348   8.618 -1.2276  0.8355 -1.6685
 5681SOL     OW28501   2.219   0.311   9.000 -0.4917 -0.4731  0.0935
 5681SOL    HW128502   2.313   0.321   9.019 -0.8921 -1.3095  2.4936
 5681SOL    HW228503   2.183   0.353   9.078  2.2030  0.6869  0.7176
 5682SOL     OW28504   4.226   3.177   2.390 -0.2989 -0.2681  0.2159
 5682SOL    HW128505   4.150   3.220   2.430 -0.0576  2.7040 -2.4774
 5682SOL    HW228506   4.271   3.250   2.347 -1.4650 -0.4955 -1.3921
 5683SOL     OW28507   0.633   4.550   3.264 -0.3719  0.0251 -0.5626
 5683SOL    HW128508   0.610   4.640   3.286  2.1644  0.4511  0.3275
 5683SOL    HW228509   0.612   4.493   3.337  0.8539  0.4738  0.1407
 5684SOL     OW28510   0.075   2.635   5.194  0.5045  0.0143 -0.1771
 5684SOL    HW128511   0.045   2.673   5.277 -1.6928  1.0548 -1.4757
 5684SOL    HW228512   4.724   2.642   5.136  0.0977  2.6095  0.6713
 5685SOL     OW28513   4.056   1.191   1.055 -0.3686 -0.5418  0.3620
 5685SOL    HW128514   4.024   1.173   1.143 -1.0428 -2.7075 -0.3272
 5685SOL    HW228515   4.049   1.286   1.063 -2.6897 -0.6836  0.2494
 5686SOL     OW28516   0.254   4.295   8.696 -0.5348  0.2019 -0.7134
 5686SOL    HW128517   0.233   4.201   8.691 -0.1908  0.2275 -2.7079
 5686SOL    HW228518   0.194   4.325   8.765 -0.8422  0.5428 -1.1335
 5687SOL     OW28519   3.790   2.928   7.901  0.2140 -0.2458 -0.3429
 5687SOL    HW128520   3.750   2.982   7.970 -1.7228 -0.7538 -1.0807
 5687SOL    HW228521   3.853   2.986   7.858 -1.2825  1.4281 -0.2998
 5688SOL     OW28522   0.975   0.155   8.741  0.0687 -0.4127  0.2052
 5688SOL    HW128523   0.953   0.142   8.833  0.8084 -0.3280  0.3965
 5688SOL    HW228524   1.033   0.232   8.743 -0.4382 -0.0210 -0.1300
 5689SOL     OW28525   0.110   4.085   0.509 -0.1483  0.1359  0.2211
 5689SOL    HW128526   0.034   4.102   0.565 -0.0575  0.8335  0.1334
 5689SOL    HW228527   0.080   4.133   0.431 -0.1745 -0.2175  0.0160
 5690SOL     OW28528   4.078   4.263   8.815  0.0607  0.0597 -0.4245
 5690SOL    HW128529   4.139   4.189   8.824 -0.9100 -0.5358  1.3160
 5690SOL    HW228530   4.043   4.270   8.904 -0.1891 -1.6487 -0.3877
 5691SOL     OW28531   1.905   0.107   1.154  0.6255  0.0108  0.2588
 5691SOL    HW128532   1.913   0.116   1.059  1.1793  1.5087  0.4534
 5691SOL    HW228533   1.832   0.166   1.172 -0.1260 -0.5258 -1.0239
 5692SOL     OW28534   4.311   1.713   2.371  0.4002 -0.3164 -0.1430
 5692SOL    HW128535   4.322   1.791   2.317  0.3401  0.1025  0.4499
 5692SOL    HW228536   4.242   1.747   2.428  0.2912  0.5205 -0.7768
 5693SOL     OW28537   3.905   1.079   5.868  0.0621 -0.3634 -0.0455
 5693SOL    HW128538   3.898   1.157   5.812 -0.7273 -1.2296 -1.1351
 5693SOL    HW228539   3.997   1.101   5.886  0.3113 -2.6228  1.3494
 5694SOL     OW28540   2.499   0.395   6.239  0.4190  0.4082  0.4520
 5694SOL    HW128541   2.472   0.309   6.271 -2.2436  0.8959 -0.5346
 5694SOL    HW228542   2.531   0.368   6.153 -0.9092  1.0323 -0.2303
 5695SOL     OW28543   2.155   0.974  12.304 -0.5536  0.0309  0.1843
 5695SOL    HW128544   2.172   1.007  12.393 -1.0172  3.2633 -0.9236
 5695SOL    HW228545   2.139   0.882  12.322 -1.6002 -0.0280 -1.0623
 5696SOL     OW28546   1.450   1.713   7.385  0.2538  0.6128 -0.3613
 5696SOL    HW128547   1.421   1.801   7.364  0.3665  0.3578 -1.5472
 5696SOL    HW228548   1.488   1.723   7.473  0.0259  2.5383 -0.4987
 5697SOL     OW28549   2.019   3.856   2.022 -0.4728 -0.4123 -0.1859
 5697SOL    HW128550   2.000   3.877   1.931 -0.1133 -0.9737 -0.3871
 5697SOL    HW228551   1.941   3.888   2.068  1.5240  2.0937  1.4987
 5698SOL     OW28552   3.275   1.753  11.336  0.0196  0.7888 -0.0997
 5698SOL    HW128553   3.236   1.838  11.357  1.3379  0.5369  3.3435
 5698SOL    HW228554   3.317   1.775  11.253 -0.1619  0.6009 -0.2413
 5699SOL     OW28555   3.243   0.201   4.940 -0.1795 -0.3180 -0.3107
 5699SOL    HW128556   3.250   0.271   4.876 -0.2940 -1.3087 -1.4076
 5699SOL    HW228557   3.336   0.186   4.957 -0.4637 -0.7553  0.9048
 5700SOL     OW28558   3.798   2.391   9.051 -0.5458  0.2554  0.6995
 5700SOL    HW128559   3.853   2.314   9.040 -0.5564  0.4182 -0.4441
 5700SOL    HW228560   3.851   2.430   9.121  2.1554 -0.5786 -0.8769
 5701SOL     OW28561   1.933   2.643   5.663  0.0376  0.2136  0.3576
 5701SOL    HW128562   1.923   2.657   5.757  1.9906 -1.3952  0.8162
 5701SOL    HW228563   1.849   2.675   5.630  1.1559  1.5840 -1.1044
 5702SOL     OW28564   2.160   0.579   5.392  0.1112  0.4748  0.0226
 5702SOL    HW128565   2.162   0.631   5.312  2.2117  2.5697  1.4205
 5702SOL    HW228566   2.141   0.644   5.459 -2.6225 -2.1051  1.7575
 5703SOL     OW28567   3.565   2.235  12.690  0.6092 -0.4471  0.3165
 5703SOL    HW128568   3.558   2.213  12.783  1.6548 -0.6429  0.3447
 5703SOL    HW228569   3.549   2.150  12.648  0.7850 -0.6857  0.7350
 5704SOL     OW28570   4.478   0.713   7.732  0.9152  0.1821 -0.6176
 5704SOL    HW128571   4.549   0.777   7.725  1.0930  0.2050  1.5271
 5704SOL    HW228572   4.400   0.762   7.757 -1.0409 -1.8163 -2.7597
 5705SOL     OW28573   2.466   3.114  16.891  0.3627 -0.1414 -0.2952
 5705SOL    HW128574   2.456   3.101  16.797  0.3200  1.4345 -0.5034
 5705SOL    HW228575   2.474   3.022  16.919 -0.2581 -0.4466 -1.0933
 5706SOL     OW28576   3.563   2.919  15.662 -0.4862  0.5795 -0.0063
 5706SOL    HW128577   3.544   2.998  15.613 -2.6491  0.5621  0.8254
 5706SOL    HW228578   3.572   2.955  15.750  0.9326 -0.9573  0.4909
 5707SOL     OW28579   4.667   4.440  13.033  0.1185  0.2535 -0.5454
 5707SOL    HW128580   4.641   4.365  12.978 -0.7282  1.8120 -2.2962
 5707SOL    HW228581   4.584   4.452  13.079 -0.6953  0.4344 -2.0610
 5708SOL     OW28582   1.882   0.491   0.368  0.1742 -0.0054  0.4570
 5708SOL    HW128583   1.809   0.525   0.419 -0.9751 -2.8251  0.6752
 5708SOL    HW228584   1.831   0.453   0.297  2.4566  0.2806 -1.3267
 5709SOL     OW28585   4.339   3.244   6.555 -0.2485 -0.0791  0.3304
 5709SOL    HW128586   4.278   3.193   6.608  0.0157  1.0251  1.6872
 5709SOL    HW228587   4.391   3.173   6.518  1.2534  1.6534 -0.9224
 5710SOL     OW28588   3.499   2.429   2.612  0.8628  0.1269 -0.0342
 5710SOL    HW128589   3.443   2.455   2.686 -0.2413  0.7500 -1.0852
 5710SOL    HW228590   3.558   2.504   2.606  0.2407  0.5950 -0.3173
 5711SOL     OW28591   3.301   3.434   5.168 -0.1194  0.0826 -0.1361
 5711SOL    HW128592   3.378   3.457   5.116 -0.9942  0.1794 -1.3936
 5711SOL    HW228593   3.329   3.430   5.259  2.0254 -0.1001 -0.8038
 5712SOL     OW28594   2.952   3.630   9.299  0.4247 -0.3620  0.0488
 5712SOL    HW128595   2.890   3.686   9.346 -0.8244 -1.8283  0.1587
 5712SOL    HW228596   3.029   3.686   9.305  0.2345 -0.2600  1.5442
 5713SOL     OW28597   0.427   3.067   5.759  0.0903  0.2409  0.6013
 5713SOL    HW128598   0.364   3.118   5.810 -1.1609  1.7468 -2.4147
 5713SOL    HW228599   0.361   3.018   5.710 -0.7354  0.0339  1.9156
 5714SOL     OW28600   3.601   2.894   0.019 -0.1870  0.2410 -0.0940
 5714SOL    HW128601   3.517   2.861  17.684  0.8420 -1.5825 -0.9274
 5714SOL    HW228602   3.594   2.987   0.001  1.9427 -0.0985 -2.7063
 5715SOL     OW28603   2.152   1.072   5.583 -0.1001  0.0757  0.2428
 5715SOL    HW128604   2.060   1.049   5.585 -0.0781  0.1183  1.4126
 5715SOL    HW228605   2.150   1.135   5.510  1.3812 -0.3402 -0.1678
 5716SOL     OW28606   3.985   3.353  16.496 -0.0177  0.1235 -0.0600
 5716SOL    HW128607   4.015   3.433  16.454 -1.0755 -0.2351 -1.4945
 5716SOL    HW228608   4.063   3.323  16.542 -0.6484  1.2185  1.7228
 5717SOL     OW28609   0.805   1.648   7.341  0.3383 -0.2249 -0.0614
 5717SOL    HW128610   0.791   1.574   7.401  0.3043 -0.5237 -0.4319
 5717SOL    HW228611   0.817   1.716   7.406 -2.5360 -1.7229  2.0242
 5718SOL     OW28612   1.501   1.868   5.803 -0.1985  0.0870  0.5314
 5718SOL    HW128613   1.453   1.846   5.723 -1.7370  0.9105  1.2277
 5718SOL    HW228614   1.550   1.787   5.818  0.9854  0.8724  0.8764
 5719SOL     OW28615   1.966   1.782  17.027 -0.1071  0.2311  0.1113
 5719SOL    HW128616   2.044   1.750  17.073  1.1742  0.9233 -1.5752
 5719SOL    HW228617   1.896   1.737  17.075 -0.5915  1.3401  0.4418
 5720SOL     OW28618   0.678   0.494   8.444 -0.0228 -0.4235 -0.4334
 5720SOL    HW128619   0.724   0.528   8.367  1.9392 -0.2758  0.8020
 5720SOL    HW228620   0.630   0.425   8.397 -0.5371 -0.1306 -0.3348
 5721SOL     OW28621   0.596   1.558   2.820 -0.6291 -0.1430 -0.2709
 5721SOL    HW128622   0.571   1.469   2.842 -0.5219 -0.2493 -0.5778
 5721SOL    HW228623   0.510   1.598   2.828 -0.2112  1.0746 -1.8531
 5722SOL     OW28624   0.245   1.084   2.450 -0.7527  0.7362  0.6663
 5722SOL    HW128625   0.304   1.159   2.451 -0.2502  0.3461  0.2692
 5722SOL    HW228626   0.244   1.041   2.365 -1.1121  0.5393  0.7708
 5723SOL     OW28627   0.663   1.433   8.965 -0.3619 -0.3468  0.5065
 5723SOL    HW128628   0.705   1.496   8.906  0.2366 -1.1745  0.0509
 5723SOL    HW228629   0.706   1.352   8.939 -0.0902 -0.5722  1.6559
 5724SOL     OW28630   3.601   4.655   5.944  0.1937 -0.8382 -0.2129
 5724SOL    HW128631   3.677   4.597   5.949  0.7828 -0.1447 -1.1011
 5724SOL    HW228632   3.554   4.630   6.023  0.4239  2.0886  0.8541
 5725SOL     OW28633   3.241   0.948   7.287  0.1744 -0.2236 -0.4651
 5725SOL    HW128634   3.242   1.041   7.264 -0.9814 -0.7361 -2.6473
 5725SOL    HW228635   3.160   0.948   7.338 -0.6859 -1.3153 -1.8406
 5726SOL     OW28636   1.250   0.559  11.276  0.3081 -0.1405 -0.4300
 5726SOL    HW128637   1.218   0.508  11.350  0.1814  1.9307  0.9654
 5726SOL    HW228638   1.193   0.634  11.296 -0.8251 -0.5363 -2.1216
 5727SOL     OW28639   2.517   2.273   2.095  0.4815  0.4346 -0.0937
 5727SOL    HW128640   2.422   2.268   2.103  0.6748  1.4437  3.0804
 5727SOL    HW228641   2.532   2.185   2.061 -0.0151  0.0756  0.6257
 5728SOL     OW28642   1.562   3.188  14.510 -0.6688  0.7809 -0.5085
 5728SOL    HW128643   1.469   3.170  14.525 -0.4574 -1.7710 -2.1111
 5728SOL    HW228644   1.578   3.139  14.429 -2.0803 -1.2056  0.3949
 5729SOL     OW28645   4.327   1.723   8.260 -0.3264  0.2370  0.1540
 5729SOL    HW128646   4.337   1.779   8.182  0.5750 -2.9831 -2.0212
 5729SOL    HW228647   4.333   1.786   8.332  2.9143  2.9660 -2.4647
 5730SOL     OW28648   0.368   3.434   6.463  0.4534  0.1412  0.2693
 5730SOL    HW128649   0.342   3.428   6.555 -2.3789 -3.3820 -0.7941
 5730SOL    HW228650   0.458   3.464   6.478 -0.0651  2.3199 -0.9957
 5731SOL     OW28651   0.954   2.952   6.954  0.0790  0.0280 -0.2352
 5731SOL    HW128652   0.949   2.998   6.870 -1.4561 -0.2240 -0.2844
 5731SOL    HW228653   1.026   2.891   6.936  0.2809  0.0276  0.5631
 5732SOL     OW28654   0.417   2.725   8.008 -0.4214 -0.5515  0.0026
 5732SOL    HW128655   0.361   2.782   7.955  1.5085  0.4416 -0.9443
 5732SOL    HW228656   0.348   2.678   8.055  0.4450 -0.9643  0.8633
 5733SOL     OW28657   0.121   2.877   2.994 -0.3554  0.7320  0.2645
 5733SOL    HW128658   0.205   2.919   3.011  0.2145  0.2106 -1.2581
 5733SOL    HW228659   0.152   2.791   3.024  1.4307 -0.3857 -4.6783
 5734SOL     OW28660   0.964   1.257  13.583 -0.3090  0.0255  0.4680
 5734SOL    HW128661   1.048   1.211  13.582  0.2054  1.0412 -3.4742
 5734SOL    HW228662   0.998   1.339  13.619  0.5095  0.4209 -1.1632
 5735SOL     OW28663   4.442   2.615   3.534  0.0921 -0.2290  0.0282
 5735SOL    HW128664   4.383   2.677   3.576  0.7436  0.9267 -0.7825
 5735SOL    HW228665   4.479   2.573   3.612  1.2069  0.0398 -0.3585
 5736SOL     OW28666   1.699   2.541   5.323 -0.3743  0.2289  0.2472
 5736SOL    HW128667   1.713   2.482   5.249  1.6178  1.5119 -0.3647
 5736SOL    HW228668   1.781   2.588   5.338 -0.3645 -0.5995  2.9041
 5737SOL     OW28669   2.896   1.183   0.004 -0.1018 -0.0331 -0.6417
 5737SOL    HW128670   2.932   1.226  17.623  1.6026  0.5205  0.4504
 5737SOL    HW228671   2.961   1.204   0.072 -1.4174  4.6051 -0.7783
 5738SOL     OW28672   2.993   2.647   0.506 -0.6537  0.2685 -0.8328
 5738SOL    HW128673   2.933   2.702   0.456 -0.4456  0.3009 -1.0483
 5738SOL    HW228674   2.969   2.558   0.482 -0.2108  0.6377 -2.6265
 5739SOL     OW28675   1.907   2.773   6.947 -0.0455  0.4432  0.5249
 5739SOL    HW128676   1.905   2.678   6.955 -2.9921  0.4785  0.0425
 5739SOL    HW228677   1.967   2.796   6.876 -0.5779 -0.5986 -0.2547
 5740SOL     OW28678   1.716   2.407   8.399  0.6483  0.1847 -0.2022
 5740SOL    HW128679   1.665   2.329   8.375 -0.7581  0.7102  1.1229
 5740SOL    HW228680   1.723   2.452   8.315  1.6718  0.9479  0.2862
 5741SOL     OW28681   0.678   3.564   2.340  0.2629 -0.1054  0.7257
 5741SOL    HW128682   0.695   3.638   2.282  0.6642  1.0068  2.2651
 5741SOL    HW228683   0.622   3.506   2.288  2.2408 -1.7646  0.4781
 5742SOL     OW28684   2.851   3.350  14.224 -0.4551 -0.4499  0.0160
 5742SOL    HW128685   2.892   3.429  14.259  0.2515 -1.2618  1.0134
 5742SOL    HW228686   2.927   3.303  14.189  0.2323  0.2314  0.5964
 5743SOL     OW28687   1.313   1.056   6.283 -0.2122  0.5918 -0.1316
 5743SOL    HW128688   1.293   0.978   6.232  1.1574  0.5572 -0.6191
 5743SOL    HW228689   1.306   1.015   6.369  0.6719 -2.0072 -1.3004
 5744SOL     OW28690   0.415   3.223   2.293 -0.3709  0.7190  0.2277
 5744SOL    HW128691   0.392   3.307   2.254 -1.0034  0.9227  1.0192
 5744SOL    HW228692   0.493   3.202   2.244 -1.3084 -0.2601 -0.8416
 5745SOL     OW28693   2.324   1.261   4.687 -0.2113  0.0477 -0.4023
 5745SOL    HW128694   2.274   1.286   4.610 -1.0897  1.8173  0.7324
 5745SOL    HW228695   2.358   1.349   4.702 -1.1966 -0.0251  2.2941
 5746SOL     OW28696   0.640   3.733   1.292 -0.2706 -1.1617 -0.2912
 5746SOL    HW128697   0.601   3.813   1.258  0.2761 -0.4507  0.7754
 5746SOL    HW228698   0.622   3.678   1.215 -0.2419  0.3172 -1.3581
 5747SOL     OW28699   1.710   2.094  15.370  0.2052 -0.0083 -0.4596
 5747SOL    HW128700   1.787   2.118  15.423 -0.2234 -0.4765  0.3785
 5747SOL    HW228701   1.705   2.004  15.402  0.6243 -0.3919 -1.4811
 5748SOL     OW28702   2.221   3.686   2.279  0.3059  0.3704  0.0434
 5748SOL    HW128703   2.236   3.649   2.192 -1.2942 -0.4142  0.0862
 5748SOL    HW228704   2.288   3.641   2.330 -0.5920 -1.7805 -0.6338
 5749SOL     OW28705   0.857   2.891  15.349 -0.5414 -0.0991 -0.1640
 5749SOL    HW128706   0.770   2.923  15.372 -1.2732 -1.1598 -1.4395
 5749SOL    HW228707   0.880   2.843  15.428 -1.1703  0.6207  0.4642
 5750SOL     OW28708   1.387   0.368   4.278 -0.1453 -0.0827 -0.0683
 5750SOL    HW128709   1.303   0.323   4.286  0.3655 -0.7900  1.3457
 5750SOL    HW228710   1.445   0.299   4.243 -0.6737  0.0068 -1.1192
 5751SOL     OW28711   3.388   3.919   3.098  0.0604 -0.5357  0.4354
 5751SOL    HW128712   3.349   3.984   3.158 -1.7207  0.5459 -1.8829
 5751SOL    HW228713   3.482   3.935   3.104 -0.2640  1.4647  0.3705
 5752SOL     OW28714   0.129   3.854   6.649 -0.2827  0.3502  0.7394
 5752SOL    HW128715   0.097   3.770   6.613 -1.0002  0.4802  1.0778
 5752SOL    HW228716   0.173   3.824   6.728 -2.3441 -2.5744  0.8132
 5753SOL     OW28717   2.378   2.523  10.413 -0.3444 -0.3595 -0.7187
 5753SOL    HW128718   2.327   2.505  10.492  1.1304  0.8087  0.4838
 5753SOL    HW228719   2.444   2.454  10.414 -0.7911 -0.7917 -0.4478
 5754SOL     OW28720   0.471   4.303   6.110 -0.0107  0.5297 -0.9711
 5754SOL    HW128721   0.400   4.250   6.073  0.4274 -0.7805  0.0452
 5754SOL    HW228722   0.456   4.382   6.059 -0.2963  0.8324 -0.4172
 5755SOL     OW28723   2.461   2.080  11.648 -0.1778  0.0375  0.1422
 5755SOL    HW128724   2.466   2.093  11.554 -3.0846  1.3470  0.1778
 5755SOL    HW228725   2.457   1.984  11.652  0.0213 -0.0000 -0.7984
 5756SOL     OW28726   3.583   3.791   2.411 -0.2870 -0.7124 -0.0601
 5756SOL    HW128727   3.537   3.782   2.494  2.1111 -1.1355  1.2450
 5756SOL    HW228728   3.524   3.807   2.338  1.6296 -0.6805 -1.6233
 5757SOL     OW28729   3.949   0.168   5.874  0.2477  0.0021 -0.6639
 5757SOL    HW128730   3.911   0.256   5.877  0.7387  0.2360 -1.1917
 5757SOL    HW228731   4.035   0.188   5.837 -0.8163  2.1000 -1.9999
 5758SOL     OW28732   4.014   1.128  16.720  0.2503 -0.6024  0.6125
 5758SOL    HW128733   4.076   1.196  16.746  1.0890 -1.3424  0.5371
 5758SOL    HW228734   3.987   1.090  16.804  0.8924 -0.1194  1.0374
 5759SOL     OW28735   0.571   1.898  11.344  0.4081  0.4556 -0.6986
 5759SOL    HW128736   0.534   1.974  11.299 -0.4462  0.3007 -0.2693
 5759SOL    HW228737   0.639   1.861  11.288  1.9278  2.5295 -0.2322
 5760SOL     OW28738   1.811   4.649  13.678 -0.6660  0.3782  0.6206
 5760SOL    HW128739   1.828   4.722  13.738  1.9707 -0.6165  1.1082
 5760SOL    HW228740   1.899   4.634  13.645 -0.4042  0.3175  1.3409
 5761SOL     OW28741   1.809   4.036   4.964  0.1085  0.4276 -0.1614
 5761SOL    HW128742   1.743   4.094   5.001  0.7962  1.8977 -1.2768
 5761SOL    HW228743   1.770   3.956   5.000 -1.8616  0.1291 -2.9505
 5762SOL     OW28744   3.625   0.481  16.531 -0.5661  0.3491 -0.2377
 5762SOL    HW128745   3.567   0.408  16.508 -0.1232  0.0171 -0.2931
 5762SOL    HW228746   3.654   0.443  16.613 -2.2955 -1.1753 -0.3094
 5763SOL     OW28747   1.458   3.800   7.866 -0.5443 -0.2502 -0.6526
 5763SOL    HW128748   1.371   3.760   7.857 -0.4675 -0.8332  1.3029
 5763SOL    HW228749   1.504   3.731   7.819  1.8566 -0.1638  1.6332
 5764SOL     OW28750   3.461   0.615   5.487 -1.2460  0.6095  0.2090
 5764SOL    HW128751   3.371   0.641   5.465 -1.7221 -1.4078 -0.2265
 5764SOL    HW228752   3.494   0.681   5.547 -1.3057 -0.7343  1.7125
 5765SOL     OW28753   3.771   1.983   5.741  0.7651 -0.4411  0.3835
 5765SOL    HW128754   3.808   1.944   5.662  0.2537 -1.3726  0.6108
 5765SOL    HW228755   3.852   1.985   5.792  1.8426  1.6104 -1.3968
 5766SOL     OW28756   3.689   2.319   2.901 -0.5841  0.1251  0.0334
 5766SOL    HW128757   3.753   2.344   2.835 -0.7979  1.4279  0.3303
 5766SOL    HW228758   3.612   2.293   2.851  0.3870  0.5000 -1.6384
 5767SOL     OW28759   1.490   0.142   9.644  0.3814 -0.1397  0.1937
 5767SOL    HW128760   1.451   0.063   9.607  1.7394 -1.0492  0.7210
 5767SOL    HW228761   1.512   0.105   9.730  0.6363  0.1938  0.2708
 5768SOL     OW28762   0.864   4.368   5.961  0.1116  0.0688 -0.0320
 5768SOL    HW128763   0.789   4.314   5.935 -0.1557 -0.2133  1.3023
 5768SOL    HW228764   0.891   4.404   5.877 -2.6962  2.5999  0.1340
 5769SOL     OW28765   4.215   3.890  12.746 -0.4896 -0.2129  0.0977
 5769SOL    HW128766   4.204   3.796  12.729  0.2494 -0.4566  0.9772
 5769SOL    HW228767   4.204   3.931  12.660 -0.5482  0.7222  0.5548
 5770SOL     OW28768   2.901   4.385   5.991 -0.0407  0.1346  0.7444
 5770SOL    HW128769   2.936   4.346   6.070  0.8679  2.2372  1.3890
 5770SOL    HW228770   2.816   4.413   6.025 -0.2153  0.7867 -0.2146
 5771SOL     OW28771   1.219   3.083  14.074  0.2770 -0.2464 -0.2736
 5771SOL    HW128772   1.173   3.031  14.140 -0.9693  0.3964 -0.6452
 5771SOL    HW228773   1.151   3.124  14.021 -1.2542 -2.4633 -0.0423
 5772SOL     OW28774   4.319   3.718  14.549 -0.6272  0.2089 -0.6384
 5772SOL    HW128775   4.389   3.677  14.499 -0.8357 -0.6224 -0.2423
 5772SOL    HW228776   4.365   3.759  14.622 -1.9400 -0.1350  0.3782
 5773SOL     OW28777   4.635   3.377  15.345  0.2612 -0.1568 -0.0309
 5773SOL    HW128778   4.638   3.460  15.298 -0.9520 -0.4103 -0.5730
 5773SOL    HW228779   4.686   3.314  15.293  0.3381  0.2702 -0.4734
 5774SOL     OW28780   4.030   4.171  13.711 -0.0304 -0.1860 -0.4163
 5774SOL    HW128781   3.984   4.111  13.769  1.5541 -1.7568 -0.8065
 5774SOL    HW228782   4.054   4.247  13.765  1.2757 -2.3015  1.9565
 5775SOL     OW28783   0.295   2.021   4.457 -0.0749 -0.4522  0.4342
 5775SOL    HW128784   0.360   1.988   4.395 -0.3697  0.8206 -0.5285
 5775SOL    HW228785   0.276   2.108   4.423 -1.1049 -1.2163 -0.9139
 5776SOL     OW28786   3.944   0.287   5.239 -0.0323  0.5161  0.7139
 5776SOL    HW128787   4.030   0.325   5.256  1.0908 -1.2976 -0.9952
 5776SOL    HW228788   3.893   0.368   5.251 -0.5072  0.2321  0.6067
 5777SOL     OW28789   3.865   3.246   3.771 -0.2039  0.2566 -0.2365
 5777SOL    HW128790   3.930   3.185   3.806 -0.4226 -0.0549 -0.3678
 5777SOL    HW228791   3.911   3.268   3.690 -0.6799  0.8337 -0.3451
 5778SOL     OW28792   0.081   1.659   9.466 -0.3054  0.0808  0.2563
 5778SOL    HW128793   0.107   1.747   9.495  1.6378 -0.4219  0.0311
 5778SOL    HW228794   0.061   1.663   9.372 -2.8536 -2.5501  0.7197
 5779SOL     OW28795   3.184   1.978   8.876 -1.0616  0.7614  0.0086
 5779SOL    HW128796   3.138   2.003   8.956  0.6231 -1.4002  1.6599
 5779SOL    HW228797   3.276   1.979   8.905 -1.0964  0.0171  0.1429
 5780SOL     OW28798   2.237   4.457   8.342 -0.0624  0.2356 -0.4735
 5780SOL    HW128799   2.330   4.480   8.345  0.1573 -0.8148  0.4749
 5780SOL    HW228800   2.197   4.514   8.277  1.8471  1.2781 -0.7442
 5781SOL     OW28801   0.309   4.312  12.718 -0.2369  0.2544 -0.9219
 5781SOL    HW128802   0.342   4.301  12.807  2.0707  1.6380 -1.6139
 5781SOL    HW228803   0.256   4.237  12.692  1.0399 -0.3538 -1.7940
 5782SOL     OW28804   2.029   0.909   1.935 -0.2535 -0.0110 -0.0677
 5782SOL    HW128805   1.971   0.984   1.921 -0.3155 -0.1650 -0.6458
 5782SOL    HW228806   2.001   0.883   2.023 -2.2261 -1.5904 -1.1678
 5783SOL     OW28807   1.342   3.754   4.480 -0.2932 -0.3059 -0.1055
 5783SOL    HW128808   1.364   3.662   4.465  0.0582  0.0583 -1.9125
 5783SOL    HW228809   1.315   3.761   4.571  1.3157  1.9579  0.1932
 5784SOL     OW28810   4.407   0.683   6.145 -0.2413 -0.1625 -0.6373
 5784SOL    HW128811   4.312   0.688   6.132 -0.0456  0.9769 -1.6138
 5784SOL    HW228812   4.422   0.590   6.162  0.3354 -0.1327 -1.0003
 5785SOL     OW28813   1.241   2.341  12.398  0.3340 -0.2951 -0.1753
 5785SOL    HW128814   1.319   2.303  12.357  0.6999  0.5932 -0.3147
 5785SOL    HW228815   1.276   2.411  12.453  0.9340 -2.0431  1.6418
 5786SOL     OW28816   2.881   2.507   7.453 -0.0729  0.1941 -1.1188
 5786SOL    HW128817   2.940   2.449   7.406 -1.6297 -1.4061 -1.0818
 5786SOL    HW228818   2.915   2.483   7.539 -3.3693  0.1238  0.1789
 5787SOL     OW28819   4.209   1.628   1.231 -0.0732  0.3803  0.4001
 5787SOL    HW128820   4.134   1.603   1.284 -2.1620  1.7374 -1.9638
 5787SOL    HW228821   4.283   1.605   1.287 -0.4232 -0.8312  0.3761
 5788SOL     OW28822   1.053   3.320   2.761 -0.0334  0.0605 -0.5109
 5788SOL    HW128823   1.034   3.236   2.718 -1.9220 -1.0285  2.4121
 5788SOL    HW228824   1.046   3.381   2.688 -0.4366  0.8305  0.1667
 5789SOL     OW28825   4.571   0.099   2.210 -0.1015  0.0236  0.0195
 5789SOL    HW128826   4.490   0.146   2.231  0.5183  1.8348 -1.6643
 5789SOL    HW228827   4.536   0.029   2.155  1.7194  0.3053 -1.4706
 5790SOL     OW28828   0.353   2.556  11.133 -0.2595 -0.0672  0.1564
 5790SOL    HW128829   0.340   2.631  11.075 -0.4556  0.2558  0.6237
 5790SOL    HW228830   0.449   2.549  11.136 -0.1429  1.7017  0.8409
 5791SOL     OW28831   1.008   0.809  11.657 -0.0656 -0.5897 -0.2554
 5791SOL    HW128832   1.005   0.722  11.697  0.6583  0.2600  1.6672
 5791SOL    HW228833   0.951   0.862  11.713  0.4271 -2.0138  1.6212
 5792SOL     OW28834   4.425   3.973   2.349 -0.2038  0.4053 -0.2104
 5792SOL    HW128835   4.399   4.063   2.325  0.6500  0.7577  0.1833
 5792SOL    HW228836   4.398   3.928   2.269 -0.9821  2.2313 -0.9888
 5793SOL     OW28837   1.614   0.481   2.553  0.0914 -0.0518 -0.1107
 5793SOL    HW128838   1.546   0.526   2.603  3.1203  2.3271  1.8865
 5793SOL    HW228839   1.626   0.537   2.475  0.9768 -0.4140 -0.2300
 5794SOL     OW28840   1.996   0.562   6.211  0.9143  0.2914 -0.3876
 5794SOL    HW128841   2.078   0.610   6.217  1.6372 -0.8219 -1.4555
 5794SOL    HW228842   1.959   0.595   6.293  2.8705 -1.0933  1.0251
 5795SOL     OW28843   1.566   0.642   3.241  0.6063  0.1318  0.0008
 5795SOL    HW128844   1.642   0.680   3.285  0.1307  1.1857 -0.0732
 5795SOL    HW228845   1.599   0.655   3.152 -4.2461  1.6306 -1.6022
 5796SOL     OW28846   0.338   0.334   6.581  0.1736 -0.2828  0.2563
 5796SOL    HW128847   0.422   0.358   6.621  0.4274 -0.7178 -0.0136
 5796SOL    HW228848   0.358   0.250   6.539  2.8411  0.5183 -0.0300
 5797SOL     OW28849   4.465   2.823   7.621  0.0869 -0.0003 -0.3943
 5797SOL    HW128850   4.486   2.892   7.684  0.4143 -0.9062  0.4855
 5797SOL    HW228851   4.469   2.864   7.534 -0.0967  0.1545 -0.3280
 5798SOL     OW28852   2.346   0.533  12.292  0.1008  0.0525  0.0121
 5798SOL    HW128853   2.317   0.444  12.311  0.9498 -0.0168  0.9957
 5798SOL    HW228854   2.309   0.580  12.368  2.6453 -0.0388  1.3056
 5799SOL     OW28855   3.148   2.385   7.407 -0.5385 -0.0624 -0.4973
 5799SOL    HW128856   3.085   2.342   7.349 -3.8427  0.4080  2.7934
 5799SOL    HW228857   3.227   2.356   7.361 -1.1252 -0.7322 -1.0979
 5800SOL     OW28858   1.760   4.037  12.721 -1.0287 -0.1143 -0.1300
 5800SOL    HW128859   1.809   3.955  12.710  0.5752  0.6525  1.2259
 5800SOL    HW228860   1.829   4.100  12.700  0.1093 -0.9634  1.0257
 5801SOL     OW28861   2.793   2.674   4.275  0.1839 -0.1071 -0.1277
 5801SOL    HW128862   2.857   2.615   4.315 -1.2540 -0.8638  1.0557
 5801SOL    HW228863   2.779   2.625   4.194  3.2013  0.4082 -0.9614
 5802SOL     OW28864   2.132   3.066   1.574  0.1282  0.0910 -0.1885
 5802SOL    HW128865   2.144   2.973   1.554  3.3164  0.1575  1.3337
 5802SOL    HW228866   2.105   3.097   1.487  3.6882  1.1479 -0.9295
 5803SOL     OW28867   4.177   1.129   5.905  0.0013 -0.3082  0.3822
 5803SOL    HW128868   4.210   1.097   5.821  0.3380 -2.1127  1.1930
 5803SOL    HW228869   4.257   1.160   5.947 -0.6577  0.5536  0.9818
 5804SOL     OW28870   1.586   0.623  12.535 -0.0329  0.2018  0.5650
 5804SOL    HW128871   1.623   0.694  12.588  1.0700  0.7904 -0.9958
 5804SOL    HW228872   1.667   0.599  12.491 -0.4925 -0.3106  0.0033
 5805SOL     OW28873   2.390   0.944   8.611 -0.1233 -0.1265 -0.5253
 5805SOL    HW128874   2.309   0.900   8.638  0.2037 -1.0911 -1.1022
 5805SOL    HW228875   2.375   1.033   8.643 -2.6328 -1.3507  1.7824
 5806SOL     OW28876   2.606   4.249   2.044  0.2090  0.2485  0.9327
 5806SOL    HW128877   2.694   4.261   2.008 -0.1120  1.2117  0.4531
 5806SOL    HW228878   2.623   4.177   2.105  1.9763 -0.8902 -0.8806
 5807SOL     OW28879   3.776   4.257   4.475  0.2026  0.2936  0.2662
 5807SOL    HW128880   3.777   4.172   4.429 -0.5031  0.3325  0.1766
 5807SOL    HW228881   3.814   4.228   4.558  0.9553  0.4042 -0.0432
 5808SOL     OW28882   3.618   2.679   2.655 -0.1314  0.4702 -0.0851
 5808SOL    HW128883   3.675   2.754   2.673 -1.4595  1.3628  0.4119
 5808SOL    HW228884   3.532   2.714   2.678 -0.7253 -1.2688  0.3430
 5809SOL     OW28885   4.140   0.713   7.645 -0.0349 -0.4809  0.1235
 5809SOL    HW128886   4.224   0.737   7.605 -0.4473 -0.0881 -0.5041
 5809SOL    HW228887   4.131   0.618   7.638 -0.8198 -0.2463 -2.1495
 5810SOL     OW28888   2.218   3.549  16.581  0.0666  0.0418  0.5705
 5810SOL    HW128889   2.152   3.515  16.521  1.5120  0.4453 -1.2358
 5810SOL    HW228890   2.184   3.637  16.600 -1.1093  0.4606 -3.4859
 5811SOL     OW28891   0.769   2.115   6.998  0.2382 -0.4888  0.3701
 5811SOL    HW128892   0.793   2.040   6.944  0.4079 -0.4376  0.3739
 5811SOL    HW228893   0.715   2.066   7.060  0.9421  0.3117  1.6221
 5812SOL     OW28894   1.329   1.138  15.566  0.1097  0.1286  0.8510
 5812SOL    HW128895   1.411   1.180  15.541  0.4123 -2.4853 -2.4841
 5812SOL    HW228896   1.351   1.114  15.657 -0.0952 -1.8004  0.3990
 5813SOL     OW28897   3.528   2.977   7.510 -0.3815 -0.3217 -0.0044
 5813SOL    HW128898   3.466   2.977   7.582 -0.3632  1.4922  0.0212
 5813SOL    HW228899   3.493   3.044   7.451  1.4655  1.9709  1.4649
 5814SOL     OW28900   4.105   1.348   6.048  0.4622  0.2026  0.2710
 5814SOL    HW128901   4.119   1.263   6.005  1.6506  2.2155 -3.2784
 5814SOL    HW228902   4.136   1.339   6.138  3.2208  1.4862 -0.5225
 5815SOL     OW28903   4.461   1.676   5.001 -0.0069 -1.1335  0.6656
 5815SOL    HW128904   4.386   1.626   4.968 -1.0356  1.1093 -0.4252
 5815SOL    HW228905   4.440   1.764   4.969 -0.6385 -0.0356  4.1930
 5816SOL     OW28906   2.680   3.557  12.802  0.1437 -0.1709  0.4017
 5816SOL    HW128907   2.681   3.474  12.755  2.4065 -1.8271  3.3910
 5816SOL    HW228908   2.667   3.611  12.725  2.5748  0.3641  0.3636
 5817SOL     OW28909   1.179   4.554   4.760  0.5514 -0.1533  0.0156
 5817SOL    HW128910   1.093   4.517   4.741 -0.6759  1.8457  1.8219
 5817SOL    HW228911   1.236   4.485   4.724  2.0112  0.0254  2.0082
 5818SOL     OW28912   1.460   2.581   8.705 -0.7985 -0.5491  0.0526
 5818SOL    HW128913   1.420   2.546   8.625  1.5472  2.5545 -2.4644
 5818SOL    HW228914   1.460   2.503   8.761  1.1782 -1.1717 -0.8049
 5819SOL     OW28915   4.366   2.008   6.479 -0.4624  0.1242 -0.4738
 5819SOL    HW128916   4.444   2.021   6.425 -0.6736  2.1093 -0.3103
 5819SOL    HW228917   4.315   1.943   6.431 -2.0633 -0.3626  1.9074
 5820SOL     OW28918   0.706   4.392  11.571  0.3814 -0.2018 -0.0888
 5820SOL    HW128919   0.759   4.351  11.639  0.2964 -0.4963 -0.1994
 5820SOL    HW228920   0.719   4.341  11.490  0.7340  2.0768 -1.4781
 5821SOL     OW28921   2.837   3.023   6.464 -0.2219 -0.0073 -0.2135
 5821SOL    HW128922   2.805   3.019   6.374  0.1385 -1.0223 -0.3003
 5821SOL    HW228923   2.833   3.117   6.483 -1.9638 -0.4838  1.6991
 5822SOL     OW28924   3.479   2.193   6.962  0.1360 -0.0501  0.1383
 5822SOL    HW128925   3.485   2.103   6.930  1.4970  0.6387 -1.5300
 5822SOL    HW228926   3.456   2.245   6.885 -1.2090 -0.4219  0.2996
 5823SOL     OW28927   3.179   4.145   4.146 -0.5138 -0.4793  0.4033
 5823SOL    HW128928   3.103   4.160   4.090  0.0418 -1.8002 -0.7065
 5823SOL    HW228929   3.206   4.057   4.120 -0.4461  0.3267 -2.2661
 5824SOL     OW28930   1.992   1.467  17.353  0.5037  0.0808  0.6923
 5824SOL    HW128931   1.988   1.371  17.352 -0.0829  0.1210 -0.0873
 5824SOL    HW228932   1.964   1.480  17.444 -0.3576 -1.8652  0.7030
 5825SOL     OW28933   2.224   4.179   1.935  0.2424 -0.3134 -0.0081
 5825SOL    HW128934   2.232   4.131   1.853  2.7819  0.8646 -0.4589
 5825SOL    HW228935   2.251   4.111   1.996  0.1622 -0.7477 -0.4592
 5826SOL     OW28936   3.593   1.941   9.355  0.6844 -0.0938  0.5370
 5826SOL    HW128937   3.561   1.855   9.325  1.0234  0.3078 -0.9776
 5826SOL    HW228938   3.513   1.960   9.404 -0.2022 -0.6334 -0.7090
 5827SOL     OW28939   1.415   2.444   4.921 -0.0820  0.4566 -0.1055
 5827SOL    HW128940   1.324   2.422   4.900 -0.3866 -0.2155  1.9467
 5827SOL    HW228941   1.418   2.395   5.003  1.3652  1.0481  0.1972
 5828SOL     OW28942   1.923   3.738  10.169 -0.6293 -0.1565  0.3039
 5828SOL    HW128943   1.972   3.674  10.219 -0.1908 -0.5247 -0.5940
 5828SOL    HW228944   1.886   3.693  10.093  0.1542  0.1576 -0.2601
 5829SOL     OW28945   0.061   2.247   8.400 -1.0654  0.2939  0.6216
 5829SOL    HW128946   0.098   2.274   8.485  1.2136  1.1607 -0.6485
 5829SOL    HW228947   0.020   2.331   8.382  2.1055  1.5059 -0.7985
 5830SOL     OW28948   0.993   2.631   3.656  0.5897  0.1565 -0.5457
 5830SOL    HW128949   0.949   2.638   3.571  1.8395 -1.8661 -1.3414
 5830SOL    HW228950   0.929   2.677   3.711  2.2124 -0.0420  1.4823
 5831SOL     OW28951   0.507   2.023   9.571 -0.3364 -0.5663  0.2301
 5831SOL    HW128952   0.552   2.081   9.509 -2.0296  0.3171 -0.1822
 5831SOL    HW228953   0.467   2.097   9.615  0.7215 -0.3483  0.8247
 5832SOL     OW28954   0.578   3.990   4.085  0.0878 -0.2898 -0.1534
 5832SOL    HW128955   0.576   4.080   4.118  0.2374  0.0920 -1.2108
 5832SOL    HW228956   0.533   3.948   4.159 -0.3361 -0.2393 -0.3857
 5833SOL     OW28957   1.191   3.014   8.423  0.1404  0.0138 -0.3734
 5833SOL    HW128958   1.185   2.992   8.516 -1.5420 -1.2009 -0.7529
 5833SOL    HW228959   1.197   3.109   8.419 -0.3402 -0.0264 -2.1864
 5834SOL     OW28960   4.392   4.060  11.045  0.0471  0.3386  0.4886
 5834SOL    HW128961   4.462   4.028  11.102  2.4023 -2.3495 -3.9352
 5834SOL    HW228962   4.377   4.149  11.078  1.8051  0.6254  0.5380
 5835SOL     OW28963   2.070   2.330   4.358 -0.5267  0.0622  0.4312
 5835SOL    HW128964   2.121   2.364   4.284  0.7860 -0.7717  0.9518
 5835SOL    HW228965   2.010   2.401   4.380 -2.0285  0.3459 -4.5754
 5836SOL     OW28966   3.000   4.131   2.621 -0.1175 -0.2537 -0.2975
 5836SOL    HW128967   2.984   4.210   2.672  1.1810  0.9643 -1.7650
 5836SOL    HW228968   2.928   4.125   2.558 -1.3238  0.8441  0.9926
 5837SOL     OW28969   1.715   2.933   8.860  0.6871  0.2490  0.2313
 5837SOL    HW128970   1.763   2.908   8.782 -0.7661  0.2825 -0.6717
 5837SOL    HW228971   1.648   2.865   8.860  0.2681  0.6522  1.0958
 5838SOL     OW28972   3.896   4.605   0.958  0.5640  0.2095  0.2590
 5838SOL    HW128973   3.939   4.596   1.043  2.5418 -0.0735 -0.7761
 5838SOL    HW228974   3.972   4.631   0.907 -0.2791  0.1500 -1.0129
 5839SOL     OW28975   4.334   0.379   7.249 -0.1579 -0.2515  0.3971
 5839SOL    HW128976   4.324   0.474   7.256  0.4308 -0.4817  4.1923
 5839SOL    HW228977   4.292   0.348   7.329  0.2549 -2.7258 -0.3517
 5840SOL     OW28978   1.702   3.268   2.102  0.1044  0.4253 -0.3941
 5840SOL    HW128979   1.717   3.258   2.196 -0.1641  1.0664 -0.2859
 5840SOL    HW228980   1.608   3.284   2.098  0.0150 -0.5088 -2.2104
 5841SOL     OW28981   0.151   0.629   0.932  0.1388  0.0835 -0.1279
 5841SOL    HW128982   0.080   0.693   0.941  0.5855  0.5031  0.4182
 5841SOL    HW228983   0.199   0.645   1.013  1.0865  1.0667 -0.8731
 5842SOL     OW28984   1.358   1.163   6.782 -0.0240  0.1347 -0.5403
 5842SOL    HW128985   1.385   1.250   6.751  0.9255  0.1935  0.4515
 5842SOL    HW228986   1.404   1.157   6.865 -0.3106 -0.8201 -0.4542
 5843SOL     OW28987   2.076   4.026   0.915  0.0582 -0.1615 -0.0315
 5843SOL    HW128988   2.014   4.091   0.947 -0.7233 -0.4131 -1.0523
 5843SOL    HW228989   2.026   3.995   0.841  0.5791 -0.1417 -0.3940
 5844SOL     OW28990   3.517   0.905   8.889  0.3496  0.2631  0.5159
 5844SOL    HW128991   3.511   0.941   8.800 -0.9974 -1.4382 -0.0763
 5844SOL    HW228992   3.423   0.893   8.899 -0.1734  1.7410 -2.5436
 5845SOL     OW28993   2.299   1.316   4.289  0.3686  0.2424  0.1132
 5845SOL    HW128994   2.214   1.358   4.275 -0.0142 -0.9156 -0.9896
 5845SOL    HW228995   2.324   1.347   4.376  0.0179 -0.7878  0.5873
 5846SOL     OW28996   3.450   3.106   3.380  0.2088 -0.1542 -0.8011
 5846SOL    HW128997   3.520   3.044   3.402  0.8696  1.1013  0.6392
 5846SOL    HW228998   3.479   3.183   3.429 -2.1731  1.1830 -1.5164
 5847SOL     OW28999   4.571   2.179  14.371  0.0859  0.0623  0.2900
 5847SOL    HW129000   4.611   2.165  14.285 -1.0495 -0.2047 -0.1939
 5847SOL    HW229001   4.562   2.090  14.404  1.4337 -0.1836 -0.0299
 5848SOL     OW29002   0.202   2.466   3.894  0.2361  0.0377 -0.1241
 5848SOL    HW129003   0.123   2.519   3.904  0.4099  0.4908 -1.2170
 5848SOL    HW229004   0.265   2.525   3.853 -0.2064  0.2148 -0.5322
 5849SOL     OW29005   0.880   2.307   5.555 -0.1639  0.2375  0.1054
 5849SOL    HW129006   0.823   2.359   5.613  1.3737  0.5063  1.3774
 5849SOL    HW229007   0.822   2.234   5.533  1.8297 -0.9732 -1.0539
 5850SOL     OW29008   3.307   2.506  15.653  0.4927  0.0806 -0.0483
 5850SOL    HW129009   3.399   2.479  15.643  0.7395  2.0839 -3.3979
 5850SOL    HW229010   3.316   2.600  15.668 -0.1372  0.5586 -2.6027
 5851SOL     OW29011   1.861   2.538   3.946 -0.6321  0.2057  0.1827
 5851SOL    HW129012   1.848   2.483   3.869 -2.4793  0.8979  0.0029
 5851SOL    HW229013   1.843   2.470   4.012  1.3858 -0.0487  0.4640
 5852SOL     OW29014   4.720   0.097   3.911 -0.5148  0.5741  0.2113
 5852SOL    HW129015   4.664   0.020   3.917 -1.4128  1.1381 -0.8681
 5852SOL    HW229016   0.081   0.059   3.937 -0.1683  0.4451 -1.0790
 5853SOL     OW29017   3.083   1.454   2.102 -0.5961 -0.3829  0.0732
 5853SOL    HW129018   3.098   1.536   2.149  1.9594 -0.0152 -1.4213
 5853SOL    HW229019   3.176   1.441   2.082 -0.5548  0.9622 -0.6280
 5854SOL     OW29020   1.509   3.693   7.036  0.3022 -0.2111 -0.0788
 5854SOL    HW129021   1.422   3.670   7.067 -0.2354 -0.8685 -2.0761
 5854SOL    HW229022   1.488   3.702   6.943 -1.3498  2.9559  0.5895
 5855SOL     OW29023   2.323   2.495   7.729 -0.5906 -0.3378  0.5081
 5855SOL    HW129024   2.388   2.561   7.755  0.5103 -0.8573 -0.9319
 5855SOL    HW229025   2.258   2.492   7.799 -0.2230  1.3893  0.9367
 5856SOL     OW29026   2.552   2.869   7.456  1.0274 -0.0228  0.2820
 5856SOL    HW129027   2.605   2.898   7.381 -0.1345  0.1315 -0.4696
 5856SOL    HW229028   2.556   2.774   7.455 -0.9681 -0.0493 -2.5638
 5857SOL     OW29029   2.351   2.737   0.883  0.1507  0.3244 -0.1976
 5857SOL    HW129030   2.439   2.728   0.917 -0.7124  0.2565  2.0307
 5857SOL    HW229031   2.319   2.798   0.950 -0.5640  0.5788 -0.7563
 5858SOL     OW29032   2.835   1.610   2.702 -0.5142 -0.3983  0.5313
 5858SOL    HW129033   2.857   1.518   2.684  2.6036  0.7622 -1.5387
 5858SOL    HW229034   2.830   1.612   2.797 -1.0265 -0.9138  0.5191
 5859SOL     OW29035   0.935   0.379   9.058 -0.1201  0.4814  0.4705
 5859SOL    HW129036   0.958   0.287   9.045 -2.8972 -0.0316 -0.7747
 5859SOL    HW229037   0.968   0.415   8.975 -0.4107  1.1468  0.6424
 5860SOL     OW29038   1.734   1.350   2.264  1.0745  0.7708  0.0383
 5860SOL    HW129039   1.784   1.270   2.281  1.1082  0.8986  0.5719
 5860SOL    HW229040   1.750   1.363   2.171 -0.1980  2.6167  0.0822
 5861SOL     OW29041   3.210   0.607  13.686  0.0395  0.2216  0.3024
 5861SOL    HW129042   3.161   0.689  13.679 -1.5907 -0.7748  0.1198
 5861SOL    HW229043   3.164   0.551  13.624  0.7605  0.6313 -0.6016
 5862SOL     OW29044   2.496   3.796   5.874 -0.0709 -0.0014  0.0932
 5862SOL    HW129045   2.513   3.823   5.784 -2.3430  1.5069  0.1067
 5862SOL    HW229046   2.568   3.734   5.887 -1.0744 -0.7556  2.1333
 5863SOL     OW29047   0.521   2.205   2.956 -0.4555 -0.1159  0.6619
 5863SOL    HW129048   0.449   2.167   2.904  0.6503  0.8562 -1.5787
 5863SOL    HW229049   0.560   2.122   2.984 -1.0788 -0.7027 -0.1836
 5864SOL     OW29050   3.355   4.245   7.606 -0.2961 -0.0536 -0.2754
 5864SOL    HW129051   3.281   4.282   7.557  0.0584 -0.3071 -1.0063
 5864SOL    HW229052   3.325   4.231   7.696  0.7686  1.7574  0.3649
 5865SOL     OW29053   3.942   2.364   3.233 -0.5212  0.3915  0.9554
 5865SOL    HW129054   3.937   2.440   3.174 -3.0963 -0.4145  0.1267
 5865SOL    HW229055   4.010   2.391   3.294  1.8652  0.6415 -1.7954
 5866SOL     OW29056   0.530   0.143  16.459 -0.4550 -0.6921  0.0139
 5866SOL    HW129057   0.465   0.194  16.507  1.2845 -0.2820  1.9156
 5866SOL    HW229058   0.557   0.085  16.530 -0.0767 -2.6227 -1.6791
 5867SOL     OW29059   1.459   0.327   4.869  0.6804 -0.5992 -0.8904
 5867SOL    HW129060   1.452   0.264   4.797  3.2312 -1.1330 -0.6510
 5867SOL    HW229061   1.536   0.376   4.840 -1.0371  2.0146 -1.0124
 5868SOL     OW29062   2.227   1.410  12.754  0.4730  0.0339 -0.0705
 5868SOL    HW129063   2.166   1.446  12.819 -0.2313  0.8402 -1.1848
 5868SOL    HW229064   2.304   1.465  12.767 -0.5114  1.1686  1.1046
 5869SOL     OW29065   2.689   1.770   7.081  0.3815  0.1509 -0.5065
 5869SOL    HW129066   2.776   1.731   7.071  1.6297  3.0621 -1.1681
 5869SOL    HW229067   2.682   1.829   7.005 -1.0215 -1.6656 -1.7883
 5870SOL     OW29068   2.751   0.493   3.223  0.1627  0.2021 -0.2538
 5870SOL    HW129069   2.811   0.427   3.188  1.0405  0.2611  1.1487
 5870SOL    HW229070   2.789   0.495   3.311 -1.2164  0.7606  0.3276
 5871SOL     OW29071   3.153   1.374   5.540 -0.3618  0.5112 -0.3341
 5871SOL    HW129072   3.071   1.423   5.547 -0.7955 -0.3084  0.3753
 5871SOL    HW229073   3.194   1.395   5.624  0.1860 -1.6857 -0.0684
 5872SOL     OW29074   2.706   3.466   2.911 -0.1002  0.5033  0.2367
 5872SOL    HW129075   2.782   3.434   2.862 -0.5179 -0.5521  0.2677
 5872SOL    HW229076   2.651   3.389   2.922 -1.1907  1.4747  1.5121
 5873SOL     OW29077   4.654   4.620   3.274 -0.2595 -0.4566  0.1062
 5873SOL    HW129078   4.686   4.699   3.317 -2.7107  0.4922  0.2320
 5873SOL    HW229079   4.585   4.664   3.224 -0.7522  0.7029  1.8081
 5874SOL     OW29080   2.492   0.411  14.645 -0.5137  0.0716  0.3543
 5874SOL    HW129081   2.543   0.338  14.682 -0.8590 -1.0725 -1.4167
 5874SOL    HW229082   2.462   0.372  14.563 -0.4749 -1.0273  0.8629
 5875SOL     OW29083   3.004   1.247   6.378  0.3263  0.1567 -0.4201
 5875SOL    HW129084   2.928   1.257   6.320 -0.8293  2.1803  1.4353
 5875SOL    HW229085   3.071   1.265   6.312  0.6742  0.4719  0.0199
 5876SOL     OW29086   2.416   3.310   7.095 -0.6226  0.6446 -0.0729
 5876SOL    HW129087   2.345   3.370   7.073  0.4035  1.6217 -0.7174
 5876SOL    HW229088   2.466   3.358   7.162 -0.3098 -0.6861  0.6350
 5877SOL     OW29089   3.030   0.150   3.821  0.4221  0.3020 -0.2807
 5877SOL    HW129090   3.121   0.133   3.794  1.1035  1.5261  1.2556
 5877SOL    HW229091   3.039   0.245   3.815 -0.5084  0.3492 -0.8532
 5878SOL     OW29092   2.634   3.716   2.818  0.0548 -0.0156  0.3201
 5878SOL    HW129093   2.658   3.624   2.816  0.9674  0.2241  0.5005
 5878SOL    HW229094   2.641   3.726   2.913  1.3926 -0.5633  0.2708
 5879SOL     OW29095   2.907   3.979   8.309 -0.0558 -0.5869 -0.6228
 5879SOL    HW129096   2.827   3.930   8.332 -0.6783  1.1236  0.8600
 5879SOL    HW229097   2.904   3.979   8.214 -1.7730  3.9066 -0.5602
 5880SOL     OW29098   3.003   4.184   1.479  0.1231 -0.1651  0.0067
 5880SOL    HW129099   3.016   4.270   1.438  2.2938  0.0328  1.1306
 5880SOL    HW229100   3.072   4.131   1.440 -0.1188 -0.7313  0.3610
 5881SOL     OW29101   1.264   0.585   6.258 -0.5723 -0.4463 -0.2229
 5881SOL    HW129102   1.279   0.575   6.352 -0.1766 -5.0256 -0.7404
 5881SOL    HW229103   1.302   0.671   6.239  1.3090 -1.8401 -2.8206
 5882SOL     OW29104   3.707   4.469  10.489 -0.0049  0.3417 -1.3806
 5882SOL    HW129105   3.648   4.406  10.447 -1.1651  1.8882 -2.1265
 5882SOL    HW229106   3.666   4.552  10.463 -0.2200  0.5805 -0.2860
 5883SOL     OW29107   0.790   3.256   2.366 -0.0039  0.1901 -0.2959
 5883SOL    HW129108   0.726   3.285   2.300  1.0174  1.4447 -0.7236
 5883SOL    HW229109   0.859   3.229   2.305  0.3368  2.5034 -0.9101
 5884SOL     OW29110   1.195   4.204  14.318  0.3223 -0.0795  0.3646
 5884SOL    HW129111   1.197   4.233  14.409  0.3659 -0.0245  0.3461
 5884SOL    HW229112   1.118   4.148  14.311  0.8281 -0.6525 -0.5944
 5885SOL     OW29113   2.281   3.948   3.392 -0.3796  0.0923  0.1857
 5885SOL    HW129114   2.334   3.880   3.433 -0.1513 -0.3734 -0.8978
 5885SOL    HW229115   2.281   3.910   3.304 -0.9238 -2.5611  1.3350
 5886SOL     OW29116   1.330   1.261   9.122  0.0098  0.1877 -0.0443
 5886SOL    HW129117   1.356   1.246   9.213  2.6597  0.4923 -0.7665
 5886SOL    HW229118   1.411   1.298   9.087  0.9570 -1.8507 -0.0016
 5887SOL     OW29119   1.126   4.718  12.147 -0.1023 -0.2874  1.0865
 5887SOL    HW129120   1.074   0.009  12.068 -0.5218  0.1562  1.4437
 5887SOL    HW229121   1.215   4.699  12.120 -0.8263 -4.0434  1.3908
 5888SOL     OW29122   4.265   1.679   3.073  0.5104 -0.0504 -0.7363
 5888SOL    HW129123   4.220   1.715   2.997  2.5402  1.0154 -1.4045
 5888SOL    HW229124   4.290   1.763   3.110 -1.8719  0.4086 -0.1324
 5889SOL     OW29125   2.457   3.038   1.550 -0.2028 -0.2373 -0.7422
 5889SOL    HW129126   2.412   2.953   1.553  0.4034 -0.5718 -1.2055
 5889SOL    HW229127   2.394   3.088   1.498 -0.8769  1.7445  2.0149
 5890SOL     OW29128   1.483   2.667   5.869  0.1274 -0.1413 -0.3924
 5890SOL    HW129129   1.441   2.752   5.856  0.9737  0.3111 -0.2144
 5890SOL    HW229130   1.409   2.608   5.867  0.1284 -0.1698  0.4812
 5891SOL     OW29131   4.514   2.140   3.011  0.1965  0.1471  0.0773
 5891SOL    HW129132   4.609   2.130   3.003  0.3063  0.8658  0.5182
 5891SOL    HW229133   4.499   2.173   2.922  0.4663  0.6898  0.2300
 5892SOL     OW29134   0.616   0.204   2.779 -0.3892 -0.9446  0.2626
 5892SOL    HW129135   0.595   0.149   2.704  0.6214  0.5125 -1.0781
 5892SOL    HW229136   0.538   0.260   2.782  3.1122  3.9391 -0.8825
 5893SOL     OW29137   2.620   0.243   8.572  0.2822 -0.3943  0.5599
 5893SOL    HW129138   2.702   0.264   8.526  0.8467  0.7080  2.0947
 5893SOL    HW229139   2.568   0.306   8.522 -0.4208 -1.2047  0.2687
 5894SOL     OW29140   2.167   2.706  16.520  0.1272 -0.2866 -0.0115
 5894SOL    HW129141   2.110   2.718  16.443 -2.3481 -3.4212  1.3484
 5894SOL    HW229142   2.104   2.750  16.577  0.3246  1.4358 -1.1093
 5895SOL     OW29143   2.064   1.523  12.403 -0.1200 -0.3373  0.0350
 5895SOL    HW129144   2.101   1.440  12.373  0.5832  0.1325 -0.3968
 5895SOL    HW229145   2.030   1.481  12.482  1.8998 -2.5271 -0.2401
 5896SOL     OW29146   2.614   2.523   3.230  0.3865 -0.1102 -0.4556
 5896SOL    HW129147   2.648   2.531   3.140 -1.9588  1.9515 -1.1449
 5896SOL    HW229148   2.567   2.605   3.243  1.4543  0.6941 -1.5585
 5897SOL     OW29149   3.516   1.597   1.899 -0.3876  0.0444  0.1069
 5897SOL    HW129150   3.600   1.553   1.913 -0.7401 -0.3002  1.1969
 5897SOL    HW229151   3.541   1.689   1.894  2.0003 -0.5780  0.4010
 5898SOL     OW29152   4.087   2.565   6.300 -0.5124 -0.2946 -0.5882
 5898SOL    HW129153   4.048   2.479   6.287 -0.6582 -0.4186  0.6699
 5898SOL    HW229154   4.006   2.615   6.294 -0.3181  0.1381  0.3577
 5899SOL     OW29155   0.088   0.429  16.405 -0.5229 -0.1017 -0.4241
 5899SOL    HW129156   4.722   0.442  16.434  0.1217  1.2329  0.9431
 5899SOL    HW229157   0.087   0.461  16.314  0.6020 -0.7224 -0.6541
 5900SOL     OW29158   3.723   2.368   8.796  0.3460  0.0808 -0.2099
 5900SOL    HW129159   3.745   2.457   8.771 -0.7923  0.4549  0.1271
 5900SOL    HW229160   3.741   2.372   8.890 -1.2346 -1.7361  0.1752
 5901SOL     OW29161   3.835   1.312   0.308  0.2319 -0.0932  0.1193
 5901SOL    HW129162   3.825   1.241   0.372 -0.0356  0.6828  0.9419
 5901SOL    HW229163   3.887   1.375   0.357 -0.7473  1.8419 -1.3590
 5902SOL     OW29164   4.208   1.969   4.027  0.3570  0.2838  0.7500
 5902SOL    HW129165   4.128   1.948   3.979  0.7280 -2.0483  1.1327
 5902SOL    HW229166   4.227   2.061   4.007 -1.4017  0.8586  1.6987
 5903SOL     OW29167   4.393   1.728  13.929  0.0884  0.1644 -0.1068
 5903SOL    HW129168   4.360   1.788  13.996  1.4993  3.2573 -2.1451
 5903SOL    HW229169   4.449   1.774  13.866  0.3578 -1.7536 -1.2687
 5904SOL     OW29170   3.929   0.512   0.030 -0.4859  0.5660 -0.3901
 5904SOL    HW129171   3.853   0.469   0.070 -1.6353  3.0731  0.0894
 5904SOL    HW229172   3.889   0.596   0.008 -2.2145 -0.3417 -0.7037
 5905SOL     OW29173   0.976   2.758   4.091 -0.6613 -0.1173  0.7144
 5905SOL    HW129174   0.949   2.736   4.180 -2.7457  0.5711  0.2596
 5905SOL    HW229175   1.027   2.680   4.068  2.4506  2.1956 -0.2923
 5906SOL     OW29176   2.950   0.312   3.414  0.6413  0.1758  0.0429
 5906SOL    HW129177   2.940   0.237   3.473  3.3424 -0.9365 -0.9130
 5906SOL    HW229178   2.932   0.268   3.332 -1.8458  0.8041  0.2679
 5907SOL     OW29179   4.007   2.766  13.249 -0.7607 -0.0865  0.1463
 5907SOL    HW129180   3.989   2.751  13.342 -1.0274 -2.1667 -0.2345
 5907SOL    HW229181   4.099   2.741  13.242 -0.2258  1.5469  1.2501
 5908SOL     OW29182   1.862   1.083  12.724  0.5647 -0.1404 -0.3437
 5908SOL    HW129183   1.930   1.066  12.659 -1.0107  1.0142 -2.2828
 5908SOL    HW229184   1.913   1.105  12.801 -0.3053 -1.3580  0.5905
 5909SOL     OW29185   4.193   4.588  15.541  0.4592  0.1555 -0.3943
 5909SOL    HW129186   4.214   4.666  15.488  1.7737 -1.0514 -1.6444
 5909SOL    HW229187   4.136   4.546  15.476 -0.4650  0.8554 -0.0321
 5910SOL     OW29188   2.305   3.558  11.893 -0.8475 -0.2000  0.4113
 5910SOL    HW129189   2.210   3.552  11.891 -0.9614  1.5842  1.0827
 5910SOL    HW229190   2.308   3.648  11.863 -2.5227 -0.1518  0.3929
 5911SOL     OW29191   0.301   1.217   1.872  0.2535  0.3340  0.7093
 5911SOL    HW129192   0.324   1.282   1.805 -3.9190  0.7651 -0.3202
 5911SOL    HW229193   0.312   1.137   1.820  0.7182  1.4131 -0.8689
 5912SOL     OW29194   2.925   4.312   3.149  0.6599 -0.2220 -0.0460
 5912SOL    HW129195   3.000   4.346   3.196  2.4444  0.0156 -3.0439
 5912SOL    HW229196   2.910   4.240   3.210  2.1343  0.6104  1.2726
 5913SOL     OW29197   0.100   1.936   8.890 -0.5639  0.6451 -0.5142
 5913SOL    HW129198   0.128   1.876   8.958 -1.7241  0.6714 -0.0134
 5913SOL    HW229199   0.064   2.009   8.941 -1.7905 -1.5725  1.8032
 5914SOL     OW29200   0.278   1.773  15.713  0.9506 -0.9369  0.1660
 5914SOL    HW129201   0.259   1.751  15.622 -0.3822  0.4445  0.1047
 5914SOL    HW229202   0.222   1.850  15.721  0.6545 -1.0973 -0.3196
 5915SOL     OW29203   0.874   2.784   5.005 -0.7549 -0.3450  0.4318
 5915SOL    HW129204   0.919   2.705   4.975 -0.8541 -0.8389  1.5555
 5915SOL    HW229205   0.804   2.729   5.042 -0.4573 -1.1334 -0.1722
 5916SOL     OW29206   2.591   0.012   4.524 -0.4108 -0.6149  0.2415
 5916SOL    HW129207   2.566   4.711   4.435 -1.4072 -1.6358  0.8037
 5916SOL    HW229208   2.682   0.041   4.512 -0.4349 -0.4838  0.3745
 5917SOL     OW29209   2.007   3.508  12.605 -0.0482 -0.0778  0.5067
 5917SOL    HW129210   2.046   3.495  12.692  0.7921 -1.4474 -0.0841
 5917SOL    HW229211   2.081   3.513  12.545 -1.1126  1.1379 -0.6850
 5918SOL     OW29212   2.775   3.027   6.164 -0.0454 -0.1039  0.2656
 5918SOL    HW129213   2.855   3.080   6.159 -0.2745  0.2131  0.0002
 5918SOL    HW229214   2.808   2.937   6.163 -0.6796 -0.3506  1.2659
 5919SOL     OW29215   1.747   4.352   9.631 -0.1982  0.1178 -0.2036
 5919SOL    HW129216   1.805   4.318   9.562 -0.7756 -2.2150  0.4586
 5919SOL    HW229217   1.725   4.431   9.581  0.4210  0.4828  0.1035
 5920SOL     OW29218   3.754   0.733  10.434 -0.4433 -0.2802 -0.2412
 5920SOL    HW129219   3.788   0.810  10.481  1.8717 -0.4093 -1.7021
 5920SOL    HW229220   3.826   0.670  10.436  0.1254  0.3037 -2.0016
 5921SOL     OW29221   0.735   2.715   5.909 -0.0049 -0.2845  0.0555
 5921SOL    HW129222   0.645   2.703   5.937  0.2246  0.0549  0.9169
 5921SOL    HW229223   0.731   2.770   5.831  0.0736 -0.9895 -0.4474
 5922SOL     OW29224   3.567   4.347  10.158  0.2924 -0.5565 -0.7171
 5922SOL    HW129225   3.576   4.319  10.067 -1.2408  0.8990 -1.3055
 5922SOL    HW229226   3.480   4.385  10.147  0.3083  0.1814  1.4753
 5923SOL     OW29227   2.146   2.289   8.188  0.0629 -0.3451  0.6529
 5923SOL    HW129228   2.087   2.284   8.263 -1.5239 -0.3782 -0.5930
 5923SOL    HW229229   2.077   2.310   8.124  0.4486 -1.4472 -0.1365
 5924SOL     OW29230   0.376   3.822   2.155 -0.0110 -0.8568 -0.2821
 5924SOL    HW129231   0.361   3.897   2.097 -1.5397 -1.5947 -0.8331
 5924SOL    HW229232   0.308   3.761   2.127 -1.2137 -0.2769  1.4137
 5925SOL     OW29233   3.379   0.088  17.106 -0.1212 -0.5173 -0.0018
 5925SOL    HW129234   3.426   0.037  17.040 -0.6223 -0.4733 -0.3902
 5925SOL    HW229235   3.303   0.035  17.128 -0.1363 -0.0459  1.1178
 5926SOL     OW29236   0.526   4.413  12.570  0.0251  0.0137  0.1515
 5926SOL    HW129237   0.506   4.506  12.556 -0.6662  0.0680  1.5958
 5926SOL    HW229238   0.438   4.379  12.588  0.4895  0.0642  2.4507
 5927SOL     OW29239   4.401   4.252   3.701  0.1561  0.1596  0.4134
 5927SOL    HW129240   4.393   4.160   3.722 -0.3224  0.0946 -0.0518
 5927SOL    HW229241   4.413   4.279   3.792  0.7681 -0.1311  0.4176
 5928SOL     OW29242   2.188   0.922   4.595  0.3121 -0.3693  0.0123
 5928SOL    HW129243   2.104   0.908   4.552  0.9337  0.3819 -1.4334
 5928SOL    HW229244   2.238   0.959   4.523  1.0179 -0.3453  0.5111
 5929SOL     OW29245   4.143   2.970   7.829 -0.4270 -0.4268  0.6269
 5929SOL    HW129246   4.146   2.948   7.736 -1.1018 -6.3933  2.0040
 5929SOL    HW229247   4.082   3.043   7.830  0.6244  0.4638 -3.6444
 5930SOL     OW29248   3.897   3.427   9.843 -0.3398  0.2395 -0.5084
 5930SOL    HW129249   3.992   3.419   9.853 -0.1509  1.2468 -1.5116
 5930SOL    HW229250   3.891   3.355   9.780 -4.7654 -0.1417  0.3671
 5931SOL     OW29251   0.206   0.982   2.205  0.2616  0.6459  0.2848
 5931SOL    HW129252   0.300   0.967   2.217  0.2908  2.2027  1.9549
 5931SOL    HW229253   0.193   0.936   2.122  2.7022 -1.0191  0.7971
 5932SOL     OW29254   3.826   2.800  10.218  0.4269 -0.1927  0.5612
 5932SOL    HW129255   3.734   2.826  10.213  0.8027  0.9442 -0.4823
 5932SOL    HW229256   3.835   2.705  10.208  1.7873 -0.1537  1.3975
 5933SOL     OW29257   0.638   2.616   5.056  0.8194 -0.6941  0.1024
 5933SOL    HW129258   0.645   2.523   5.077  0.0926 -0.8675 -0.4405
 5933SOL    HW229259   0.560   2.645   5.104 -0.2697  0.5528 -2.4081
 5934SOL     OW29260   3.568   3.348   8.148 -0.1400  0.0653  0.0282
 5934SOL    HW129261   3.627   3.328   8.220  1.2947 -0.1079 -1.1985
 5934SOL    HW229262   3.581   3.272   8.091  0.7057 -0.0409  0.3657
 5935SOL     OW29263   3.779   0.332  10.260 -0.1693  0.3636 -0.2768
 5935SOL    HW129264   3.794   0.363  10.349  0.1992  3.6499 -1.4414
 5935SOL    HW229265   3.785   0.237  10.266  0.2850  0.3576 -0.8470
 5936SOL     OW29266   3.615   2.678   0.803 -0.2880 -0.1274 -0.2261
 5936SOL    HW129267   3.672   2.755   0.807  1.3299 -1.3469  0.3267
 5936SOL    HW229268   3.621   2.647   0.893 -5.2466  0.3634  0.2649
 5937SOL     OW29269   0.995   0.045  17.081 -0.4820 -0.4182  0.0162
 5937SOL    HW129270   1.051   0.122  17.068 -0.1775 -0.0908  3.0792
 5937SOL    HW229271   1.026   4.715  17.009 -0.4486 -0.9283  0.4108
 5938SOL     OW29272   4.540   1.646   8.582 -0.0001 -0.1951  0.0462
 5938SOL    HW129273   4.527   1.571   8.524 -1.3804  1.8331 -2.2802
 5938SOL    HW229274   4.457   1.665   8.626  0.1601 -0.2074  0.3575
 5939SOL     OW29275   0.907   1.468  10.803 -0.1357  0.5413 -0.3850
 5939SOL    HW129276   0.905   1.390  10.748  2.0156  0.6157 -0.5629
 5939SOL    HW229277   0.881   1.537  10.741 -0.5247  0.3600 -0.4237
 5940SOL     OW29278   1.179   2.668   0.734  0.4087  0.2370  0.2862
 5940SOL    HW129279   1.232   2.742   0.762  0.2831  0.3506  0.2231
 5940SOL    HW229280   1.197   2.602   0.802 -0.9607 -2.1410 -1.6449
 5941SOL     OW29281   4.331   2.443   5.008  0.5982 -0.0687 -0.0812
 5941SOL    HW129282   4.284   2.493   5.075 -1.2527  0.9849 -2.1641
 5941SOL    HW229283   4.413   2.421   5.053 -0.4989  0.0012  1.9459
 5942SOL     OW29284   3.299   2.800   6.784 -0.4643 -0.0678  0.0495
 5942SOL    HW129285   3.231   2.804   6.851  0.1082 -0.4289  0.6526
 5942SOL    HW229286   3.259   2.756   6.708  0.0780 -0.4957  0.0102
 5943SOL     OW29287   4.591   1.080   9.778 -0.0688 -0.3187 -0.2602
 5943SOL    HW129288   4.546   1.023   9.841 -0.3875  0.5329  0.2850
 5943SOL    HW229289   4.604   1.024   9.702 -0.2884  1.7664 -1.8216
 5944SOL     OW29290   0.053   3.506  10.931  0.4230 -0.1332  0.2746
 5944SOL    HW129291   0.105   3.560  10.990 -2.1268 -0.6133  3.0009
 5944SOL    HW229292   0.122   3.484  10.868  0.0501  0.1188 -0.2243
 5945SOL     OW29293   0.629   3.792  17.413  0.4053 -0.0973 -0.0600
 5945SOL    HW129294   0.680   3.873  17.405 -2.1323  1.6418  1.5274
 5945SOL    HW229295   0.588   3.784  17.327 -3.6207  2.0957  1.6593
 5946SOL     OW29296   1.877   4.085   8.566 -0.3665 -0.0739  0.2730
 5946SOL    HW129297   1.799   4.065   8.516 -0.2121 -0.2354  0.0974
 5946SOL    HW229298   1.835   4.152   8.621  2.1561  0.9693  0.9435
 5947SOL     OW29299   3.066   3.097   6.980  0.4080 -0.0503 -0.3268
 5947SOL    HW129300   3.136   3.132   6.926  0.8562 -0.6404 -0.1253
 5947SOL    HW229301   3.097   3.100   7.070  1.3163 -0.0343 -0.6386
 5948SOL     OW29302   1.175   0.176   4.280  0.6566 -0.3937  0.0846
 5948SOL    HW129303   1.202   0.131   4.360  1.5687  3.4008  1.9308
 5948SOL    HW229304   1.081   0.175   4.297  0.3071  0.5043 -1.7816
 5949SOL     OW29305   1.126   1.411   9.138  0.0989 -0.0644  0.1156
 5949SOL    HW129306   1.211   1.368   9.130  0.3464  0.2120  1.2661
 5949SOL    HW229307   1.095   1.401   9.048 -1.2064  1.6173  0.3711
 5950SOL     OW29308   0.635   0.447   0.202 -0.7480 -0.1716  0.1665
 5950SOL    HW129309   0.546   0.462   0.169 -1.3762 -1.3091  1.3217
 5950SOL    HW229310   0.640   0.520   0.264 -1.4302  0.8154 -0.9366
 5951SOL     OW29311   1.510   1.780   1.611 -0.4723 -0.0266  0.3646
 5951SOL    HW129312   1.512   1.875   1.618 -0.0352 -0.0494  0.5434
 5951SOL    HW229313   1.446   1.774   1.540  0.4052  1.8883 -0.5860
 5952SOL     OW29314   4.469   4.404   5.694 -0.0970 -0.0331 -0.6951
 5952SOL    HW129315   4.499   4.388   5.783 -2.2002  0.9555  0.2188
 5952SOL    HW229316   4.441   4.321   5.656  1.6540 -1.5750  1.4222
 5953SOL     OW29317   1.023   3.862   3.286 -0.2130  0.0804 -0.6300
 5953SOL    HW129318   0.955   3.796   3.301 -0.9330  0.9630 -0.0215
 5953SOL    HW229319   0.975   3.913   3.220  0.3820  3.0985  1.2627
 5954SOL     OW29320   4.413   1.762   4.333 -0.0481 -0.2850  0.7370
 5954SOL    HW129321   4.413   1.828   4.263 -1.8926  0.2212  1.2250
 5954SOL    HW229322   4.438   1.815   4.409 -0.9316  0.4299  0.5266
 5955SOL     OW29323   1.319   0.321   5.233  0.6879  0.4743 -0.1795
 5955SOL    HW129324   1.246   0.269   5.267  1.2039 -0.3842 -0.3785
 5955SOL    HW229325   1.388   0.255   5.226 -0.5682 -0.6149 -2.2196
 5956SOL     OW29326   1.207   4.314   8.399  0.4167  0.0907  0.1670
 5956SOL    HW129327   1.131   4.338   8.452 -0.5274 -2.3879 -0.0764
 5956SOL    HW229328   1.279   4.365   8.435  1.0816 -0.4680 -0.3942
 5957SOL     OW29329   1.565   2.448   3.315 -0.4415  0.8269 -0.1639
 5957SOL    HW129330   1.568   2.413   3.225 -2.6409 -0.1490  0.1291
 5957SOL    HW229331   1.470   2.460   3.320 -0.7080 -1.1086 -0.4991
 5958SOL     OW29332   3.126   4.519   9.470  0.1937 -0.5166 -0.2147
 5958SOL    HW129333   3.111   4.428   9.446  0.8553 -0.4729 -0.8026
 5958SOL    HW229334   3.178   4.513   9.551  3.3959  0.8735 -2.1592
 5959SOL     OW29335   0.668   1.289   4.943 -0.1784 -0.0774 -0.3366
 5959SOL    HW129336   0.599   1.278   5.008  1.8328  1.2577  2.0168
 5959SOL    HW229337   0.620   1.251   4.869 -0.7328  0.3970 -0.2236
 5960SOL     OW29338   4.612   3.387   9.030 -0.1580  0.1877 -0.4028
 5960SOL    HW129339   4.533   3.380   9.083  0.8834  1.0346  1.2693
 5960SOL    HW229340   4.657   3.447   9.090 -2.5246 -0.6044  2.1699
 5961SOL     OW29341   2.012   0.975   5.992  0.0436 -0.0757 -0.7261
 5961SOL    HW129342   1.966   0.953   5.911 -0.3926 -1.1197 -0.1929
 5961SOL    HW229343   2.092   0.928   5.970  0.0878  0.4351 -1.6416
 5962SOL     OW29344   4.646   2.289   7.004 -0.4873 -0.1866  0.5951
 5962SOL    HW129345   4.685   2.233   7.071 -2.1048  0.0345  1.7031
 5962SOL    HW229346   4.638   2.224   6.934 -0.9065  0.1052  0.3715
 5963SOL     OW29347   3.343   3.842   5.978  0.2979  0.2007 -0.4677
 5963SOL    HW129348   3.424   3.872   5.937  0.8658 -2.4780 -1.3073
 5963SOL    HW229349   3.322   3.761   5.931 -0.4211  1.2559 -1.9665
 5964SOL     OW29350   1.418   3.405   6.602  0.2427  0.1507 -0.7474
 5964SOL    HW129351   1.354   3.334   6.613 -0.7324  1.1506  0.0172
 5964SOL    HW229352   1.384   3.466   6.537 -1.0264 -1.4028 -1.5507
 5965SOL     OW29353   3.812   1.380   8.740  0.0827  0.2832  0.4567
 5965SOL    HW129354   3.831   1.472   8.758 -2.3377  1.3315 -2.2268
 5965SOL    HW229355   3.731   1.367   8.789 -1.8553  1.0625 -2.5274
 5966SOL     OW29356   2.546   2.610  12.947  0.4367 -0.2604 -0.0351
 5966SOL    HW129357   2.498   2.528  12.953 -1.5813  0.9856  0.7602
 5966SOL    HW229358   2.527   2.622  12.854  0.3086 -0.2949 -0.0128
 5967SOL     OW29359   3.808   4.391  12.136 -0.0205  0.3978  0.0105
 5967SOL    HW129360   3.850   4.402  12.221  0.4089 -0.6034 -0.0732
 5967SOL    HW229361   3.724   4.350  12.154 -0.9133  2.2621  0.0377
 5968SOL     OW29362   4.086   1.526   3.430  0.1907  0.0139  0.0482
 5968SOL    HW129363   4.170   1.506   3.388  0.2561  0.1459  0.1176
 5968SOL    HW229364   4.111   1.501   3.519 -2.2242  0.2664  0.7914
 5969SOL     OW29365   2.984   2.251  14.780 -0.1428  0.4281 -0.0291
 5969SOL    HW129366   3.042   2.184  14.744  0.6735  0.2898  1.5737
 5969SOL    HW229367   2.926   2.208  14.843  0.2253  0.3630  0.2575
 5970SOL     OW29368   4.001   4.492  16.369  0.3896  0.2331 -0.3481
 5970SOL    HW129369   3.922   4.495  16.315 -0.3230  1.4566  0.7638
 5970SOL    HW229370   4.038   4.409  16.339 -1.7506 -1.0809  0.6408
 5971SOL     OW29371   0.080   0.107   8.075  0.1610 -0.2033 -0.1230
 5971SOL    HW129372   4.713   0.083   8.094  0.5454 -2.1248 -0.7620
 5971SOL    HW229373   0.085   0.191   8.122  0.1134 -0.9375  1.1880
 5972SOL     OW29374   3.271   3.191   1.115  0.0063  0.1950 -0.1914
 5972SOL    HW129375   3.214   3.262   1.144 -2.3115 -1.5607 -0.4547
 5972SOL    HW229376   3.209   3.125   1.084  0.2125  0.1474 -0.5003
 5973SOL     OW29377   0.368   3.640   7.576 -0.2885 -0.0372 -0.6587
 5973SOL    HW129378   0.342   3.727   7.547 -1.2336 -0.1811 -0.2248
 5973SOL    HW229379   0.289   3.586   7.579 -0.6377  0.5700  1.2056
 5974SOL     OW29380   1.663   3.792  10.023 -0.6791 -0.5802  0.1937
 5974SOL    HW129381   1.628   3.845   9.951 -0.3974 -0.1768  0.3572
 5974SOL    HW229382   1.754   3.819  10.011 -0.9538 -0.1979 -1.1337
 5975SOL     OW29383   2.347   3.216   2.393  0.2679  0.3085  0.0557
 5975SOL    HW129384   2.387   3.256   2.470 -1.6065  0.0868  1.1309
 5975SOL    HW229385   2.256   3.199   2.416  0.2192 -0.6625 -0.8450
 5976SOL     OW29386   4.722   3.989  11.683  0.8194 -0.4295 -0.0972
 5976SOL    HW129387   4.642   4.013  11.729  1.3595 -0.7968  1.0320
 5976SOL    HW229388   0.019   4.073  11.642  1.1466 -0.3890  0.1491
 5977SOL     OW29389   1.822   1.527   4.069 -0.4891  0.0784 -0.0065
 5977SOL    HW129390   1.857   1.469   4.002 -0.0098  2.6362 -1.9768
 5977SOL    HW229391   1.861   1.609   4.037  0.6447 -1.1593 -1.7587
 5978SOL     OW29392   0.646   0.529   4.590 -0.0745 -0.1925  0.2529
 5978SOL    HW129393   0.731   0.569   4.575 -0.9414  1.4054 -0.4008
 5978SOL    HW229394   0.675   0.438   4.591  1.1035  0.1852  1.4296
 5979SOL     OW29395   1.778   1.455  15.027 -0.1151 -0.2563  0.1505
 5979SOL    HW129396   1.716   1.385  15.008 -1.9964  1.6083 -0.4882
 5979SOL    HW229397   1.854   1.406  15.059  0.5187  1.4969  1.3819
 5980SOL     OW29398   2.009   3.558  10.354  0.7251 -0.8301 -0.2724
 5980SOL    HW129399   2.092   3.568  10.400  0.0820  0.2522  0.6356
 5980SOL    HW229400   2.040   3.505  10.280  2.1060 -0.5278  0.0936
 5981SOL     OW29401   4.423   3.445   6.821  0.1489  0.2750  0.0278
 5981SOL    HW129402   4.507   3.449   6.775  1.4113  1.5977  2.4855
 5981SOL    HW229403   4.401   3.538   6.818  2.2747  0.7517 -0.9473
 5982SOL     OW29404   3.747   2.930   0.842 -0.1223 -0.2412  0.0627
 5982SOL    HW129405   3.671   2.987   0.828 -1.3114 -1.2755  2.3880
 5982SOL    HW229406   3.814   2.984   0.800 -0.9890  0.9905  0.2356
 5983SOL     OW29407   0.286   0.694   1.574  0.2117 -0.4604 -0.1262
 5983SOL    HW129408   0.378   0.668   1.572  0.1125 -0.7604 -0.8209
 5983SOL    HW229409   0.303   0.764   1.511  0.7720 -0.4065  0.0839
 5984SOL     OW29410   1.227   3.747   7.613 -0.9069 -0.2449  0.3963
 5984SOL    HW129411   1.285   3.671   7.623  0.1337  0.6071  0.8019
 5984SOL    HW229412   1.182   3.746   7.697  1.5549 -1.6639  1.7152
 5985SOL     OW29413   0.255   2.881   5.684  0.7004 -0.0786 -0.3102
 5985SOL    HW129414   0.203   2.849   5.611 -0.5194 -0.7279  0.8433
 5985SOL    HW229415   0.192   2.856   5.752  0.0515 -1.4207 -1.3993
 5986SOL     OW29416   4.640   3.780   8.665 -0.1660  0.7262  0.1480
 5986SOL    HW129417   4.603   3.697   8.696  1.4413 -0.3641 -0.8836
 5986SOL    HW229418   0.005   3.754   8.688  0.2830  2.2184  0.0781
 5987SOL     OW29419   2.726   1.638   0.027 -0.0870 -0.2479  0.2340
 5987SOL    HW129420   2.806   1.592   0.054 -0.7467 -0.8013  1.2615
 5987SOL    HW229421   2.695   1.577  17.657 -1.9512 -0.2597  1.1217
 5988SOL     OW29422   3.998   3.509  14.505 -0.3240 -0.1376  0.2943
 5988SOL    HW129423   4.084   3.515  14.463  0.4268 -1.4898  1.6352
 5988SOL    HW229424   3.940   3.518  14.430 -0.0478  0.7727  0.1908
 5989SOL     OW29425   0.043   0.909  10.039 -0.6777 -0.1535  0.1705
 5989SOL    HW129426   0.091   0.990  10.056 -0.7662 -0.3911  1.5231
 5989SOL    HW229427   4.680   0.941  10.061 -0.0369  0.7530  1.3997
 5990SOL     OW29428   0.823   1.045   9.660 -0.0547  0.0515  0.1924
 5990SOL    HW129429   0.773   1.115   9.702  0.6827  0.8113 -0.2013
 5990SOL    HW229430   0.912   1.059   9.692 -0.3952 -0.9541  1.6080
 5991SOL     OW29431   4.397   1.031   4.686  0.1823 -0.1017  0.0991
 5991SOL    HW129432   4.476   0.980   4.705 -0.6230 -2.1815 -2.2147
 5991SOL    HW229433   4.334   0.964   4.658  0.7695 -0.9520  0.8202
 5992SOL     OW29434   0.674   2.694   7.801 -0.0572  0.3071  0.5048
 5992SOL    HW129435   0.767   2.713   7.786 -0.0490  0.7901  1.1763
 5992SOL    HW229436   0.641   2.783   7.814  1.9375  1.0641  0.3961
 5993SOL     OW29437   1.208   2.121  10.103 -0.7122 -0.4511 -0.3159
 5993SOL    HW129438   1.152   2.196  10.123 -1.1099 -1.3464  1.8945
 5993SOL    HW229439   1.174   2.098  10.016 -0.2257  0.8373 -0.8629
 5994SOL     OW29440   4.210   0.677   2.688 -0.4323 -0.1893  0.0416
 5994SOL    HW129441   4.177   0.766   2.701  1.9099  0.5126  1.2643
 5994SOL    HW229442   4.200   0.649   2.779  1.5126 -0.0872  0.2911
 5995SOL     OW29443   4.444   3.692   0.487  0.5507 -0.1547 -0.0395
 5995SOL    HW129444   4.513   3.757   0.472  0.8997 -0.2615  1.1277
 5995SOL    HW229445   4.435   3.708   0.581  0.5478  0.4530 -0.1428
 5996SOL     OW29446   2.849   4.335   1.963 -0.6903  0.6193  0.3394
 5996SOL    HW129447   2.930   4.300   2.000 -0.5656  0.2245 -0.3096
 5996SOL    HW229448   2.880   4.359   1.875 -0.6587  1.9495  0.7051
 5997SOL     OW29449   0.322   1.804   4.922  0.1048  0.1287  0.8526
 5997SOL    HW129450   0.324   1.883   4.867  2.5919 -0.6620 -0.2132
 5997SOL    HW229451   0.233   1.779   4.899  0.5325 -1.0246  0.4361
 5998SOL     OW29452   1.974   0.994   5.189 -0.0143 -0.4037 -0.0620
 5998SOL    HW129453   1.930   1.073   5.157 -1.9733 -1.4658 -0.0611
 5998SOL    HW229454   2.066   1.019   5.182 -0.1564 -1.0529 -4.6587
 5999SOL     OW29455   2.206   3.639  17.396 -0.1669  0.3362  0.2583
 5999SOL    HW129456   2.214   3.675  17.485  2.5180 -2.7857  1.2707
 5999SOL    HW229457   2.236   3.710  17.338 -1.2338  0.8726  0.3646
 6000SOL     OW29458   1.166   3.758   2.758 -0.1274 -0.2409 -0.6448
 6000SOL    HW129459   1.098   3.690   2.760 -1.2083  0.9022  1.4464
 6000SOL    HW229460   1.221   3.743   2.834  0.0056  0.8867 -0.5172
 6001SOL     OW29461   3.986   4.147  12.120 -0.6419 -0.3629 -0.2959
 6001SOL    HW129462   3.992   4.243  12.118 -0.5459 -0.3677 -0.2447
 6001SOL    HW229463   3.976   4.134  12.026 -0.8811  1.2899 -0.5083
 6002SOL     OW29464   2.253   1.351   8.493 -0.3811  0.5713  0.1427
 6002SOL    HW129465   2.190   1.279   8.496 -0.0219  0.3041  1.2227
 6002SOL    HW229466   2.211   1.421   8.543 -1.4999 -0.3674  0.5110
 6003SOL     OW29467   3.351   1.671   3.791 -0.0897  0.0798  0.0930
 6003SOL    HW129468   3.426   1.683   3.850  0.4961 -0.9660 -0.4250
 6003SOL    HW229469   3.322   1.584   3.818  0.5129 -0.6110 -1.4495
 6004SOL     OW29470   3.525   3.210   7.699  0.1510 -0.1888  0.1723
 6004SOL    HW129471   3.572   3.138   7.741 -1.4293  0.3767  2.8959
 6004SOL    HW229472   3.435   3.177   7.698  0.0838  0.0023 -0.4442
 6005SOL     OW29473   3.736   3.144   5.870 -0.6822 -0.0253  0.1110
 6005SOL    HW129474   3.769   3.187   5.949  0.4675  0.8387 -0.8473
 6005SOL    HW229475   3.752   3.052   5.890 -2.8724 -0.6938 -1.2946
 6006SOL     OW29476   3.939   3.316   6.711 -0.1733  0.4319 -0.2280
 6006SOL    HW129477   4.015   3.370   6.732 -1.4486  2.1604 -0.0856
 6006SOL    HW229478   3.879   3.375   6.758  2.6380  1.1100  2.4955
 6007SOL     OW29479   0.603   2.196   5.245  0.5645  0.3120 -0.3652
 6007SOL    HW129480   0.650   2.240   5.175  3.1655  0.3905  1.4500
 6007SOL    HW229481   0.550   2.133   5.195 -0.5335  1.0677 -0.1668
 6008SOL     OW29482   2.631   0.509   5.007  0.2669 -0.5212 -0.0662
 6008SOL    HW129483   2.695   0.533   4.939  1.1986 -0.9364  0.6641
 6008SOL    HW229484   2.586   0.591   5.029  2.5478  0.5581  0.6095
 6009SOL     OW29485   1.036   2.607   6.250 -0.0433  0.3344  0.5894
 6009SOL    HW129486   1.042   2.675   6.183 -3.5182 -2.2509 -2.2828
 6009SOL    HW229487   0.975   2.654   6.307  1.3403  0.3827  2.0320
 6010SOL     OW29488   1.057   4.624   7.840  0.0622  0.1086 -0.3070
 6010SOL    HW129489   0.970   4.646   7.809 -0.0281  3.3229  2.1962
 6010SOL    HW229490   1.117   4.689   7.801 -0.8263 -0.4179 -2.5515
 6011SOL     OW29491   1.083   1.143   2.206  0.4836  0.0798  0.0900
 6011SOL    HW129492   1.029   1.066   2.189 -1.9523  1.7739  0.0685
 6011SOL    HW229493   1.162   1.091   2.223  0.3856  0.4688  1.7096
 6012SOL     OW29494   2.620   1.051   4.104 -0.4347 -1.1130  0.5489
 6012SOL    HW129495   2.694   1.048   4.043  0.5063  1.3584  1.5539
 6012SOL    HW229496   2.544   1.036   4.047 -0.2945  1.1775 -0.2448
 6013SOL     OW29497   1.991   2.441  15.570  0.3140  0.0331 -0.1322
 6013SOL    HW129498   1.921   2.433  15.506  0.0746  0.2972  0.0935
 6013SOL    HW229499   2.065   2.423  15.513  0.8275 -0.9938  0.8440
 6014SOL     OW29500   4.271   4.632   8.306 -0.7435 -0.1536 -0.0755
 6014SOL    HW129501   4.239   4.722   8.310 -0.2861  0.1831 -4.0079
 6014SOL    HW229502   4.284   4.623   8.211  1.6531  1.7977  0.0823
 6015SOL     OW29503   4.489   0.289  10.790  0.6160 -0.3966 -0.4166
 6015SOL    HW129504   4.396   0.298  10.769  0.5787  0.7072  0.2612
 6015SOL    HW229505   4.506   0.381  10.807  0.5587 -1.0458  3.0998
 6016SOL     OW29506   2.778   3.005   3.827 -0.1198 -0.5902 -0.1794
 6016SOL    HW129507   2.768   3.095   3.796 -1.4248  0.0051  1.9713
 6016SOL    HW229508   2.693   2.984   3.867 -1.1152  1.2239 -1.3764
 6017SOL     OW29509   2.174   1.408   4.538  0.3653 -0.3587 -0.3401
 6017SOL    HW129510   2.149   1.501   4.535 -0.4339 -0.5854 -0.6262
 6017SOL    HW229511   2.096   1.365   4.575  1.1794 -0.7751  0.8823
 6018SOL     OW29512   1.334   1.007   2.264 -0.1545  0.1477 -0.3979
 6018SOL    HW129513   1.367   0.918   2.256 -1.6301 -0.3836 -0.5422
 6018SOL    HW229514   1.399   1.051   2.210  1.2551 -0.2355  1.0004
 6019SOL     OW29515   3.945   1.439   4.516  0.0069 -0.7708 -0.0232
 6019SOL    HW129516   3.882   1.508   4.534 -1.8997 -2.1957 -1.2953
 6019SOL    HW229517   4.022   1.482   4.554  0.9411 -0.5960 -2.0797
 6020SOL     OW29518   0.868   3.858   2.374 -0.0371  0.2292  0.2169
 6020SOL    HW129519   0.836   3.913   2.446  1.5238  2.0159 -0.4571
 6020SOL    HW229520   0.963   3.870   2.375  0.1777 -1.2975 -1.3009
 6021SOL     OW29521   1.596   0.571  15.360  0.5800  0.3865  0.2614
 6021SOL    HW129522   1.622   0.510  15.291  1.3891  0.1263  0.8115
 6021SOL    HW229523   1.507   0.589  15.327  0.6290 -2.3800 -1.3883
 6022SOL     OW29524   2.466   1.350  16.401 -0.0190 -0.2607 -0.1517
 6022SOL    HW129525   2.386   1.392  16.433 -1.3457 -1.0262 -2.4736
 6022SOL    HW229526   2.514   1.425  16.366 -0.2003  0.7180  1.6572
 6023SOL     OW29527   2.348   0.044  13.797  0.7142  0.0103 -0.0332
 6023SOL    HW129528   2.280   0.043  13.865  1.6240 -0.0613  0.8800
 6023SOL    HW229529   2.310   4.705  13.736  2.6770 -0.1947 -1.0379
 6024SOL     OW29530   2.908   1.794   9.159  0.1618  0.1956 -0.7592
 6024SOL    HW129531   2.962   1.764   9.085 -2.3015 -0.0589 -2.4382
 6024SOL    HW229532   2.858   1.713   9.166  1.3280 -0.4490 -0.0117
 6025SOL     OW29533   1.971   1.121   1.599 -0.0192  0.2476  0.2408
 6025SOL    HW129534   1.979   1.026   1.590 -1.5340  0.2676 -1.1752
 6025SOL    HW229535   2.043   1.142   1.539  0.3865 -0.1620  0.5788
 6026SOL     OW29536   1.324   2.033   5.947 -0.3305  0.2769  0.1706
 6026SOL    HW129537   1.404   1.987   5.921  0.5140  1.4091  0.7769
 6026SOL    HW229538   1.355   2.087   6.020  2.1135 -0.7033 -0.1334
 6027SOL     OW29539   1.604   0.223  16.334 -0.3609  0.5166  0.1316
 6027SOL    HW129540   1.569   0.264  16.255  0.4337 -2.6227 -1.8449
 6027SOL    HW229541   1.674   0.169  16.298 -0.2541 -0.6884  2.1600
 6028SOL     OW29542   0.602   3.127  14.165 -0.7206  0.4803  0.2710
 6028SOL    HW129543   0.524   3.071  14.161 -0.5226  0.0835  1.8403
 6028SOL    HW229544   0.589   3.171  14.249 -1.7063 -0.5039  0.6331
 6029SOL     OW29545   0.134   0.708  16.207 -0.1288 -0.0645 -0.1826
 6029SOL    HW129546   0.120   0.640  16.141  3.2175 -1.3173  0.3918
 6029SOL    HW229547   0.048   0.718  16.246 -0.7826 -3.7211 -0.6292
 6030SOL     OW29548   1.302   3.997   7.593  0.1005  0.1241 -0.4921
 6030SOL    HW129549   1.272   3.910   7.618 -0.8609  1.0957  1.6673
 6030SOL    HW229550   1.315   4.033   7.681  0.8228 -2.7960  0.6010
 6031SOL     OW29551   0.987   1.074   3.352  0.9817 -0.3535  0.2386
 6031SOL    HW129552   0.929   1.104   3.282  1.1321  2.0604  1.1564
 6031SOL    HW229553   1.053   1.039   3.293  0.7241 -1.5145  0.6428
 6032SOL     OW29554   1.889   4.252   0.998 -0.2296 -0.3687 -0.1703
 6032SOL    HW129555   1.914   4.313   1.067 -0.0679 -0.5641 -0.0573
 6032SOL    HW229556   1.885   4.305   0.918 -0.5744  0.1845  0.2122
 6033SOL     OW29557   2.676   0.825   7.597 -0.2153 -0.6099 -0.0020
 6033SOL    HW129558   2.674   0.818   7.501 -1.1374  2.2282 -0.1997
 6033SOL    HW229559   2.588   0.798   7.622 -0.5303 -0.8155 -1.3593
 6034SOL     OW29560   2.810   2.055  11.457  0.2367  0.7961  0.2441
 6034SOL    HW129561   2.744   2.003  11.411 -0.8580  1.7917  0.7090
 6034SOL    HW229562   2.752   2.099  11.519 -1.3419  0.8678 -1.2822
 6035SOL     OW29563   4.396   2.626  15.296 -0.3443  0.3817 -0.9295
 6035SOL    HW129564   4.445   2.616  15.214 -2.0544  0.2121 -1.9159
 6035SOL    HW229565   4.468   2.667  15.345  0.7282 -0.2515 -1.9795
 6036SOL     OW29566   0.285   4.213   4.350  0.6058 -0.1161  0.2534
 6036SOL    HW129567   0.196   4.183   4.369  1.0445 -0.9619  0.9802
 6036SOL    HW229568   0.268   4.247   4.262  3.5113 -2.6998 -1.2938
 6037SOL     OW29569   0.761   2.145   8.033 -0.5789  0.1025  0.1037
 6037SOL    HW129570   0.805   2.176   7.954 -1.1421 -3.4753 -1.6043
 6037SOL    HW229571   0.716   2.224   8.064 -1.7140 -0.1461 -0.9239
 6038SOL     OW29572   2.604   0.994   4.623 -0.6648  0.2781 -0.1127
 6038SOL    HW129573   2.629   0.957   4.538  1.7739  1.3585  0.1239
 6038SOL    HW229574   2.626   1.087   4.615  1.2467 -0.3386 -2.0499
 6039SOL     OW29575   2.869   1.674  11.337  0.4620  0.4655 -0.2836
 6039SOL    HW129576   2.932   1.715  11.396 -0.2786 -0.6397  1.2710
 6039SOL    HW229577   2.808   1.747  11.329  0.0009 -0.0388 -1.3328
 6040SOL     OW29578   1.550   1.163   6.471  0.4049  0.0905  0.0495
 6040SOL    HW129579   1.613   1.214   6.421 -0.5770  1.0363 -0.2297
 6040SOL    HW229580   1.502   1.229   6.520  1.4235  0.4654  0.5225
 6041SOL     OW29581   0.141   3.387  16.100  0.4429  0.6696 -0.3563
 6041SOL    HW129582   0.099   3.466  16.133 -0.0099  0.8972 -1.4806
 6041SOL    HW229583   0.231   3.413  16.078 -0.6289  1.1004 -4.2527
 6042SOL     OW29584   2.173   1.953   6.835 -0.0715 -0.1284 -0.6163
 6042SOL    HW129585   2.084   1.981   6.810 -0.3132 -0.0148  0.3897
 6042SOL    HW229586   2.189   1.873   6.785 -0.1793 -0.3847 -0.2388
 6043SOL     OW29587   3.469   2.425  11.244 -0.1249 -0.4641 -0.0812
 6043SOL    HW129588   3.515   2.381  11.172 -0.3442 -0.3121 -0.3131
 6043SOL    HW229589   3.543   2.482  11.264  0.4538 -0.2075 -3.0609
 6044SOL     OW29590   1.590   1.451   4.512  0.1182 -0.5650 -0.1814
 6044SOL    HW129591   1.509   1.400   4.519  0.5031 -1.2643 -0.8978
 6044SOL    HW229592   1.604   1.505   4.590  0.1369 -0.5136 -0.2199
 6045SOL     OW29593   3.555   0.908   9.178  0.5002 -0.4841  0.2839
 6045SOL    HW129594   3.540   0.850   9.104  3.5119  1.5508 -1.9657
 6045SOL    HW229595   3.510   0.873   9.255  0.2200  0.4875  0.5688
 6046SOL     OW29596   3.208   2.622   4.181 -0.2242  0.7860 -0.1147
 6046SOL    HW129597   3.201   2.532   4.212  3.9609  0.7372  0.7038
 6046SOL    HW229598   3.302   2.633   4.196  0.1517 -2.8129  0.2306
 6047SOL     OW29599   0.559   3.248  17.628  0.4890  0.1040  0.4117
 6047SOL    HW129600   0.491   3.292  17.680 -0.5517  0.1444 -0.9933
 6047SOL    HW229601   0.611   3.200  17.693 -0.8633 -3.0431 -0.8202
 6048SOL     OW29602   3.531   1.947  15.378  0.2071  0.4314 -0.2002
 6048SOL    HW129603   3.625   1.936  15.366 -0.0157 -2.2934  0.6488
 6048SOL    HW229604   3.507   1.855  15.372  0.6119  0.3023  0.1631
 6049SOL     OW29605   1.578   3.116   4.408 -0.0624 -0.6836  0.0405
 6049SOL    HW129606   1.562   3.122   4.314  0.0101  0.3586  0.1004
 6049SOL    HW229607   1.617   3.028   4.414 -0.4289 -0.7977  0.7212
 6050SOL     OW29608   3.826   2.512   2.750  0.3215  0.2255 -0.8820
 6050SOL    HW129609   3.746   2.562   2.735 -0.0105  0.2011  0.8656
 6050SOL    HW229610   3.876   2.550   2.678  1.0742  0.9040  0.0199
 6051SOL     OW29611   0.744   0.548   9.800  0.0921  0.2369  0.3553
 6051SOL    HW129612   0.774   0.565   9.711  2.8194  0.4596  1.2950
 6051SOL    HW229613   0.651   0.528   9.793  0.7830 -2.4840 -1.1285
 6052SOL     OW29614   3.756   3.800   6.726 -0.1229  0.5208  0.5291
 6052SOL    HW129615   3.842   3.773   6.757  0.1456  0.5226 -0.2211
 6052SOL    HW229616   3.743   3.877   6.780 -0.0057 -0.7573  2.3796
 6053SOL     OW29617   0.448   3.012   0.597 -0.3370 -0.4803 -0.2342
 6053SOL    HW129618   0.427   2.996   0.689  2.4216  0.6792  0.5926
 6053SOL    HW229619   0.451   2.927   0.553  2.7064 -0.4416 -0.1104
 6054SOL     OW29620   3.628   4.679  13.550 -0.1286 -0.1679 -0.1714
 6054SOL    HW129621   3.689   4.682  13.624  2.8883 -0.3511 -2.6591
 6054SOL    HW229622   3.624   4.584  13.555 -3.8521  0.0093  0.2594
 6055SOL     OW29623   0.333   2.072   5.997  0.1981  0.1868 -0.1758
 6055SOL    HW129624   0.366   2.117   6.075 -0.3785  0.4643 -0.0873
 6055SOL    HW229625   0.380   2.115   5.926 -0.7629 -0.2509 -1.0801
 6056SOL     OW29626   2.384   4.546  15.686 -0.2306  0.3316  0.8516
 6056SOL    HW129627   2.295   4.514  15.671 -0.0733  0.9903 -1.4210
 6056SOL    HW229628   2.372   4.638  15.662 -1.4403  0.3576  1.5673
 6057SOL     OW29629   1.998   3.327  12.213 -0.3304  0.2076  0.2155
 6057SOL    HW129630   2.084   3.360  12.186 -0.5102  1.2362  0.9007
 6057SOL    HW229631   2.033   3.257  12.269 -1.4956 -1.6436 -1.3813
 6058SOL     OW29632   1.536   2.071   8.858 -0.5218 -0.7269 -0.0050
 6058SOL    HW129633   1.533   1.981   8.891  2.3129 -1.7076 -2.3919
 6058SOL    HW229634   1.514   2.117   8.939  0.8183 -1.7941  0.9739
 6059SOL     OW29635   1.768   4.431   2.323  0.2139 -0.4934  0.3762
 6059SOL    HW129636   1.827   4.449   2.251  0.4008  0.9127  0.8782
 6059SOL    HW229637   1.745   4.515   2.362  2.2079 -0.1858  0.8695
 6060SOL     OW29638   1.598   1.932  15.137 -0.6338  0.0371  0.0380
 6060SOL    HW129639   1.662   1.863  15.116 -0.5025  0.7396 -1.9192
 6060SOL    HW229640   1.528   1.879  15.174  0.1555  0.3163  1.9145
 6061SOL     OW29641   1.198   0.846   6.120 -0.4405  1.0837 -0.2760
 6061SOL    HW129642   1.168   0.796   6.045  3.9942 -2.0514  0.0649
 6061SOL    HW229643   1.111   0.853   6.161  0.7446  2.5323  2.0295
 6062SOL     OW29644   2.310   3.585  16.833 -0.0688 -0.1167  0.5481
 6062SOL    HW129645   2.299   3.573  16.738  1.3548  2.9980  0.0074
 6062SOL    HW229646   2.230   3.542  16.862  0.0791  0.4682  1.8231
 6063SOL     OW29647   0.889   0.997   5.929  0.0126  0.1826  0.0565
 6063SOL    HW129648   0.951   1.017   5.859 -1.1872 -0.1983 -1.1138
 6063SOL    HW229649   0.852   0.912   5.904 -1.5992  1.6343 -2.4177
 6064SOL     OW29650   4.418   2.508   3.956 -0.7706  0.7120 -0.1348
 6064SOL    HW129651   4.489   2.529   3.896 -0.1794 -0.9443  0.0043
 6064SOL    HW229652   4.340   2.514   3.900 -1.6399  3.3118  1.3532
 6065SOL     OW29653   3.183   2.090   6.107 -0.1484  0.3021 -0.4248
 6065SOL    HW129654   3.097   2.057   6.080 -0.7511  1.3925  0.1624
 6065SOL    HW229655   3.233   2.008   6.105 -1.6864 -0.6778  0.7548
 6066SOL     OW29656   2.571   3.496  11.527 -0.3881 -0.6041  0.1522
 6066SOL    HW129657   2.655   3.458  11.505 -0.7247 -1.5038  0.4413
 6066SOL    HW229658   2.523   3.417  11.501  0.3850 -0.7673 -0.7735
 6067SOL     OW29659   1.859   4.151   3.434  0.2938 -0.0337  0.0045
 6067SOL    HW129660   1.874   4.145   3.528  2.4395  1.8430 -0.2045
 6067SOL    HW229661   1.925   4.097   3.390  1.0497 -0.8580  2.1676
 6068SOL     OW29662   4.254   0.629   7.298 -0.5942 -0.7386 -0.3368
 6068SOL    HW129663   4.294   0.671   7.374  1.3086 -0.9481 -1.2310
 6068SOL    HW229664   4.172   0.679   7.293 -1.4825 -2.3114 -1.4389
 6069SOL     OW29665   3.068   2.632  13.796 -0.1955  0.3086  0.8581
 6069SOL    HW129666   3.068   2.605  13.888 -0.5582 -2.0099  0.1926
 6069SOL    HW229667   3.149   2.683  13.798 -0.2024  0.3431  0.2497
 6070SOL     OW29668   4.275   3.918   9.086  0.0360 -0.2585 -0.4870
 6070SOL    HW129669   4.243   3.906   8.996  0.3065  1.5042 -0.8186
 6070SOL    HW229670   4.351   3.972   9.064 -0.2666  0.2924 -0.1870
 6071SOL     OW29671   2.237   1.523  11.704 -0.5071  0.3676 -1.2094
 6071SOL    HW129672   2.147   1.553  11.716 -1.0258 -0.7032 -2.4927
 6071SOL    HW229673   2.289   1.600  11.680  0.4615  0.2409  0.4196
 6072SOL     OW29674   4.141   0.936   4.587  0.6754  0.1768 -0.2241
 6072SOL    HW129675   4.108   0.991   4.516 -0.0773  3.0816  2.3457
 6072SOL    HW229676   4.141   0.853   4.541 -0.6598 -0.9288  1.7441
 6073SOL     OW29677   2.499   0.172   2.222  0.6201  0.3402 -0.1619
 6073SOL    HW129678   2.522   0.139   2.136  1.5394  0.3778  0.0737
 6073SOL    HW229679   2.525   0.264   2.216 -2.8626  1.1998 -2.3111
 6074SOL     OW29680   3.368   1.099   6.894  0.0888  0.3132  0.2241
 6074SOL    HW129681   3.374   1.072   6.802  2.4107 -1.7252  0.9931
 6074SOL    HW229682   3.285   1.147   6.902 -0.9105 -1.5510  1.0521
 6075SOL     OW29683   3.914   0.184   3.072 -0.0459 -0.3370 -0.1384
 6075SOL    HW129684   3.923   0.263   3.019  1.3007 -0.5777 -0.2752
 6075SOL    HW229685   3.960   0.118   3.021 -1.6022  0.2823 -2.3539
 6076SOL     OW29686   4.676   1.559  14.518 -0.3846  0.6008  0.1726
 6076SOL    HW129687   4.709   1.475  14.549  0.0218  0.4200 -0.7780
 6076SOL    HW229688   4.598   1.521  14.476  2.7130 -3.4396 -1.8712
 6077SOL     OW29689   2.476   0.541   7.271  0.0819  0.3939 -0.7775
 6077SOL    HW129690   2.445   0.528   7.360  0.3249  0.9608 -0.6168
 6077SOL    HW229691   2.562   0.502   7.289 -1.1435 -1.9258  0.1600
 6078SOL     OW29692   0.145   0.806  15.538  0.7044  0.1407  0.1633
 6078SOL    HW129693   0.106   0.754  15.608  1.3301 -0.7975 -0.1791
 6078SOL    HW229694   0.187   0.877  15.586  1.0105 -0.2002  0.4044
 6079SOL     OW29695   1.946   1.871   9.276 -0.2339  0.1687  0.2259
 6079SOL    HW129696   2.011   1.925   9.322  0.6817  0.0936 -0.9663
 6079SOL    HW229697   2.004   1.818   9.221  1.2851  1.3563  0.6612
 6080SOL     OW29698   4.053   3.264   1.983  0.8600  0.3279 -0.2527
 6080SOL    HW129699   3.964   3.230   1.979  1.0905 -0.0918 -1.7505
 6080SOL    HW229700   4.095   3.224   1.906  1.0420  2.4011 -1.2424
 6081SOL     OW29701   3.936   3.238   1.634 -0.8067  0.5469  0.0051
 6081SOL    HW129702   4.000   3.182   1.678 -0.6887  0.5356 -0.1824
 6081SOL    HW229703   3.941   3.327   1.667 -2.0731  0.4863  0.3590
 6082SOL     OW29704   3.093   1.153   6.853 -0.3797 -0.3272  0.6172
 6082SOL    HW129705   3.077   1.070   6.899  1.6942 -0.7890  0.4915
 6082SOL    HW229706   3.075   1.130   6.762  2.3841  2.1249 -0.5223
 6083SOL     OW29707   4.396   3.391   7.095 -0.2912 -0.1524 -0.0201
 6083SOL    HW129708   4.416   3.360   7.007 -0.1967  0.2188 -0.1289
 6083SOL    HW229709   4.476   3.370   7.145 -0.3062  1.3562  0.6206
 6084SOL     OW29710   3.997   0.448  10.463  0.2899 -0.5463  0.3927
 6084SOL    HW129711   4.086   0.481  10.480 -0.7887  2.7501 -0.2860
 6084SOL    HW229712   3.948   0.462  10.544  2.1186  1.7577  1.0997
 6085SOL     OW29713   3.615   1.232   3.430 -0.4440 -0.0702 -0.7667
 6085SOL    HW129714   3.703   1.257   3.403  0.0407  0.5346  1.3337
 6085SOL    HW229715   3.637   1.224   3.523 -0.9407  1.4323 -0.5207
 6086SOL     OW29716   3.847   4.599   8.826  0.1713  0.6342  0.3896
 6086SOL    HW129717   3.819   4.655   8.754  0.1012 -2.4538 -1.9879
 6086SOL    HW229718   3.860   4.660   8.899  0.6559 -0.1258  0.9413
 6087SOL     OW29719   1.339   4.017  16.877 -0.1669 -0.0426  0.8246
 6087SOL    HW129720   1.244   4.004  16.869 -0.1035  0.0588 -0.0472
 6087SOL    HW229721   1.362   3.967  16.799  0.9973 -0.9184  1.7435
 6088SOL     OW29722   0.232   0.832   5.658  0.3971  0.8458  0.6298
 6088SOL    HW129723   0.323   0.812   5.638 -0.1958 -0.6321 -0.5242
 6088SOL    HW229724   0.217   0.771   5.730 -2.2684  1.0675  0.2640
 6089SOL     OW29725   0.359   0.071   7.191 -0.4949  0.3395  0.2637
 6089SOL    HW129726   0.316   0.000   7.238 -2.0064 -0.4612 -2.2879
 6089SOL    HW229727   0.358   0.029   7.105  0.4087  2.7189 -0.9085
 6090SOL     OW29728   2.644   2.004   9.844 -0.2924 -0.1246 -0.2268
 6090SOL    HW129729   2.702   2.071   9.881 -1.0281  1.5807 -2.0980
 6090SOL    HW229730   2.646   2.038   9.754  1.6499  1.6382  0.4683
 6091SOL     OW29731   4.699   3.667   3.975 -0.2796 -0.2273  1.2673
 6091SOL    HW129732   4.673   3.759   3.967  1.6337  0.1362 -0.6685
 6091SOL    HW229733   0.021   3.658   3.892 -3.0604  0.1536 -0.3071
 6092SOL     OW29734   4.080   3.807   9.827 -0.6201 -0.0070 -0.1111
 6092SOL    HW129735   4.167   3.846   9.824 -0.4041 -0.2057  3.2300
 6092SOL    HW229736   4.035   3.892   9.829 -0.5813  0.1093 -3.5827
 6093SOL     OW29737   4.285   0.025   9.423  0.1164 -0.6308  0.1036
 6093SOL    HW129738   4.380   0.021   9.413 -0.0139  1.3032 -2.0429
 6093SOL    HW229739   4.253   0.056   9.338  0.6490 -1.3872 -0.3740
 6094SOL     OW29740   2.132   0.967   1.292  0.7656 -0.0977  0.1073
 6094SOL    HW129741   2.129   0.911   1.369 -0.4949  2.6970  2.1030
 6094SOL    HW229742   2.223   0.995   1.302  0.6339  0.4006 -0.0395
 6095SOL     OW29743   1.534   3.264   6.315  0.0725 -0.1109 -0.0894
 6095SOL    HW129744   1.601   3.199   6.294  0.4345  0.5214 -0.8835
 6095SOL    HW229745   1.546   3.260   6.409  1.9402 -0.1613 -0.3332
 6096SOL     OW29746   2.108   1.251   2.265 -0.0985  0.3297  0.0179
 6096SOL    HW129747   2.182   1.256   2.325 -0.7154 -0.0885  0.8051
 6096SOL    HW229748   2.142   1.274   2.178 -0.2491 -0.0990 -0.1589
 6097SOL     OW29749   2.297   2.927  14.711  0.3236  0.0995 -0.1988
 6097SOL    HW129750   2.352   2.900  14.638 -0.2905  0.1041 -0.6615
 6097SOL    HW229751   2.274   2.841  14.744  1.9618 -0.9155 -1.7285
 6098SOL     OW29752   1.080   4.264   4.559  0.4872  0.2730  0.7831
 6098SOL    HW129753   1.100   4.172   4.539  1.0179  0.3170  1.1068
 6098SOL    HW229754   1.124   4.307   4.485 -2.1459  2.9225  0.7917
 6099SOL     OW29755   0.827   2.960   3.181 -0.3395  0.1053 -0.2358
 6099SOL    HW129756   0.892   2.890   3.184 -0.2621  0.2717  1.8801
 6099SOL    HW229757   0.886   3.035   3.188  0.7243 -0.6785 -0.7421
 6100SOL     OW29758   3.108   0.609   3.486  0.0862 -0.4538  0.1915
 6100SOL    HW129759   3.017   0.633   3.500 -0.2531 -1.1887 -0.7133
 6100SOL    HW229760   3.110   0.608   3.390 -2.7797 -1.1107  0.1439
 6101SOL     OW29761   4.021   2.213  10.033  0.8364  1.0509  0.1828
 6101SOL    HW129762   4.023   2.294   9.983  2.9016  1.2685  0.6554
 6101SOL    HW229763   4.059   2.234  10.118  0.5891 -3.7233  1.4927
 6102SOL     OW29764   3.215   0.929   4.495  0.5227 -0.1041 -0.3553
 6102SOL    HW129765   3.137   0.901   4.448 -0.3624  0.2612  0.9027
 6102SOL    HW229766   3.190   1.021   4.497 -2.2384 -0.8641 -0.6226
 6103SOL     OW29767   0.598   1.661   3.489 -0.1716  0.4827 -0.3030
 6103SOL    HW129768   0.679   1.631   3.530 -1.1628 -0.2590  1.1164
 6103SOL    HW229769   0.634   1.701   3.410 -0.7119  0.7128 -0.4277
 6104SOL     OW29770   4.514   0.110  11.259 -0.7977 -0.0305 -0.0280
 6104SOL    HW129771   4.569   0.168  11.206  1.2023 -0.3168  1.7304
 6104SOL    HW229772   4.460   0.175  11.304 -2.8922 -1.3719 -0.6194
 6105SOL     OW29773   2.143   3.903   6.407  0.0890  0.2319  0.0393
 6105SOL    HW129774   2.236   3.915   6.426  0.1054  0.0082  0.0927
 6105SOL    HW229775   2.142   3.938   6.317 -1.1007  0.1367  0.0165
 6106SOL     OW29776   2.932   2.253   5.811 -0.0672 -0.1037  0.0300
 6106SOL    HW129777   2.931   2.345   5.786 -1.4215  0.1187  0.8637
 6106SOL    HW229778   2.843   2.225   5.836  0.2240  1.6167  2.9362
 6107SOL     OW29779   0.581   3.336  11.767 -0.0334  0.8303  0.1473
 6107SOL    HW129780   0.569   3.278  11.843  0.2419 -0.6730 -0.9394
 6107SOL    HW229781   0.580   3.270  11.697 -0.9386  0.3481  0.6122
 6108SOL     OW29782   2.234   1.482   8.887 -0.1376 -0.3387 -0.7291
 6108SOL    HW129783   2.233   1.574   8.858  0.9208 -0.2484 -0.4867
 6108SOL    HW229784   2.328   1.465   8.878 -0.1407 -1.1631  0.9323
 6109SOL     OW29785   0.275   3.115   7.570 -0.2440  0.3917 -0.0952
 6109SOL    HW129786   0.336   3.186   7.550  0.4185 -0.3738 -0.7895
 6109SOL    HW229787   0.220   3.154   7.638 -0.3218 -0.8924  0.5708
 6110SOL     OW29788   1.106   1.718  12.413  0.5914 -0.2726  0.4320
 6110SOL    HW129789   1.061   1.679  12.488  0.0028  1.7066  1.1112
 6110SOL    HW229790   1.148   1.792  12.458  0.9161 -0.2772  0.1379
 6111SOL     OW29791   1.365   1.660   8.460 -1.3841 -0.5431 -0.0344
 6111SOL    HW129792   1.342   1.600   8.389  0.5922  1.2135 -2.1294
 6111SOL    HW229793   1.321   1.626   8.538  0.7101  0.6437  1.6449
 6112SOL     OW29794   2.045   4.288  12.190  0.0389 -0.7641  0.2084
 6112SOL    HW129795   2.103   4.221  12.156  0.5827 -0.7902  1.2022
 6112SOL    HW229796   1.960   4.263  12.152  0.0565  1.9461 -1.6561
 6113SOL     OW29797   0.663   0.313   6.919  0.1677 -0.2459  0.4735
 6113SOL    HW129798   0.584   0.276   6.880  0.5858 -0.6050 -0.0203
 6113SOL    HW229799   0.652   0.271   7.005  0.1803 -0.9794  0.1166
 6114SOL     OW29800   2.730   4.641   5.235  0.1938  0.2365  0.3161
 6114SOL    HW129801   2.772   4.723   5.208  2.5572 -0.9722  0.3497
 6114SOL    HW229802   2.659   4.671   5.292 -1.3010 -0.4636 -1.1818
 6115SOL     OW29803   2.321   3.097   1.297  0.4825 -0.9431  0.4283
 6115SOL    HW129804   2.235   3.071   1.331  0.7277  1.3447  2.8359
 6115SOL    HW229805   2.304   3.152   1.220  0.9159 -2.0871 -0.4735
 6116SOL     OW29806   3.777   1.264   2.743 -0.2677  0.4811 -0.4677
 6116SOL    HW129807   3.750   1.355   2.752  1.9196  1.0839  0.0452
 6116SOL    HW229808   3.868   1.291   2.730 -0.3135 -0.0362 -1.8855
 6117SOL     OW29809   1.163   3.277   6.680 -0.2209 -0.0943 -0.9957
 6117SOL    HW129810   1.093   3.212   6.670  0.1382 -0.8448  1.2828
 6117SOL    HW229811   1.172   3.283   6.775  0.0820  1.2617 -1.1181
 6118SOL     OW29812   0.248   3.198   5.913 -0.5252  0.1794  0.5753
 6118SOL    HW129813   0.178   3.190   5.978 -0.1873  0.8254  1.0140
 6118SOL    HW229814   0.195   3.243   5.847 -1.1186  2.1792  2.4277
 6119SOL     OW29815   2.285   0.885   7.199 -0.4041  0.0461  0.5747
 6119SOL    HW129816   2.336   0.960   7.168  0.5989 -0.4118  1.1176
 6119SOL    HW229817   2.361   0.836   7.229 -0.3658 -2.0281 -2.8602
 6120SOL     OW29818   3.563   2.585   6.581 -0.7055 -0.5138 -0.3041
 6120SOL    HW129819   3.526   2.549   6.500 -0.5745  1.0377 -1.0498
 6120SOL    HW229820   3.533   2.675   6.588  0.7559 -0.1911  1.4913
 6121SOL     OW29821   0.719   3.046  14.451 -0.0304  0.1967 -0.1190
 6121SOL    HW129822   0.754   2.963  14.419  0.9179  0.0557  1.2842
 6121SOL    HW229823   0.656   3.016  14.517 -0.0249  0.8043  0.1685
 6122SOL     OW29824   1.778   1.366  14.475 -0.3279  0.5209 -0.2235
 6122SOL    HW129825   1.781   1.418  14.556 -0.9019  1.4812 -0.8084
 6122SOL    HW229826   1.865   1.386  14.440  0.9554 -1.3369  1.9278
 6123SOL     OW29827   2.864   0.157   6.563  0.6707  0.1786 -0.0120
 6123SOL    HW129828   2.929   0.203   6.510  1.0869 -0.0748  0.2772
 6123SOL    HW229829   2.926   0.100   6.607 -0.1610  0.5716  1.6668
 6124SOL     OW29830   3.256   1.522   2.357  0.3305  0.3687 -0.0388
 6124SOL    HW129831   3.218   1.435   2.355  1.2161 -0.0815  2.0261
 6124SOL    HW229832   3.311   1.526   2.279 -0.0267  0.8151 -0.2704
 6125SOL     OW29833   4.536   2.481  10.705  0.6144 -0.1607 -0.5310
 6125SOL    HW129834   4.543   2.395  10.664  1.0357 -0.9522  1.1815
 6125SOL    HW229835   4.455   2.464  10.753  1.2810 -1.3223  0.2112
 6126SOL     OW29836   2.191   3.675  15.022  0.0886  0.3273 -0.5642
 6126SOL    HW129837   2.174   3.712  14.935 -0.5656 -2.6298 -1.7129
 6126SOL    HW229838   2.286   3.659  15.023  0.5052  2.8540 -0.7836
 6127SOL     OW29839   1.403   0.205  16.615 -0.2995  0.0540 -0.1802
 6127SOL    HW129840   1.414   0.296  16.643  1.9306 -0.1659 -0.3435
 6127SOL    HW229841   1.495   0.183  16.598 -0.9432  0.2674 -3.9964
 6128SOL     OW29842   0.295   0.437  10.985 -0.0712 -0.1328  0.0965
 6128SOL    HW129843   0.245   0.517  10.996 -1.1817 -0.4627 -2.5537
 6128SOL    HW229844   0.220   0.390  10.948  1.1703 -1.7813 -0.3365
 6129SOL     OW29845   1.648   3.314   1.256  0.0459  0.4608 -0.6607
 6129SOL    HW129846   1.703   3.368   1.314  0.3183  0.6995 -1.1429
 6129SOL    HW229847   1.705   3.237   1.247  2.3339  2.0557  0.1959
 6130SOL     OW29848   3.907   1.828   5.260 -0.1284  0.7177  0.1519
 6130SOL    HW129849   3.996   1.793   5.264 -0.6185 -0.6984 -1.2823
 6130SOL    HW229850   3.856   1.756   5.222  2.7754 -1.6125  0.6545
 6131SOL     OW29851   2.469   4.618   1.379 -0.3459 -0.2324 -0.0068
 6131SOL    HW129852   2.503   4.531   1.400 -0.2886 -0.7121 -2.0790
 6131SOL    HW229853   2.449   4.652   1.466  0.5027 -2.2882  0.9896
 6132SOL     OW29854   2.733   2.449   8.841 -0.3819 -0.0697 -0.3454
 6132SOL    HW129855   2.672   2.509   8.799 -0.2284 -0.7732 -1.5427
 6132SOL    HW229856   2.730   2.473   8.934  1.7728 -0.7253 -0.1094
 6133SOL     OW29857   4.336   0.864  11.146  0.1887  0.2122 -0.5463
 6133SOL    HW129858   4.403   0.838  11.209 -0.3939 -1.1972 -0.5016
 6133SOL    HW229859   4.307   0.942  11.193  0.4398 -0.9991  1.6006
 6134SOL     OW29860   0.568   0.392   7.671 -0.4442  0.2015  0.3932
 6134SOL    HW129861   0.617   0.316   7.638 -3.1697 -0.5239 -1.9967
 6134SOL    HW229862   0.615   0.463   7.629 -2.0702  2.1181  1.8407
 6135SOL     OW29863   0.053   0.802   3.190  0.4611 -0.2105 -0.0623
 6135SOL    HW129864   4.704   0.739   3.191  0.2116  0.1022  2.3725
 6135SOL    HW229865   0.114   0.776   3.122 -0.9894 -1.3674 -0.9319
 6136SOL     OW29866   4.706   2.504   1.130  0.3758 -0.3543  0.2390
 6136SOL    HW129867   4.636   2.439   1.133 -1.7003  1.9603  1.3556
 6136SOL    HW229868   4.658   2.582   1.156 -0.9043 -0.9060 -0.4793
 6137SOL     OW29869   1.223   3.326   6.934 -0.0768  0.0083  0.1009
 6137SOL    HW129870   1.231   3.231   6.938 -0.2090  0.0868  2.2685
 6137SOL    HW229871   1.308   3.352   6.968  0.3387 -0.9831 -0.1699
 6138SOL     OW29872   2.690   3.233   4.667  0.5030 -0.1136 -0.2057
 6138SOL    HW129873   2.724   3.145   4.651 -0.2618  0.0728 -2.8963
 6138SOL    HW229874   2.694   3.280   4.583 -1.2745 -1.3418 -0.9890
 6139SOL     OW29875   3.262   2.878   7.353 -0.2111  0.5781  0.1375
 6139SOL    HW129876   3.279   2.834   7.436  2.3682 -0.1752 -0.7733
 6139SOL    HW229877   3.215   2.813   7.300  0.6152  1.2272 -1.4138
 6140SOL     OW29878   1.377   4.631   3.142 -0.1223 -0.6636  0.3731
 6140SOL    HW129879   1.329   4.573   3.084  0.9371 -1.7702  0.6015
 6140SOL    HW229880   1.330   4.713   3.125 -2.8538 -2.6436 -1.5005
 6141SOL     OW29881   3.356   3.806   0.916  0.3768 -0.3202 -0.2123
 6141SOL    HW129882   3.281   3.783   0.970 -0.1829  3.5655  0.6855
 6141SOL    HW229883   3.389   3.719   0.892 -2.9368 -0.5744 -3.8070
 6142SOL     OW29884   2.034   3.136   1.317 -0.2358  0.2094 -0.7557
 6142SOL    HW129885   2.056   3.226   1.290  0.1598  0.6812  1.1036
 6142SOL    HW229886   2.011   3.091   1.236  3.3926  0.4140 -1.8845
 6143SOL     OW29887   2.506   1.587   8.051  0.0580 -0.2650 -0.0085
 6143SOL    HW129888   2.521   1.680   8.035  0.0632 -0.4138 -0.8780
 6143SOL    HW229889   2.413   1.579   8.032  0.1807 -0.2500 -0.6193
 6144SOL     OW29890   0.294   3.879   7.453 -0.0349  0.6143 -0.2177
 6144SOL    HW129891   0.252   3.856   7.370 -1.6510 -0.7721  1.0088
 6144SOL    HW229892   0.256   3.965   7.470 -0.1240  1.1960 -3.4199
 6145SOL     OW29893   2.074   0.765  12.666 -0.4390  0.1136 -0.4587
 6145SOL    HW129894   2.047   0.673  12.669 -1.1141  0.2746 -1.6331
 6145SOL    HW229895   2.061   0.785  12.759 -1.4232  1.6922 -0.9452
 6146SOL     OW29896   1.133   0.393   8.199 -0.6321  0.6077 -0.5974
 6146SOL    HW129897   1.215   0.343   8.199 -0.2116  1.3043 -0.8117
 6146SOL    HW229898   1.113   0.388   8.105  0.5295  0.4409 -0.8349
 6147SOL     OW29899   1.788   3.538   6.128 -0.0915  0.7626 -0.2331
 6147SOL    HW129900   1.816   3.517   6.217 -0.9084 -0.8134 -0.3419
 6147SOL    HW229901   1.704   3.582   6.143  0.6743  2.0003  0.4111
 6148SOL     OW29902   2.628   0.051   3.542 -0.2822  0.2214 -0.2871
 6148SOL    HW129903   2.686   0.013   3.476  0.5971  1.3700 -0.1596
 6148SOL    HW229904   2.547   0.007   3.515  0.2081 -1.6845  1.3357
 6149SOL     OW29905   2.794   4.035  13.739 -0.2304  0.2053 -0.2473
 6149SOL    HW129906   2.791   4.130  13.733 -1.8696  0.1651  0.0407
 6149SOL    HW229907   2.798   4.026  13.834  1.1321  0.6356 -0.2545
 6150SOL     OW29908   0.943   2.717  14.113  0.1732  0.1987  1.2372
 6150SOL    HW129909   1.010   2.701  14.179  2.0798  0.2040 -0.6986
 6150SOL    HW229910   0.908   2.629  14.121  0.3500 -0.0305 -0.4610
 6151SOL     OW29911   3.460   3.874   6.551  0.2141  0.1510  0.1085
 6151SOL    HW129912   3.505   3.878   6.635  0.0784 -0.0103  0.1878
 6151SOL    HW229913   3.394   3.940   6.570 -1.0428 -0.7206 -1.1730
 6152SOL     OW29914   1.986   0.202   5.260 -0.1856  0.2432  0.1559
 6152SOL    HW129915   1.950   0.272   5.206 -1.4121 -0.6591 -0.2002
 6152SOL    HW229916   1.989   0.243   5.346 -2.9857  1.4051 -0.3112
 6153SOL     OW29917   4.674   3.470   5.937 -0.5212 -0.0318  0.8103
 6153SOL    HW129918   4.664   3.375   5.942 -0.3330 -0.1750 -1.5676
 6153SOL    HW229919   4.630   3.480   5.853  1.0168 -1.4770 -0.1658
 6154SOL     OW29920   3.002   2.822  11.849  0.2512 -0.7143 -0.2896
 6154SOL    HW129921   2.987   2.828  11.755  3.3702  0.7467 -0.6640
 6154SOL    HW229922   3.081   2.875  11.861  0.4557 -1.1825  0.4532
 6155SOL     OW29923   4.248   1.449   8.258  0.4016  0.1451  0.0918
 6155SOL    HW129924   4.272   1.541   8.251 -1.4481  0.6898  0.8559
 6155SOL    HW229925   4.295   1.429   8.340 -1.6126 -2.5339  0.5992
 6156SOL     OW29926   1.829   0.698   7.754  0.6749  0.2633 -0.1509
 6156SOL    HW129927   1.921   0.724   7.747  0.5556  0.8187  0.2932
 6156SOL    HW229928   1.787   0.781   7.732 -0.5701 -0.6469 -1.1901
 6157SOL     OW29929   3.004   0.788   4.397  0.0043  0.4436 -0.3214
 6157SOL    HW129930   2.966   0.757   4.315  0.8662  0.9904 -0.9229
 6157SOL    HW229931   2.957   0.739   4.464  1.3265 -1.3502 -0.6941
 6158SOL     OW29932   0.608   1.439   9.542 -0.0166  0.5761  0.1664
 6158SOL    HW129933   0.548   1.373   9.506 -0.9219 -0.1013  2.8481
 6158SOL    HW229934   0.548   1.474   9.608 -3.1614  0.7195 -2.8015
 6159SOL     OW29935   0.798   2.626   6.776  0.4051  0.4952 -0.1061
 6159SOL    HW129936   0.730   2.561   6.758  0.2968  0.4278  0.5389
 6159SOL    HW229937   0.754   2.692   6.828  0.2020 -1.5485  2.3224
 6160SOL     OW29938   4.667   1.546   1.870  0.2174 -0.2359 -0.2090
 6160SOL    HW129939   4.658   1.622   1.812  0.4553  1.3635  1.8270
 6160SOL    HW229940   4.614   1.578   1.943  2.9505 -0.9564  2.1206
 6161SOL     OW29941   3.548   1.403   6.698 -0.6357 -0.5086  0.3668
 6161SOL    HW129942   3.629   1.371   6.657  0.2523  1.7708  0.3684
 6161SOL    HW229943   3.504   1.322   6.724 -3.2253  0.5934 -0.6606
 6162SOL     OW29944   1.076   1.339   6.050  0.3384 -0.4344  0.0104
 6162SOL    HW129945   1.124   1.361   6.129 -0.3555  1.4322 -0.0795
 6162SOL    HW229946   1.017   1.281   6.098 -3.3475  1.4160 -2.2388
 6163SOL     OW29947   3.523   2.420   3.888 -0.5739 -0.4290  0.0818
 6163SOL    HW129948   3.617   2.416   3.871 -0.5513  1.6829 -0.3796
 6163SOL    HW229949   3.522   2.482   3.962  0.6316  0.9186 -1.0283
 6164SOL     OW29950   2.575   2.799   3.651  0.2442  0.1227 -0.1660
 6164SOL    HW129951   2.665   2.785   3.679  0.4690  0.8430 -0.5160
 6164SOL    HW229952   2.570   2.894   3.637 -2.8249 -0.1188 -0.5974
 6165SOL     OW29953   0.261   2.943  15.265  0.4715  0.5288  0.5872
 6165SOL    HW129954   0.230   2.880  15.330 -0.4396 -0.6444 -0.9795
 6165SOL    HW229955   0.347   2.961  15.301  0.8051  0.2337 -0.0540
 6166SOL     OW29956   3.948   2.324   6.055  0.2636  0.4099  0.1731
 6166SOL    HW129957   3.859   2.299   6.030  1.0017 -0.9828 -1.1039
 6166SOL    HW229958   3.945   2.344   6.148  2.0141  0.9773  0.1244
 6167SOL     OW29959   3.301   0.417   7.329  0.2437  0.0568 -0.0906
 6167SOL    HW129960   3.395   0.427   7.311  0.4243 -0.5689  0.4581
 6167SOL    HW229961   3.281   0.352   7.261 -1.1174  0.6333 -0.2167
 6168SOL     OW29962   3.503   1.501  13.066 -0.8732  0.0320 -0.1190
 6168SOL    HW129963   3.583   1.538  13.104 -0.4770 -0.2072 -0.7283
 6168SOL    HW229964   3.538   1.440  13.001  2.9472  0.9674  1.0193
 6169SOL     OW29965   3.941   4.585   3.951 -0.2047  0.1364 -0.6700
 6169SOL    HW129966   3.933   4.677   3.926  0.3362  0.7325  1.3029
 6169SOL    HW229967   3.856   4.551   3.925  1.3515 -2.3283 -2.5545
 6170SOL     OW29968   2.412   3.068  16.635 -0.1791  0.8120  0.0083
 6170SOL    HW129969   2.459   3.109  16.563  0.5436 -0.2567 -0.1303
 6170SOL    HW229970   2.409   2.976  16.609  2.5188  0.4179  1.0234
 6171SOL     OW29971   2.455   2.180  11.401 -0.2662 -0.1494  0.1619
 6171SOL    HW129972   2.446   2.252  11.339 -1.5036  0.0076  0.5258
 6171SOL    HW229973   2.512   2.128  11.343 -0.6222  1.2146 -1.4022
 6172SOL     OW29974   4.206   4.188   3.492  0.0954 -0.5081 -0.3895
 6172SOL    HW129975   4.276   4.218   3.550  0.5955  1.2361 -1.9047
 6172SOL    HW229976   4.130   4.236   3.526  0.8512  0.3720  0.0439
 6173SOL     OW29977   0.557   3.647  16.737  0.9534 -0.2003  0.1939
 6173SOL    HW129978   0.563   3.574  16.675  2.8200  2.7236 -3.0494
 6173SOL    HW229979   0.485   3.616  16.793  0.6481  0.9974  0.4727
 6174SOL     OW29980   1.433   0.868   2.958 -0.5982  0.3350 -0.0006
 6174SOL    HW129981   1.426   0.773   2.964  0.2999  0.0925 -3.1450
 6174SOL    HW229982   1.511   0.867   2.902 -1.9838 -1.2707 -1.9141
 6175SOL     OW29983   4.690   0.429   4.552  0.6937 -0.1589 -0.5230
 6175SOL    HW129984   0.024   0.355   4.532 -1.0599 -1.1762 -1.7905
 6175SOL    HW229985   4.605   0.387   4.542  0.1575  0.8787 -0.2569
 6176SOL     OW29986   1.638   4.211   5.121  0.1310  0.0822 -0.2588
 6176SOL    HW129987   1.552   4.246   5.144  0.6072  1.8685 -1.1791
 6176SOL    HW229988   1.693   4.290   5.117  1.7186 -0.9405  1.3972
 6177SOL     OW29989   2.587   1.616   9.376 -0.1121  0.3190 -0.6365
 6177SOL    HW129990   2.522   1.603   9.307  0.5019  0.9831 -1.3598
 6177SOL    HW229991   2.552   1.682   9.435 -0.7936 -0.3597 -0.2896
 6178SOL     OW29992   0.448   3.242  12.385  0.0774 -0.6953  0.2533
 6178SOL    HW129993   0.426   3.299  12.312 -0.3010 -0.1723  0.7806
 6178SOL    HW229994   0.460   3.157  12.341  3.1034 -1.0014  1.6252
 6179SOL     OW29995   3.968   2.731   0.857  0.3147 -0.0217  0.2722
 6179SOL    HW129996   3.949   2.729   0.951  0.8589 -1.7214  0.3285
 6179SOL    HW229997   3.896   2.784   0.821 -0.8209 -1.0330  1.0753
 6180SOL     OW29998   0.149   1.609   6.629 -0.2631  0.3513  0.2668
 6180SOL    HW129999   0.116   1.594   6.717  3.7628  0.2614  1.7495
 6180SOL    HW230000   0.229   1.660   6.640  0.7414 -0.6422 -2.3733
 6181SOL     OW30001   4.529   0.883   6.284 -0.1872 -0.1588 -0.0244
 6181SOL    HW130002   4.483   0.919   6.360  0.6286 -0.5882  0.6686
 6181SOL    HW230003   4.465   0.817   6.255  0.6781 -0.3186 -1.5752
 6182SOL     OW30004   3.707   3.732   7.496 -0.3016  0.1446 -0.1203
 6182SOL    HW130005   3.709   3.797   7.425  0.2440 -1.8623 -1.9249
 6182SOL    HW230006   3.726   3.647   7.458  1.4347  0.6905 -0.4772
 6183SOL     OW30007   3.436   1.555   5.375 -0.3075  0.2485 -0.0822
 6183SOL    HW130008   3.389   1.603   5.442 -2.8594 -1.9893 -0.2487
 6183SOL    HW230009   3.361   1.512   5.333  1.6193 -0.8251 -2.4587
 6184SOL     OW30010   1.099   1.217  14.309 -0.1921 -0.2908 -0.2997
 6184SOL    HW130011   1.130   1.243  14.223 -1.2830 -0.8168 -0.8547
 6184SOL    HW230012   1.072   1.130  14.278  0.0101  0.3576 -2.2948
 6185SOL     OW30013   1.907   0.383   1.050  0.0128  0.0300 -0.0523
 6185SOL    HW130014   1.954   0.389   1.133  1.3360  1.9507 -0.9544
 6185SOL    HW230015   1.919   0.476   1.030  0.0479  0.0992  0.2772
 6186SOL     OW30016   4.215   3.416   7.860 -0.5985  0.0568 -0.0435
 6186SOL    HW130017   4.160   3.494   7.858 -0.3588  0.2944  2.0454
 6186SOL    HW230018   4.170   3.381   7.937  2.1998 -0.0861  1.5230
 6187SOL     OW30019   2.913   0.048  10.097  0.3960  0.8554 -0.0738
 6187SOL    HW130020   2.901   0.135  10.060 -0.4926 -0.2151 -2.3192
 6187SOL    HW230021   2.891   0.058  10.189 -0.8454  0.4085 -0.3129
 6188SOL     OW30022   4.523   0.091  15.705  0.1214  0.1586  0.1718
 6188SOL    HW130023   4.518   0.001  15.675  1.4454  0.3227 -0.5545
 6188SOL    HW230024   4.615   0.114  15.695  0.6051 -1.1815  1.5827
 6189SOL     OW30025   1.709   1.969   9.506 -0.0251 -0.2674  0.2464
 6189SOL    HW130026   1.683   2.038   9.567  0.0619  0.0760 -0.1004
 6189SOL    HW230027   1.752   2.022   9.438 -2.1065  0.8024 -0.2501
 6190SOL     OW30028   0.539   0.815   5.797  0.0287  0.1186  0.4771
 6190SOL    HW130029   0.573   0.752   5.861 -0.6532  0.2948  0.9977
 6190SOL    HW230030   0.517   0.888   5.855  0.3688  0.4750  0.1594
 6191SOL     OW30031   3.480   1.130   4.405 -0.0947 -0.0850 -0.0709
 6191SOL    HW130032   3.513   1.213   4.441  0.7375 -0.4522 -0.0012
 6191SOL    HW230033   3.476   1.154   4.312 -1.4828 -0.9422 -0.2322
 6192SOL     OW30034   2.447   0.493   4.635  0.4452  0.0849  0.0295
 6192SOL    HW130035   2.493   0.537   4.563  1.4901  1.4185  1.5029
 6192SOL    HW230036   2.404   0.421   4.590 -1.9929  1.1104  0.7020
 6193SOL     OW30037   0.521   2.604   9.251  0.3335 -0.0477 -0.0120
 6193SOL    HW130038   0.523   2.565   9.338 -1.7076 -0.4939 -0.1680
 6193SOL    HW230039   0.435   2.646   9.249  0.4763  0.2661  0.5281
 6194SOL     OW30040   2.013   2.500  16.866  0.6125 -0.3652 -0.0234
 6194SOL    HW130041   1.934   2.498  16.811  0.9910  0.4897 -0.5956
 6194SOL    HW230042   2.080   2.466  16.807  1.9168 -0.0573  1.3078
 6195SOL     OW30043   0.899   3.694   6.840  0.1660  0.0124 -0.3959
 6195SOL    HW130044   0.914   3.616   6.893 -0.1997  0.1825 -0.0477
 6195SOL    HW230045   0.985   3.737   6.834 -0.7797  2.1258  1.4984
 6196SOL     OW30046   1.788   1.367   8.467  0.5459  0.7867 -0.5484
 6196SOL    HW130047   1.815   1.453   8.436  1.5753 -0.6238 -3.5248
 6196SOL    HW230048   1.764   1.379   8.559 -0.0299  2.1933 -0.8836
 6197SOL     OW30049   1.516   3.654   4.967 -0.2303 -0.3177 -0.3083
 6197SOL    HW130050   1.531   3.643   4.873  1.7808  1.0063 -0.1574
 6197SOL    HW230051   1.496   3.565   4.995 -1.3516 -0.7690 -2.5832
 6198SOL     OW30052   4.430   0.091   5.040  0.3847 -0.0948  0.0894
 6198SOL    HW130053   4.444   0.181   5.070 -1.0687  0.7816 -1.8587
 6198SOL    HW230054   4.515   0.056   5.068  1.5798  1.8756 -1.0298
 6199SOL     OW30055   3.776   4.433  15.325 -0.2791  0.2721  0.0336
 6199SOL    HW130056   3.843   4.471  15.267  2.2884 -5.6084 -0.7845
 6199SOL    HW230057   3.794   4.345  15.294  0.5885  0.6321 -0.4880
 6200SOL     OW30058   2.232   1.749   8.848 -0.9803  0.1912 -0.7950
 6200SOL    HW130059   2.299   1.812   8.876 -0.1207  0.2419 -2.9422
 6200SOL    HW230060   2.235   1.777   8.756 -1.4065 -0.7072 -1.0785
 6201SOL     OW30061   2.271   1.550   6.975  0.5122  0.3040 -0.0077
 6201SOL    HW130062   2.272   1.606   6.898  0.9666 -0.1658 -0.3466
 6201SOL    HW230063   2.364   1.528   6.971  0.3665 -0.3931  0.4151
 6202SOL     OW30064   2.294   4.623   4.531 -0.7482  0.0994  0.0716
 6202SOL    HW130065   2.293   4.587   4.620 -1.1333 -0.5151 -0.1766
 6202SOL    HW230066   2.365   4.686   4.538  0.1656 -0.7034 -2.0952
 6203SOL     OW30067   3.621   1.103   7.657  0.2692  0.1526  0.5859
 6203SOL    HW130068   3.602   1.057   7.575  1.0058 -0.3838  0.7136
 6203SOL    HW230069   3.545   1.091   7.714  0.5442 -0.7767  0.7660
 6204SOL     OW30070   2.274   3.510  12.470 -0.1976 -0.2045  0.2946
 6204SOL    HW130071   2.322   3.451  12.528  0.6238  0.0370 -0.1435
 6204SOL    HW230072   2.322   3.494  12.389 -0.1519  1.5393 -0.0293
 6205SOL     OW30073   1.716   0.017   4.257 -0.4924 -0.3414  0.1709
 6205SOL    HW130074   1.811   0.027   4.265 -0.4980 -0.2517  0.1165
 6205SOL    HW230075   1.708   4.664   4.314  0.3605 -1.0140 -0.5992
 6206SOL     OW30076   4.257   1.698   5.531  0.2334  0.1727  0.1761
 6206SOL    HW130077   4.175   1.692   5.580 -1.3789  1.8108 -2.3188
 6206SOL    HW230078   4.317   1.688   5.605  1.0358 -0.9918 -0.6198
 6207SOL     OW30079   3.977   3.798   1.078  0.1528  0.3037 -0.1499
 6207SOL    HW130080   4.048   3.858   1.058  1.1216 -1.2615 -1.4499
 6207SOL    HW230081   4.014   3.753   1.154 -5.3945 -1.5654  1.4716
 6208SOL     OW30082   0.918   2.636  10.867  0.1900 -0.0612  0.2463
 6208SOL    HW130083   0.836   2.608  10.909 -0.4276 -1.2387 -1.7421
 6208SOL    HW230084   0.921   2.731  10.878 -0.1629  0.2570 -2.5315
 6209SOL     OW30085   1.210   1.235  15.991  0.0756 -0.0338  0.2142
 6209SOL    HW130086   1.229   1.253  15.899 -1.2201 -0.2156 -0.0889
 6209SOL    HW230087   1.296   1.228  16.032  0.1292 -0.5901 -0.0035
 6210SOL     OW30088   0.797   2.466   4.436  0.0982 -0.0241  0.0577
 6210SOL    HW130089   0.788   2.389   4.379 -1.8127 -0.0669  0.4156
 6210SOL    HW230090   0.872   2.515   4.401  0.2576  1.1940  2.1140
 6211SOL     OW30091   1.049   2.769   2.015  0.1815 -0.1186 -0.4800
 6211SOL    HW130092   1.014   2.685   1.983 -1.4634 -0.0834  1.2380
 6211SOL    HW230093   1.004   2.768   2.100  3.1591  1.3317  1.0842
 6212SOL     OW30094   4.572   0.760   7.181 -0.1913  0.5838 -0.2876
 6212SOL    HW130095   4.630   0.747   7.106  1.4141 -1.6557  1.3275
 6212SOL    HW230096   4.503   0.810   7.138  0.5475  1.4287 -0.4810
 6213SOL     OW30097   1.313   0.841  14.276 -0.0084 -0.6875 -0.4743
 6213SOL    HW130098   1.334   0.750  14.255  0.0914 -1.0196  1.1100
 6213SOL    HW230099   1.403   0.870  14.292 -0.5743  0.7591  0.0456
 6214SOL     OW30100   4.206   4.361   7.641  0.6990 -0.7289 -0.4131
 6214SOL    HW130101   4.219   4.414   7.719 -2.0001 -1.5644  0.5929
 6214SOL    HW230102   4.152   4.415   7.584  0.0829  0.8716  1.7209
 6215SOL     OW30103   1.994   2.568   7.189  0.8425 -0.0720 -0.2054
 6215SOL    HW130104   2.026   2.481   7.167 -0.4440 -0.9732  1.4742
 6215SOL    HW230105   1.912   2.551   7.235  2.6829 -0.2339  2.9895
 6216SOL     OW30106   0.932   0.189   4.420 -0.3919  0.6709 -0.9292
 6216SOL    HW130107   0.839   0.172   4.407  0.0237 -1.7671 -0.9177
 6216SOL    HW230108   0.944   0.149   4.506 -2.4885 -0.4164 -1.1399
 6217SOL     OW30109   3.755   4.042   4.053 -0.9245  0.0645  0.0137
 6217SOL    HW130110   3.828   3.991   4.087 -0.7072  0.7578  0.5929
 6217SOL    HW230111   3.789   4.128   4.080  0.0069  0.3270 -1.9540
 6218SOL     OW30112   1.735   4.690   6.274 -0.6239  0.5201  0.0269
 6218SOL    HW130113   1.795   4.638   6.327 -3.3035 -2.1553  0.4419
 6218SOL    HW230114   1.679   4.718   6.346 -0.8003  3.1189 -1.1299
 6219SOL     OW30115   4.100   0.539   4.102  0.5329  0.2715 -0.4046
 6219SOL    HW130116   4.155   0.586   4.164  2.2437 -1.9295 -0.2536
 6219SOL    HW230117   4.015   0.519   4.142  0.3344  0.4952 -0.7139
 6220SOL     OW30118   3.785   4.077   7.759 -0.1147  0.4383 -0.1156
 6220SOL    HW130119   3.724   4.055   7.688 -1.6102  3.1820  0.3263
 6220SOL    HW230120   3.840   4.132   7.703 -0.6162  1.7829  0.7374
 6221SOL     OW30121   4.023   0.384   3.888  0.5016 -0.6427 -0.2084
 6221SOL    HW130122   4.059   0.446   3.825  0.6290 -0.3535  0.1504
 6221SOL    HW230123   4.064   0.414   3.969 -0.7427 -2.3617  1.0709
 6222SOL     OW30124   1.529   1.402  15.507 -0.8633 -0.1412 -0.0110
 6222SOL    HW130125   1.588   1.477  15.511 -1.6549  0.4508  0.6074
 6222SOL    HW230126   1.445   1.446  15.488 -1.5426 -1.1073  0.7640
 6223SOL     OW30127   1.195   2.568   3.836  0.1689 -0.2458  0.2061
 6223SOL    HW130128   1.149   2.591   3.755  0.0248  2.5955  1.1024
 6223SOL    HW230129   1.131   2.500   3.856  0.7872 -1.8874 -3.4183
 6224SOL     OW30130   1.964   1.545  16.504  0.0478 -0.3977  0.1434
 6224SOL    HW130131   1.935   1.582  16.587  0.9841  1.6594 -0.4351
 6224SOL    HW230132   1.981   1.622  16.449 -0.7423  0.5653  1.2746
 6225SOL     OW30133   2.986   1.870   2.627 -0.7796  0.2149  0.3325
 6225SOL    HW130134   2.981   1.884   2.532  0.0363  1.2511  0.4425
 6225SOL    HW230135   2.945   1.784   2.636  2.4516 -1.4326 -0.7010
 6226SOL     OW30136   0.687   3.660  10.898 -0.2374 -0.5633 -0.1793
 6226SOL    HW130137   0.715   3.678  10.988 -0.9183 -0.5800  0.0420
 6226SOL    HW230138   0.671   3.566  10.908  0.4708 -0.5138  1.4370
 6227SOL     OW30139   0.055   3.789   7.654 -0.3892 -0.1618 -0.0780
 6227SOL    HW130140   4.723   3.852   7.700  1.5668  1.3096  0.2896
 6227SOL    HW230141   0.098   3.847   7.591  2.2094 -0.6690  1.2312
 6228SOL     OW30142   4.384   1.509   5.967 -0.8211 -0.3747 -0.5006
 6228SOL    HW130143   4.293   1.481   5.969 -1.2079  0.8080 -1.9495
 6228SOL    HW230144   4.415   1.454   6.039  1.9205  2.5240  0.5550
 6229SOL     OW30145   4.299   4.590   3.047 -0.1616 -0.8272 -0.7470
 6229SOL    HW130146   4.344   4.531   2.985 -2.0344 -3.5581  0.4870
 6229SOL    HW230147   4.334   4.553   3.128 -2.1192  0.2420  0.5808
 6230SOL     OW30148   0.679   1.131   5.216  0.3771 -0.6665 -0.5667
 6230SOL    HW130149   0.647   1.192   5.282  2.1465 -0.7918  0.4018
 6230SOL    HW230150   0.658   1.049   5.259 -1.4431 -0.2445 -0.6660
 6231SOL     OW30151   3.521   1.319  11.143  0.4502  0.7913 -0.3884
 6231SOL    HW130152   3.608   1.309  11.104 -0.5433 -2.3302 -1.7527
 6231SOL    HW230153   3.541   1.338  11.235 -0.1465 -2.5645  0.4042
 6232SOL     OW30154   1.936   0.175  13.064  0.3763 -0.1280 -0.0684
 6232SOL    HW130155   1.929   0.181  12.969  0.3270 -0.0018 -0.0560
 6232SOL    HW230156   1.952   0.080  13.070 -0.7225 -0.4701 -2.8086
 6233SOL     OW30157   3.765   4.565   3.487 -0.3323 -0.3736  0.0104
 6233SOL    HW130158   3.686   4.616   3.503 -0.2783 -0.4202  0.4267
 6233SOL    HW230159   3.789   4.614   3.408 -0.2873 -0.7524 -0.2140
 6234SOL     OW30160   1.558   4.163  16.962  0.6145  0.3245  0.2236
 6234SOL    HW130161   1.550   4.181  16.868 -1.2756 -1.8863 -0.0269
 6234SOL    HW230162   1.485   4.102  16.973 -0.6160  1.9986  1.3190
 6235SOL     OW30163   0.658   0.869   1.647 -0.0156 -0.4447 -0.5367
 6235SOL    HW130164   0.683   0.958   1.670 -0.9906 -0.2076 -0.4045
 6235SOL    HW230165   0.742   0.831   1.674 -0.1543 -0.7489 -0.5269
 6236SOL     OW30166   3.430   3.402  17.277 -0.0271 -0.1468  0.0811
 6236SOL    HW130167   3.352   3.382  17.329  0.1276 -0.0076  0.3621
 6236SOL    HW230168   3.482   3.322  17.285 -1.0592 -1.0598 -2.4749
 6237SOL     OW30169   1.629   1.904  10.667  0.6764  0.1998  0.3966
 6237SOL    HW130170   1.640   1.998  10.655  1.2352  0.2263  1.1180
 6237SOL    HW230171   1.619   1.912  10.762  0.2735  1.3919  0.2487
 6238SOL     OW30172   1.918   3.765   8.629  0.0597  0.4856  0.1896
 6238SOL    HW130173   1.975   3.769   8.706  0.0670 -3.3665  0.4083
 6238SOL    HW230174   1.895   3.857   8.621 -0.6233  0.3291  0.4232
 6239SOL     OW30175   3.898   2.417   2.408  0.0215 -0.3929 -0.1009
 6239SOL    HW130176   3.812   2.451   2.381  0.5047 -1.1603 -2.5850
 6239SOL    HW230177   3.934   2.495   2.451  2.2080 -0.9704 -0.8926
 6240SOL     OW30178   0.379   1.673   4.027 -0.5222  0.1688  0.8227
 6240SOL    HW130179   0.342   1.584   4.021 -1.1320  0.5096 -0.6327
 6240SOL    HW230180   0.414   1.678   3.938  0.3497 -0.7004  1.1160
 6241SOL     OW30181   2.127   3.899   6.093  0.0773  0.4432 -0.1023
 6241SOL    HW130182   2.037   3.872   6.112  0.1112  0.5320  0.1859
 6241SOL    HW230183   2.164   3.824   6.047  2.5600  1.4092  0.3118
 6242SOL     OW30184   3.313   4.317   2.324  0.5136  0.0530  0.2716
 6242SOL    HW130185   3.251   4.364   2.268  2.0916  0.7141 -0.9334
 6242SOL    HW230186   3.392   4.322   2.269 -0.3921 -0.7604 -1.0821
 6243SOL     OW30187   4.240   0.879  14.955 -0.5462 -0.2696 -0.1692
 6243SOL    HW130188   4.165   0.852  14.901  0.4930  1.0184 -2.2387
 6243SOL    HW230189   4.187   0.930  15.016  0.9043  1.2349 -0.1841
 6244SOL     OW30190   0.999   4.311   7.387 -0.0424 -0.6205  0.2079
 6244SOL    HW130191   1.092   4.292   7.396  0.6532  2.5789 -0.1184
 6244SOL    HW230192   0.961   4.227   7.414  0.3492 -0.7483  0.3576
 6245SOL     OW30193   4.105   0.473  12.511 -0.1111  0.4471 -0.0271
 6245SOL    HW130194   4.104   0.558  12.468  0.3147  1.7354  2.4951
 6245SOL    HW230195   4.117   0.411  12.439 -0.9901 -0.2978  0.4631
 6246SOL     OW30196   4.166   0.105   5.075 -0.8420  0.6636 -1.5793
 6246SOL    HW130197   4.259   0.096   5.058 -0.1610  2.0332  1.3135
 6246SOL    HW230198   4.161   0.112   5.171  1.9316  0.8874 -1.4667
 6247SOL     OW30199   2.590   0.888   0.951  0.3215 -0.1556  0.2922
 6247SOL    HW130200   2.670   0.835   0.954 -0.4181 -1.2417  1.0015
 6247SOL    HW230201   2.599   0.943   1.029 -0.0896  1.5280 -0.8595
 6248SOL     OW30202   4.174   2.121  15.073 -0.0306  0.2633  0.5975
 6248SOL    HW130203   4.209   2.123  14.984 -2.4611  0.5532 -0.3478
 6248SOL    HW230204   4.121   2.042  15.069  0.4449 -0.0291  0.0868
 6249SOL     OW30205   1.351   3.757   8.918  0.0322 -0.2778  0.1121
 6249SOL    HW130206   1.274   3.699   8.915 -0.4877  0.3354  2.0001
 6249SOL    HW230207   1.360   3.791   8.829 -1.7809  0.3482  0.1641
 6250SOL     OW30208   1.096   4.115   0.846 -0.3043  0.2403  0.4458
 6250SOL    HW130209   1.095   4.210   0.835  0.5244  0.5616  3.1828
 6250SOL    HW230210   1.022   4.093   0.902  0.7644 -1.2036  1.2906
 6251SOL     OW30211   0.858   0.221   1.250  0.5401 -0.0262  0.5709
 6251SOL    HW130212   0.946   0.190   1.270  0.5963  0.2565  0.7534
 6251SOL    HW230213   0.848   0.187   1.161 -0.1230  0.9449  0.2782
 6252SOL     OW30214   2.635   1.358  11.256 -0.0678 -0.0171  0.0678
 6252SOL    HW130215   2.587   1.281  11.226 -1.3053 -0.0929  2.2820
 6252SOL    HW230216   2.608   1.428  11.196  0.6398  0.8668  0.7829
 6253SOL     OW30217   0.264   2.916  16.144 -0.3416  0.0686 -0.4444
 6253SOL    HW130218   0.269   2.977  16.218 -2.7225 -3.2396  2.4771
 6253SOL    HW230219   0.344   2.931  16.095 -0.2344 -0.0175 -0.2969
 6254SOL     OW30220   0.387   3.511   2.285 -0.0871  0.5163  0.2679
 6254SOL    HW130221   0.323   3.527   2.215 -0.0853  2.2076  0.6539
 6254SOL    HW230222   0.365   3.574   2.354  0.5689 -0.3286  1.2524
 6255SOL     OW30223   3.712   1.613   7.875  0.2536  0.3323  0.2244
 6255SOL    HW130224   3.680   1.586   7.961 -1.7889  2.9763  0.3027
 6255SOL    HW230225   3.640   1.663   7.834  1.1954  0.9481 -0.6789
 6256SOL     OW30226   0.624   4.111  11.122  0.2405  0.5286 -0.0889
 6256SOL    HW130227   0.673   4.036  11.087 -2.6473 -1.0662 -0.7258
 6256SOL    HW230228   0.618   4.172  11.048  1.7167  1.6481  0.7191
 6257SOL     OW30229   4.363   2.464   8.463 -0.1523  0.8028 -0.3456
 6257SOL    HW130230   4.364   2.454   8.368 -1.5503  0.5182 -0.3365
 6257SOL    HW230231   4.456   2.487   8.470  0.0044 -0.0608  0.5548
 6258SOL     OW30232   0.898   4.288   3.446  0.1494 -0.5724 -0.1529
 6258SOL    HW130233   0.927   4.300   3.537 -1.3817  1.4798  0.0630
 6258SOL    HW230234   0.930   4.362   3.396 -0.2902  0.3104  0.8662
 6259SOL     OW30235   4.639   3.145   4.705  0.0128 -0.2713  0.4377
 6259SOL    HW130236   0.008   3.124   4.710  0.1272  0.4771  1.5015
 6259SOL    HW230237   4.608   3.104   4.786  0.8100 -1.2213  0.2541
 6260SOL     OW30238   0.095   1.752   2.582 -0.8313  0.4985  0.0556
 6260SOL    HW130239   0.071   1.660   2.573  1.5835 -0.1446  0.2061
 6260SOL    HW230240   0.191   1.753   2.576 -0.8478 -1.1858 -0.4791
 6261SOL     OW30241   0.013   1.678   8.772 -0.1332 -0.3309 -0.1403
 6261SOL    HW130242   0.001   1.773   8.786  1.4980  0.1718 -2.3115
 6261SOL    HW230243   4.684   1.682   8.692 -0.8100  0.0442  0.3244
 6262SOL     OW30244   2.468   3.471   7.776 -0.3804  0.0755  0.1445
 6262SOL    HW130245   2.407   3.402   7.751  0.0383 -1.2612  2.7741
 6262SOL    HW230246   2.512   3.435   7.853 -0.8614 -0.0657  0.3503
 6263SOL     OW30247   0.014   1.887   1.989  0.0488  0.2469 -0.0182
 6263SOL    HW130248   4.675   1.897   1.917  0.4524 -0.5703 -0.4850
 6263SOL    HW230249   0.039   1.976   2.011  2.1132 -0.5986  1.0391
 6264SOL     OW30250   2.542   2.874   4.763 -0.0159  0.6073 -0.3415
 6264SOL    HW130251   2.573   2.873   4.853 -0.3484  1.1262 -0.2223
 6264SOL    HW230252   2.589   2.800   4.724 -2.5745 -1.5665  0.7025
 6265SOL     OW30253   1.888   0.104   3.236  0.0515  0.2017 -0.6880
 6265SOL    HW130254   1.909   0.129   3.146  0.4439 -0.7371 -0.8640
 6265SOL    HW230255   1.810   0.156   3.253  0.1657 -0.3064  1.3962
 6266SOL     OW30256   0.994   3.308   8.580 -0.0429 -1.0624 -0.0820
 6266SOL    HW130257   0.901   3.285   8.578 -0.2150 -0.2815 -1.3865
 6266SOL    HW230258   0.998   3.403   8.569  1.0303 -1.0368  0.5823
 6267SOL     OW30259   4.373   4.180  13.065  0.4062 -0.1061  0.0208
 6267SOL    HW130260   4.374   4.162  13.159 -0.2679 -0.0165  0.0417
 6267SOL    HW230261   4.362   4.275  13.063  3.4160  0.2893  1.8898
 6268SOL     OW30262   0.700   0.253   9.107  0.1671 -0.0383  0.1443
 6268SOL    HW130263   0.620   0.284   9.064  0.0108 -0.3874  0.1788
 6268SOL    HW230264   0.759   0.305   9.053 -0.7329  0.1002 -0.7130
 6269SOL     OW30265   4.620   1.173  11.020  0.2370  0.2017  0.7926
 6269SOL    HW130266   4.600   1.173  11.114  1.7410 -1.5803  1.1070
 6269SOL    HW230267   4.711   1.203  11.021  0.2753  0.0900  0.6129
 6270SOL     OW30268   2.816   4.344  14.767  0.1357 -0.1879 -0.6205
 6270SOL    HW130269   2.893   4.303  14.806 -1.2342 -1.2063  1.0145
 6270SOL    HW230270   2.766   4.265  14.745 -0.4453 -0.9264  3.4132
 6271SOL     OW30271   4.196   4.237   7.050  0.0110  0.4401 -0.1557
 6271SOL    HW130272   4.250   4.312   7.076 -2.1516  2.0729 -0.3265
 6271SOL    HW230273   4.249   4.163   7.080 -0.6395 -0.1527 -0.4653
 6272SOL     OW30274   1.652   0.372   3.938 -0.7109  0.4391 -0.0882
 6272SOL    HW130275   1.615   0.292   3.975  0.4185 -0.4972 -0.9758
 6272SOL    HW230276   1.714   0.391   4.009  0.6198 -2.7590 -0.3932
 6273SOL     OW30277   3.942   3.019   3.477 -0.1604  0.5224  0.6318
 6273SOL    HW130278   4.009   3.038   3.411  1.2544  0.0401  1.8994
 6273SOL    HW230279   4.004   3.015   3.551 -0.1523 -0.1860  0.5887
 6274SOL     OW30280   3.224   0.938   5.632 -0.7345  0.1238 -0.1827
 6274SOL    HW130281   3.250   0.854   5.595  0.6531  0.6205 -0.3203
 6274SOL    HW230282   3.130   0.921   5.630 -0.4249 -1.7079  0.9968
 6275SOL     OW30283   3.327   3.339  14.482 -1.1528 -0.3880  0.0376
 6275SOL    HW130284   3.390   3.411  14.478 -0.6251 -0.8991 -0.8184
 6275SOL    HW230285   3.285   3.368  14.563 -0.7617 -1.4236  0.6043
 6276SOL     OW30286   0.253   1.019  15.668  0.0526  0.5569 -0.4993
 6276SOL    HW130287   0.252   1.074  15.590  2.5194  2.6340  0.9388
 6276SOL    HW230288   0.345   0.996  15.654  0.8071  3.4000 -0.2979
 6277SOL     OW30289   3.886   3.303   4.664 -0.2276 -0.2743 -0.2583
 6277SOL    HW130290   3.947   3.325   4.734 -0.2215 -0.9703 -0.0482
 6277SOL    HW230291   3.944   3.280   4.591 -0.3654  0.0901 -0.4892
 6278SOL     OW30292   3.111   1.243   2.381 -0.1487 -0.2682 -0.7297
 6278SOL    HW130293   3.028   1.229   2.336  1.1861 -0.5648 -3.1086
 6278SOL    HW230294   3.172   1.180   2.342 -0.9698 -0.9099 -0.9682
 6279SOL     OW30295   1.483   2.046   7.916  0.1531 -0.5328  0.0464
 6279SOL    HW130296   1.444   2.095   7.989 -0.3348  1.2824 -1.4218
 6279SOL    HW230297   1.402   2.016   7.874 -0.4162  1.9630 -0.6491
 6280SOL     OW30298   4.651   0.914  11.119 -0.1112  0.7098  0.4797
 6280SOL    HW130299   4.620   0.989  11.068 -0.1029 -0.0266 -0.5916
 6280SOL    HW230300   0.020   0.937  11.119  0.1912 -0.5583  2.5406
 6281SOL     OW30301   1.718   3.901   0.526  0.4891 -0.6384  0.1422
 6281SOL    HW130302   1.642   3.856   0.562  0.4875  0.5340  1.6014
 6281SOL    HW230303   1.768   3.839   0.472  2.0584  1.1827 -0.5015
 6282SOL     OW30304   4.450   1.564   9.351  0.3092  0.5929 -0.1051
 6282SOL    HW130305   4.404   1.481   9.342 -0.7607  1.1991 -0.3259
 6282SOL    HW230306   4.430   1.580   9.443 -1.8689 -2.5248 -0.0497
 6283SOL     OW30307   1.313   0.964   3.183  0.3599 -0.0896  0.0189
 6283SOL    HW130308   1.218   0.965   3.168  0.2795 -0.8524  0.4746
 6283SOL    HW230309   1.354   0.939   3.101  1.4246  0.9857  0.2123
 6284SOL     OW30310   3.029   3.955   9.076 -0.3372  0.1077 -0.1977
 6284SOL    HW130311   2.947   3.909   9.056  0.1380 -1.9824  2.6906
 6284SOL    HW230312   3.076   3.921   9.000 -0.4165 -0.3990 -0.0194
 6285SOL     OW30313   1.306   1.404   5.949  0.7579  0.0357 -0.2625
 6285SOL    HW130314   1.228   1.375   5.997 -0.2419  2.8848 -0.1695
 6285SOL    HW230315   1.361   1.446   6.016  2.8691 -2.6637 -0.3205
 6286SOL     OW30316   3.913   1.526   8.419 -0.2235 -0.1034 -0.4593
 6286SOL    HW130317   3.921   1.547   8.326 -1.9342  1.0033 -0.3609
 6286SOL    HW230318   3.991   1.561   8.461 -0.6464  0.0908  0.1732
 6287SOL     OW30319   2.712   4.129   1.420  0.1070  0.5502  0.8232
 6287SOL    HW130320   2.800   4.136   1.457 -0.5358 -0.8550  2.6373
 6287SOL    HW230321   2.669   4.105   1.502 -1.1623 -1.5991 -0.4789
 6288SOL     OW30322   4.458   0.450   5.896 -0.2160  0.1934 -0.5048
 6288SOL    HW130323   4.540   0.476   5.938 -1.0175 -2.0342  2.4266
 6288SOL    HW230324   4.412   0.466   5.978 -0.3914  0.6207 -0.6836
 6289SOL     OW30325   2.483   1.116  17.232  0.2594 -0.1789  0.0833
 6289SOL    HW130326   2.482   1.030  17.190  1.1913 -0.2098  0.1054
 6289SOL    HW230327   2.436   1.175  17.173  1.1878  0.2091 -0.2706
 6290SOL     OW30328   0.257   3.581   8.579  0.3000  0.2876  0.0620
 6290SOL    HW130329   0.222   3.640   8.645 -1.4578  0.2588 -0.8392
 6290SOL    HW230330   0.326   3.535   8.628 -0.2580  0.8865  1.4018
 6291SOL     OW30331   3.160   1.506   8.344 -0.2079 -0.4400 -0.3461
 6291SOL    HW130332   3.130   1.418   8.367  0.2374 -0.6598 -0.6048
 6291SOL    HW230333   3.080   1.541   8.306  0.3052  0.3959 -0.6552
 6292SOL     OW30334   4.584   1.346  15.560  0.3684  0.3427  0.1041
 6292SOL    HW130335   4.537   1.416  15.515 -2.2334 -1.0340  0.6747
 6292SOL    HW230336   4.639   1.386  15.627  0.6857 -0.3498  0.2567
 6293SOL     OW30337   4.062   2.623   2.851  1.1566  0.2006  0.2882
 6293SOL    HW130338   3.983   2.574   2.828  1.5877  0.0441 -0.8973
 6293SOL    HW230339   4.078   2.677   2.773  3.2214 -0.7578  0.0410
 6294SOL     OW30340   0.056   4.326   9.317 -0.2063 -0.0404  0.0706
 6294SOL    HW130341   4.714   4.357   9.379  0.9968  0.0988  1.2711
 6294SOL    HW230342   0.034   4.369   9.234 -0.5365  0.0553  0.2074
 6295SOL     OW30343   0.030   1.931   4.456  0.5183 -0.8005  0.2616
 6295SOL    HW130344   0.113   1.976   4.471  0.9508 -1.2192 -0.8204
 6295SOL    HW230345   0.059   1.841   4.475 -0.0003 -1.0849 -0.2928
 6296SOL     OW30346   0.426   1.797   4.272 -0.0690  0.1972 -0.2555
 6296SOL    HW130347   0.377   1.732   4.322  0.8362  0.7672  1.3709
 6296SOL    HW230348   0.387   1.782   4.186 -1.9602  2.4349  0.2406
 6297SOL     OW30349   4.636   2.099   0.256  0.1372  0.4426  0.2103
 6297SOL    HW130350   4.681   2.041   0.318  0.4183  1.9203  1.3876
 6297SOL    HW230351   4.702   2.077   0.190  0.4423 -2.8311  1.6171
 6298SOL     OW30352   3.338   3.883  12.536 -0.2196  0.4021 -0.2644
 6298SOL    HW130353   3.259   3.911  12.490 -1.3466 -1.1095  0.7492
 6298SOL    HW230354   3.321   3.906  12.628  0.4676  0.9321 -0.2705
 6299SOL     OW30355   3.258   3.316   2.615  0.3999  0.4450 -0.0597
 6299SOL    HW130356   3.304   3.399   2.606  0.5645  0.3217 -0.3626
 6299SOL    HW230357   3.304   3.272   2.544  1.0577 -0.2181  0.7723
 6300SOL     OW30358   0.013   3.509   9.246  0.2864 -1.1916 -0.0288
 6300SOL    HW130359   4.700   3.486   9.331  0.6974 -0.9940  0.2030
 6300SOL    HW230360   0.048   3.596   9.266 -2.2275  0.3996 -2.5981
 6301SOL     OW30361   1.671   0.774   9.225 -0.2124  0.0108  0.0181
 6301SOL    HW130362   1.660   0.863   9.259  0.1906  0.2548 -0.4831
 6301SOL    HW230363   1.605   0.726   9.274  1.7118 -1.6526  1.0226
 6302SOL     OW30364   2.668   1.758  11.821  0.1477 -0.2577 -0.1418
 6302SOL    HW130365   2.655   1.665  11.806 -0.0473  0.2639 -3.2626
 6302SOL    HW230366   2.757   1.765  11.787 -0.4711 -0.4242 -1.8131
 6303SOL     OW30367   1.138   1.439  15.547 -0.9279  0.0924 -0.4303
 6303SOL    HW130368   1.075   1.447  15.619  0.0542 -0.7409  0.5124
 6303SOL    HW230369   1.088   1.391  15.482 -0.7466 -1.5876  0.6767
 6304SOL     OW30370   0.619   2.839   3.357  0.0810  0.4334  0.3354
 6304SOL    HW130371   0.699   2.799   3.393 -1.1124 -0.2523  2.1923
 6304SOL    HW230372   0.659   2.902   3.297  2.3922 -1.3185  0.0122
 6305SOL     OW30373   3.135   0.970   2.578 -0.3534 -0.3181 -0.2845
 6305SOL    HW130374   3.213   0.915   2.580 -0.1590 -0.1027 -1.8639
 6305SOL    HW230375   3.119   0.993   2.669  1.3233  1.1677 -0.3776
 6306SOL     OW30376   0.568   4.611   4.254 -0.3669 -0.1974 -0.1192
 6306SOL    HW130377   0.649   4.638   4.209  0.5981 -1.6723  0.7433
 6306SOL    HW230378   0.523   4.557   4.189  2.1977 -1.6525 -0.6725
 6307SOL     OW30379   4.463   0.435   5.632  0.2696  0.4773 -0.2944
 6307SOL    HW130380   4.521   0.506   5.606  0.4286  0.7112  0.7098
 6307SOL    HW230381   4.461   0.435   5.727 -0.0230 -1.3916 -0.2872
 6308SOL     OW30382   2.776   1.351   0.898  0.7795 -0.3271  0.1016
 6308SOL    HW130383   2.688   1.348   0.935  0.8529 -2.9735  0.0606
 6308SOL    HW230384   2.805   1.434   0.936  0.2405 -0.5208  0.9223
 6309SOL     OW30385   0.397   1.382   6.289 -0.2252  0.4776 -0.4253
 6309SOL    HW130386   0.487   1.412   6.272  0.6820 -3.7506 -3.1383
 6309SOL    HW230387   0.368   1.379   6.198 -1.0608 -3.6816 -0.0299
 6310SOL     OW30388   4.697   3.003   4.203  0.5561  0.0444  0.3843
 6310SOL    HW130389   4.676   2.979   4.294 -1.8444  1.1363  0.0964
 6310SOL    HW230390   0.052   3.054   4.223  1.1434 -0.4715 -0.6265
 6311SOL     OW30391   3.546   3.070   0.489 -0.1654  0.3449 -0.7500
 6311SOL    HW130392   3.454   3.052   0.469  0.3063 -0.9030 -1.8553
 6311SOL    HW230393   3.565   2.985   0.530 -4.0013  0.3211  0.9325
 6312SOL     OW30394   4.068   1.100  15.085  0.0759 -0.5117  0.2617
 6312SOL    HW130395   4.050   1.039  15.157 -0.1130 -0.4322  0.2829
 6312SOL    HW230396   4.106   1.173  15.135 -0.8931 -1.3529  2.2506
 6313SOL     OW30397   4.280   1.167   2.799 -0.1482  0.2301 -0.0737
 6313SOL    HW130398   4.369   1.175   2.834 -0.4815 -1.1797  1.0865
 6313SOL    HW230399   4.305   1.200   2.713 -1.2393  1.2369  0.0106
 6314SOL     OW30400   4.604   2.820   3.155 -0.0084 -0.0090  0.7172
 6314SOL    HW130401   4.615   2.795   3.063 -2.8880 -0.0064  0.3532
 6314SOL    HW230402   4.684   2.848   3.199 -1.2054 -0.3872  3.1691
 6315SOL     OW30403   3.357   1.112   3.679 -0.0328  0.1094 -0.3364
 6315SOL    HW130404   3.383   1.029   3.637  0.0976 -0.0113 -0.0138
 6315SOL    HW230405   3.336   1.177   3.612 -0.2731  0.2526 -0.1206
 6316SOL     OW30406   2.401   3.489  14.740 -0.8620  0.3485 -0.8919
 6316SOL    HW130407   2.426   3.416  14.685 -2.6816  0.5648 -2.0299
 6316SOL    HW230408   2.306   3.481  14.748 -0.7286  0.6570  1.0878
 6317SOL     OW30409   1.040   3.996  12.852 -0.1626  0.3586  0.6439
 6317SOL    HW130410   0.993   4.059  12.796  1.2633 -0.4317 -1.4164
 6317SOL    HW230411   1.082   3.934  12.793 -0.3828  1.9569 -1.2171
 6318SOL     OW30412   3.495   0.152   4.963 -1.0168 -0.4015  0.1900
 6318SOL    HW130413   3.589   0.151   4.977 -1.2284  0.9121  1.6128
 6318SOL    HW230414   3.480   0.069   5.008 -0.1539 -0.5933  0.1244
 6319SOL     OW30415   3.952   0.488   4.666 -0.3315  0.6065  0.2363
 6319SOL    HW130416   4.001   0.451   4.739  0.4298  0.5219 -0.3246
 6319SOL    HW230417   3.887   0.421   4.645 -0.6742  0.6554  1.1443
 6320SOL     OW30418   3.336   4.698  15.850 -0.0131  0.7431 -0.5202
 6320SOL    HW130419   3.341   4.613  15.805 -0.7157 -0.7033  2.1953
 6320SOL    HW230420   3.345   0.030  15.773  0.9616 -0.2532 -1.1388
 6321SOL     OW30421   1.973   2.367   9.410 -0.6580 -0.3776 -0.5322
 6321SOL    HW130422   1.930   2.450   9.392  1.4356  0.7917 -0.2222
 6321SOL    HW230423   2.067   2.383   9.397 -0.5130 -0.0000  0.9064
 6322SOL     OW30424   0.289   3.301   4.767  0.0005  0.0244  0.3776
 6322SOL    HW130425   0.280   3.373   4.829 -0.2315  1.8844 -1.8195
 6322SOL    HW230426   0.382   3.308   4.749 -0.3269 -0.9603 -1.7488
 6323SOL     OW30427   2.527   4.674  11.094  0.0828  0.6328  0.8325
 6323SOL    HW130428   2.452   4.639  11.047  0.8129 -1.7688  1.4687
 6323SOL    HW230429   2.488   4.708  11.174  0.1434  1.4907  0.5066
 6324SOL     OW30430   2.270   4.183  10.870 -1.2061 -0.5859 -0.3660
 6324SOL    HW130431   2.259   4.109  10.929  0.3177 -1.7752 -1.5761
 6324SOL    HW230432   2.197   4.241  10.891 -0.4588 -0.0085  0.6448
 6325SOL     OW30433   3.779   3.482   3.851  0.4211  0.4107  0.5090
 6325SOL    HW130434   3.796   3.388   3.844  0.5842  0.5658 -1.1895
 6325SOL    HW230435   3.761   3.493   3.758 -1.2398 -2.4942  0.4961
 6326SOL     OW30436   2.036   0.700   3.338 -0.3560 -0.0036  0.2927
 6326SOL    HW130437   2.083   0.776   3.303  1.4260 -1.0644  0.3370
 6326SOL    HW230438   1.953   0.742   3.357 -1.6986 -2.7182  0.4463
 6327SOL     OW30439   3.905   2.465   4.091  0.1220  0.1030 -0.1321
 6327SOL    HW130440   3.868   2.393   4.040  1.2808 -1.1408  0.7540
 6327SOL    HW230441   3.822   2.508   4.110 -0.7314 -0.8785 -1.6820
 6328SOL     OW30442   0.163   0.916   4.859  0.2219 -0.8125  0.2771
 6328SOL    HW130443   0.069   0.898   4.863  0.2849 -0.7107  2.1671
 6328SOL    HW230444   0.197   0.852   4.922  0.9218  0.3158  1.0282
 6329SOL     OW30445   0.350   4.092  10.532  0.5656 -1.0075  0.4646
 6329SOL    HW130446   0.424   4.042  10.497  2.2434  1.4555  0.4914
 6329SOL    HW230447   0.401   4.140  10.597  1.6137  1.7663 -2.4163
 6330SOL     OW30448   3.667   1.984   8.518 -0.1447  0.8071  0.2125
 6330SOL    HW130449   3.654   2.056   8.580 -2.4732  1.1108 -0.6302
 6330SOL    HW230450   3.579   1.947   8.514 -0.2200  0.9635  0.4037
 6331SOL     OW30451   4.077   3.711   5.320 -0.5072 -0.1553 -0.5863
 6331SOL    HW130452   3.991   3.679   5.344 -0.3368  0.8682  1.3882
 6331SOL    HW230453   4.115   3.727   5.407 -0.2808  0.0345 -0.7172
 6332SOL     OW30454   3.741   0.786  10.904 -0.3589 -0.0217  0.6111
 6332SOL    HW130455   3.702   0.750  10.824  1.6518 -0.7820 -0.0248
 6332SOL    HW230456   3.746   0.709  10.961 -1.8216 -0.8657 -0.3961
 6333SOL     OW30457   4.513   4.235   9.554  0.0954 -0.1544 -0.0316
 6333SOL    HW130458   4.525   4.178   9.630  0.2586 -0.6160 -0.4040
 6333SOL    HW230459   4.514   4.173   9.481  0.8332  0.7164 -0.7691
 6334SOL     OW30460   2.437   0.649   5.161  0.2454  0.6051 -0.1490
 6334SOL    HW130461   2.444   0.744   5.150 -1.8830  0.6204 -1.4757
 6334SOL    HW230462   2.450   0.642   5.255 -0.6427 -0.8445 -0.1503
 6335SOL     OW30463   0.595   1.128  13.551  0.6616 -0.2941  0.5654
 6335SOL    HW130464   0.677   1.133  13.599  1.1980 -3.3559 -0.0120
 6335SOL    HW230465   0.538   1.064  13.593  0.4825 -0.3111  0.2975
 6336SOL     OW30466   0.918   1.336  14.838 -0.0109 -0.6427 -0.1351
 6336SOL    HW130467   1.000   1.293  14.815  0.7837  0.3390  0.9287
 6336SOL    HW230468   0.923   1.421  14.793 -1.2113 -1.1439 -1.2469
 6337SOL     OW30469   3.984   2.984   4.228  0.5012  0.2816  0.9293
 6337SOL    HW130470   3.938   3.049   4.176 -0.5242 -0.8598  0.4040
 6337SOL    HW230471   4.062   2.981   4.173  2.4959  2.0725  3.6729
 6338SOL     OW30472   2.294   1.005   5.068 -0.4598  0.8876 -0.5311
 6338SOL    HW130473   2.385   0.974   5.067 -0.7081  0.1384 -0.4653
 6338SOL    HW230474   2.269   0.955   4.991  1.3177  0.3042 -0.7298
 6339SOL     OW30475   2.349   1.115   2.924 -0.1311 -0.7965  0.1459
 6339SOL    HW130476   2.442   1.122   2.944  0.1241 -1.5938 -0.7279
 6339SOL    HW230477   2.308   1.096   3.008 -0.7693  1.9507  0.4457
 6340SOL     OW30478   2.324   0.800   0.983  0.3536 -0.2401  0.4180
 6340SOL    HW130479   2.405   0.851   0.984 -1.0683  1.9900  1.9249
 6340SOL    HW230480   2.328   0.761   1.071  0.1530 -0.2539  0.4213
 6341SOL     OW30481   1.183   2.253  14.218 -0.1644 -0.4702  0.6590
 6341SOL    HW130482   1.240   2.182  14.249 -0.0613 -1.0388 -0.8654
 6341SOL    HW230483   1.107   2.234  14.274 -1.5173  2.8739 -0.0545
 6342SOL     OW30484   4.715   2.446   3.212 -0.0522  0.0018  0.1739
 6342SOL    HW130485   4.644   2.496   3.170  1.5931  1.5901 -0.6864
 6342SOL    HW230486   4.715   2.481   3.301 -0.7779 -2.7797  1.2774
 6343SOL     OW30487   1.728   3.717   6.760 -0.2373  0.6273 -0.0685
 6343SOL    HW130488   1.751   3.750   6.847 -2.2656  0.8377  0.3839
 6343SOL    HW230489   1.633   3.715   6.763 -0.1984  1.0316  1.5198
 6344SOL     OW30490   4.272   0.849   8.929  0.6116  0.4951 -0.3304
 6344SOL    HW130491   4.323   0.772   8.953 -0.3507 -0.1502 -0.3523
 6344SOL    HW230492   4.224   0.865   9.010 -2.5399 -0.3737 -1.9994
 6345SOL     OW30493   0.153   4.649  14.435  0.5585  0.0090 -0.8423
 6345SOL    HW130494   0.226   4.616  14.488 -0.8112 -1.2136  0.2907
 6345SOL    HW230495   0.162   0.009  14.480 -3.1319  0.3779 -0.7849
 6346SOL     OW30496   1.429   1.695   0.424  0.8024  0.2519 -0.6498
 6346SOL    HW130497   1.363   1.629   0.401  1.0756 -0.7596  1.3848
 6346SOL    HW230498   1.514   1.655   0.405  1.4053  0.8612  0.7572
 6347SOL     OW30499   2.052   0.913   8.199  0.5595 -0.2310  0.2349
 6347SOL    HW130500   2.039   0.986   8.259 -1.4931  0.3525 -0.8907
 6347SOL    HW230501   2.110   0.864   8.257  0.5287 -0.8004 -0.2105
 6348SOL     OW30502   3.545   3.783   6.299  0.5482  0.0503 -0.2380
 6348SOL    HW130503   3.529   3.769   6.393 -0.7818  1.8914 -0.1807
 6348SOL    HW230504   3.477   3.850   6.286 -1.1125 -1.8005 -1.0280
 6349SOL     OW30505   3.763   2.282   3.888  0.3543  0.3079  0.4289
 6349SOL    HW130506   3.832   2.228   3.849  1.0469  0.4171  1.5073
 6349SOL    HW230507   3.686   2.227   3.868  0.0020  1.7821 -2.3437
 6350SOL     OW30508   0.753   2.415  15.073  0.2548 -0.1135  0.0195
 6350SOL    HW130509   0.722   2.473  15.142  1.5402  1.0808 -0.4350
 6350SOL    HW230510   0.817   2.361  15.120  0.2682 -1.2765 -1.3178
 6351SOL     OW30511   2.717   0.580   9.171  0.5010  0.4610  0.4224
 6351SOL    HW130512   2.792   0.523   9.155  0.4482 -0.0423  1.9261
 6351SOL    HW230513   2.701   0.629   9.091 -0.7795 -1.0006 -0.2086
 6352SOL     OW30514   2.217   1.006   6.563  0.0633  0.3042  0.4407
 6352SOL    HW130515   2.307   1.034   6.578  0.7808 -1.7206 -0.1149
 6352SOL    HW230516   2.223   0.948   6.486 -0.0917  0.0317  0.6332
 6353SOL     OW30517   4.363   2.476   6.379  0.3807 -0.1609  0.9390
 6353SOL    HW130518   4.268   2.490   6.386  0.2331 -1.9275  2.4573
 6353SOL    HW230519   4.373   2.440   6.467 -0.1911  0.3668  1.2218
 6354SOL     OW30520   3.393   1.644   8.787  0.2098 -0.0684 -0.3512
 6354SOL    HW130521   3.315   1.692   8.757 -0.0396 -0.7934 -0.8571
 6354SOL    HW230522   3.350   1.577   8.840 -0.9365  0.6964 -0.3200
 6355SOL     OW30523   0.311   4.535  15.127  0.6474  0.0668  0.0941
 6355SOL    HW130524   0.235   4.478  15.119  0.2246  0.5269  0.7707
 6355SOL    HW230525   0.328   4.560  15.036  3.9852  0.0370  0.6971
 6356SOL     OW30526   3.964   0.938   7.648 -0.4818 -0.4493 -0.0456
 6356SOL    HW130527   4.015   0.858   7.662  0.3265  0.0514 -0.1088
 6356SOL    HW230528   3.893   0.929   7.711 -0.8636  0.9769 -0.2646
 6357SOL     OW30529   2.391   0.443   8.519  0.2295 -0.4348 -0.2224
 6357SOL    HW130530   2.300   0.468   8.504  0.2499  0.1097  0.5855
 6357SOL    HW230531   2.411   0.487   8.601 -2.2064 -2.1291  1.2759
 6358SOL     OW30532   1.351   3.216   0.812 -0.8475  0.4028 -0.1918
 6358SOL    HW130533   1.349   3.127   0.848  0.4530  0.1859 -0.6699
 6358SOL    HW230534   1.358   3.271   0.890  2.4278 -1.1568  0.6132
 6359SOL     OW30535   1.924   3.274   1.915 -0.7456  0.1820 -0.4189
 6359SOL    HW130536   1.855   3.294   1.978 -1.8225 -0.6602 -1.3314
 6359SOL    HW230537   1.999   3.252   1.971  0.0946  2.2915 -0.6908
 6360SOL     OW30538   0.731   1.457   1.421 -0.3386  0.5476  0.0665
 6360SOL    HW130539   0.703   1.401   1.494  0.8500 -0.2418 -0.0819
 6360SOL    HW230540   0.678   1.536   1.434  2.1590  2.4391 -1.4452
 6361SOL     OW30541   2.296   1.818  16.975  0.1587 -0.3589  0.0509
 6361SOL    HW130542   2.391   1.821  16.976  0.1621 -0.8132  1.5549
 6361SOL    HW230543   2.272   1.873  17.049  1.3275 -0.8394  0.7812
 6362SOL     OW30544   3.875   4.034   9.575  0.0177  0.3815  0.2238
 6362SOL    HW130545   3.829   4.049   9.657  1.7249 -0.0234  1.2582
 6362SOL    HW230546   3.945   4.098   9.589  1.5271 -1.9962  3.5823
 6363SOL     OW30547   4.078   2.239   2.285 -0.8209  0.4461  0.0522
 6363SOL    HW130548   4.000   2.284   2.318  0.3932  1.4357  1.5888
 6363SOL    HW230549   4.134   2.254   2.361 -1.0335 -0.9547  0.4926
 6364SOL     OW30550   0.583   1.315  11.868  0.2447 -0.1886  0.2780
 6364SOL    HW130551   0.548   1.391  11.915 -0.5864  1.0142 -2.2590
 6364SOL    HW230552   0.509   1.288  11.812 -1.3065  0.4397  2.0335
 6365SOL     OW30553   1.160   1.932   5.768  0.3159 -0.0400  0.3045
 6365SOL    HW130554   1.208   1.893   5.695  0.0844  2.7124 -1.3403
 6365SOL    HW230555   1.227   1.968   5.827  0.1633 -1.8704  1.5863
 6366SOL     OW30556   1.382   1.661   6.403  0.6898  0.0979 -0.4829
 6366SOL    HW130557   1.437   1.733   6.433  0.9307  0.2039 -1.1800
 6366SOL    HW230558   1.295   1.697   6.419  1.6022  1.3711  1.6352
 6367SOL     OW30559   0.148   1.104   9.465 -0.2804  0.0179  0.0483
 6367SOL    HW130560   0.062   1.092   9.506 -0.2157 -1.3620 -0.2088
 6367SOL    HW230561   0.150   1.199   9.472 -0.4050  0.0544 -0.4639
 6368SOL     OW30562   2.329   0.531   1.940  0.3099  0.1999  0.1586
 6368SOL    HW130563   2.253   0.584   1.918  0.2847  0.0400 -0.1330
 6368SOL    HW230564   2.278   0.461   1.981 -0.6141  0.9594  0.3151
 6369SOL     OW30565   4.550   3.216  16.886 -0.1583  0.7252 -0.5276
 6369SOL    HW130566   4.530   3.224  16.793 -0.3506 -0.2966 -0.5646
 6369SOL    HW230567   4.558   3.309  16.908  0.3057  0.7238 -0.6999
 6370SOL     OW30568   2.657   4.714   6.279  0.0418  0.0454  0.7755
 6370SOL    HW130569   2.725   0.056   6.272 -0.3993  0.3629 -0.4889
 6370SOL    HW230570   2.657   4.702   6.375  1.2115  0.4465  0.8228
 6371SOL     OW30571   1.132   3.190   4.096  0.3355  0.4630  0.5098
 6371SOL    HW130572   1.142   3.283   4.074  0.3523  0.5241  0.7707
 6371SOL    HW230573   1.223   3.162   4.091  0.5816  1.5244 -1.0519
 6372SOL     OW30574   3.652   3.870   0.452 -0.1656  0.1279 -0.6906
 6372SOL    HW130575   3.737   3.875   0.407  0.3474 -0.9206  0.1518
 6372SOL    HW230576   3.667   3.939   0.517  1.2116  0.6249 -1.5193
 6373SOL     OW30577   4.367   4.474   3.279 -0.5644  0.3371 -0.2128
 6373SOL    HW130578   4.351   4.381   3.269 -1.0660  0.1336  2.4025
 6373SOL    HW230579   4.402   4.483   3.368 -0.6931  3.2709 -0.4338
 6374SOL     OW30580   4.470   0.853  10.288  0.1452  0.1528 -0.0756
 6374SOL    HW130581   4.431   0.898  10.364  1.0737  0.8698 -0.0308
 6374SOL    HW230582   4.499   0.923  10.230 -0.0753  0.5076  0.2369
 6375SOL     OW30583   2.175   3.976   5.125  0.6696 -0.1543  0.5790
 6375SOL    HW130584   2.145   3.974   5.216  0.6435  0.7960  0.5875
 6375SOL    HW230585   2.186   3.882   5.109 -2.4357 -0.4277  0.0667
 6376SOL     OW30586   0.998   4.114  16.120 -0.3870 -0.5364  0.4853
 6376SOL    HW130587   0.947   4.195  16.119 -0.5179 -0.6027  1.4372
 6376SOL    HW230588   0.954   4.065  16.189 -1.9298  0.1285 -0.0294
 6377SOL     OW30589   3.598   3.348   6.263 -0.6104 -0.1674  0.0214
 6377SOL    HW130590   3.692   3.366   6.253 -1.2080  0.8240 -3.7261
 6377SOL    HW230591   3.595   3.336   6.358  1.3802  0.3969  0.1597
 6378SOL     OW30592   1.501   4.225  14.368 -0.8799  0.3716  0.4745
 6378SOL    HW130593   1.414   4.189  14.353 -0.9113  0.2882  0.8603
 6378SOL    HW230594   1.564   4.153  14.359 -0.7736  0.4730  0.4070
 6379SOL     OW30595   3.034   4.625   3.467  0.4668  0.2244 -0.5754
 6379SOL    HW130596   2.994   4.689   3.526 -0.2787 -1.1026  0.3718
 6379SOL    HW230597   2.962   4.611   3.404 -0.1413 -1.4228  0.4916
 6380SOL     OW30598   2.583   1.860   3.293  0.1682  0.3693 -0.3517
 6380SOL    HW130599   2.559   1.842   3.384 -0.3211  1.7288 -0.2207
 6380SOL    HW230600   2.673   1.829   3.297  0.5245  1.8301  2.6072
 6381SOL     OW30601   1.883   1.700   8.938 -0.3997 -0.0059 -0.6664
 6381SOL    HW130602   1.967   1.717   8.980  0.3972  1.0013 -2.6636
 6381SOL    HW230603   1.832   1.680   9.017  1.4051 -0.7923  0.3033
 6382SOL     OW30604   1.766   3.168   6.462 -0.0516 -0.0643 -0.4801
 6382SOL    HW130605   1.774   3.246   6.517  0.5000 -0.7266  0.3779
 6382SOL    HW230606   1.854   3.162   6.426 -0.1836 -1.3612 -0.5948
 6383SOL     OW30607   1.984   0.256   4.585  0.0170  0.5199  0.1603
 6383SOL    HW130608   1.933   0.333   4.610 -0.3887  0.0278  0.8750
 6383SOL    HW230609   2.045   0.249   4.659 -0.3275 -1.0526  0.3036
 6384SOL     OW30610   1.497   4.265   2.996 -0.0515  0.0270 -0.2396
 6384SOL    HW130611   1.589   4.246   3.011 -0.1071 -1.0131 -1.2528
 6384SOL    HW230612   1.465   4.183   2.959 -0.7508 -0.0440  0.5219
 6385SOL     OW30613   2.733   2.562   3.732 -0.1495 -0.1436  0.0136
 6385SOL    HW130614   2.720   2.479   3.779 -2.9633  1.1859  1.6287
 6385SOL    HW230615   2.744   2.533   3.642  0.0995 -0.6002  0.1929
 6386SOL     OW30616   2.444   1.615   6.441  0.1739  0.0446  0.4541
 6386SOL    HW130617   2.357   1.576   6.435  0.6647 -0.9605 -0.1584
 6386SOL    HW230618   2.487   1.564   6.509 -0.3176  0.5882  1.1715
 6387SOL     OW30619   3.197   0.946  10.891 -0.4034 -0.4457  0.0443
 6387SOL    HW130620   3.197   1.037  10.860 -1.6366  0.0642  1.5482
 6387SOL    HW230621   3.250   0.898  10.827 -3.5817 -0.4381 -2.6436
 6388SOL     OW30622   2.088   2.944   2.540 -0.0730 -0.0003 -0.7370
 6388SOL    HW130623   2.136   2.963   2.620 -1.3011 -1.1707  0.2816
 6388SOL    HW230624   2.021   2.880   2.562  1.0769 -0.4154  1.5386
 6389SOL     OW30625   0.912   2.575  13.795  0.1954 -0.4404  0.4360
 6389SOL    HW130626   0.983   2.611  13.847  1.7540 -1.6385 -0.8612
 6389SOL    HW230627   0.876   2.509  13.854  0.6172 -0.9727  0.1040
 6390SOL     OW30628   2.791   4.217  14.195  0.6993  0.4229 -0.7031
 6390SOL    HW130629   2.834   4.167  14.263  0.6723 -2.1862 -2.6020
 6390SOL    HW230630   2.707   4.225  14.239  0.8655  2.3815 -0.7541
 6391SOL     OW30631   3.766   1.727   6.547 -0.2244 -0.1695  0.1763
 6391SOL    HW130632   3.775   1.700   6.639  2.5402  0.3872  0.0812
 6391SOL    HW230633   3.733   1.816   6.550 -0.3965 -0.2310  0.0543
 6392SOL     OW30634   2.625   3.994   8.614  0.3474 -0.1632  0.3963
 6392SOL    HW130635   2.654   4.084   8.629 -1.0629  0.3038  0.2935
 6392SOL    HW230636   2.683   3.953   8.679  1.5046  1.6415  0.4852
 6393SOL     OW30637   2.771   0.765   9.703 -0.1293 -0.5417  0.0370
 6393SOL    HW130638   2.691   0.816   9.715  1.3277  2.2468 -2.0950
 6393SOL    HW230639   2.744   0.695   9.763 -0.1698 -1.1702 -0.7105
 6394SOL     OW30640   3.390   2.078   1.614 -0.0460  0.0115  0.1927
 6394SOL    HW130641   3.341   2.155   1.584  0.9802  1.1113  1.4099
 6394SOL    HW230642   3.398   2.102   1.706 -1.2759 -0.5411  0.4458
 6395SOL     OW30643   0.469   2.344   2.117  0.0209 -0.0497 -0.2320
 6395SOL    HW130644   0.520   2.363   2.038 -0.0344 -0.0479 -0.2669
 6395SOL    HW230645   0.457   2.431   2.153 -0.1403  0.1707 -0.8150
 6396SOL     OW30646   4.325   2.274  11.859  0.0269 -0.0781 -0.8259
 6396SOL    HW130647   4.372   2.263  11.776 -1.1529  1.4213 -1.7145
 6396SOL    HW230648   4.269   2.197  11.855  0.2227 -0.2554 -0.0559
 6397SOL     OW30649   3.512   0.278   7.954 -0.1830  0.0144 -0.2372
 6397SOL    HW130650   3.555   0.254   7.872 -0.4855 -0.4763 -0.2469
 6397SOL    HW230651   3.563   0.356   7.978  0.2036 -0.2160 -0.3155
 6398SOL     OW30652   4.337   4.374  12.813  0.2854  0.0535  0.7268
 6398SOL    HW130653   4.369   4.283  12.815  0.3350  0.0134 -1.9740
 6398SOL    HW230654   4.297   4.388  12.899  0.1660  0.5986  0.5794
 6399SOL     OW30655   2.611   4.600   6.543 -0.5738  0.5919 -0.0545
 6399SOL    HW130656   2.649   4.653   6.613 -1.1849 -0.3895  1.0056
 6399SOL    HW230657   2.526   4.566   6.570  0.5576  1.1132  4.1352
 6400SOL     OW30658   1.214   1.935   8.992  0.3581  0.1073 -0.2316
 6400SOL    HW130659   1.193   1.868   9.057  1.0539  2.0899  2.0450
 6400SOL    HW230660   1.135   1.984   9.017 -0.4504  0.9226 -4.3533
 6401SOL     OW30661   0.413   0.213   6.924 -0.8785 -0.7335 -0.3878
 6401SOL    HW130662   0.334   0.254   6.959 -0.8567  0.8206 -2.1233
 6401SOL    HW230663   0.372   0.138   6.882  1.3965 -2.0698 -0.2252
 6402SOL     OW30664   0.487   4.240   3.867 -0.2638  0.1929  0.4497
 6402SOL    HW130665   0.473   4.147   3.851 -0.9438  0.1094  1.5036
 6402SOL    HW230666   0.454   4.285   3.790  1.8708  1.0415  0.0190
 6403SOL     OW30667   1.775   3.302  13.183 -0.2321  0.0920 -0.5849
 6403SOL    HW130668   1.739   3.270  13.265  0.0858 -1.3364 -1.0069
 6403SOL    HW230669   1.796   3.219  13.140 -0.1392 -0.5593  0.7105
 6404SOL     OW30670   0.814   3.754  17.098  0.1455  0.2116  0.2159
 6404SOL    HW130671   0.863   3.836  17.112 -0.0003  0.7209 -2.2938
 6404SOL    HW230672   0.805   3.759  17.003  0.9296  0.0199  0.1277
 6405SOL     OW30673   4.025   2.213   1.807  0.1194 -0.2040  0.0711
 6405SOL    HW130674   3.975   2.233   1.886 -1.0604 -1.1196 -0.4498
 6405SOL    HW230675   4.115   2.240   1.826 -0.2610  1.0108  0.1626
 6406SOL     OW30676   4.313   1.995  16.806 -0.6087 -0.5685 -0.2236
 6406SOL    HW130677   4.243   1.959  16.753 -0.9814 -0.1654 -0.0065
 6406SOL    HW230678   4.315   1.934  16.880 -1.1199  3.0082  2.7879
 6407SOL     OW30679   3.874   4.466   7.754  0.4840  0.7865 -0.5787
 6407SOL    HW130680   3.802   4.508   7.708  0.2475 -0.4435 -1.3228
 6407SOL    HW230681   3.932   4.437   7.683  0.5970 -0.4611  0.0286
 6408SOL     OW30682   4.361   4.573   9.695  0.3167  0.0127  0.6069
 6408SOL    HW130683   4.396   4.523   9.770  1.1997  0.8893  0.7824
 6408SOL    HW230684   4.429   4.640   9.688  1.2135 -1.1923 -2.1474
 6409SOL     OW30685   4.494   1.876   3.343 -0.0740  0.3386  0.1889
 6409SOL    HW130686   4.477   1.968   3.321 -0.2067  0.6021  1.3918
 6409SOL    HW230687   4.520   1.889   3.435 -0.2768  0.1866  0.2670
 6410SOL     OW30688   1.778   3.664   6.486 -0.0556 -0.1373 -0.0365
 6410SOL    HW130689   1.737   3.740   6.443 -0.0945 -0.5768 -0.7750
 6410SOL    HW230690   1.747   3.678   6.575 -0.2374 -0.6220 -0.0247
 6411SOL     OW30691   3.896   3.990   1.812  0.1878  0.3649 -0.0965
 6411SOL    HW130692   3.933   3.942   1.886 -1.8490  0.4099  0.9570
 6411SOL    HW230693   3.958   3.953   1.749  1.8476  0.7768  1.3006
 6412SOL     OW30694   0.430   3.196   7.321 -0.2376 -0.2353  0.1716
 6412SOL    HW130695   0.394   3.114   7.354 -2.0258  0.5909  0.2787
 6412SOL    HW230696   0.469   3.240   7.396  0.9923  1.4947 -1.4769
 6413SOL     OW30697   3.634   1.942   4.724  0.2641  0.1765  0.2012
 6413SOL    HW130698   3.540   1.947   4.742  0.8583  1.7461  2.8185
 6413SOL    HW230699   3.645   1.849   4.705 -0.7382  0.0667  0.1490
 6414SOL     OW30700   2.345   0.405  15.665 -0.2915 -0.3837 -0.7248
 6414SOL    HW130701   2.419   0.460  15.641  1.4052 -2.4844 -0.2713
 6414SOL    HW230702   2.303   0.477  15.713 -0.6535 -0.3745 -1.0564
 6415SOL     OW30703   3.736   1.079   6.938  0.0379 -0.4232  0.0210
 6415SOL    HW130704   3.826   1.061   6.968  0.5409  0.5968 -0.8876
 6415SOL    HW230705   3.756   1.066   6.846 -1.2817  1.0958 -0.4751
 6416SOL     OW30706   0.692   1.237  10.598 -0.3380 -0.2347 -0.0485
 6416SOL    HW130707   0.678   1.318  10.549  0.6714  0.7532  1.2885
 6416SOL    HW230708   0.666   1.170  10.536  0.1964  1.3130 -1.9507
 6417SOL     OW30709   3.610   0.084   2.800  0.8451 -0.4640 -0.1848
 6417SOL    HW130710   3.611   0.173   2.835 -0.6992 -1.0096  1.2521
 6417SOL    HW230711   3.646   0.038   2.876  1.2632 -1.2934 -0.8776
 6418SOL     OW30712   2.592   2.908   5.456  0.0492  0.4088  0.1716
 6418SOL    HW130713   2.524   2.925   5.391  0.0026 -2.2028 -0.4531
 6418SOL    HW230714   2.645   2.987   5.452  0.9669 -0.2836 -1.1895
 6419SOL     OW30715   2.356   0.745   6.132 -0.1349 -0.3782  0.7165
 6419SOL    HW130716   2.410   0.670   6.108  1.3041  0.2420  2.0290
 6419SOL    HW230717   2.309   0.738   6.049  0.1593  3.2491  0.2299
 6420SOL     OW30718   4.187   1.278   4.134  0.2950 -0.3011 -0.5197
 6420SOL    HW130719   4.123   1.295   4.202  1.3578 -1.1108  0.6931
 6420SOL    HW230720   4.243   1.354   4.148 -0.5281 -0.1157  1.7026
 6421SOL     OW30721   3.305   3.907   6.230  0.4220  0.0754 -0.0602
 6421SOL    HW130722   3.305   4.003   6.222  0.0006  0.1117  0.4034
 6421SOL    HW230723   3.314   3.878   6.139 -2.4609 -0.5838 -0.1402
 6422SOL     OW30724   2.948   0.339   4.422  0.3572  0.0489  0.6497
 6422SOL    HW130725   3.042   0.326   4.433  0.4779  2.6440  2.7913
 6422SOL    HW230726   2.957   0.374   4.334  1.0703  0.4468  0.8821
 6423SOL     OW30727   1.794   3.083   6.036  0.0008  0.3155  0.2103
 6423SOL    HW130728   1.737   3.136   5.980 -1.6981  2.3041  3.8142
 6423SOL    HW230729   1.855   3.146   6.076 -1.6534  2.8378 -1.2156
 6424SOL     OW30730   0.307   0.159  12.649 -0.0007 -0.3413 -0.3916
 6424SOL    HW130731   0.375   0.158  12.716 -0.8409 -0.2094  0.4747
 6424SOL    HW230732   0.319   0.072  12.612  1.1769 -0.9179  1.3376
 6425SOL     OW30733   1.512   3.982   5.394  0.1914  0.3481  0.3911
 6425SOL    HW130734   1.568   4.039   5.446  1.9579 -1.8523  0.9369
 6425SOL    HW230735   1.426   4.016   5.419  0.2980 -0.7992  2.3886
 6426SOL     OW30736   0.882   2.594  12.261  0.3234  0.4710  0.2468
 6426SOL    HW130737   0.886   2.540  12.182 -0.9973 -0.0803  0.5494
 6426SOL    HW230738   0.805   2.563  12.308  0.3028 -0.4477 -0.3869
 6427SOL     OW30739   2.689   1.443  13.453  0.0999  0.3681 -0.5669
 6427SOL    HW130740   2.645   1.528  13.461  1.0132  0.8895 -1.0354
 6427SOL    HW230741   2.634   1.383  13.504  0.0324  1.0607  0.1751
 6428SOL     OW30742   2.396   4.383   0.956  0.5747  0.2047 -0.0909
 6428SOL    HW130743   2.417   4.396   0.864 -2.6381 -2.2249 -1.1712
 6428SOL    HW230744   2.318   4.334   0.932 -1.0572  1.2894  2.9352
 6429SOL     OW30745   4.303   1.320   9.865  0.0965  0.0694 -0.0469
 6429SOL    HW130746   4.236   1.345   9.801  0.3459 -1.3910 -0.8761
 6429SOL    HW230747   4.254   1.254   9.914  2.7529 -1.9425 -0.1286
 6430SOL     OW30748   2.711   1.863   5.318 -0.2456  0.2224 -0.3946
 6430SOL    HW130749   2.661   1.889   5.241  0.6576  0.2643 -0.9527
 6430SOL    HW230750   2.795   1.843   5.278 -1.5866 -0.7767 -2.6824
 6431SOL     OW30751   0.926   1.087   4.122  0.2103 -0.2476 -0.0230
 6431SOL    HW130752   0.956   1.074   4.032 -2.6537  0.0220 -1.0146
 6431SOL    HW230753   1.008   1.100   4.170 -0.7194  1.6483  1.0130
 6432SOL     OW30754   1.995   2.183   4.648 -0.5109  0.1832 -0.5111
 6432SOL    HW130755   1.900   2.180   4.662 -0.6500 -0.9237 -1.7120
 6432SOL    HW230756   2.034   2.196   4.734 -0.3530  1.4990 -0.7854
 6433SOL     OW30757   0.897   1.557   1.675  0.2530 -0.2390  0.5007
 6433SOL    HW130758   0.847   1.567   1.594 -0.3257  1.3915  1.0513
 6433SOL    HW230759   0.849   1.498   1.732 -2.0466 -0.0533 -1.2759
 6434SOL     OW30760   0.924   3.987  17.125 -0.1492  0.3494  0.0165
 6434SOL    HW130761   0.966   4.008  17.042 -2.1481  0.2088 -1.0236
 6434SOL    HW230762   0.891   4.064  17.171  0.6214  0.5289  0.2774
 6435SOL     OW30763   4.686   0.171   6.883  0.2316  0.0008 -0.2488
 6435SOL    HW130764   4.640   0.167   6.800  2.2803  0.4156 -1.4216
 6435SOL    HW230765   4.656   0.257   6.914 -0.0284  0.4167 -1.6850
 6436SOL     OW30766   3.223   1.173  12.558  0.2742  0.0494 -0.1734
 6436SOL    HW130767   3.272   1.243  12.603 -0.7358 -0.3505  1.5466
 6436SOL    HW230768   3.143   1.219  12.534 -0.1578  0.0032  1.1843
 6437SOL     OW30769   2.300   0.623   0.389  0.1215 -0.3193 -0.2172
 6437SOL    HW130770   2.296   0.712   0.353  0.7820 -0.5117 -0.7714
 6437SOL    HW230771   2.285   0.641   0.482  1.4037 -0.8448  0.0889
 6438SOL     OW30772   3.099   3.808  14.861  0.0662 -0.0383 -0.1133
 6438SOL    HW130773   3.141   3.878  14.911 -1.6685 -0.4404  1.9220
 6438SOL    HW230774   3.180   3.759  14.850  1.1389  1.9375 -0.9648
 6439SOL     OW30775   0.735   2.921   7.990  0.1924  0.0363 -0.6931
 6439SOL    HW130776   0.816   2.945   7.947  1.9486 -0.5746  2.2641
 6439SOL    HW230777   0.663   2.953   7.935 -0.6075  3.0700  2.1063
 6440SOL     OW30778   1.119   0.316   0.801 -0.2267 -0.1673 -0.3337
 6440SOL    HW130779   1.205   0.304   0.761  0.2646  0.0575  0.6501
 6440SOL    HW230780   1.065   0.368   0.741 -1.1470 -2.1578 -1.2170
 6441SOL     OW30781   0.110   4.506  14.720  0.5917 -0.2521  0.8330
 6441SOL    HW130782   0.195   4.543  14.695 -0.0888  0.0465 -1.0570
 6441SOL    HW230783   0.076   4.493  14.632 -0.4796  0.6557  1.1150
 6442SOL     OW30784   2.948   4.117   1.754  0.5529  0.3183  0.1181
 6442SOL    HW130785   2.857   4.114   1.726  0.9063 -0.7884 -0.9315
 6442SOL    HW230786   2.990   4.112   1.668 -0.2533  2.4229 -0.3918
 6443SOL     OW30787   1.790   0.725   1.226 -0.3709 -0.2199  0.5253
 6443SOL    HW130788   1.789   0.683   1.140 -2.5489  0.4059  0.2409
 6443SOL    HW230789   1.794   0.814   1.191 -0.3773 -0.6201 -0.4672
 6444SOL     OW30790   1.938   4.148  11.097  0.3331  0.5083  0.2661
 6444SOL    HW130791   1.897   4.115  11.017  0.2454  0.6387  0.2567
 6444SOL    HW230792   1.994   4.072  11.110  1.1828  1.0807 -0.0536
 6445SOL     OW30793   0.913   0.100   9.009 -0.0755  0.2045  0.3202
 6445SOL    HW130794   0.963   0.029   9.049 -0.1653  0.5416  1.0334
 6445SOL    HW230795   0.835   0.095   9.065  0.7505  1.8042  1.6174
 6446SOL     OW30796   1.855   0.516   4.644 -0.0808 -0.5249  0.0203
 6446SOL    HW130797   1.795   0.551   4.579 -0.5690 -0.5692  0.4419
 6446SOL    HW230798   1.904   0.595   4.667  0.1097 -0.7641  0.4369
 6447SOL     OW30799   4.062   2.615   9.494 -0.0263  0.2392  0.2125
 6447SOL    HW130800   4.149   2.651   9.507 -0.1467  0.4655  0.3885
 6447SOL    HW230801   4.036   2.610   9.586 -0.7499  0.4546  0.0216
 6448SOL     OW30802   0.602   4.349   8.908  0.5695  0.0276 -0.1751
 6448SOL    HW130803   0.694   4.338   8.933  1.2699  0.1548 -2.7467
 6448SOL    HW230804   0.547   4.378   8.981  1.7576  0.9784  0.3370
 6449SOL     OW30805   4.351   1.298   7.797  0.8114 -0.7309  0.0067
 6449SOL    HW130806   4.415   1.334   7.858 -0.9815 -1.0316  2.0926
 6449SOL    HW230807   4.385   1.212   7.775  1.8218  0.1480 -1.8013
 6450SOL     OW30808   0.009   3.210   7.749  0.4150 -0.0806 -0.0176
 6450SOL    HW130809   0.053   3.184   7.830  0.6552  0.0328 -0.1126
 6450SOL    HW230810   4.649   3.236   7.788  0.2885 -0.6615  0.0947
 6451SOL     OW30811   0.860   0.704   7.981  0.4153  0.0215  0.3761
 6451SOL    HW130812   0.948   0.738   7.962  0.4101 -1.5293 -2.3956
 6451SOL    HW230813   0.850   0.661   7.896 -0.8680  1.0632  0.0109
 6452SOL     OW30814   1.983   3.789   4.877 -0.4407  0.1645 -0.0672
 6452SOL    HW130815   2.069   3.766   4.911 -1.0091 -2.3783 -0.3707
 6452SOL    HW230816   1.980   3.873   4.923 -1.8056  0.5148 -0.7988
 6453SOL     OW30817   1.470   0.303   2.963 -0.1857  0.2946 -0.3534
 6453SOL    HW130818   1.517   0.221   2.949 -0.7334  0.0273 -0.6161
 6453SOL    HW230819   1.378   0.277   2.950 -0.4311 -0.4012  2.6613
 6454SOL     OW30820   0.320   0.778  17.051  0.4475  0.7856  0.0330
 6454SOL    HW130821   0.255   0.848  17.058 -0.8926 -0.2978 -1.5040
 6454SOL    HW230822   0.305   0.722  17.128 -1.8660  0.1092 -0.9135
 6455SOL     OW30823   2.601   0.828   4.843  0.1068 -0.3826  0.1418
 6455SOL    HW130824   2.610   0.880   4.763  2.1244 -1.6524 -0.4361
 6455SOL    HW230825   2.695   0.814   4.841  0.0593 -0.7439  0.4304
 6456SOL     OW30826   4.685   3.689   3.138  0.0645  0.1777 -0.0473
 6456SOL    HW130827   0.009   3.772   3.135  0.4608 -0.0345  0.3504
 6456SOL    HW230828   4.658   3.686   3.047 -0.7326  0.7811  0.1749
 6457SOL     OW30829   0.322   1.475   9.520  0.4166  0.4444  0.3631
 6457SOL    HW130830   0.336   1.567   9.495 -0.2249  0.1971 -0.9350
 6457SOL    HW230831   0.227   1.482   9.522  0.4468  0.3324  2.1095
 6458SOL     OW30832   0.104   4.045   4.683  0.5303  0.1050  0.0881
 6458SOL    HW130833   0.051   4.107   4.634  1.4440  1.2438  0.5329
 6458SOL    HW230834   0.051   3.977   4.724 -1.3150  0.0794 -2.3839
 6459SOL     OW30835   2.191   3.661   7.943 -0.5581 -0.5813  0.0796
 6459SOL    HW130836   2.131   3.587   7.936 -1.0558 -0.0780 -0.8859
 6459SOL    HW230837   2.234   3.633   8.024  0.4007  0.7399  0.0237
 6460SOL     OW30838   0.906   3.191   5.094 -0.0354 -0.0162 -0.4639
 6460SOL    HW130839   0.923   3.236   5.177  0.4038 -0.6870 -0.1844
 6460SOL    HW230840   0.911   3.098   5.120 -1.1261  0.1290  0.2742
 6461SOL     OW30841   2.469   1.191   6.634 -0.2597  0.2999  0.1223
 6461SOL    HW130842   2.434   1.280   6.645 -1.9010 -0.1823 -1.2244
 6461SOL    HW230843   2.508   1.187   6.721  0.3819  0.9681 -0.1311
 6462SOL     OW30844   2.276   2.458  16.057 -0.0769  0.2913  0.6864
 6462SOL    HW130845   2.278   2.552  16.072 -1.8356  0.4150  0.1892
 6462SOL    HW230846   2.341   2.431  16.122 -0.7146 -0.5484  0.9774
 6463SOL     OW30847   0.935   1.588  14.709  0.0897 -0.0357  0.2843
 6463SOL    HW130848   1.002   1.649  14.740 -0.1696 -0.8045  2.3811
 6463SOL    HW230849   0.864   1.644  14.679 -1.3641 -2.0008  0.0580
 6464SOL     OW30850   0.733   3.744  16.476 -0.7640 -0.3538 -0.2004
 6464SOL    HW130851   0.712   3.653  16.497  0.9259 -0.9418 -1.0483
 6464SOL    HW230852   0.648   3.785  16.461 -0.7448  0.3917  1.7498
 6465SOL     OW30853   0.072   1.963   6.004 -0.0758 -0.2806 -0.3784
 6465SOL    HW130854   0.108   2.044   6.040  1.6260 -0.9596 -0.5530
 6465SOL    HW230855   0.082   1.984   5.911 -1.4406  0.5861 -0.3321
 6466SOL     OW30856   2.634   3.254  14.044 -0.1139 -0.3273 -0.6351
 6466SOL    HW130857   2.658   3.314  13.973 -0.4936  0.0488 -0.4477
 6466SOL    HW230858   2.710   3.258  14.102 -1.4981  2.4550  0.9759
 6467SOL     OW30859   1.353   3.548  14.791 -0.1540  0.3988 -0.1150
 6467SOL    HW130860   1.440   3.558  14.829 -0.7962  3.4222  0.5062
 6467SOL    HW230861   1.291   3.537  14.862  0.7980  0.6541  0.7547
 6468SOL     OW30862   2.580   2.741   9.262 -0.6067 -0.1589  0.3840
 6468SOL    HW130863   2.577   2.818   9.205  1.2458 -1.2763 -1.2316
 6468SOL    HW230864   2.504   2.695   9.229 -1.8646  1.7493  0.6324
 6469SOL     OW30865   0.054   3.439   5.136  0.1486 -0.4448  0.1118
 6469SOL    HW130866   0.137   3.481   5.111  0.5830 -1.9589 -0.9571
 6469SOL    HW230867   0.061   3.367   5.073 -4.2176 -0.5013 -0.2887
 6470SOL     OW30868   2.127   3.654   5.672  0.0348 -0.1363 -0.4826
 6470SOL    HW130869   2.194   3.611   5.619  2.2014  0.4614  1.7684
 6470SOL    HW230870   2.047   3.620   5.632  0.2342 -1.5936  0.3724
 6471SOL     OW30871   1.793   2.499   2.987  0.5131 -0.3379  0.4814
 6471SOL    HW130872   1.887   2.480   2.988  0.3323 -1.2569 -0.4544
 6471SOL    HW230873   1.776   2.521   2.895 -1.3953 -0.0860  0.8852
 6472SOL     OW30874   4.497   2.507   8.050  0.5590  0.1942  0.9834
 6472SOL    HW130875   4.403   2.516   8.036  0.5309  0.0955  1.1052
 6472SOL    HW230876   4.500   2.412   8.062  1.2772  0.1454  0.4373
 6473SOL     OW30877   4.691   0.844   2.335 -0.7081 -0.6279  0.1153
 6473SOL    HW130878   0.026   0.892   2.278 -0.1905  0.6280  1.6998
 6473SOL    HW230879   4.702   0.763   2.286  2.9220 -0.3597  0.5116
 6474SOL     OW30880   0.975   1.506  10.343 -0.6281 -0.2140 -0.1575
 6474SOL    HW130881   1.038   1.454  10.292  0.3336 -0.9643  1.8109
 6474SOL    HW230882   0.894   1.478  10.301 -1.6031 -0.9602  2.2366
 6475SOL     OW30883   4.152   2.340  15.234  0.6316 -0.3697  0.0297
 6475SOL    HW130884   4.193   2.278  15.173 -0.8185  0.0095 -1.3200
 6475SOL    HW230885   4.192   2.317  15.318  2.1885  0.1595 -0.5655
 6476SOL     OW30886   1.955   2.893   5.950 -0.9132  0.6848 -0.2720
 6476SOL    HW130887   1.900   2.817   5.968  0.0817 -0.3689 -1.6479
 6476SOL    HW230888   1.904   2.965   5.986 -0.8405  0.1748  0.8596
 6477SOL     OW30889   1.191   3.014   8.997  0.1485  0.3847  0.1552
 6477SOL    HW130890   1.111   3.026   8.946  2.1780  1.5689 -2.7843
 6477SOL    HW230891   1.239   2.970   8.926 -3.0003 -0.5887 -1.3644
 6478SOL     OW30892   3.188   3.736   2.771  0.2887 -0.1848  0.1405
 6478SOL    HW130893   3.232   3.725   2.855  0.2579 -1.9851 -0.0774
 6478SOL    HW230894   3.138   3.654   2.775  1.3369 -0.9610 -2.5720
 6479SOL     OW30895   0.053   0.717  10.722 -0.2075  0.0830  1.0859
 6479SOL    HW130896   4.712   0.647  10.730 -0.0717 -0.3070 -1.1178
 6479SOL    HW230897   0.021   0.736  10.634  0.2678  1.8531  1.3070
 6480SOL     OW30898   2.419   0.089   6.718 -0.7481  0.1596 -0.0106
 6480SOL    HW130899   2.482   0.122   6.654 -1.3359 -0.7930 -1.0673
 6480SOL    HW230900   2.471   0.085   6.798  3.2538  0.0510 -2.6459
 6481SOL     OW30901   3.484   1.889   4.195  0.1846  0.7843 -0.0578
 6481SOL    HW130902   3.509   1.975   4.160  1.4067  1.1610  1.7320
 6481SOL    HW230903   3.572   1.857   4.214  0.4763  1.0958 -0.8691
 6482SOL     OW30904   2.735   2.108   8.140  0.2532 -0.3984 -0.0464
 6482SOL    HW130905   2.763   2.063   8.060 -1.1145  0.3268 -0.9355
 6482SOL    HW230906   2.812   2.146   8.182 -2.9874  5.4841  0.6301
 6483SOL     OW30907   3.087   3.210   3.333  0.1222 -0.1386  0.0178
 6483SOL    HW130908   3.161   3.271   3.329 -1.2129  1.4962  0.1558
 6483SOL    HW230909   3.016   3.260   3.292  0.4834 -0.3382 -0.8455
 6484SOL     OW30910   1.934   0.945   4.155  0.8151 -0.6797 -0.0936
 6484SOL    HW130911   2.012   0.890   4.157  1.5494  0.3423 -0.9105
 6484SOL    HW230912   1.898   0.919   4.070  1.5836  1.2212 -0.9914
 6485SOL     OW30913   4.233   4.463  13.341 -0.0592 -0.2011 -0.3978
 6485SOL    HW130914   4.224   4.383  13.393 -0.7204  0.8955  1.1680
 6485SOL    HW230915   4.328   4.467  13.338  0.0493 -4.4839 -3.1891
 6486SOL     OW30916   2.892   2.848  16.384 -0.8262  0.4778  0.2314
 6486SOL    HW130917   2.874   2.933  16.423 -1.9769 -0.0591  0.8686
 6486SOL    HW230918   2.954   2.871  16.315 -1.4998  1.1348 -0.1512
 6487SOL     OW30919   4.244   2.398   7.024  0.3862  0.4913  0.2062
 6487SOL    HW130920   4.275   2.309   7.040 -0.3870 -0.2293 -2.4518
 6487SOL    HW230921   4.330   2.442   7.022  0.3674  0.3935 -1.9490
 6488SOL     OW30922   2.142   3.404  14.846 -0.1846 -0.3368 -0.3612
 6488SOL    HW130923   2.125   3.328  14.791 -0.5807 -0.7275  0.2983
 6488SOL    HW230924   2.053   3.422  14.875 -0.8952 -2.4426 -1.2461
 6489SOL     OW30925   0.794   1.601   3.657  0.5626 -0.1822 -0.1888
 6489SOL    HW130926   0.888   1.588   3.667  0.6689 -0.2331 -1.2314
 6489SOL    HW230927   0.765   1.519   3.697 -0.0027  0.6855  1.1473
 6490SOL     OW30928   0.090   2.568   2.695 -0.2666  0.3289  0.1625
 6490SOL    HW130929   0.085   2.486   2.743 -1.1119  0.7207  0.7607
 6490SOL    HW230930   0.184   2.578   2.684 -0.7007  1.1894 -2.5521
 6491SOL     OW30931   1.729   0.452   0.139 -0.4428 -0.0796 -0.2341
 6491SOL    HW130932   1.656   0.392   0.152 -0.2543 -0.1524  0.5191
 6491SOL    HW230933   1.715   0.471   0.046  0.9120 -1.1671 -0.6620
 6492SOL     OW30934   1.525   3.119  17.007 -0.3917  0.3270 -0.1215
 6492SOL    HW130935   1.617   3.143  16.995 -0.4393  0.2164 -0.7050
 6492SOL    HW230936   1.483   3.192  16.963  0.2044 -0.2693 -1.6685
 6493SOL     OW30937   1.611   1.647  14.910 -0.1865  0.2072 -0.0626
 6493SOL    HW130938   1.656   1.571  14.947 -0.6366 -0.0007  0.0630
 6493SOL    HW230939   1.676   1.713  14.934 -0.7833  0.2025  1.5829
 6494SOL     OW30940   2.266   1.658   4.473 -0.6060  0.1879 -0.0883
 6494SOL    HW130941   2.279   1.702   4.389 -0.0333 -2.4593 -1.3535
 6494SOL    HW230942   2.291   1.568   4.454 -0.3454 -0.0058  1.2056
 6495SOL     OW30943   1.659   1.553  10.016 -0.6453 -0.3060  0.4525
 6495SOL    HW130944   1.662   1.640   9.976  0.1833 -0.3864  0.3477
 6495SOL    HW230945   1.693   1.573  10.103  0.3415  1.2519 -0.2947
 6496SOL     OW30946   1.088   0.637   8.314  0.0159 -0.1579  0.3986
 6496SOL    HW130947   1.181   0.642   8.336 -0.6770  5.6679  2.0642
 6496SOL    HW230948   1.087   0.559   8.259  0.0948  0.7494 -0.9025
 6497SOL     OW30949   0.022   1.115  15.310 -0.0287 -0.1180 -0.0424
 6497SOL    HW130950   4.720   1.025  15.290  0.4335 -0.7676  2.2796
 6497SOL    HW230951   4.658   1.140  15.339 -0.0556  1.3805 -1.3796
 6498SOL     OW30952   3.716   1.213   2.241 -0.8790  0.1089 -0.2123
 6498SOL    HW130953   3.776   1.287   2.251 -2.0766  0.9648  0.6249
 6498SOL    HW230954   3.775   1.161   2.186 -1.3475  1.5666 -2.1010
 6499SOL     OW30955   2.487   4.658   0.605  0.2351  0.0118 -0.5331
 6499SOL    HW130956   2.512   4.666   0.697  0.1882  0.6944 -0.5782
 6499SOL    HW230957   2.468   0.025   0.583  2.0704  0.3852 -0.6235
 6500SOL     OW30958   3.642   0.171   6.508  0.0854 -0.6478 -0.2005
 6500SOL    HW130959   3.586   0.178   6.430  1.9482 -0.8650 -1.5736
 6500SOL    HW230960   3.730   0.174   6.471  0.4206 -0.1931  0.6350
 6501SOL     OW30961   0.830   2.304   9.300 -0.2517  0.1315  0.4054
 6501SOL    HW130962   0.924   2.317   9.289  0.0713 -0.8545  2.0729
 6501SOL    HW230963   0.787   2.339   9.222  0.4052 -2.1266 -0.9766
 6502SOL     OW30964   3.296   2.334   4.837  0.3967  0.2786 -0.5523
 6502SOL    HW130965   3.290   2.250   4.884  0.4141  0.3983 -0.3371
 6502SOL    HW230966   3.241   2.320   4.760  0.0213  1.2471 -0.4641
 6503SOL     OW30967   2.340   1.283   7.492  0.0824  0.3761 -0.5381
 6503SOL    HW130968   2.292   1.219   7.545  2.9385 -1.1949  0.1203
 6503SOL    HW230969   2.265   1.339   7.472 -0.9245  0.0141  2.2173
 6504SOL     OW30970   0.106   3.192   5.299  0.3168 -0.2196  0.1209
 6504SOL    HW130971   0.148   3.189   5.213  1.5399 -2.3362  0.8019
 6504SOL    HW230972   0.182   3.169   5.351  0.8905  0.0962 -0.5725
 6505SOL     OW30973   0.913   3.214  14.406  0.1873 -0.8252 -0.2247
 6505SOL    HW130974   0.833   3.168  14.429  1.6488 -1.9786  2.6320
 6505SOL    HW230975   0.878   3.295  14.369 -2.5079 -0.3766  3.3248
 6506SOL     OW30976   2.270   4.503   4.792 -0.3377 -0.6046  0.3631
 6506SOL    HW130977   2.329   4.507   4.867 -0.1373 -0.4845  0.2020
 6506SOL    HW230978   2.275   4.412   4.763 -1.4536 -0.7432  0.6435
 6507SOL     OW30979   3.332   0.631   2.352 -0.6320  0.3932  0.0531
 6507SOL    HW130980   3.300   0.541   2.339  2.8816 -0.7544 -0.6455
 6507SOL    HW230981   3.263   0.671   2.299 -0.7471  0.1789  0.0388
 6508SOL     OW30982   2.527   2.479   6.561 -0.3423 -0.2743 -0.2936
 6508SOL    HW130983   2.549   2.431   6.641  3.4186  2.9092  0.5860
 6508SOL    HW230984   2.497   2.410   6.502  0.0738 -0.0387 -0.7719
 6509SOL     OW30985   3.825   4.162   4.718 -0.2706 -0.7144 -0.5613
 6509SOL    HW130986   3.782   4.077   4.706 -0.3760 -0.6395 -0.7026
 6509SOL    HW230987   3.803   4.192   4.806  0.3060 -0.9897 -0.3188
 6510SOL     OW30988   1.344   1.216   2.961  0.2995  0.2942  0.2166
 6510SOL    HW130989   1.351   1.296   3.013  0.9312 -1.5053  2.8694
 6510SOL    HW230990   1.255   1.181   2.972  0.2663  0.6688  1.0947
 6511SOL     OW30991   3.008   3.251   0.084 -0.1776 -0.3166  0.1392
 6511SOL    HW130992   3.063   3.294   0.018 -0.0346 -0.4196  0.1932
 6511SOL    HW230993   3.000   3.317   0.153 -1.4990  0.3749 -0.6546
 6512SOL     OW30994   2.163   0.421   3.388 -0.1039 -0.0641  0.5301
 6512SOL    HW130995   2.106   0.475   3.333  1.2856  0.6863 -0.1659
 6512SOL    HW230996   2.104   0.398   3.459  0.3394  0.6244  1.1154
 6513SOL     OW30997   0.979   3.757   4.558 -0.0071 -0.2393 -0.0826
 6513SOL    HW130998   1.013   3.723   4.641  3.1848  0.8242 -0.9757
 6513SOL    HW230999   0.896   3.709   4.561  0.1013 -0.3632  0.8191
 6514SOL     OW31000   3.263   3.831   1.424 -0.7117  0.1025 -0.3851
 6514SOL    HW131001   3.324   3.814   1.496 -0.6239  0.1158 -0.4568
 6514SOL    HW231002   3.268   3.747   1.378  1.4291  0.1586 -0.2361
 6515SOL     OW31003   2.643   3.321   6.383 -1.0499 -0.4526 -0.0434
 6515SOL    HW131004   2.634   3.354   6.293 -0.0932  0.5221  0.2098
 6515SOL    HW231005   2.689   3.396   6.421  1.8622 -1.7151 -1.0498
 6516SOL     OW31006   2.687   2.446  16.338 -0.0634  0.6407 -0.0646
 6516SOL    HW131007   2.663   2.539  16.341  2.6305  1.2998  1.4555
 6516SOL    HW231008   2.687   2.405  16.424  0.8540 -0.4251 -0.5643
 6517SOL     OW31009   4.669   1.378   4.738  0.0991 -1.1543 -0.0769
 6517SOL    HW131010   4.660   1.409   4.648 -0.5301  0.4711  0.5465
 6517SOL    HW231011   4.688   1.284   4.737  0.6359 -1.0639  1.0773
 6518SOL     OW31012   3.196   0.464   8.076 -0.3348  0.3618 -0.8447
 6518SOL    HW131013   3.207   0.557   8.096 -2.9838  0.4385  0.2120
 6518SOL    HW231014   3.254   0.423   8.141 -0.9156 -0.2540 -0.7168
 6519SOL     OW31015   0.296   4.450   5.238 -0.2865 -0.1259 -0.1018
 6519SOL    HW131016   0.326   4.528   5.285  0.1435 -0.6347  0.4656
 6519SOL    HW231017   0.215   4.439   5.288  0.1698 -2.5853  0.0948
 6520SOL     OW31018   4.143   4.228  13.466  0.5952  0.0938 -0.6651
 6520SOL    HW131019   4.118   4.176  13.543 -1.0113  1.1389 -0.4879
 6520SOL    HW231020   4.190   4.170  13.406 -0.0709 -0.2830 -0.8323
 6521SOL     OW31021   1.098   0.879   2.634 -0.3451 -0.0116 -0.0187
 6521SOL    HW131022   1.040   0.844   2.567 -0.7556  0.0053  0.3329
 6521SOL    HW231023   1.159   0.931   2.580 -0.7817 -0.2952 -0.7871
 6522SOL     OW31024   1.156   1.900  17.120  0.5134  0.1196  0.5783
 6522SOL    HW131025   1.189   1.830  17.064 -0.6680 -1.6099  2.0130
 6522SOL    HW231026   1.241   1.938  17.144 -0.0191  2.0113 -0.5925
 6523SOL     OW31027   3.431   2.953  16.150  0.2322  0.1411 -0.1582
 6523SOL    HW131028   3.482   2.872  16.149  0.0121 -0.0383  2.9673
 6523SOL    HW231029   3.399   2.959  16.060  0.9247 -1.0362 -0.4921
 6524SOL     OW31030   1.244   0.800   7.499  0.5303 -0.0353 -0.2283
 6524SOL    HW131031   1.196   0.863   7.446  1.1055 -0.4059 -1.1939
 6524SOL    HW231032   1.265   0.849   7.579 -1.7522  0.3862  0.0924
 6525SOL     OW31033   0.024   4.211   4.346  0.0331  0.2555 -0.5052
 6525SOL    HW131034   4.721   4.126   4.382 -2.1893  1.9259  1.7838
 6525SOL    HW231035   4.668   4.264   4.349 -0.4445 -0.5438  1.1554
 6526SOL     OW31036   2.866   3.615  16.550 -0.2519  0.0017  0.0067
 6526SOL    HW131037   2.847   3.537  16.602  1.8500 -1.5436 -1.5323
 6526SOL    HW231038   2.779   3.643  16.521 -0.1940  1.5959  1.3728
 6527SOL     OW31039   0.789   1.980   8.243 -0.0453  0.0845 -0.8534
 6527SOL    HW131040   0.775   2.043   8.172 -0.6081  0.7074 -0.1995
 6527SOL    HW231041   0.745   2.029   8.313 -0.6323  0.9184 -1.7988
 6528SOL     OW31042   0.007   0.033   5.563 -0.0160 -0.0427  0.0666
 6528SOL    HW131043   4.720   0.018   5.470  1.6037  0.4409 -0.2002
 6528SOL    HW231044   4.642   0.004   5.586 -0.6940  0.6112 -1.7692
 6529SOL     OW31045   0.941   2.788   9.090 -0.5003 -0.4512  0.3598
 6529SOL    HW131046   0.881   2.802   9.163  0.3465  1.3916  0.7169
 6529SOL    HW231047   1.020   2.775   9.143 -0.0164  1.5886  0.1543
 6530SOL     OW31048   2.200   2.827   3.435 -0.2480  0.3081 -0.4978
 6530SOL    HW131049   2.179   2.819   3.528  1.3125 -0.3631 -0.2173
 6530SOL    HW231050   2.270   2.762   3.432 -0.3341  0.2094 -0.3588
 6531SOL     OW31051   0.509   0.294   8.297 -0.3478 -0.3970 -0.2827
 6531SOL    HW131052   0.481   0.227   8.235  2.2039  0.0993 -1.9658
 6531SOL    HW231053   0.501   0.375   8.247 -1.2172 -1.3419 -1.6836
 6532SOL     OW31054   4.470   3.329   0.208  0.0337  0.1226  0.6281
 6532SOL    HW131055   4.564   3.342   0.216 -0.0142  1.1162 -0.3780
 6532SOL    HW231056   4.467   3.313   0.113 -1.9090 -0.0045  0.7121
 6533SOL     OW31057   2.424   2.098   3.539 -0.4110 -0.4659  0.3507
 6533SOL    HW131058   2.494   2.048   3.582  0.2937  0.2493  0.0510
 6533SOL    HW231059   2.476   2.168   3.499  1.5842 -3.1135 -1.7350
 6534SOL     OW31060   1.511   3.447  10.533  0.2944 -0.1803 -0.5746
 6534SOL    HW131061   1.481   3.377  10.476  2.2736 -1.6488  0.1822
 6534SOL    HW231062   1.592   3.477  10.492 -0.5620 -0.6388 -2.5675
 6535SOL     OW31063   2.623   3.287   2.609 -0.6707 -0.2287  0.4376
 6535SOL    HW131064   2.689   3.219   2.622 -1.0954 -1.2297 -2.7088
 6535SOL    HW231065   2.659   3.336   2.535 -0.7781 -0.3554  0.3032
 6536SOL     OW31066   1.743   1.778   1.767 -0.4246 -0.2894  0.3988
 6536SOL    HW131067   1.671   1.785   1.705  1.6768  3.1851 -1.6523
 6536SOL    HW231068   1.687   1.781   1.845 -0.2675 -3.6905  0.6244
 6537SOL     OW31069   0.932   2.819   9.516  0.3290  0.2732  0.4840
 6537SOL    HW131070   0.903   2.779   9.434 -0.2831 -0.1352  0.9033
 6537SOL    HW231071   1.024   2.797   9.504 -0.4970 -3.0725  0.1712
 6538SOL     OW31072   1.179   4.190   5.743 -0.5172 -0.4295  0.9478
 6538SOL    HW131073   1.136   4.233   5.817 -0.9293  1.5509 -0.4359
 6538SOL    HW231074   1.256   4.246   5.731 -0.2463 -1.4687 -2.1936
 6539SOL     OW31075   3.451   0.249   3.332  0.4919 -0.1030  0.3114
 6539SOL    HW131076   3.366   0.290   3.315  0.1828 -1.3624 -1.2302
 6539SOL    HW231077   3.510   0.295   3.272 -0.1846 -0.0581 -0.3244
 6540SOL     OW31078   4.509   1.529   2.961  0.1428 -0.1635  0.0513
 6540SOL    HW131079   4.579   1.559   3.018  1.6255 -0.5623 -1.5723
 6540SOL    HW231080   4.423   1.547   3.000  0.7981  0.8581  1.0217
 6541SOL     OW31081   2.386   2.766   1.491  0.2801  0.2221  0.1264
 6541SOL    HW131082   2.299   2.757   1.529 -0.0361 -0.5220 -0.7786
 6541SOL    HW231083   2.444   2.708   1.541  2.8427  0.0430 -3.0515
 6542SOL     OW31084   0.315   2.593   2.232  0.4829 -0.4608 -0.3961
 6542SOL    HW131085   0.401   2.627   2.258  1.2117 -2.6168 -0.0023
 6542SOL    HW231086   0.257   2.664   2.259  1.1816  0.6938 -1.9900
 6543SOL     OW31087   0.502   1.865  16.248 -0.0745 -0.6124 -0.0842
 6543SOL    HW131088   0.409   1.890  16.242  0.4157  1.1456 -0.6203
 6543SOL    HW231089   0.504   1.770  16.242  0.4470 -0.4910 -1.7959
 6544SOL     OW31090   4.177   3.666   3.441 -0.1909  0.1094  0.0629
 6544SOL    HW131091   4.215   3.750   3.416  1.6847 -1.6416 -3.0078
 6544SOL    HW231092   4.159   3.631   3.354 -1.7025 -3.1556  1.6952
 6545SOL     OW31093   3.537   0.932   8.239  0.1019 -0.1267  0.3107
 6545SOL    HW131094   3.450   0.967   8.221  0.2833 -0.6916 -1.6533
 6545SOL    HW231095   3.570   1.017   8.270 -0.7862 -1.3312  4.5798
 6546SOL     OW31096   3.392   1.167  13.578  0.1607  0.1480  0.1901
 6546SOL    HW131097   3.318   1.131  13.627  0.7608 -1.7965 -0.3082
 6546SOL    HW231098   3.454   1.186  13.649 -0.5399 -1.4870  1.2499
 6547SOL     OW31099   0.661   3.450   2.628  0.1733 -0.0170 -0.0018
 6547SOL    HW131100   0.667   3.357   2.607 -1.7905 -0.2119  0.2575
 6547SOL    HW231101   0.629   3.481   2.544 -1.7199  1.6008  1.3104
 6548SOL     OW31102   2.437   4.535  10.743 -0.1039  0.0117  0.6528
 6548SOL    HW131103   2.466   4.444  10.748 -0.6054 -0.2609 -1.3472
 6548SOL    HW231104   2.402   4.561  10.828  1.1588  0.8631  0.9161
 6549SOL     OW31105   2.568   3.607   3.458 -0.0997 -0.6898 -0.3258
 6549SOL    HW131106   2.654   3.565   3.459  0.1086 -0.1898  1.6291
 6549SOL    HW231107   2.591   3.682   3.403 -3.9998 -0.6021 -1.8843
 6550SOL     OW31108   0.041   3.648   7.112 -0.1786 -0.4446  0.1867
 6550SOL    HW131109   0.080   3.623   7.196  1.6208 -0.0868 -0.5481
 6550SOL    HW231110   0.043   3.743   7.125 -0.7707 -0.3960 -0.0498
 6551SOL     OW31111   1.732   3.309  11.886  0.0148  0.1219 -0.0802
 6551SOL    HW131112   1.685   3.231  11.917  1.2810 -0.7366 -0.3358
 6551SOL    HW231113   1.817   3.278  11.854 -0.0459  0.0117 -0.1369
 6552SOL     OW31114   2.994   3.704   3.105 -0.1955 -0.3126  0.6932
 6552SOL    HW131115   3.007   3.663   3.191 -1.8170 -0.2592  0.9626
 6552SOL    HW231116   3.033   3.790   3.124 -0.9587 -0.0410  1.0442
 6553SOL     OW31117   1.754   3.943   8.138 -0.4329 -0.3813 -0.5998
 6553SOL    HW131118   1.842   3.963   8.172 -1.5962 -0.7646  2.6969
 6553SOL    HW231119   1.778   3.881   8.070  0.8448  0.5723 -1.0201
 6554SOL     OW31120   2.744   0.444   5.257 -0.3585 -0.1657  0.5392
 6554SOL    HW131121   2.681   0.391   5.306 -0.4066 -1.8316 -1.3023
 6554SOL    HW231122   2.702   0.447   5.171 -0.4663 -0.0439  0.5957
 6555SOL     OW31123   4.550   4.483   7.526  0.1013 -0.0355 -0.1376
 6555SOL    HW131124   4.547   4.579   7.527  0.5126 -0.0257  0.3563
 6555SOL    HW231125   4.594   4.471   7.610 -2.2516 -0.6550  0.9968
 6556SOL     OW31126   0.811   0.713   6.300 -0.0009 -0.3178  0.3442
 6556SOL    HW131127   0.767   0.632   6.325 -0.9632  0.9531  2.8312
 6556SOL    HW231128   0.758   0.736   6.223  0.6277  0.9043  0.2629
 6557SOL     OW31129   1.915   2.522   3.285 -0.1859 -0.6602 -0.4749
 6557SOL    HW131130   1.863   2.500   3.363  0.6306 -2.6940 -0.5081
 6557SOL    HW231131   1.960   2.440   3.265  2.0189  1.1108 -2.7436
 6558SOL     OW31132   1.692   2.148   2.555  0.1541  0.1874  0.5239
 6558SOL    HW131133   1.708   2.164   2.462  0.1972 -0.8178  0.3554
 6558SOL    HW231134   1.726   2.227   2.597  1.9544 -0.0630 -0.4491
 6559SOL     OW31135   1.803   2.381   2.644  0.0399  0.0273 -0.1605
 6559SOL    HW131136   1.801   2.461   2.696 -0.0254 -0.6690  0.9036
 6559SOL    HW231137   1.753   2.405   2.566  0.3108  0.1328 -0.3055
 6560SOL     OW31138   4.298   0.907  11.517  0.1763  0.3744  0.3436
 6560SOL    HW131139   4.291   0.946  11.430  0.7941 -0.0883  0.0870
 6560SOL    HW231140   4.394   0.904  11.526  0.1679  2.2280  1.0174
 6561SOL     OW31141   3.097   0.919  15.920  0.0770 -0.2108 -0.1056
 6561SOL    HW131142   3.127   0.842  15.969 -0.9031 -0.3260  0.3087
 6561SOL    HW231143   3.008   0.925  15.954  0.8602  0.4817  1.7861
 6562SOL     OW31144   1.004   3.128   0.005  0.0245  0.6673  0.4996
 6562SOL    HW131145   1.080   3.074  17.680 -1.6543 -2.1539  1.5620
 6562SOL    HW231146   1.018   3.215  17.665  2.7915 -0.3960 -0.9426
 6563SOL     OW31147   3.564   2.251   9.080 -0.1367  0.1511 -0.1714
 6563SOL    HW131148   3.545   2.246   9.174 -1.8034 -2.9680 -0.6658
 6563SOL    HW231149   3.639   2.311   9.082 -0.8513  1.0701 -1.1590
 6564SOL     OW31150   2.471   2.200   2.673  0.3255  0.1026 -0.1570
 6564SOL    HW131151   2.491   2.292   2.655  1.3402 -0.3698 -1.4299
 6564SOL    HW231152   2.480   2.168   2.583  1.8935 -0.5675  0.2520
 6565SOL     OW31153   2.008   2.730  10.122 -1.2383 -0.3612 -0.2851
 6565SOL    HW131154   2.094   2.721  10.164 -1.8721  3.0325  1.7834
 6565SOL    HW231155   2.032   2.708  10.032 -1.5180  0.3214 -0.5296
 6566SOL     OW31156   4.302   4.196   4.305 -0.4337 -0.0095  0.0438
 6566SOL    HW131157   4.246   4.265   4.271 -0.2934  0.6466  1.1390
 6566SOL    HW231158   4.229   4.146   4.342  0.9764 -1.2586  1.1324
 6567SOL     OW31159   2.388   1.003   1.332 -0.4393 -0.1477  0.2340
 6567SOL    HW131160   2.389   1.046   1.246 -0.2448  1.3872  1.0033
 6567SOL    HW231161   2.471   0.955   1.329 -0.3178 -0.0376  2.4892
 6568SOL     OW31162   3.195   1.680   7.219  0.0717 -0.0519  0.4202
 6568SOL    HW131163   3.117   1.623   7.218 -0.2991  0.4051  2.9948
 6568SOL    HW231164   3.249   1.612   7.178 -1.3737 -0.3637 -0.9605
 6569SOL     OW31165   0.275   2.179  10.313  0.4523 -0.7028 -0.4073
 6569SOL    HW131166   0.331   2.108  10.344  0.1590 -0.3769  0.8800
 6569SOL    HW231167   0.198   2.128  10.289 -1.4861  0.0496  4.1444
 6570SOL     OW31168   4.665   4.334   3.966 -0.1892  0.5688  0.6357
 6570SOL    HW131169   4.571   4.320   3.973 -0.2307  0.3300 -0.4841
 6570SOL    HW231170   4.697   4.270   4.029 -0.8232  0.1187  0.5031
 6571SOL     OW31171   3.832   4.327   5.070  0.8399  0.3783  0.1501
 6571SOL    HW131172   3.761   4.366   5.019  1.1558 -0.0888 -0.6483
 6571SOL    HW231173   3.872   4.406   5.106  1.4048 -0.2652  0.9585
 6572SOL     OW31174   4.247   4.168   5.234 -0.0445 -0.3195  0.5996
 6572SOL    HW131175   4.336   4.161   5.270  0.2675 -0.6620 -0.2296
 6572SOL    HW231176   4.187   4.160   5.308  2.5628 -1.9136  2.5644
 6573SOL     OW31177   4.358   2.270   5.483 -0.5040 -0.1765  0.6186
 6573SOL    HW131178   4.338   2.310   5.568 -2.0327 -1.7239  0.9817
 6573SOL    HW231179   4.302   2.193   5.480  1.7694 -1.8155  0.3142
 6574SOL     OW31180   3.437   3.310   8.731 -0.0194 -0.2868 -0.1174
 6574SOL    HW131181   3.348   3.323   8.699  0.1956 -4.7098 -2.5734
 6574SOL    HW231182   3.432   3.338   8.822 -1.0371  1.1301 -0.6044
 6575SOL     OW31183   1.445   3.978  10.273 -0.1475 -1.1915 -0.2863
 6575SOL    HW131184   1.496   3.925  10.212 -0.3374 -0.2185 -1.2920
 6575SOL    HW231185   1.455   3.928  10.354 -0.5600  0.6187  0.8887
 6576SOL     OW31186   2.932   0.818   3.522  0.1902 -0.1638  0.6183
 6576SOL    HW131187   2.931   0.772   3.606 -0.0324 -2.2287 -0.5126
 6576SOL    HW231188   2.852   0.870   3.531 -0.2716 -0.7507 -0.1494
 6577SOL     OW31189   4.403   1.778   6.148 -0.0407  0.0423 -0.2684
 6577SOL    HW131190   4.351   1.843   6.099 -0.2420  0.4017  0.4248
 6577SOL    HW231191   4.487   1.818   6.126 -0.0306 -1.8785 -3.6813
 6578SOL     OW31192   1.476   2.129   4.906 -0.1960 -0.0714  0.8526
 6578SOL    HW131193   1.436   2.176   4.979 -0.4353  0.1808  0.5594
 6578SOL    HW231194   1.558   2.179   4.911 -1.2666  1.7397  0.2919
 6579SOL     OW31195   1.869   2.330   6.651  0.2671 -0.6207 -0.4397
 6579SOL    HW131196   1.934   2.268   6.617  0.7127 -0.7277  0.6118
 6579SOL    HW231197   1.892   2.408   6.600 -2.9883 -0.6460 -1.9229
 6580SOL     OW31198   3.229   2.306  12.368 -0.3363 -0.1624 -0.2186
 6580SOL    HW131199   3.177   2.353  12.434 -1.0028 -2.0032  0.5781
 6580SOL    HW231200   3.220   2.357  12.287  1.9447 -1.1114 -1.0468
 6581SOL     OW31201   1.247   0.091   6.937 -0.1404  0.4769  0.0314
 6581SOL    HW131202   1.205   0.177   6.939 -0.6225  0.2284  0.6229
 6581SOL    HW231203   1.272   0.075   7.028 -2.4749 -0.1891  0.5437
 6582SOL     OW31204   3.247   2.842  12.197  0.3484  0.6592 -0.4412
 6582SOL    HW131205   3.197   2.888  12.129  1.6647 -0.0400 -1.8712
 6582SOL    HW231206   3.220   2.898  12.270  1.1105  0.0911  0.2746
 6583SOL     OW31207   2.787   3.333   4.403  0.0137 -0.0304 -0.1546
 6583SOL    HW131208   2.880   3.354   4.418 -0.8487  2.1995  2.0957
 6583SOL    HW231209   2.755   3.418   4.375 -2.1459  0.0096  2.4821
 6584SOL     OW31210   0.766   0.234   3.027 -0.1739  0.0087 -0.2884
 6584SOL    HW131211   0.752   0.258   2.935  3.1735  1.9024 -0.3206
 6584SOL    HW231212   0.859   0.252   3.042 -0.3812  0.6669  0.2239
 6585SOL     OW31213   1.425   1.718  15.674 -0.3046  0.4544  0.2893
 6585SOL    HW131214   1.509   1.763  15.675  0.0455 -0.2093  0.5939
 6585SOL    HW231215   1.411   1.682  15.762 -0.7807  1.1807  0.5199
 6586SOL     OW31216   2.750   2.391   2.688  0.2787 -1.0391 -0.4920
 6586SOL    HW131217   2.741   2.320   2.624 -0.4628 -2.0494  0.7218
 6586SOL    HW231218   2.841   2.380   2.715  0.6100  1.1559 -0.7122
 6587SOL     OW31219   0.964   0.055   4.660  0.0640  1.5080  0.4564
 6587SOL    HW131220   0.916   4.697   4.678  0.8484  1.4109  2.0810
 6587SOL    HW231221   1.009   0.065   4.744  0.7417 -1.8050  0.5039
 6588SOL     OW31222   0.620   0.875   9.010 -0.5607 -0.2117  0.2613
 6588SOL    HW131223   0.598   0.958   9.051  0.1337  0.7528 -1.2881
 6588SOL    HW231224   0.533   0.865   8.973  0.1633 -1.1705 -1.2113
 6589SOL     OW31225   0.078   1.569   5.263 -0.3901  0.1525 -0.4280
 6589SOL    HW131226   0.123   1.582   5.347  0.9933 -0.4887 -1.0602
 6589SOL    HW231227   4.713   1.543   5.285 -0.0042 -1.2921 -0.5684
 6590SOL     OW31228   3.397   2.084   8.072 -0.4969  0.2728 -0.2005
 6590SOL    HW131229   3.441   2.040   8.145  2.5439  1.0229 -1.5842
 6590SOL    HW231230   3.370   2.164   8.118 -0.8417  0.2978 -0.4530
 6591SOL     OW31231   1.124   0.787   3.324  0.0151 -0.6341  0.1537
 6591SOL    HW131232   1.167   0.806   3.408  1.1260 -2.1709 -0.0782
 6591SOL    HW231233   1.174   0.713   3.291 -0.4915 -1.0250  0.2696
 6592SOL     OW31234   3.200   1.790   8.669  1.2896 -0.5653 -0.3931
 6592SOL    HW131235   3.178   1.870   8.717  1.6292 -0.2869 -0.6993
 6592SOL    HW231236   3.120   1.772   8.619  2.5951  0.4394 -2.8498
 6593SOL     OW31237   4.041   2.266   5.644 -0.3426  0.2798 -0.3122
 6593SOL    HW131238   3.982   2.285   5.572 -1.5366 -0.0943  0.5674
 6593SOL    HW231239   4.072   2.354   5.666  0.9582  0.2021 -1.8355
 6594SOL     OW31240   0.411   4.150   8.926 -0.0785  0.6161  0.5015
 6594SOL    HW131241   0.343   4.209   8.894  0.6571  0.9560 -0.4338
 6594SOL    HW231242   0.486   4.209   8.922 -0.0748  0.5413 -0.3733
 6595SOL     OW31243   0.365   2.059   5.128  0.2525 -0.3610 -0.3063
 6595SOL    HW131244   0.318   2.071   5.211  2.5396 -0.7920  1.0434
 6595SOL    HW231245   0.339   1.971   5.102  0.6014 -0.5127 -0.1477
 6596SOL     OW31246   0.434   3.714   2.915  0.6306 -0.0412  0.6594
 6596SOL    HW131247   0.504   3.740   2.975  0.0578  1.9544  0.4794
 6596SOL    HW231248   0.478   3.705   2.831 -1.8879  1.4897 -0.8208
 6597SOL     OW31249   0.216   3.786  13.285  0.0855 -0.2827  0.2148
 6597SOL    HW131250   0.296   3.774  13.234 -0.1860 -1.2523  0.0097
 6597SOL    HW231251   0.151   3.775  13.215 -0.0962  2.5287 -0.0490
 6598SOL     OW31252   3.468   2.658   6.121 -0.6583  0.6113 -0.0394
 6598SOL    HW131253   3.385   2.696   6.093 -1.7790  0.8506  3.5602
 6598SOL    HW231254   3.524   2.735   6.129  0.6239 -0.2247 -0.9837
 6599SOL     OW31255   2.952   2.152   5.128  0.0015  0.2110  0.1281
 6599SOL    HW131256   2.948   2.245   5.106 -0.0173  0.5478  1.5479
 6599SOL    HW231257   3.028   2.128   5.075 -1.0343 -1.5721 -0.5264
 6600SOL     OW31258   1.593   3.360  17.498  0.0920 -0.0672  0.1163
 6600SOL    HW131259   1.561   3.294  17.436 -1.1105  0.6966 -0.0550
 6600SOL    HW231260   1.521   3.350  17.559  0.7239  1.3247  1.0895
 6601SOL     OW31261   3.627   2.879   6.103 -0.0111  0.3774 -0.4595
 6601SOL    HW131262   3.642   2.900   6.010  0.3082  1.6278 -0.1242
 6601SOL    HW231263   3.591   2.962   6.135 -0.6270 -0.8988  2.1504
 6602SOL     OW31264   1.070   4.018  17.394 -0.1925  0.5765  0.1985
 6602SOL    HW131265   1.085   3.926  17.416  1.9385  1.0084  0.6244
 6602SOL    HW231266   1.038   4.008  17.305  0.3949 -0.7293  0.1323
 6603SOL     OW31267   1.690   2.420   2.409  0.5222  0.4656  0.3618
 6603SOL    HW131268   1.704   2.339   2.359 -3.4245 -1.9170  3.1722
 6603SOL    HW231269   1.673   2.482   2.338  0.0062  0.8647  0.8361
 6604SOL     OW31270   2.699   0.896  17.137  0.2173  0.5303 -0.3211
 6604SOL    HW131271   2.685   0.801  17.133 -3.5618  1.0330  0.7568
 6604SOL    HW231272   2.743   0.924  17.057 -1.8547  0.2855 -1.5261
 6605SOL     OW31273   2.973   4.424  13.688  0.1203 -0.3023 -0.0013
 6605SOL    HW131274   3.004   4.498  13.741 -0.0722 -0.0450 -0.2498
 6605SOL    HW231275   2.949   4.356  13.750 -0.8533 -1.4839 -1.6909
 6606SOL     OW31276   0.504   4.382   4.456  0.0286 -0.5139  0.0005
 6606SOL    HW131277   0.412   4.363   4.439  0.5348 -2.3621 -0.6232
 6606SOL    HW231278   0.508   4.473   4.426  0.1907  0.0190  1.6033
 6607SOL     OW31279   3.851   1.097   0.141 -0.0836  0.1178  0.0813
 6607SOL    HW131280   3.874   1.169   0.200  2.6586  0.0702 -0.9635
 6607SOL    HW231281   3.907   1.106   0.064  0.3819 -1.0515  0.2916
 6608SOL     OW31282   1.441   3.182  15.606  0.3358  0.2389  0.4694
 6608SOL    HW131283   1.468   3.133  15.528  3.2332  0.0283  1.5834
 6608SOL    HW231284   1.528   3.188  15.646  0.3289  3.2438  0.0309
 6609SOL     OW31285   4.458   3.023   3.816  0.2962 -0.1153 -0.0086
 6609SOL    HW131286   4.536   3.061   3.775  0.5359 -0.9106 -0.2907
 6609SOL    HW231287   4.453   3.080   3.892 -0.1179  1.6144 -1.3455
 6610SOL     OW31288   4.694   4.551   8.741  0.1639  0.0425  0.4308
 6610SOL    HW131289   0.003   4.618   8.801 -0.1502  0.7193 -0.1502
 6610SOL    HW231290   4.653   4.613   8.680  0.2253 -0.4281 -0.0907
 6611SOL     OW31291   1.747   1.270   1.613 -0.0485  0.0016 -0.6641
 6611SOL    HW131292   1.830   1.224   1.602  0.9772  1.5468  0.7052
 6611SOL    HW231293   1.782   1.346   1.659  1.7710 -1.5388  0.4686
 6612SOL     OW31294   1.451   1.926   3.264  0.8880  0.2193  0.3661
 6612SOL    HW131295   1.542   1.902   3.280  1.0439  1.4617  1.3408
 6612SOL    HW231296   1.452   2.015   3.301  1.4435  0.8034 -1.0368
 6613SOL     OW31297   4.661   1.394   5.725  0.0266 -0.3693  0.2407
 6613SOL    HW131298   4.593   1.338   5.687  0.0430  0.2775 -0.7373
 6613SOL    HW231299   4.658   1.364   5.816 -1.5130 -0.9674 -0.0045
 6614SOL     OW31300   4.618   2.282   9.311 -0.0687  0.1865 -0.5872
 6614SOL    HW131301   4.525   2.299   9.324  0.1161  0.0938  0.8849
 6614SOL    HW231302   4.625   2.186   9.311 -2.1243  0.0489 -1.1516
 6615SOL     OW31303   1.036   0.868   7.118 -0.0476 -0.0699  0.1592
 6615SOL    HW131304   1.010   0.808   7.049  0.0835  0.1768 -0.1057
 6615SOL    HW231305   1.126   0.876   7.085  0.0643  2.7546  1.1376
 6616SOL     OW31306   4.300   2.361   0.426 -0.0694  0.0558  0.6126
 6616SOL    HW131307   4.254   2.418   0.365  0.2598 -0.2460  0.0854
 6616SOL    HW231308   4.392   2.373   0.402 -0.1863  0.4213  0.3572
 6617SOL     OW31309   2.222   3.625   5.235  0.1512  0.3141  0.8140
 6617SOL    HW131310   2.130   3.649   5.226 -0.0621 -1.1575 -0.9673
 6617SOL    HW231311   2.217   3.529   5.228  1.6962  0.3532 -0.8614
 6618SOL     OW31312   3.921   4.715   4.389 -0.2414 -0.4664 -0.0619
 6618SOL    HW131313   3.863   4.688   4.460 -0.6610 -1.4605 -0.7812
 6618SOL    HW231314   3.891   4.663   4.314  0.7958  0.5772 -1.2083
 6619SOL     OW31315   0.677   1.420  15.308  0.0565 -0.8497 -0.4545
 6619SOL    HW131316   0.674   1.467  15.225  2.4962 -1.2143 -0.7420
 6619SOL    HW231317   0.585   1.398  15.322 -0.5246  0.9350 -1.5527
 6620SOL     OW31318   2.601   0.621  14.789 -0.3784 -0.4808  0.4420
 6620SOL    HW131319   2.564   0.554  14.731 -0.5387 -1.4057  1.5972
 6620SOL    HW231320   2.601   0.696  14.730 -0.4903 -1.9521 -1.4186
 6621SOL     OW31321   4.462   3.643   3.667 -0.1941  0.0283  0.1298
 6621SOL    HW131322   4.415   3.693   3.734  0.2690  0.7862 -0.1085
 6621SOL    HW231323   4.401   3.572   3.644  1.3536 -1.4957  0.7920
 6622SOL     OW31324   1.894   0.881   2.974 -0.5636  0.9729 -0.1928
 6622SOL    HW131325   1.858   0.939   2.907 -1.7080 -0.3430 -0.7088
 6622SOL    HW231326   1.883   0.925   3.058  1.7786 -2.3733  1.9282
 6623SOL     OW31327   4.529   4.301  11.120 -0.2313 -0.2698  0.3304
 6623SOL    HW131328   4.624   4.292  11.120 -0.0767  1.2911 -0.1629
 6623SOL    HW231329   4.515   4.389  11.084 -0.4042 -0.0899  0.8434
 6624SOL     OW31330   4.154   2.742   6.509 -0.3584  0.2041 -0.7693
 6624SOL    HW131331   4.099   2.716   6.583 -1.4722 -1.2912 -2.1187
 6624SOL    HW231332   4.117   2.684   6.442  0.5491  0.6375 -1.6488
 6625SOL     OW31333   0.641   4.541   4.697  0.3819  0.1300 -0.0153
 6625SOL    HW131334   0.648   4.448   4.716 -0.3981 -0.1009 -0.8214
 6625SOL    HW231335   0.546   4.549   4.684  0.3019  2.1713  1.8699
 6626SOL     OW31336   0.336   3.371  12.155  0.1487  0.3311 -0.4186
 6626SOL    HW131337   0.386   3.440  12.112  1.6104 -0.4359  0.0229
 6626SOL    HW231338   0.260   3.414  12.195  0.7609 -0.6153  1.7947
 6627SOL     OW31339   0.266   3.356   2.643 -0.4757  0.0420 -0.4632
 6627SOL    HW131340   0.276   3.445   2.610 -0.0389 -0.3330 -1.3313
 6627SOL    HW231341   0.209   3.326   2.572 -2.7336  0.1027  1.3048
 6628SOL     OW31342   3.700   0.112   7.750  0.0508 -0.3469 -0.0881
 6628SOL    HW131343   3.617   0.081   7.713 -0.5866 -0.5287  1.5189
 6628SOL    HW231344   3.712   0.052   7.824  2.2882 -0.2611 -0.3664
 6629SOL     OW31345   1.091   2.421   2.449 -0.3182  0.6582 -0.4176
 6629SOL    HW131346   1.171   2.467   2.424 -1.3197  1.6841 -1.7287
 6629SOL    HW231347   1.077   2.375   2.366  1.6020  1.7109 -1.3172
 6630SOL     OW31348   4.661   1.149   4.966 -0.2048 -0.1083 -0.3297
 6630SOL    HW131349   4.645   1.088   4.894  1.7035 -0.2107 -0.6524
 6630SOL    HW231350   4.574   1.176   4.996  0.4063  0.6751  0.7215
 6631SOL     OW31351   3.377   3.939   3.601  0.2438 -0.2320 -0.2887
 6631SOL    HW131352   3.333   4.021   3.623 -0.9846 -1.2994  1.3152
 6631SOL    HW231353   3.388   3.901   3.688 -2.4578 -0.3199  0.0239
 6632SOL     OW31354   2.132   2.689   6.474  0.6080  0.3023  0.3477
 6632SOL    HW131355   2.213   2.704   6.521  1.5776 -0.7427 -0.9877
 6632SOL    HW231356   2.121   2.775   6.433 -0.0656 -1.2568 -2.7854
 6633SOL     OW31357   0.774   2.872  17.190 -0.3236  1.1652 -0.3178
 6633SOL    HW131358   0.792   2.845  17.280 -2.4132  1.0125  0.0578
 6633SOL    HW231359   0.738   2.789  17.157 -0.9282 -0.3460  4.2129
 6634SOL     OW31360   4.206   2.939   7.183  0.0614 -0.3351  0.3011
 6634SOL    HW131361   4.246   2.942   7.270  1.5257 -0.6147 -0.3633
 6634SOL    HW231362   4.149   2.864   7.197 -0.6481 -0.3628 -2.8483
 6635SOL     OW31363   1.466   4.461   5.133 -0.3075 -0.2510  0.8451
 6635SOL    HW131364   1.561   4.473   5.134 -0.3538  0.0707  1.3797
 6635SOL    HW231365   1.450   4.554   5.144 -0.9311 -0.0272 -1.8637
 6636SOL     OW31366   1.299   1.331   6.255  0.3481  0.4451 -0.4466
 6636SOL    HW131367   1.340   1.333   6.342  1.5759  2.1852 -1.0755
 6636SOL    HW231368   1.299   1.236   6.245 -0.8125  0.4509 -0.5079
 6637SOL     OW31369   2.721   0.908   8.981 -0.5093  0.3078 -0.4006
 6637SOL    HW131370   2.750   0.818   8.964 -0.0805  0.1637  1.0777
 6637SOL    HW231371   2.797   0.965   8.965  0.4666 -0.3560  1.7640
 6638SOL     OW31372   1.895   2.272  12.147 -0.2653  0.2614  0.1655
 6638SOL    HW131373   1.844   2.320  12.212 -1.0730  0.2148 -0.4277
 6638SOL    HW231374   1.988   2.278  12.169  0.0158 -1.1069 -0.6740
 6639SOL     OW31375   0.083   0.218   2.161  0.5188 -0.3995 -0.2091
 6639SOL    HW131376   0.082   0.235   2.066  0.8477 -0.7571 -0.2787
 6639SOL    HW231377   4.716   0.200   2.185  0.8499  1.2617  2.1795
 6640SOL     OW31378   2.807   4.263   3.791  0.0217  0.7486  0.1681
 6640SOL    HW131379   2.747   4.320   3.743 -2.0168 -1.3062  0.2651
 6640SOL    HW231380   2.866   4.237   3.719 -2.3092 -1.2080 -1.0565
 6641SOL     OW31381   1.975   2.939   2.827 -0.3168 -0.1598  0.1815
 6641SOL    HW131382   1.924   2.972   2.753  1.9180  0.9776 -0.8466
 6641SOL    HW231383   1.911   2.911   2.893 -0.3960 -1.1805 -0.3240
 6642SOL     OW31384   3.735   1.590  13.165 -0.0234 -0.2404  0.0758
 6642SOL    HW131385   3.805   1.640  13.123  0.6923  0.1308  1.7077
 6642SOL    HW231386   3.771   1.576  13.253 -2.3794  0.2027  1.1075
 6643SOL     OW31387   2.789   2.127   2.575  0.1747  0.1882 -0.3029
 6643SOL    HW131388   2.873   2.118   2.620  0.0527  1.2928  0.1573
 6643SOL    HW231389   2.746   2.047   2.605  0.3083 -0.1808 -1.1052
 6644SOL     OW31390   3.016   1.053   4.748  0.0595  0.3240 -0.2824
 6644SOL    HW131391   3.042   1.116   4.814 -1.5085 -0.4891  1.1080
 6644SOL    HW231392   3.044   1.096   4.667 -0.2724 -0.5687 -0.8852
 6645SOL     OW31393   2.612   4.582  11.359  0.1077 -0.5633  0.6099
 6645SOL    HW131394   2.625   4.625  11.274 -2.0139 -1.4460 -0.1661
 6645SOL    HW231395   2.672   4.507  11.361  1.3365  0.4499  1.3097
 6646SOL     OW31396   1.532   2.228  17.466  0.6515  0.0936 -0.9093
 6646SOL    HW131397   1.451   2.278  17.458 -0.2741 -0.6257  3.7732
 6646SOL    HW231398   1.508   2.154  17.411  0.3841 -1.7523  1.6938
 6647SOL     OW31399   4.449   4.156   7.341 -0.4585  0.5244  0.0441
 6647SOL    HW131400   4.475   4.245   7.320  3.0216  0.2585  3.2523
 6647SOL    HW231401   4.432   4.165   7.435 -0.5039  0.1330  0.0765
 6648SOL     OW31402   0.370   0.505   2.565  0.3788  0.2364  0.6643
 6648SOL    HW131403   0.295   0.474   2.616 -0.2593  0.8577  0.1073
 6648SOL    HW231404   0.411   0.551   2.638  0.1720  0.6231  0.5371
 6649SOL     OW31405   4.203   2.636  10.501 -0.6904  0.6114  0.5554
 6649SOL    HW131406   4.217   2.562  10.442 -0.5353  1.1424 -0.0736
 6649SOL    HW231407   4.291   2.667  10.523 -1.0033  2.8684 -1.3269
 6650SOL     OW31408   1.098   4.233  14.804 -0.0458  0.6463  0.0475
 6650SOL    HW131409   1.021   4.195  14.760 -0.9978  0.3467  2.0012
 6650SOL    HW231410   1.119   4.294  14.733  1.8038 -0.6857 -0.5420
 6651SOL     OW31411   3.619   3.862   4.986  0.6838  0.1484 -0.0019
 6651SOL    HW131412   3.636   3.768   4.977  2.7621  0.3670  1.6570
 6651SOL    HW231413   3.700   3.888   5.030  0.7315 -0.2872  0.1717
 6652SOL     OW31414   2.410   2.455  12.273 -0.1344 -0.6594  0.2007
 6652SOL    HW131415   2.381   2.541  12.242  2.5063  0.9119  2.1234
 6652SOL    HW231416   2.504   2.470  12.265 -0.2614  0.5931  1.0237
 6653SOL     OW31417   1.302   0.945   7.767 -0.2004 -0.3276  0.5138
 6653SOL    HW131418   1.257   0.961   7.850  2.9287  0.5389  2.0218
 6653SOL    HW231419   1.393   0.937   7.794 -0.8789  0.4003  2.9824
 6654SOL     OW31420   4.503   3.423   7.481 -0.1219  0.1954  0.0841
 6654SOL    HW131421   4.410   3.430   7.501 -0.0264  0.9084  0.2827
 6654SOL    HW231422   4.536   3.511   7.501 -0.7950  0.8706 -1.7635
 6655SOL     OW31423   2.548   2.294  17.381 -0.0104 -0.0728  0.0925
 6655SOL    HW131424   2.564   2.340  17.299 -1.0096 -1.5925 -0.9564
 6655SOL    HW231425   2.589   2.208  17.374 -0.3355  0.1063 -3.9937
 6656SOL     OW31426   1.384   1.518  11.108  0.2665  0.5237 -0.1307
 6656SOL    HW131427   1.441   1.531  11.031 -0.6349 -0.0984 -0.8995
 6656SOL    HW231428   1.303   1.538  11.060 -0.8694  0.1217  1.6467
 6657SOL     OW31429   2.726   2.522   9.118 -0.4493  0.0062 -0.2797
 6657SOL    HW131430   2.647   2.470   9.138 -1.4394  0.4939 -2.9852
 6657SOL    HW231431   2.709   2.608   9.156 -0.6118 -0.9540  1.8591
 6658SOL     OW31432   2.914   4.417   7.798 -0.3222 -0.5797  0.1532
 6658SOL    HW131433   2.987   4.357   7.783 -0.0704 -0.0438 -0.7594
 6658SOL    HW231434   2.853   4.386   7.732 -0.9120  0.8811  0.0070
 6659SOL     OW31435   0.158   3.551   7.361  0.4208 -0.0885 -0.1493
 6659SOL    HW131436   0.180   3.465   7.324  1.6537 -0.1760  0.8000
 6659SOL    HW231437   0.122   3.524   7.446  0.6856  1.3479  0.4075
 6660SOL     OW31438   1.242   0.660   5.756  0.1016 -0.1923 -0.5435
 6660SOL    HW131439   1.324   0.626   5.719  0.2244  0.1008 -0.5379
 6660SOL    HW231440   1.285   0.730   5.804  0.8676 -0.6432 -0.5659
 6661SOL     OW31441   0.929   3.974   7.266 -0.0481 -0.4929  0.6266
 6661SOL    HW131442   0.873   4.030   7.320 -0.3652  0.1714 -0.3851
 6661SOL    HW231443   1.008   3.989   7.319 -1.1979 -0.0473  2.2267
 6662SOL     OW31444   2.453   4.570   9.470  0.0376  0.3072  0.4038
 6662SOL    HW131445   2.547   4.584   9.461 -0.2110  1.8667  0.2349
 6662SOL    HW231446   2.427   4.632   9.402  0.2718 -0.3401 -0.2691
 6663SOL     OW31447   2.873   0.228   3.172 -0.2992 -0.7141 -0.0600
 6663SOL    HW131448   2.938   0.159   3.160  1.3168  0.5812  1.2831
 6663SOL    HW231449   2.803   0.200   3.113 -0.9092  0.4714  0.1023
 6664SOL     OW31450   2.831   2.695  16.043 -0.2797 -0.4122  0.4082
 6664SOL    HW131451   2.810   2.763  16.107 -1.5682 -0.8547  0.4636
 6664SOL    HW231452   2.742   2.667  16.021 -0.4004 -0.7842  1.3889
 6665SOL     OW31453   2.754   3.698   6.027  0.2256 -0.1348 -0.0028
 6665SOL    HW131454   2.848   3.690   6.044 -0.8069 -3.0478  4.4871
 6665SOL    HW231455   2.732   3.767   6.089 -1.4720  0.9088 -1.7779
 6666SOL     OW31456   1.791   3.172   1.512  0.1620 -0.0115  0.8044
 6666SOL    HW131457   1.855   3.147   1.446 -1.6883 -2.0847 -0.2324
 6666SOL    HW231458   1.704   3.176   1.472 -0.5541  1.2586  2.4895
 6667SOL     OW31459   3.850   2.997   4.497  0.5058 -0.3391 -0.2562
 6667SOL    HW131460   3.857   2.902   4.506  1.6068 -0.5568 -3.3812
 6667SOL    HW231461   3.847   3.013   4.402  1.2806  1.4952  0.0226
 6668SOL     OW31462   2.555   4.368   4.093  0.2507 -0.3190 -0.5364
 6668SOL    HW131463   2.550   4.351   3.999  0.0952 -2.9853 -0.0544
 6668SOL    HW231464   2.474   4.325   4.119  0.2787  0.1697  0.3883
 6669SOL     OW31465   3.783   4.160  15.275  1.0630 -0.1404  0.7374
 6669SOL    HW131466   3.766   4.125  15.187 -0.1196  3.8570 -0.6129
 6669SOL    HW231467   3.759   4.084  15.328 -1.0447 -0.9914 -1.4360
 6670SOL     OW31468   4.044   2.728   9.926 -0.4517 -0.0125  0.4046
 6670SOL    HW131469   4.015   2.668   9.858  1.5313  0.6977 -1.0481
 6670SOL    HW231470   3.995   2.801   9.890  1.1689  1.5202  1.2931
 6671SOL     OW31471   1.718   3.649   5.184  0.3153 -0.0446 -0.1586
 6671SOL    HW131472   1.698   3.740   5.161  0.2214 -0.1422 -0.4610
 6671SOL    HW231473   1.704   3.609   5.099  1.3619  1.6055 -1.1094
 6672SOL     OW31474   3.987   3.701   7.282  1.1237  0.8625  0.8782
 6672SOL    HW131475   4.060   3.678   7.225 -0.6812  0.8843 -1.4441
 6672SOL    HW231476   3.993   3.795   7.295 -4.6255  1.5024 -0.9958
 6673SOL     OW31477   2.547   1.373   9.837  0.1217  0.5093  0.5811
 6673SOL    HW131478   2.472   1.419   9.800 -0.1546 -1.0138 -0.7738
 6673SOL    HW231479   2.581   1.431   9.905  0.2499  1.0024  0.0968
 6674SOL     OW31480   4.007   1.630   7.188  0.3493  0.5092 -0.1501
 6674SOL    HW131481   4.008   1.564   7.256 -0.8308 -0.4461 -1.0710
 6674SOL    HW231482   3.956   1.701   7.227 -0.8651 -0.1784 -0.5117
 6675SOL     OW31483   1.514   0.285   6.414 -0.0223  0.4302  1.1773
 6675SOL    HW131484   1.555   0.228   6.479 -0.5093 -0.4081  0.7615
 6675SOL    HW231485   1.420   0.296   6.430 -0.2483  1.1826 -0.6664
 6676SOL     OW31486   0.211   4.103   9.276  0.3298  0.5864  0.6032
 6676SOL    HW131487   0.296   4.117   9.318  0.2381 -0.3419  1.0966
 6676SOL    HW231488   0.164   4.185   9.291  0.0602  0.1966  1.8881
 6677SOL     OW31489   3.882   0.123  14.199 -0.1185  0.3578  0.3846
 6677SOL    HW131490   3.897   0.186  14.128 -1.6635  1.0972  0.7296
 6677SOL    HW231491   3.798   0.080  14.185  0.5878 -0.4295 -1.4130
 6678SOL     OW31492   0.361   3.545   8.332  0.2059 -0.1974  0.3883
 6678SOL    HW131493   0.448   3.579   8.355 -1.0070  2.5284  1.0853
 6678SOL    HW231494   0.323   3.565   8.418 -1.1168 -0.2071 -0.1979
 6679SOL     OW31495   3.535   0.711  12.933  0.1610 -0.1562  0.0999
 6679SOL    HW131496   3.584   0.650  12.988 -1.6872 -1.7505 -0.0043
 6679SOL    HW231497   3.444   0.700  12.959  0.1467 -1.3008 -0.4390
 6680SOL     OW31498   1.001   1.374   8.684 -0.4014  0.0906 -0.5534
 6680SOL    HW131499   0.929   1.322   8.649  0.3778 -0.2001 -1.7452
 6680SOL    HW231500   1.018   1.316   8.758  0.6820 -0.6584 -1.3860
 6681SOL     OW31501   4.557   1.553  12.440 -0.5318 -0.4701 -0.1524
 6681SOL    HW131502   4.578   1.639  12.475 -2.7382 -0.7503  1.8060
 6681SOL    HW231503   4.479   1.571  12.388 -1.4102 -0.8976  1.0286
 6682SOL     OW31504   2.170   2.723  11.914 -0.1582 -0.0955  0.5046
 6682SOL    HW131505   2.139   2.633  11.906 -4.1278  1.2193  1.3431
 6682SOL    HW231506   2.238   2.710  11.980  1.2298 -0.5360 -0.9881
 6683SOL     OW31507   3.656   4.407  13.507  0.3650 -0.3067  0.1973
 6683SOL    HW131508   3.657   4.370  13.596 -0.1246  1.1636  0.8211
 6683SOL    HW231509   3.719   4.355  13.457 -1.3824 -0.5517 -1.7125
 6684SOL     OW31510   0.228   0.046   6.844 -0.4655  0.2193  0.0846
 6684SOL    HW131511   0.155   0.099   6.876 -0.2242  0.9708 -0.6088
 6684SOL    HW231512   0.228   0.037   6.749 -0.2076 -0.8303  0.1864
 6685SOL     OW31513   0.797   0.944   4.720  0.1943 -0.0917 -0.0434
 6685SOL    HW131514   0.871   0.883   4.712  1.7572  1.7328  0.4420
 6685SOL    HW231515   0.736   0.891   4.770  1.1250 -2.0264 -0.9599
 6686SOL     OW31516   2.812   1.057   5.028  0.1227  0.7411 -0.3339
 6686SOL    HW131517   2.894   1.104   5.033 -0.3464  1.5732 -0.5554
 6686SOL    HW231518   2.762   1.130   4.993  0.7634  1.1851 -0.3177
 6687SOL     OW31519   3.363   1.735  12.868  0.0324  0.6125 -0.4215
 6687SOL    HW131520   3.371   1.694  12.782  0.2911 -0.7146  0.2334
 6687SOL    HW231521   3.365   1.826  12.841  0.3143  1.6510  3.0872
 6688SOL     OW31522   0.797   0.478  17.682  0.3863 -0.6803 -0.7073
 6688SOL    HW131523   0.728   0.460   0.049 -0.7983 -1.3338 -2.1713
 6688SOL    HW231524   0.751   0.538  17.623 -1.0643 -0.6464  0.4906
 6689SOL     OW31525   2.951   3.469   5.629 -0.2610 -0.2884  0.3228
 6689SOL    HW131526   2.933   3.397   5.569  2.9395 -0.5367 -0.3562
 6689SOL    HW231527   2.920   3.545   5.579  1.3172  0.0115 -0.2122
 6690SOL     OW31528   0.417   4.427   5.535 -0.3734 -0.3003 -0.1295
 6690SOL    HW131529   0.451   4.387   5.455  2.0223  1.9409 -0.2519
 6690SOL    HW231530   0.370   4.356   5.578  1.2313 -0.0709  2.0176
 6691SOL     OW31531   1.088   1.006   7.970 -0.0971 -0.8734  0.1737
 6691SOL    HW131532   1.083   0.977   8.061  1.8374  0.0884  0.5873
 6691SOL    HW231533   1.101   1.100   7.983  1.3186 -0.9834 -0.4230
 6692SOL     OW31534   4.674   1.181   7.641  0.3064 -0.1677 -0.6033
 6692SOL    HW131535   0.011   1.174   7.567 -0.0490 -1.5809 -0.7621
 6692SOL    HW231536   0.021   1.189   7.705  1.5187 -1.4911 -1.7705
 6693SOL     OW31537   3.816   1.718  12.178 -0.4937 -0.6428  0.2803
 6693SOL    HW131538   3.853   1.647  12.126  1.3121  0.7284 -0.3081
 6693SOL    HW231539   3.802   1.790  12.117 -0.4155 -1.7501 -1.0512
 6694SOL     OW31540   0.304   1.385   4.657 -1.0061  0.9416  0.0670
 6694SOL    HW131541   0.239   1.316   4.672  1.0409 -0.9002  0.4301
 6694SOL    HW231542   0.377   1.345   4.610  0.1286  2.4379  0.5407
 6695SOL     OW31543   4.188   3.314   4.820  0.1360  0.1741 -0.1065
 6695SOL    HW131544   4.159   3.397   4.858 -1.1768 -0.1783 -0.3586
 6695SOL    HW231545   4.239   3.333   4.741 -1.0611  0.4416 -0.8114
 6696SOL     OW31546   0.678   3.039   6.757  0.0589  0.2421  0.0393
 6696SOL    HW131547   0.678   3.117   6.702 -0.4837 -0.9769 -1.6852
 6696SOL    HW231548   0.640   2.976   6.696  1.6024  0.5324 -1.2143
 6697SOL     OW31549   1.183   3.303   4.448 -0.6415 -0.7568 -0.3708
 6697SOL    HW131550   1.211   3.256   4.527  0.6983  0.3262 -0.2028
 6697SOL    HW231551   1.145   3.230   4.399 -1.6149 -0.5889  0.1368
 6698SOL     OW31552   1.670   3.245   0.829 -0.1029  0.2541 -0.5706
 6698SOL    HW131553   1.587   3.266   0.870  0.7234 -1.9660  2.2538
 6698SOL    HW231554   1.659   3.152   0.805  2.9204 -0.3879  0.5331
 6699SOL     OW31555   1.904   1.330  10.643  0.1434  0.1647  0.0364
 6699SOL    HW131556   1.837   1.296  10.702 -0.3299  0.9028 -0.0865
 6699SOL    HW231557   1.957   1.253  10.620 -1.0136 -1.1734  1.8663
 6700SOL     OW31558   0.402   0.572   4.702 -0.6055 -0.1005 -0.8225
 6700SOL    HW131559   0.474   0.525   4.658  2.1762 -0.3978  4.0875
 6700SOL    HW231560   0.458   0.607   4.770  0.0773 -3.6233  0.4408
 6701SOL     OW31561   1.889   4.647   6.062 -0.1641  0.2488  0.6690
 6701SOL    HW131562   1.928   4.567   6.096 -0.1124 -0.4713 -1.0757
 6701SOL    HW231563   1.824   4.677   6.125  1.8077  0.6046  2.5213
 6702SOL     OW31564   1.216   1.480   3.963 -0.1741 -0.7754  0.1905
 6702SOL    HW131565   1.215   1.391   3.928  1.7949 -1.7027  2.4647
 6702SOL    HW231566   1.143   1.472   4.025 -0.3173 -1.2676 -0.0433
 6703SOL     OW31567   2.582   0.516  15.283  0.4335  0.1373 -0.6442
 6703SOL    HW131568   2.564   0.604  15.317  0.9189 -0.2708  0.6814
 6703SOL    HW231569   2.650   0.481  15.342  0.2900 -2.1503 -1.8568
 6704SOL     OW31570   0.712   0.264  15.490  0.1955  0.1052 -0.7099
 6704SOL    HW131571   0.686   0.283  15.580  0.4975  1.2482 -0.8632
 6704SOL    HW231572   0.651   0.193  15.469 -0.5945 -0.2328  2.6302
 6705SOL     OW31573   4.232   1.225   8.645  0.9045 -0.4520  0.1011
 6705SOL    HW131574   4.167   1.244   8.712  0.6460 -1.0953  0.0301
 6705SOL    HW231575   4.220   1.130   8.642 -0.8477 -0.2770  1.7323
 6706SOL     OW31576   2.051   1.192   4.824  0.4913 -0.2258  0.3965
 6706SOL    HW131577   2.036   1.204   4.731 -0.8690 -1.0111  0.5222
 6706SOL    HW231578   2.145   1.174   4.814  0.4316  1.0699 -2.2497
 6707SOL     OW31579   3.301   1.734  14.586 -0.3670  0.3045 -0.0915
 6707SOL    HW131580   3.230   1.775  14.536 -0.1648 -1.4620 -1.8263
 6707SOL    HW231581   3.374   1.793  14.569  0.1986 -0.6949 -1.1426
 6708SOL     OW31582   0.621   4.479   8.370  0.8858  0.1371 -0.5946
 6708SOL    HW131583   0.540   4.504   8.326 -0.6406 -0.0732  2.1286
 6708SOL    HW231584   0.599   4.417   8.439 -2.9145  0.7205 -1.2772
 6709SOL     OW31585   1.328   2.805   7.594  0.5994 -0.3152  0.1749
 6709SOL    HW131586   1.265   2.813   7.522 -0.2977 -0.4671  0.9517
 6709SOL    HW231587   1.403   2.852   7.556  0.6360  0.5001  1.2747
 6710SOL     OW31588   2.605   0.125   7.193 -0.0656 -0.3900  0.5184
 6710SOL    HW131589   2.687   0.159   7.229  1.1678 -1.4954 -1.2640
 6710SOL    HW231590   2.540   0.183   7.233  0.6923  0.3341  0.6876
 6711SOL     OW31591   1.235   2.570  17.282  0.7655  0.3851 -0.4200
 6711SOL    HW131592   1.196   2.588  17.368 -0.8889  1.0284 -1.2882
 6711SOL    HW231593   1.270   2.484  17.304  0.6259  0.4793  0.1699
 6712SOL     OW31594   2.512   3.652   9.533 -0.0143 -0.2513  0.1360
 6712SOL    HW131595   2.573   3.601   9.480 -1.6166 -1.5225 -0.4743
 6712SOL    HW231596   2.446   3.643   9.465  0.6788  1.0719 -0.7105
 6713SOL     OW31597   2.421   3.208   1.983 -0.2344 -0.1632 -0.4439
 6713SOL    HW131598   2.361   3.157   1.928  1.0185  0.8519 -2.7693
 6713SOL    HW231599   2.447   3.144   2.049 -0.4945 -0.0328 -0.2170
 6714SOL     OW31600   3.057   1.950   4.626  0.0038 -0.8737 -0.3962
 6714SOL    HW131601   2.991   1.970   4.560 -0.2758  0.8573  0.4392
 6714SOL    HW231602   3.132   2.006   4.605 -0.7264  0.2229 -0.0570
 6715SOL     OW31603   2.187   2.989   0.992 -0.1660 -0.3640  0.1013
 6715SOL    HW131604   2.222   3.070   1.031 -0.5758 -1.0249  1.8024
 6715SOL    HW231605   2.175   3.025   0.904 -0.8775 -1.8958 -0.4050
 6716SOL     OW31606   4.610   1.699   7.582 -0.5427 -0.1048  0.1366
 6716SOL    HW131607   4.570   1.774   7.626 -1.0380 -0.1584 -0.2261
 6716SOL    HW231608   4.664   1.673   7.657  0.4410  1.3607 -0.0721
 6717SOL     OW31609   4.260   3.841   5.134 -0.4731 -0.1701  0.1450
 6717SOL    HW131610   4.176   3.817   5.173 -0.8667  1.0525  0.0409
 6717SOL    HW231611   4.239   3.835   5.041 -1.2198  0.3052  0.2853
 6718SOL     OW31612   3.583   3.551  17.470  0.0415 -0.0916 -0.1388
 6718SOL    HW131613   3.542   3.505  17.397 -0.2386  1.8467 -1.2167
 6718SOL    HW231614   3.515   3.615  17.494  0.0141 -0.0305 -0.3781
 6719SOL     OW31615   3.698   0.842  13.441 -0.0914  0.0654  0.3394
 6719SOL    HW131616   3.717   0.776  13.508  1.8756  0.3512  0.0518
 6719SOL    HW231617   3.703   0.780  13.368  0.8614  0.0095  0.4455
 6720SOL     OW31618   3.321   2.840   0.039 -0.0279  1.1248 -0.2403
 6720SOL    HW131619   3.317   2.759  17.686  0.7273  1.3333 -0.6327
 6720SOL    HW231620   3.234   2.882   0.039 -0.1848  0.7976  0.1667
 6721SOL     OW31621   3.948   0.038   5.351  0.2698 -0.2829 -0.7800
 6721SOL    HW131622   3.919   0.036   5.442 -0.7129 -0.0863 -1.0856
 6721SOL    HW231623   3.934   0.126   5.316 -0.5985  0.1116  0.5736
 6722SOL     OW31624   1.426   2.459   2.495  0.5894  0.9132 -0.2172
 6722SOL    HW131625   1.382   2.510   2.428  0.6062  2.0303  0.6093
 6722SOL    HW231626   1.509   2.441   2.452  1.4442  0.2653  1.6730
 6723SOL     OW31627   0.609   3.208   0.446 -0.6416  0.5515  0.2444
 6723SOL    HW131628   0.562   3.155   0.510 -1.9703  0.0159 -1.1814
 6723SOL    HW231629   0.626   3.292   0.489  1.0118  0.8117 -0.9292
 6724SOL     OW31630   1.944   2.798   1.928 -0.9925  0.0295 -0.3750
 6724SOL    HW131631   1.969   2.874   1.874  1.6657 -0.4318  0.1890
 6724SOL    HW231632   1.966   2.829   2.016  0.7015 -0.2691 -0.6883
 6725SOL     OW31633   4.448   4.557  11.812  0.1759  0.7259  0.5103
 6725SOL    HW131634   4.486   4.504  11.742 -0.0719  0.4425  0.5881
 6725SOL    HW231635   4.370   4.586  11.764  0.7962  0.4898 -0.6377
 6726SOL     OW31636   3.738   2.576   4.765  0.1850  0.1473 -0.0859
 6726SOL    HW131637   3.706   2.662   4.794  4.1326  1.5646  0.0965
 6726SOL    HW231638   3.781   2.531   4.838  0.1188 -2.4669 -1.6430
 6727SOL     OW31639   3.779   1.629   5.748 -0.1389  0.0213  0.1158
 6727SOL    HW131640   3.739   1.643   5.662 -0.4848  1.9895  0.6036
 6727SOL    HW231641   3.764   1.534   5.753  1.4655 -0.2930 -1.3484
 6728SOL     OW31642   0.261   4.034   2.939 -0.2648  0.0358  0.0382
 6728SOL    HW131643   0.302   4.118   2.921  0.1904 -0.4295 -1.0503
 6728SOL    HW231644   0.345   3.990   2.951  0.0272 -0.2625 -3.2995
 6729SOL     OW31645   4.063   0.597  17.357  0.0965  0.2394  0.0538
 6729SOL    HW131646   4.109   0.616  17.275 -0.3764 -3.2260 -1.0226
 6729SOL    HW231647   4.071   0.502  17.366 -1.9170  0.1404  0.7719
 6730SOL     OW31648   3.849   4.271   1.859  0.8169 -0.5349 -0.5151
 6730SOL    HW131649   3.848   4.175   1.863  0.2824 -0.3463  3.9366
 6730SOL    HW231650   3.912   4.280   1.787 -0.2727 -3.1271 -1.8175
 6731SOL     OW31651   2.255   1.514   3.885 -0.1551  1.1029  0.1326
 6731SOL    HW131652   2.311   1.455   3.935 -2.6736 -0.0228  1.6136
 6731SOL    HW231653   2.176   1.497   3.936 -0.0250  0.0238 -0.0355
 6732SOL     OW31654   4.630   3.986   4.426 -0.3752  0.0488 -0.2103
 6732SOL    HW131655   4.564   3.948   4.367 -1.6693  1.7099  0.1622
 6732SOL    HW231656   4.595   3.931   4.496 -2.4143  0.0814 -1.2069
 6733SOL     OW31657   3.417   2.381   8.416 -0.4325 -0.1062  0.0429
 6733SOL    HW131658   3.443   2.358   8.327 -1.4125  0.3079 -0.3542
 6733SOL    HW231659   3.376   2.299   8.442 -0.3090  0.2462  1.3448
 6734SOL     OW31660   4.471   1.477   7.344  0.1560 -0.0474 -0.4344
 6734SOL    HW131661   4.410   1.445   7.410 -0.8769  2.6572 -0.1080
 6734SOL    HW231662   4.499   1.399   7.295  0.2964  0.3171 -0.9327
 6735SOL     OW31663   2.902   4.507   8.595 -0.0476 -0.2387  0.0142
 6735SOL    HW131664   2.993   4.508   8.567 -0.6910  3.3950 -1.9929
 6735SOL    HW231665   2.892   4.596   8.628  1.7141  0.4089 -1.1997
 6736SOL     OW31666   0.815   0.514   9.315  0.3553 -0.1704 -0.2373
 6736SOL    HW131667   0.831   0.503   9.221  1.4338  2.4390 -0.3569
 6736SOL    HW231668   0.787   0.605   9.319 -0.9998 -0.5859 -0.2716
 6737SOL     OW31669   3.643   3.390   3.072  0.5961  0.0229 -0.2928
 6737SOL    HW131670   3.607   3.367   2.987  0.3444 -2.0327  0.3671
 6737SOL    HW231671   3.733   3.412   3.048  0.3649  0.4021 -0.8125
 6738SOL     OW31672   3.981   2.120   5.306  0.4386  0.7107  0.1194
 6738SOL    HW131673   4.040   2.047   5.325 -0.6785  0.3215  2.0857
 6738SOL    HW231674   4.026   2.151   5.227 -0.2596 -2.6490 -1.5912
 6739SOL     OW31675   2.277   3.661   8.225  0.2108 -0.4827  0.2149
 6739SOL    HW131676   2.232   3.715   8.290 -1.0664 -2.2272  0.7930
 6739SOL    HW231677   2.363   3.643   8.262  1.3332 -0.8718 -2.6485
 6740SOL     OW31678   1.234   0.072  13.184 -0.1597  0.8519 -0.3311
 6740SOL    HW131679   1.246   0.068  13.278 -2.0345 -0.4160 -0.1362
 6740SOL    HW231680   1.304   0.010  13.165  0.0515  0.7647  0.7558
 6741SOL     OW31681   1.561   0.544   7.278 -0.4909  0.0824  0.1228
 6741SOL    HW131682   1.608   0.467   7.247 -0.6423 -0.3270  0.9034
 6741SOL    HW231683   1.631   0.610   7.274  0.0330 -0.3669  2.0561
 6742SOL     OW31684   2.630   3.018   0.955  0.4615  0.1121  0.3101
 6742SOL    HW131685   2.560   3.020   0.890  0.0874 -2.7971  0.6380
 6742SOL    HW231686   2.625   2.923   0.965 -0.3099  0.2138  0.9793
 6743SOL     OW31687   1.883   0.364   8.539 -0.0648  0.3738 -0.5027
 6743SOL    HW131688   1.821   0.433   8.563  0.5580  0.6574  0.2515
 6743SOL    HW231689   1.834   0.330   8.463 -0.3952  0.3270 -0.2704
 6744SOL     OW31690   0.546   1.037   6.014 -0.3808 -0.0802  0.1496
 6744SOL    HW131691   0.589   1.052   5.929 -1.3000 -1.9329 -0.6385
 6744SOL    HW231692   0.470   1.093   5.998 -1.6755 -2.0021 -0.4138
 6745SOL     OW31693   1.121   1.533   9.377  0.1989 -0.0020  0.6289
 6745SOL    HW131694   1.130   1.482   9.297  0.9877  1.6614 -0.3299
 6745SOL    HW231695   1.026   1.545   9.376  0.1629 -0.3635 -0.0758
 6746SOL     OW31696   2.776   4.410   6.420  0.1980  0.1409  0.0799
 6746SOL    HW131697   2.734   4.486   6.460 -0.1792  1.0250 -1.9883
 6746SOL    HW231698   2.715   4.338   6.432  0.8680 -0.4748 -0.2372
 6747SOL     OW31699   2.411   2.246   7.737  0.2659  0.4419 -0.6596
 6747SOL    HW131700   2.354   2.322   7.734 -1.2122 -0.6371  0.5408
 6747SOL    HW231701   2.493   2.296   7.747  0.9359 -0.7360 -0.2721
 6748SOL     OW31702   2.642   1.321   9.237 -0.1218 -0.2299  0.0039
 6748SOL    HW131703   2.615   1.338   9.327  1.2167 -2.5937  0.8509
 6748SOL    HW231704   2.644   1.226   9.231  2.0803 -0.3146  1.9567
 6749SOL     OW31705   2.169   3.032   6.615  0.3033 -0.5817  0.2234
 6749SOL    HW131706   2.176   3.053   6.522  0.7361  0.7929  0.5716
 6749SOL    HW231707   2.219   3.107   6.646 -1.5293  1.3910 -1.6163
 6750SOL     OW31708   0.543   0.271   2.186 -0.3455 -0.3171  0.0457
 6750SOL    HW131709   0.586   0.185   2.183  1.9314  0.8475 -0.6898
 6750SOL    HW231710   0.621   0.324   2.201  1.3865 -2.2838 -1.8373
 6751SOL     OW31711   1.598   2.889   5.385  0.3564  0.4523  0.0811
 6751SOL    HW131712   1.653   2.876   5.463 -0.8775 -3.5255  0.3357
 6751SOL    HW231713   1.616   2.979   5.361  2.6730 -0.1650 -0.5284
 6752SOL     OW31714   1.024   2.473   6.752  0.7711  0.2104  0.2377
 6752SOL    HW131715   1.080   2.532   6.702  1.2430 -1.8198 -1.6447
 6752SOL    HW231716   0.948   2.529   6.769 -0.2131 -1.8244  2.3783
 6753SOL     OW31717   3.023   1.557   6.223 -0.1945 -0.1433  0.1650
 6753SOL    HW131718   3.081   1.540   6.298  1.5067  0.3181 -1.0349
 6753SOL    HW231719   3.091   1.540   6.158 -0.4047 -1.9148  0.4303
 6754SOL     OW31720   2.343   3.573  13.697 -0.2499  0.2126  0.2919
 6754SOL    HW131721   2.252   3.600  13.689 -0.6219 -0.9842  0.5370
 6754SOL    HW231722   2.386   3.645  13.651 -0.1780 -1.6328 -2.4795
 6755SOL     OW31723   1.602   2.706   9.285  0.1407 -0.4827  0.4581
 6755SOL    HW131724   1.630   2.696   9.194 -0.4126 -3.0269  0.5748
 6755SOL    HW231725   1.509   2.689   9.271 -0.0962 -0.1429  1.6466
 6756SOL     OW31726   3.664   4.233   1.168 -0.2328 -0.9826  0.4562
 6756SOL    HW131727   3.700   4.149   1.139 -0.3994 -0.7787 -0.3481
 6756SOL    HW231728   3.715   4.292   1.112 -0.5815 -2.6356 -1.6033
 6757SOL     OW31729   1.500   0.007   4.873  0.3971  0.6191 -0.3438
 6757SOL    HW131730   1.580   0.052   4.900  0.1722 -0.0455  1.4497
 6757SOL    HW231731   1.526   4.639   4.862  0.8798  0.6276  0.7613
 6758SOL     OW31732   1.928   4.357   9.434 -0.3395 -0.3992  0.0510
 6758SOL    HW131733   1.927   4.266   9.404 -0.7864 -0.7691  1.1780
 6758SOL    HW231734   2.017   4.352   9.468 -0.7333  0.2294  1.1800
 6759SOL     OW31735   0.855   1.075  14.478 -0.0184 -0.0784 -0.3685
 6759SOL    HW131736   0.878   1.165  14.500 -0.6329  0.1401 -0.6381
 6759SOL    HW231737   0.818   1.084  14.390  0.2457  0.8164 -0.3845
 6760SOL     OW31738   1.192   3.917  11.215  0.4942  0.3923 -0.9195
 6760SOL    HW131739   1.178   3.990  11.156 -0.8010  0.8459 -0.0324
 6760SOL    HW231740   1.140   3.860  11.158  0.8581 -0.1421 -0.7271
 6761SOL     OW31741   1.411   1.123  12.412 -0.0759 -0.3154  0.0369
 6761SOL    HW131742   1.375   1.184  12.476  1.4094 -0.2020  0.7563
 6761SOL    HW231743   1.329   1.076  12.398 -0.8522  1.6959 -2.2125
 6762SOL     OW31744   1.944   1.708   3.902 -0.4399  0.0461 -0.1615
 6762SOL    HW131745   1.978   1.658   3.828 -0.9826  1.1778 -1.1844
 6762SOL    HW231746   1.878   1.753   3.850  0.6842  0.9711 -0.7959
 6763SOL     OW31747   2.217   3.747   1.645 -0.2210  0.1323 -0.4477
 6763SOL    HW131748   2.298   3.777   1.605  0.8588  0.1269  1.7706
 6763SOL    HW231749   2.155   3.770   1.575  0.1212 -0.1412 -0.8408
 6764SOL     OW31750   0.896   4.251   8.923  0.4270  0.5150 -0.4732
 6764SOL    HW131751   0.880   4.182   8.858 -0.5266  0.8008 -0.5443
 6764SOL    HW231752   0.945   4.196   8.985  3.3723  0.7096 -2.6457
 6765SOL     OW31753   1.073   1.741   6.020  0.1902  0.0656  0.4823
 6765SOL    HW131754   1.081   1.746   5.924 -1.0443  0.6439  0.4090
 6765SOL    HW231755   0.986   1.704   6.037  0.9742 -1.6216  0.7903
 6766SOL     OW31756   0.290   3.107   5.074  0.3972 -0.1158  0.1330
 6766SOL    HW131757   0.289   3.024   5.122  1.8407  0.3076  0.9187
 6766SOL    HW231758   0.383   3.115   5.050  0.3891 -0.4630 -0.0134
 6767SOL     OW31759   0.983   3.745   4.851 -0.0437  0.4942 -0.0003
 6767SOL    HW131760   0.899   3.698   4.853 -1.3472  2.7497 -2.0928
 6767SOL    HW231761   0.961   3.824   4.900 -1.3620 -0.3427  0.7568
 6768SOL     OW31762   1.918   1.210   8.256  0.1079 -0.2168 -0.0256
 6768SOL    HW131763   1.949   1.141   8.315 -1.4699 -1.8224 -1.0793
 6768SOL    HW231764   1.868   1.267   8.313  1.0490  1.0309 -0.4293
 6769SOL     OW31765   2.794   1.464   6.001 -0.8010  0.5401 -0.2613
 6769SOL    HW131766   2.722   1.428   5.950 -2.7724  1.7802  1.6439
 6769SOL    HW231767   2.765   1.553   6.017  0.0455  0.4003  2.1928
 6770SOL     OW31768   2.849   1.618  12.373  0.4799  0.4699  0.0833
 6770SOL    HW131769   2.808   1.619  12.286  1.1433 -1.2922 -0.2333
 6770SOL    HW231770   2.940   1.640  12.352  0.8769  0.8149  2.1630
 6771SOL     OW31771   2.301   2.936   5.043  0.3238  0.7715 -0.1579
 6771SOL    HW131772   2.323   2.968   5.130  1.1528  0.6812 -0.3402
 6771SOL    HW231773   2.367   2.867   5.040  0.6004  0.9782  1.0454
 6772SOL     OW31774   2.276   3.362  15.099 -0.0280 -0.3689  0.5443
 6772SOL    HW131775   2.265   3.456  15.111  3.6499  0.2437 -0.9467
 6772SOL    HW231776   2.251   3.350  15.007  1.1267 -3.2401  0.5882
 6773SOL     OW31777   1.488   2.342   4.674 -0.5532 -0.0418 -0.4408
 6773SOL    HW131778   1.502   2.436   4.661  2.4389 -0.6738 -1.8756
 6773SOL    HW231779   1.458   2.339   4.765  0.6040  1.6270 -0.0056
 6774SOL     OW31780   0.079   3.959   3.132  0.0453  0.2166  0.2945
 6774SOL    HW131781   0.145   4.005   3.080 -0.1254  0.8915  0.6801
 6774SOL    HW231782   0.125   3.943   3.214  1.1572  1.7064 -0.0461
 6775SOL     OW31783   1.142   3.754   3.588 -0.9196 -0.6103 -0.0819
 6775SOL    HW131784   1.220   3.748   3.533 -1.0879 -1.7055 -0.1909
 6775SOL    HW231785   1.166   3.701   3.664  2.1536  0.3588 -0.3803
 6776SOL     OW31786   1.602   0.229   2.696 -0.4471  0.2685 -0.5072
 6776SOL    HW131787   1.565   0.318   2.700 -0.7562  0.0475  1.8012
 6776SOL    HW231788   1.607   0.219   2.601  2.6974  1.5718 -0.4917
 6777SOL     OW31789   2.466   2.594  16.720 -0.3875  0.1798  0.7503
 6777SOL    HW131790   2.400   2.622  16.783  1.4203  4.5663  0.7429
 6777SOL    HW231791   2.524   2.539  16.773  0.2420 -1.1277 -1.2822
 6778SOL     OW31792   0.147   4.560   1.569 -0.8700  0.2376  0.1055
 6778SOL    HW131793   0.076   4.584   1.508 -0.0545 -0.4652 -1.1153
 6778SOL    HW231794   0.120   4.599   1.652 -0.7620  0.6788 -0.0695
 6779SOL     OW31795   0.137   0.073   4.218 -0.0529  0.1530 -0.1999
 6779SOL    HW131796   0.142   0.167   4.205  0.4325 -0.0882 -1.7826
 6779SOL    HW231797   0.187   0.040   4.143  1.5658  1.4235  0.3523
 6780SOL     OW31798   0.107   0.978   4.143 -0.3635  0.4403 -0.2670
 6780SOL    HW131799   0.131   0.891   4.175 -0.5458  0.0915 -1.0800
 6780SOL    HW231800   0.150   0.985   4.057  0.0364 -4.0425 -0.4304
 6781SOL     OW31801   2.637   0.890   1.266  0.0693 -0.2741  0.2685
 6781SOL    HW131802   2.709   0.827   1.260  0.8042  0.7563 -1.6862
 6781SOL    HW231803   2.678   0.961   1.217 -2.1711  0.3828 -0.6464
 6782SOL     OW31804   4.479   4.172   9.865 -0.2380  0.3864 -0.1225
 6782SOL    HW131805   4.399   4.120   9.861  1.8242 -2.6096 -2.7417
 6782SOL    HW231806   4.548   4.105   9.862 -0.6553 -0.2107  3.0803
 6783SOL     OW31807   2.598   2.745  12.207 -0.4387  0.2103  0.0612
 6783SOL    HW131808   2.592   2.797  12.288  0.9956  3.6017 -2.0449
 6783SOL    HW231809   2.632   2.661  12.239  0.6058  0.8389  0.5695
 6784SOL     OW31810   3.193   0.726   2.144 -0.4748 -0.6420  0.2511
 6784SOL    HW131811   3.182   0.657   2.079  1.4964  0.1077 -0.8594
 6784SOL    HW231812   3.103   0.760   2.147 -0.6987 -1.4859  3.6479
 6785SOL     OW31813   1.130   3.478   3.336 -0.3138 -0.2167 -0.5287
 6785SOL    HW131814   1.113   3.439   3.422 -0.9734  1.7286  0.2200
 6785SOL    HW231815   1.164   3.404   3.285  2.0564 -0.0679  0.8500
 6786SOL     OW31816   1.750   3.181   8.186 -0.4572  0.5028 -0.2282
 6786SOL    HW131817   1.750   3.248   8.254 -1.2843 -1.5579  1.7915
 6786SOL    HW231818   1.659   3.185   8.156 -0.6379  1.0935  0.4115
 6787SOL     OW31819   1.832   2.343  11.899 -0.1523 -0.4072  0.3318
 6787SOL    HW131820   1.742   2.322  11.877 -0.8479  0.2514  2.5326
 6787SOL    HW231821   1.835   2.310  11.989  0.9905  1.3403  0.9351
 6788SOL     OW31822   1.534   2.187   0.501 -0.0438 -0.3882 -0.1771
 6788SOL    HW131823   1.546   2.247   0.427  2.9005  2.7901  2.9166
 6788SOL    HW231824   1.490   2.251   0.557 -0.7052  0.2570 -1.4187
 6789SOL     OW31825   3.832   3.112   1.911 -0.0513 -0.2790  0.3498
 6789SOL    HW131826   3.850   3.061   1.991  1.1934 -1.6101 -0.7805
 6789SOL    HW231827   3.759   3.168   1.938  0.3848 -0.5823  2.1608
 6790SOL     OW31828   4.248   2.843   9.194 -0.2047  0.1704 -0.1364
 6790SOL    HW131829   4.235   2.934   9.219 -2.9176 -0.5673  1.1303
 6790SOL    HW231830   4.280   2.800   9.274 -0.0967 -1.1711 -0.9043
 6791SOL     OW31831   2.787   4.353   5.179 -0.1344  0.4750 -0.4745
 6791SOL    HW131832   2.783   4.447   5.199  1.0180  0.8744 -2.0837
 6791SOL    HW231833   2.704   4.327   5.218  0.2608 -0.2478 -0.1163
 6792SOL     OW31834   4.572   1.160   1.415 -0.2915  0.4217  0.3713
 6792SOL    HW131835   4.617   1.130   1.494 -0.1279 -1.6878 -0.5124
 6792SOL    HW231836   4.629   1.132   1.343 -0.1066 -1.0368  1.0685
 6793SOL     OW31837   3.668   3.554  10.007  0.4765 -0.0762 -0.0010
 6793SOL    HW131838   3.682   3.519   9.919  1.8441  1.6609 -0.4824
 6793SOL    HW231839   3.713   3.486  10.057 -2.8717 -1.6460  0.8315
 6794SOL     OW31840   3.422   2.035   9.003 -0.0815  0.1606 -0.1640
 6794SOL    HW131841   3.485   1.967   9.027 -0.3597  0.3156  0.9655
 6794SOL    HW231842   3.482   2.105   8.974  2.5272 -1.1558  2.1101
 6795SOL     OW31843   3.964   3.335  12.074 -0.1756  0.2531 -0.1506
 6795SOL    HW131844   3.917   3.418  12.060 -1.1757 -0.5733 -1.6799
 6795SOL    HW231845   4.040   3.354  12.020  0.3281 -0.7028  0.2294
 6796SOL     OW31846   2.493   1.209   0.900  0.2102 -0.1320  0.2394
 6796SOL    HW131847   2.457   1.254   0.824  0.7170 -1.6196 -0.8881
 6796SOL    HW231848   2.548   1.140   0.864  0.2905 -1.6907  3.3775
 6797SOL     OW31849   0.173   1.283   8.711  0.0892 -0.3548 -0.0423
 6797SOL    HW131850   0.161   1.192   8.687 -0.3845 -0.2995 -0.0049
 6797SOL    HW231851   0.086   1.323   8.712  0.2367 -0.0370  0.2060
 6798SOL     OW31852   1.593   4.677  16.336 -0.6190  0.6678 -0.4222
 6798SOL    HW131853   1.628   4.680  16.425 -1.2532 -0.0292 -0.1480
 6798SOL    HW231854   1.568   0.043  16.314 -2.1251  0.2902 -0.2906
 6799SOL     OW31855   0.116   1.587  15.542  0.1449 -0.7668 -0.1458
 6799SOL    HW131856   0.033   1.631  15.522 -0.2028 -1.3031  0.1057
 6799SOL    HW231857   0.111   1.563  15.634  0.6434  0.7741  0.2791
 6800SOL     OW31858   3.114   0.176   4.668 -0.0878  0.7477 -0.5325
 6800SOL    HW131859   3.050   0.104   4.665  1.6050 -0.7455 -0.3481
 6800SOL    HW231860   3.164   0.156   4.747  0.6226  2.5969 -0.5189
 6801SOL     OW31861   3.495   2.951   3.111 -0.0660  0.1800 -0.3804
 6801SOL    HW131862   3.587   2.972   3.094 -1.1637  2.7032 -3.1370
 6801SOL    HW231863   3.488   2.986   3.200  3.2202 -0.8216  0.2792
 6802SOL     OW31864   0.478   2.882   4.549  0.3701 -0.1745 -0.4629
 6802SOL    HW131865   0.486   2.790   4.575  1.8889 -0.5657 -2.3190
 6802SOL    HW231866   0.461   2.929   4.630  1.8651 -0.1960 -0.1346
 6803SOL     OW31867   3.486   3.437  15.907 -0.1613 -0.1160 -0.0048
 6803SOL    HW131868   3.548   3.425  15.835 -0.1387 -1.0301  0.1659
 6803SOL    HW231869   3.525   3.499  15.969 -0.3838  0.8368 -0.8019
 6804SOL     OW31870   2.919   4.158   1.142  0.1086 -0.0845 -0.2592
 6804SOL    HW131871   2.887   4.071   1.167  0.7472 -0.9230 -2.4172
 6804SOL    HW231872   2.978   4.126   1.074  0.2733 -1.4656  0.5367
 6805SOL     OW31873   1.788   1.749  12.112 -0.0919 -0.1558 -0.0161
 6805SOL    HW131874   1.805   1.842  12.097  1.1567 -0.4315 -0.3310
 6805SOL    HW231875   1.876   1.732  12.145 -0.7292 -0.3964  1.5240
 6806SOL     OW31876   4.253   1.563  12.804 -0.3241  0.1903 -0.1011
 6806SOL    HW131877   4.333   1.609  12.778  0.1183 -0.6134 -0.1504
 6806SOL    HW231878   4.201   1.580  12.725  0.0174  2.7161  0.2142
 6807SOL     OW31879   0.920   0.223   2.511  0.7768  0.0147 -0.3431
 6807SOL    HW131880   0.967   0.142   2.493  1.7125  1.0090 -2.3268
 6807SOL    HW231881   0.951   0.250   2.598 -0.3207  0.4035 -0.0684
 6808SOL     OW31882   1.574   1.273   4.829  0.4023  0.1203  0.1030
 6808SOL    HW131883   1.587   1.179   4.826  0.9087  0.2301 -1.2636
 6808SOL    HW231884   1.481   1.280   4.809  0.3759 -0.3157  0.0830
 6809SOL     OW31885   4.590   1.018  17.343 -0.1061 -0.1432 -0.3104
 6809SOL    HW131886   4.615   1.008  17.434  1.1006  0.8230 -0.5329
 6809SOL    HW231887   4.605   0.935  17.298  0.8695  0.3903 -0.9762
 6810SOL     OW31888   0.129   1.429  14.891  0.0372 -0.4531 -0.5502
 6810SOL    HW131889   0.181   1.510  14.890 -0.7902  0.1564  4.3793
 6810SOL    HW231890   0.130   1.411  14.985 -0.2553 -0.7242 -0.6003
 6811SOL     OW31891   1.204   4.601   5.594  0.1807 -0.0323 -0.0677
 6811SOL    HW131892   1.163   4.572   5.676 -0.0417 -1.3548 -0.6482
 6811SOL    HW231893   1.140   4.565   5.532  0.4551  0.8130 -0.8298
 6812SOL     OW31894   0.538   1.580   6.493 -0.1710 -0.4835  0.0059
 6812SOL    HW131895   0.459   1.526   6.502 -0.6849  0.3958  0.7944
 6812SOL    HW231896   0.610   1.520   6.471  0.4104  0.1886  0.0927
 6813SOL     OW31897   4.493   0.027  13.173  0.5018 -0.5125 -0.1838
 6813SOL    HW131898   4.459   4.717  13.256 -2.1228 -0.0227 -1.0554
 6813SOL    HW231899   4.418   0.018  13.113 -0.4856 -0.9060  1.1251
 6814SOL     OW31900   1.737   3.373  12.251  0.4353 -0.3523 -0.8931
 6814SOL    HW131901   1.832   3.375  12.239  1.0252  1.1880  4.1728
 6814SOL    HW231902   1.718   3.289  12.208  0.8382 -1.0512  0.3074
 6815SOL     OW31903   2.494   0.755  15.382  0.1264 -0.7904  0.0792
 6815SOL    HW131904   2.514   0.753  15.475 -2.1359  2.0985  0.6070
 6815SOL    HW231905   2.539   0.834  15.350  0.1810 -1.4361 -1.4586
 6816SOL     OW31906   0.796   0.166  15.236 -0.0308 -0.6532 -0.3815
 6816SOL    HW131907   0.784   0.240  15.296  1.3088 -1.3803  0.7617
 6816SOL    HW231908   0.706   0.138  15.219 -0.5457  1.8331 -1.9553
 6817SOL     OW31909   0.984   2.691  13.039 -0.5620  0.5472 -0.6698
 6817SOL    HW131910   0.919   2.760  13.032 -0.5173  0.6835  0.3056
 6817SOL    HW231911   1.018   2.707  13.127 -1.2206  0.5893 -0.4248
 6818SOL     OW31912   3.250   1.494   6.363 -0.0449 -0.0886  0.6322
 6818SOL    HW131913   3.327   1.517   6.311  0.1312 -1.2646  0.3856
 6818SOL    HW231914   3.247   1.400   6.347 -0.9530 -0.1412  1.1131
 6819SOL     OW31915   4.036   2.021   1.613  0.2254  0.3419  0.4310
 6819SOL    HW131916   4.041   2.092   1.678 -0.7870  1.0052 -0.2340
 6819SOL    HW231917   3.950   1.990   1.641  0.1585  1.5215  1.5683
 6820SOL     OW31918   3.266   3.910   4.073  0.7342 -0.0190 -0.1915
 6820SOL    HW131919   3.356   3.931   4.047  0.3141  1.7901 -0.1410
 6820SOL    HW231920   3.265   3.819   4.043 -1.1047 -0.0823  0.0846
 6821SOL     OW31921   2.517   0.069  15.453 -0.1760  0.0116  0.3012
 6821SOL    HW131922   2.480   0.103  15.372  0.2922 -1.5582 -0.5685
 6821SOL    HW231923   2.450   0.083  15.521  0.5160 -1.7509  1.3309
 6822SOL     OW31924   1.763   1.277   4.385  0.0262  0.0669  0.2054
 6822SOL    HW131925   1.719   1.192   4.387 -0.8805  0.4951 -1.9194
 6822SOL    HW231926   1.697   1.333   4.424 -0.8383 -1.6532  1.1961
 6823SOL     OW31927   0.546   1.158   9.008 -0.0516 -0.4452 -0.0643
 6823SOL    HW131928   0.489   1.218   9.056  0.8276 -1.1955  1.9130
 6823SOL    HW231929   0.548   1.202   8.923  2.2148  0.5060  0.4561
 6824SOL     OW31930   2.330   2.423   5.666  0.6758  0.7201 -0.3380
 6824SOL    HW131931   2.319   2.497   5.606  0.5767 -0.2493 -1.5256
 6824SOL    HW231932   2.425   2.415   5.661  0.5704 -1.6077  1.5721
 6825SOL     OW31933   3.775   4.702   4.831 -0.2762  0.1300 -0.3014
 6825SOL    HW131934   3.744   4.617   4.861 -1.5132 -0.2665 -2.7015
 6825SOL    HW231935   3.776   0.030   4.912  0.5701  1.9091 -1.4425
 6826SOL     OW31936   4.463   2.696  10.551 -0.4241  0.0835 -0.1137
 6826SOL    HW131937   4.514   2.625  10.513  1.2854 -0.1123  2.5553
 6826SOL    HW231938   4.469   2.680  10.645 -3.6768  0.2046  0.1293
 6827SOL     OW31939   1.863   0.953  17.285  0.0010  0.1372 -0.6736
 6827SOL    HW131940   1.830   0.946  17.195  1.6127  1.9723 -1.4050
 6827SOL    HW231941   1.898   0.867  17.308 -2.9540 -0.7591  0.4865
 6828SOL     OW31942   1.695   1.634   2.224  0.0784 -0.0555 -0.1906
 6828SOL    HW131943   1.682   1.543   2.248  1.6920 -0.6375 -1.4939
 6828SOL    HW231944   1.760   1.658   2.290 -0.4857 -1.6142  0.9306
 6829SOL     OW31945   0.477   2.421   4.045  0.5575  0.4952  0.1739
 6829SOL    HW131946   0.431   2.438   4.127 -0.3578 -0.3372 -0.1737
 6829SOL    HW231947   0.454   2.328   4.041  2.1913  0.1483 -1.3619
 6830SOL     OW31948   2.721   0.826  14.373 -0.2747 -0.3245  0.5232
 6830SOL    HW131949   2.677   0.779  14.303 -0.6716 -1.1690  1.3358
 6830SOL    HW231950   2.804   0.780  14.388  0.2032  0.1171 -0.7343
 6831SOL     OW31951   4.134   4.034   6.630 -0.0146 -0.4576  0.4295
 6831SOL    HW131952   4.137   3.939   6.622  3.6224 -0.0550 -2.7446
 6831SOL    HW231953   4.220   4.061   6.663 -0.4841 -2.2759  3.1545
 6832SOL     OW31954   1.780   1.880   3.232  0.2808 -0.2591 -0.2492
 6832SOL    HW131955   1.754   1.972   3.224  0.2929 -0.2121  0.2575
 6832SOL    HW231956   1.873   1.885   3.212  0.0425  1.3121 -1.0339
 6833SOL     OW31957   1.018   1.732  17.500  0.1987  0.6019  0.1298
 6833SOL    HW131958   1.102   1.687  17.494 -1.1324 -1.7272 -1.0647
 6833SOL    HW231959   1.014   1.763  17.591 -0.8742  2.5975 -0.6051
 6834SOL     OW31960   2.291   0.861   4.847  0.0958  0.3891 -0.1063
 6834SOL    HW131961   2.381   0.884   4.826  0.5224 -1.0646  0.1074
 6834SOL    HW231962   2.254   0.876   4.761  1.5062  1.4556 -0.5272
 6835SOL     OW31963   4.486   4.622   6.334  0.1271 -0.6071  0.3740
 6835SOL    HW131964   4.540   4.547   6.359  0.3924 -0.7681 -0.6909
 6835SOL    HW231965   4.413   4.618   6.396 -0.8128  0.3742 -0.6584
 6836SOL     OW31966   0.574   2.346   8.886 -0.0456  0.3987  0.1158
 6836SOL    HW131967   0.513   2.398   8.834  0.2573  1.1432  0.4880
 6836SOL    HW231968   0.541   2.257   8.878 -0.7452  0.4487  2.3444
 6837SOL     OW31969   1.748   3.213   8.846  0.1966  0.3469 -0.8832
 6837SOL    HW131970   1.691   3.254   8.781 -1.2620 -1.2847 -0.6244
 6837SOL    HW231971   1.732   3.118   8.844  2.4414 -0.0304 -1.3905
 6838SOL     OW31972   3.072   0.538   8.872 -0.1157 -0.6186 -0.0627
 6838SOL    HW131973   3.109   0.605   8.815 -1.3646  0.3956  0.3306
 6838SOL    HW231974   3.121   0.462   8.841  2.1672  1.2120 -0.9366
 6839SOL     OW31975   4.629   3.467  17.053 -0.0460  0.6145 -0.1189
 6839SOL    HW131976   4.683   3.500  16.981  1.3268  1.2060  1.1785
 6839SOL    HW231977   4.677   3.511  17.122 -0.8878  0.7545  0.3767
 6840SOL     OW31978   4.653   4.161   8.038  0.3749  0.2213 -0.0275
 6840SOL    HW131979   4.698   4.238   8.005 -1.1337  2.0011  2.0509
 6840SOL    HW231980   4.592   4.199   8.101 -0.6624  1.6195 -1.8382
 6841SOL     OW31981   0.268   3.898  13.541  0.3871  1.0242 -0.0877
 6841SOL    HW131982   0.277   3.831  13.608  0.8722  0.1661 -1.0084
 6841SOL    HW231983   0.288   3.846  13.463  1.0099  3.0219 -1.2674
 6842SOL     OW31984   4.106   4.387   4.281  0.0430 -0.1329  0.0706
 6842SOL    HW131985   4.163   4.441   4.226 -1.4403 -1.1517 -2.4735
 6842SOL    HW231986   4.106   4.431   4.366  0.5817 -1.1192  0.5841
 6843SOL     OW31987   2.616   3.146   1.774  0.3797 -0.2307  0.4700
 6843SOL    HW131988   2.579   3.224   1.814  0.1741 -1.3687  2.5385
 6843SOL    HW231989   2.554   3.116   1.707 -1.1089 -0.2874  1.8707
 6844SOL     OW31990   3.397   1.745   4.562  0.0531 -0.4261  0.3475
 6844SOL    HW131991   3.313   1.709   4.536 -0.4777 -0.3715  1.9912
 6844SOL    HW231992   3.379   1.839   4.560  0.9315 -0.2373  0.8215
 6845SOL     OW31993   1.759   1.214  14.005  0.3764  0.1837 -0.2274
 6845SOL    HW131994   1.808   1.292  13.981  0.7431 -0.2053 -0.7440
 6845SOL    HW231995   1.773   1.152  13.933  1.4856  1.6014 -1.2374
 6846SOL     OW31996   2.783   2.047   7.872 -0.5585  0.1410  0.5031
 6846SOL    HW131997   2.697   2.037   7.831 -1.0103  2.6258  0.8516
 6846SOL    HW231998   2.834   2.118   7.834  1.0204 -3.2903 -3.7786
 6847SOL     OW31999   3.407   1.644   1.657  0.5551  0.3364  0.5657
 6847SOL    HW132000   3.313   1.634   1.675  0.5729 -1.2672 -0.2558
 6847SOL    HW232001   3.450   1.599   1.729  0.1990 -1.7945 -0.5474
 6848SOL     OW32002   3.897   2.917  14.707  0.2620 -0.0647 -0.2132
 6848SOL    HW132003   3.935   2.997  14.669 -1.1292  1.2556  1.1503
 6848SOL    HW232004   3.808   2.952  14.718  0.9397  1.4996  0.3502
 6849SOL     OW32005   1.720   0.475   0.827  0.3902 -0.5236  0.2679
 6849SOL    HW132006   1.668   0.523   0.891 -1.5638 -2.9152  0.4576
 6849SOL    HW232007   1.714   0.386   0.861 -1.6151 -0.2896  0.5407
 6850SOL     OW32008   3.494   1.382  15.362 -0.1861  0.0503 -0.6450
 6850SOL    HW132009   3.469   1.330  15.285 -1.1006 -0.4983  0.0262
 6850SOL    HW232010   3.584   1.398  15.332 -0.1029  1.7601  0.5194
 6851SOL     OW32011   3.919   3.654   8.069 -0.2422 -0.0271 -0.3831
 6851SOL    HW132012   3.831   3.690   8.064  0.0373  0.6638 -0.3620
 6851SOL    HW232013   3.907   3.591   8.141 -0.2467  1.2941  0.7729
 6852SOL     OW32014   4.591   1.443  11.230  0.6054  0.3778 -0.0936
 6852SOL    HW132015   4.536   1.421  11.155 -3.7344  2.0810  2.6168
 6852SOL    HW232016   4.561   1.381  11.296  4.1721 -0.0987  1.1012
 6853SOL     OW32017   0.074   1.534   7.449 -0.0030 -0.3016 -0.2029
 6853SOL    HW132018   0.021   1.491   7.382  2.4232 -2.1983 -0.9091
 6853SOL    HW232019   0.016   1.601   7.486 -0.0622 -0.5493  0.1521
 6854SOL     OW32020   2.846   0.355   8.460  0.2645 -0.1408 -0.4861
 6854SOL    HW132021   2.808   0.442   8.476 -0.8361 -0.7666  0.3370
 6854SOL    HW232022   2.917   0.379   8.400 -1.3630  0.6000 -2.1472
 6855SOL     OW32023   1.747   3.929  17.019 -0.2381 -0.2223  0.7896
 6855SOL    HW132024   1.689   3.854  17.006 -0.9823  0.1158  2.1663
 6855SOL    HW232025   1.713   3.989  16.953 -1.5028 -1.6196  0.1730
 6856SOL     OW32026   0.270   1.030   2.918  0.7635  0.8400 -0.4479
 6856SOL    HW132027   0.325   1.017   2.995  0.8567  0.2694 -0.6065
 6856SOL    HW232028   0.199   0.967   2.933  0.9875  0.8841  0.8496
 6857SOL     OW32029   3.160   2.539   1.044 -0.4167 -0.0027 -0.8450
 6857SOL    HW132030   3.171   2.447   1.068  1.4621 -0.0361 -1.7630
 6857SOL    HW232031   3.244   2.555   1.000  1.4003  0.1036  2.7186
 6858SOL     OW32032   1.645   1.411  12.968 -0.1592 -0.3383 -0.4100
 6858SOL    HW132033   1.556   1.407  13.004 -1.1482 -2.3232 -3.0125
 6858SOL    HW232034   1.645   1.497  12.927  1.1329 -0.6538 -1.0626
 6859SOL     OW32035   3.512   2.790   0.560 -0.9933 -0.0298  0.2473
 6859SOL    HW132036   3.548   2.749   0.639 -0.8992  2.4897  1.4921
 6859SOL    HW232037   3.482   2.711   0.515  1.0895 -0.3978 -0.4903
 6860SOL     OW32038   1.408   0.985  12.153 -0.2003 -0.5986  0.2706
 6860SOL    HW132039   1.321   0.971  12.192 -1.3853  2.4779 -1.2702
 6860SOL    HW232040   1.446   1.065  12.189 -1.4136 -0.5788  1.5345
 6861SOL     OW32041   0.771   4.597   4.047 -0.2353 -0.2137  0.4514
 6861SOL    HW132042   0.858   4.563   4.070 -0.6534  0.0819  2.5136
 6861SOL    HW232043   0.784   4.566   3.958  2.7024 -2.2270  1.5360
 6862SOL     OW32044   0.053   1.336  17.524  0.4226 -0.1982 -0.7534
 6862SOL    HW132045   0.059   1.360  17.432  1.8579  1.4327 -0.2162
 6862SOL    HW232046   0.032   1.420  17.565 -1.5022 -2.0280  2.0630
 6863SOL     OW32047   3.808   1.965  15.356 -0.6915  0.0490  0.4808
 6863SOL    HW132048   3.815   1.943  15.448 -0.4948 -0.2256  0.4018
 6863SOL    HW232049   3.895   2.004  15.342 -0.9974  0.3778 -0.5191
 6864SOL     OW32050   0.643   1.437   6.789  0.1610  0.3630 -0.0203
 6864SOL    HW132051   0.695   1.404   6.716  0.7532  0.0983  0.5232
 6864SOL    HW232052   0.695   1.513   6.814 -1.1072  0.2142  3.1459
 6865SOL     OW32053   1.690   4.445   4.372  0.3554  0.4022  0.0570
 6865SOL    HW132054   1.775   4.436   4.331  1.1549 -2.2921  2.3304
 6865SOL    HW232055   1.723   4.430   4.461  0.3712  3.1110  0.5096
 6866SOL     OW32056   3.191   4.072   1.338 -0.2170  0.0656 -0.1178
 6866SOL    HW132057   3.215   3.980   1.347  1.0677  0.4260  0.0791
 6866SOL    HW232058   3.234   4.086   1.253  0.9817 -1.5891  0.2126
 6867SOL     OW32059   3.890   3.359   5.742 -0.5185  0.7884  0.1639
 6867SOL    HW132060   3.907   3.414   5.818  0.5825  0.2495  0.3111
 6867SOL    HW232061   3.831   3.292   5.777  1.5714 -0.4532  1.2616
 6868SOL     OW32062   2.007   2.957  13.285 -0.2054  0.1685 -0.6033
 6868SOL    HW132063   2.014   2.958  13.381 -0.4815  2.3795 -0.6260
 6868SOL    HW232064   1.917   2.987  13.275 -0.3604  0.3266  1.2280
 6869SOL     OW32065   0.830   4.069   4.376  0.2162 -0.7246 -0.4371
 6869SOL    HW132066   0.852   4.041   4.465  0.3208  0.6002 -0.0552
 6869SOL    HW232067   0.806   3.985   4.338  1.0247 -1.5330  0.8011
 6870SOL     OW32068   0.794   3.336   4.876  0.8586 -0.1067 -0.2221
 6870SOL    HW132069   0.856   3.324   4.948 -0.9878 -2.8409  0.9207
 6870SOL    HW232070   0.774   3.244   4.860  0.9189 -0.3820  1.2582
 6871SOL     OW32071   3.772   2.808   7.116  0.4097  0.0509  0.1726
 6871SOL    HW132072   3.689   2.796   7.070  0.1985 -0.4906  0.6892
 6871SOL    HW232073   3.810   2.722   7.104 -1.1938 -0.6247 -0.1026
 6872SOL     OW32074   3.473   0.559   6.562 -0.4955  0.1085  0.4123
 6872SOL    HW132075   3.497   0.505   6.637 -0.7687 -0.6371 -0.0437
 6872SOL    HW232076   3.394   0.600   6.597 -0.6558  0.7280 -0.7075
 6873SOL     OW32077   2.450   0.835  16.364  0.6310 -0.6052  0.0261
 6873SOL    HW132078   2.500   0.842  16.445  2.1618  1.6691 -1.1100
 6873SOL    HW232079   2.466   0.922  16.328 -0.3446 -0.2071  0.5591
 6874SOL     OW32080   3.812   0.372  16.727 -0.0136  0.4770 -0.0509
 6874SOL    HW132081   3.875   0.441  16.749  0.9877 -0.3646 -0.3044
 6874SOL    HW232082   3.871   0.299  16.713 -0.2685  0.4800 -1.1263
 6875SOL     OW32083   3.387   3.107  11.816  0.0236  0.5756 -0.4973
 6875SOL    HW132084   3.404   3.200  11.805  0.0374  0.6677  0.3308
 6875SOL    HW232085   3.476   3.073  11.801  0.1125 -0.4608  2.4478
 6876SOL     OW32086   4.000   2.215   9.057 -0.5338 -0.7373  0.1426
 6876SOL    HW132087   4.057   2.247   9.126 -0.9631  3.3544 -1.3863
 6876SOL    HW232088   3.979   2.125   9.082 -1.6529 -0.6464 -0.4311
 6877SOL     OW32089   1.374   4.250   1.930 -0.5590 -0.1862 -0.5673
 6877SOL    HW132090   1.356   4.206   1.847 -1.4861 -2.2664  0.7404
 6877SOL    HW232091   1.469   4.246   1.926 -0.6343 -3.1626  1.0660
 6878SOL     OW32092   3.347   3.466   4.355  0.8803 -0.3643  0.0454
 6878SOL    HW132093   3.294   3.419   4.290  0.0099 -0.5101  0.8575
 6878SOL    HW232094   3.289   3.472   4.431  3.7687 -0.5137  2.2803
 6879SOL     OW32095   2.262   1.645   2.607 -0.2594  0.0530 -0.0270
 6879SOL    HW132096   2.259   1.739   2.624  0.5742  0.5326 -2.5250
 6879SOL    HW232097   2.178   1.610   2.579 -1.3959  2.0574  0.8966
 6880SOL     OW32098   4.656   2.468  13.129  0.3917 -0.0516  0.2101
 6880SOL    HW132099   0.013   2.503  13.166  0.4681  0.7496 -0.7082
 6880SOL    HW232100   4.650   2.378  13.162 -0.8299  0.6057  1.7625
 6881SOL     OW32101   3.174   1.397   2.793  0.2056 -0.0281  1.1078
 6881SOL    HW132102   3.102   1.397   2.730  1.2268 -0.1688 -0.0480
 6881SOL    HW232103   3.180   1.492   2.805 -0.9790 -0.0218  1.6175
 6882SOL     OW32104   2.281   2.631  16.921 -0.5150  0.1232 -0.1164
 6882SOL    HW132105   2.241   2.581  16.993 -0.1859 -0.0355 -0.0455
 6882SOL    HW232106   2.218   2.700  16.899 -0.8205 -0.4165 -0.9541
 6883SOL     OW32107   3.634   2.551  10.714 -0.9085  0.0429 -0.1317
 6883SOL    HW132108   3.622   2.465  10.755  0.2604  0.4900  1.1401
 6883SOL    HW232109   3.543   2.579  10.699 -1.1554 -2.3648 -3.1337
 6884SOL     OW32110   4.113   2.593   5.384  0.0451 -0.6260  0.0196
 6884SOL    HW132111   4.097   2.543   5.304  1.8073  0.0203 -0.7219
 6884SOL    HW232112   4.036   2.602   5.441 -2.0789 -1.0412 -2.7728
 6885SOL     OW32113   4.205   3.602  15.287 -0.4232 -0.3731  0.2250
 6885SOL    HW132114   4.298   3.626  15.283 -0.7712  0.6050 -1.8369
 6885SOL    HW232115   4.165   3.684  15.317 -1.2827 -0.4451 -0.7435
 6886SOL     OW32116   3.018   1.550   6.806  0.3484 -0.4826 -0.6543
 6886SOL    HW132117   3.111   1.538   6.786  0.8778  0.0304  1.4225
 6886SOL    HW232118   2.969   1.478   6.766 -1.1990  0.5082 -0.5589
 6887SOL     OW32119   0.658   2.710   2.665 -0.4246 -0.2964  1.2583
 6887SOL    HW132120   0.563   2.713   2.680 -0.5998 -0.2128  0.1243
 6887SOL    HW232121   0.682   2.781   2.723  2.5316 -0.0848 -0.2062
 6888SOL     OW32122   2.016   3.179   3.159 -0.6757 -0.5084 -0.1023
 6888SOL    HW132123   1.976   3.177   3.246 -0.9302 -1.9579 -0.2551
 6888SOL    HW232124   2.097   3.129   3.173 -1.4326 -1.8455 -0.5939
 6889SOL     OW32125   4.455   1.487   1.383 -0.5197  0.8584  0.7117
 6889SOL    HW132126   4.458   1.444   1.298  2.1531  0.0823  1.2200
 6889SOL    HW232127   4.422   1.419   1.443 -0.4815 -0.0046 -0.2375
 6890SOL     OW32128   2.000   0.594   8.331  0.2091 -0.2500  0.0111
 6890SOL    HW132129   2.060   0.651   8.379 -1.8024 -2.2450  4.9749
 6890SOL    HW232130   1.926   0.649   8.305  1.3766  1.5320  0.5000
 6891SOL     OW32131   3.234   2.586  17.330 -0.4336 -0.2093 -0.3872
 6891SOL    HW132132   3.316   2.551  17.364  0.0624  0.3279 -1.0082
 6891SOL    HW232133   3.261   2.677  17.314 -0.2978 -0.1747  0.0562
 6892SOL     OW32134   0.697   2.069   2.678 -0.0264  0.4976 -0.3397
 6892SOL    HW132135   0.681   2.024   2.761  1.1487 -0.1233 -0.4477
 6892SOL    HW232136   0.612   2.081   2.636 -0.3276 -1.5063 -0.3380
 6893SOL     OW32137   0.984   0.896   8.644  0.4785 -0.4239 -0.1288
 6893SOL    HW132138   0.944   0.834   8.584  0.5538 -0.7680  0.1764
 6893SOL    HW232139   0.947   0.863   8.726  0.3894  0.6742  0.2796
 6894SOL     OW32140   3.042   3.858   7.965  0.1358 -0.3173 -0.1180
 6894SOL    HW132141   2.959   3.904   7.980 -0.4714 -1.7093  0.8290
 6894SOL    HW232142   3.040   3.851   7.869  1.4749 -1.1219 -0.0860
 6895SOL     OW32143   1.172   2.207   6.312  0.0651  0.2593  0.2025
 6895SOL    HW132144   1.159   2.177   6.402 -1.6294  0.7420  0.1172
 6895SOL    HW232145   1.168   2.128   6.260  0.7229 -0.0121  0.5566
 6896SOL     OW32146   0.219   1.464  14.168  0.0911  0.0858 -0.4724
 6896SOL    HW132147   0.215   1.509  14.084 -0.2166 -1.8826 -1.4955
 6896SOL    HW232148   0.233   1.375  14.136  0.2475 -1.0056  2.6105
 6897SOL     OW32149   0.014   1.657   7.833 -0.3759  0.4301  0.2996
 6897SOL    HW132150   0.019   1.636   7.927  0.7427 -2.0374 -0.3167
 6897SOL    HW232151   0.084   1.721   7.830  0.3951 -0.3973  0.5030
 6898SOL     OW32152   0.292   3.473   6.105  0.3805  0.2873 -0.0324
 6898SOL    HW132153   0.242   3.539   6.057 -1.6381 -1.4302 -0.2885
 6898SOL    HW232154   0.313   3.518   6.187 -1.5144 -0.1892  0.7087
 6899SOL     OW32155   0.177   2.301   5.879 -0.2112  0.9478 -0.3610
 6899SOL    HW132156   0.259   2.342   5.906  0.5701 -0.8068 -0.0378
 6899SOL    HW232157   0.133   2.383   5.856 -1.2624  0.5726  0.3041
 6900SOL     OW32158   1.234   1.082   2.531  0.3771  0.2804  0.0257
 6900SOL    HW132159   1.308   1.090   2.591  1.2473  0.1158 -1.0178
 6900SOL    HW232160   1.273   1.069   2.444  0.8148  2.9910 -0.1758
 6901SOL     OW32161   1.674   2.070   5.857  0.1616  0.3500  0.3091
 6901SOL    HW132162   1.755   2.029   5.889  0.0056  0.1447  0.4416
 6901SOL    HW232163   1.622   1.993   5.834  0.8654  0.5987 -2.1332
 6902SOL     OW32164   3.615   3.379  16.540  0.0943  0.8918 -0.6905
 6902SOL    HW132165   3.523   3.363  16.563  0.9348 -0.1363  1.8334
 6902SOL    HW232166   3.607   3.456  16.484 -0.1595  1.0595 -0.4232
 6903SOL     OW32167   2.442   1.329  11.810  0.5329  0.2331  0.5463
 6903SOL    HW132168   2.379   1.378  11.757  0.3918  0.4681  0.9270
 6903SOL    HW232169   2.403   1.242  11.805  2.6860 -0.7201  0.5680
 6904SOL     OW32170   3.925   2.955   6.933  0.5628  0.1505  0.5538
 6904SOL    HW132171   3.887   2.938   7.019 -0.3220  0.5679  0.2422
 6904SOL    HW232172   3.964   3.038   6.961 -5.3245  3.3824 -0.9646
 6905SOL     OW32173   2.418   0.941  12.502  0.3144 -0.3845  0.2662
 6905SOL    HW132174   2.412   0.972  12.412  0.6534 -1.8237 -0.2594
 6905SOL    HW232175   2.453   1.018  12.546  1.0459 -0.4651 -0.1683
 6906SOL     OW32176   3.439   3.734  16.942  0.5509 -0.6112 -0.4128
 6906SOL    HW132177   3.469   3.673  16.875  3.5596 -0.2245  0.5951
 6906SOL    HW232178   3.348   3.706  16.944  0.3424  0.1114  0.0624
 6907SOL     OW32179   3.205   2.971   3.316  0.4496  0.2932  0.2540
 6907SOL    HW132180   3.151   3.050   3.315 -0.3049 -0.2375 -0.8992
 6907SOL    HW232181   3.291   3.010   3.328 -0.1636  0.7427  3.0852
 6908SOL     OW32182   1.056   1.001  16.805 -0.0939 -0.1786 -0.4267
 6908SOL    HW132183   1.061   1.029  16.714  1.0348  0.1151 -0.2739
 6908SOL    HW232184   1.009   1.077  16.842 -1.0397 -0.1879 -1.6091
 6909SOL     OW32185   1.842   0.153  10.825  0.6007 -0.4244  0.7079
 6909SOL    HW132186   1.767   0.098  10.846 -0.7725  0.8417 -0.9021
 6909SOL    HW232187   1.797   0.231  10.860 -0.9162 -1.5282  1.2156
 6910SOL     OW32188   1.757   1.732  11.836  0.1376 -0.1011 -0.1185
 6910SOL    HW132189   1.817   1.740  11.911 -0.2569  1.9400 -0.0109
 6910SOL    HW232190   1.697   1.806  11.846 -0.0225 -0.4973  1.9969
 6911SOL     OW32191   0.771   3.716  10.597  0.4790  0.2945 -0.6080
 6911SOL    HW132192   0.753   3.712  10.691 -1.8105 -0.6658 -1.0915
 6911SOL    HW232193   0.842   3.780  10.604  1.1036 -0.3966 -0.4947
 6912SOL     OW32194   1.826   3.089  12.109  0.3611  0.1876  0.5553
 6912SOL    HW132195   1.902   3.032  12.121  1.7983  1.6211 -1.7699
 6912SOL    HW232196   1.853   3.180  12.113  0.2098  0.2620 -0.1406
 6913SOL     OW32197   2.221   3.933   2.458  0.2913 -0.0163  0.2716
 6913SOL    HW132198   2.209   3.866   2.391 -0.8229 -0.7556  1.2055
 6913SOL    HW232199   2.146   3.909   2.514  0.9486 -0.5212  0.9295
 6914SOL     OW32200   3.277   2.970   8.415  0.0669 -0.5459  0.2272
 6914SOL    HW132201   3.255   2.919   8.338 -2.2850  1.8254 -0.6709
 6914SOL    HW232202   3.204   3.032   8.417  0.3015 -0.2786  0.5181
 6915SOL     OW32203   2.985   1.970  16.147 -0.0385 -0.5443  1.5872
 6915SOL    HW132204   3.061   1.999  16.095 -0.2276  0.3424  1.8149
 6915SOL    HW232205   2.988   2.046  16.205  0.4200  0.6691 -0.0303
 6916SOL     OW32206   1.611   3.188  13.405  0.0928  0.8543 -0.1532
 6916SOL    HW132207   1.611   3.092  13.412  1.6981  0.7576 -1.1992
 6916SOL    HW232208   1.519   3.213  13.402 -0.3778 -1.0322 -1.4325
 6917SOL     OW32209   1.278   3.922  15.835  0.2693  0.1537 -0.3850
 6917SOL    HW132210   1.325   3.878  15.906 -0.2811 -3.4946 -2.2864
 6917SOL    HW232211   1.350   3.932  15.773  0.3800 -0.5154 -0.3678
 6918SOL     OW32212   4.096   0.385   2.049  0.0315  0.3134 -0.0222
 6918SOL    HW132213   4.160   0.434   2.101 -0.4022  0.6334  0.2180
 6918SOL    HW232214   4.011   0.400   2.092 -1.0061  0.4777 -2.1243
 6919SOL     OW32215   3.970   1.462   3.840 -0.3490  0.1851  0.3801
 6919SOL    HW132216   3.883   1.475   3.803 -0.8502 -3.3579  0.3416
 6919SOL    HW232217   3.967   1.375   3.879 -2.5275  0.0283 -0.1566
 6920SOL     OW32218   4.450   0.305   4.546  0.0316  0.7284 -0.8437
 6920SOL    HW132219   4.366   0.313   4.502 -1.8238 -1.7221  2.3088
 6920SOL    HW232220   4.430   0.341   4.632  0.5011  0.0876 -0.4635
 6921SOL     OW32221   0.192   4.425   1.086  0.1003  0.8575  0.2354
 6921SOL    HW132222   0.141   4.489   1.135 -1.0926  0.5436 -0.6104
 6921SOL    HW232223   0.207   4.476   1.006  0.4911 -0.2787 -0.4144
 6922SOL     OW32224   0.369   0.265  16.659  0.0720  0.2796 -0.3114
 6922SOL    HW132225   0.369   0.277  16.754  0.6430  0.8467 -0.3806
 6922SOL    HW232226   0.388   0.346  16.612  2.9475 -0.7047 -0.8604
 6923SOL     OW32227   4.340   4.172   5.629 -0.2055  0.8497 -0.0350
 6923SOL    HW132228   4.285   4.138   5.558  0.1384  2.2345 -0.9647
 6923SOL    HW232229   4.310   4.122   5.704  0.6387 -0.8367 -0.8246
 6924SOL     OW32230   1.761   0.674   4.387 -0.0711  0.1046  0.5491
 6924SOL    HW132231   1.826   0.635   4.329  0.3042  3.7789 -1.5090
 6924SOL    HW232232   1.712   0.716   4.317  0.9416  1.4514  0.6524
 6925SOL     OW32233   3.879   3.345  13.022  0.1800  0.2237 -0.0387
 6925SOL    HW132234   3.956   3.305  12.983  1.1533  1.9726  0.0906
 6925SOL    HW232235   3.872   3.294  13.103 -0.3515  2.1421  1.1305
 6926SOL     OW32236   0.145   0.520   8.048  0.1665  0.0297 -0.1315
 6926SOL    HW132237   0.122   0.613   8.049  3.1155  0.7690 -1.5443
 6926SOL    HW232238   0.221   0.534   7.991 -0.5634  0.6999 -0.9338
 6927SOL     OW32239   2.523   2.237   0.365 -0.0808 -0.8201 -0.3965
 6927SOL    HW132240   2.467   2.302   0.410  0.4617 -0.7204  0.1322
 6927SOL    HW232241   2.567   2.282   0.293 -0.6606 -0.6646 -0.6549
 6928SOL     OW32242   1.182   0.375   6.826 -1.0231 -0.1854  0.2218
 6928SOL    HW132243   1.099   0.334   6.853 -0.6990  0.7628  2.6960
 6928SOL    HW232244   1.138   0.459   6.812 -0.4638  0.3956  1.9768
 6929SOL     OW32245   1.810   1.127   8.021  0.2120  0.4358 -0.2413
 6929SOL    HW132246   1.854   1.132   8.106  0.7453  1.1996 -0.5589
 6929SOL    HW232247   1.774   1.039   8.030  1.7272 -0.3718 -1.9102
 6930SOL     OW32248   1.088   0.902   9.514 -0.7144  0.1950  0.4101
 6930SOL    HW132249   1.010   0.935   9.469 -0.4596  1.0172  0.5661
 6930SOL    HW232250   1.132   0.984   9.537 -2.2690  1.0639  0.3532
 6931SOL     OW32251   3.520   1.332  17.240 -0.2319 -0.6254 -0.3640
 6931SOL    HW132252   3.587   1.288  17.293  0.9885  0.7163 -0.7872
 6931SOL    HW232253   3.466   1.374  17.308  1.3576 -1.9705  1.7412
 6932SOL     OW32254   1.306   3.367  11.923  0.2993 -0.3034 -0.0286
 6932SOL    HW132255   1.223   3.384  11.968  0.8039 -0.4778  0.9539
 6932SOL    HW232256   1.329   3.283  11.963 -1.6017 -0.1120  1.4477
 6933SOL     OW32257   1.951   4.047  16.338  0.1443  0.2260 -0.4418
 6933SOL    HW132258   1.889   3.982  16.370  0.3654  0.8359  1.2310
 6933SOL    HW232259   2.016   4.060  16.407 -0.0339 -1.6119  0.0595
 6934SOL     OW32260   0.434   2.756   5.462 -0.6846 -0.3920 -0.3318
 6934SOL    HW132261   0.345   2.791   5.472 -1.4452 -1.7292 -2.5035
 6934SOL    HW232262   0.426   2.703   5.383  1.1017 -1.3406  0.1341
 6935SOL     OW32263   4.337   0.076   5.381 -0.3869 -0.7618  0.5682
 6935SOL    HW132264   4.356   0.166   5.407  0.4480 -0.9385  0.5576
 6935SOL    HW232265   4.304   0.033   5.460  1.7409  1.2625  2.5861
 6936SOL     OW32266   3.323   3.877   0.532  0.1485  0.4604 -0.1231
 6936SOL    HW132267   3.338   3.922   0.449 -1.7995  3.1335  0.9782
 6936SOL    HW232268   3.359   3.790   0.512 -2.9955 -0.3398 -2.3006
 6937SOL     OW32269   0.204   0.735   4.624  0.2500  0.1334  0.0381
 6937SOL    HW132270   0.270   0.793   4.661  0.5816 -0.7301  0.7975
 6937SOL    HW232271   0.247   0.650   4.634 -0.7756 -0.2328  1.3963
 6938SOL     OW32272   3.244   2.697   1.541  0.5788 -0.0326 -0.1589
 6938SOL    HW132273   3.219   2.658   1.457 -2.5790 -2.7230  2.0047
 6938SOL    HW232274   3.162   2.690   1.591 -0.5043  1.5329 -1.7080
 6939SOL     OW32275   2.747   2.156   0.111 -0.1609 -0.2520 -0.5730
 6939SOL    HW132276   2.729   2.250   0.107  1.9335  0.1367 -1.0646
 6939SOL    HW232277   2.657   2.126   0.096  0.2552 -1.2672 -1.0763
 6940SOL     OW32278   2.792   0.147   7.547 -0.2791 -0.0543 -0.1942
 6940SOL    HW132279   2.748   0.175   7.627  1.3099  0.8328  0.3586
 6940SOL    HW232280   2.879   0.126   7.582 -0.9597 -1.0229  0.8943
 6941SOL     OW32281   1.133   0.806   2.039  0.0580 -0.4413  0.2864
 6941SOL    HW132282   1.158   0.893   2.008 -2.3948  0.3239  0.4096
 6941SOL    HW232283   1.167   0.766   1.959 -0.2430 -1.6819  0.7827
 6942SOL     OW32284   1.583   1.464  16.813 -0.2014  0.0126  0.0386
 6942SOL    HW132285   1.552   1.526  16.878  0.7252  0.8022 -0.2641
 6942SOL    HW232286   1.633   1.531  16.766  0.8809 -1.2713 -0.6458
 6943SOL     OW32287   0.883   1.812   8.414  0.3147 -0.0432 -0.0636
 6943SOL    HW132288   0.871   1.837   8.506  2.1887 -0.3492  0.2498
 6943SOL    HW232289   0.858   1.897   8.378  1.1231  0.0745 -0.3534
 6944SOL     OW32290   0.442   2.396   2.497 -0.0802 -0.3528  0.4227
 6944SOL    HW132291   0.368   2.348   2.460 -0.1177 -0.4772  0.6588
 6944SOL    HW232292   0.402   2.483   2.506  0.8422  0.0895  0.1787
 6945SOL     OW32293   0.298   3.053  13.790 -0.5113  0.1264  0.5685
 6945SOL    HW132294   0.228   3.064  13.853 -2.0506  0.4662 -1.1945
 6945SOL    HW232295   0.277   3.128  13.733  2.3129  0.0261 -0.6341
 6946SOL     OW32296   2.917   4.293  13.947 -0.4359 -0.1737 -0.2161
 6946SOL    HW132297   2.860   4.293  14.024  1.2797 -0.2869  1.0540
 6946SOL    HW232298   2.996   4.248  13.976  1.5296  2.1351 -1.9490
 6947SOL     OW32299   3.836   0.959   2.865  0.0505  0.2448 -0.2332
 6947SOL    HW132300   3.880   0.969   2.781  2.2769  0.4860  0.9596
 6947SOL    HW232301   3.755   0.997   2.832  0.7949  1.6135 -0.4740
 6948SOL     OW32302   0.168   4.053   7.664  0.8105  0.1430  0.4181
 6948SOL    HW132303   0.230   4.083   7.730  0.8910  1.2050 -0.1450
 6948SOL    HW232304   0.090   4.024   7.712 -0.1074  2.1365  0.1220
 6949SOL     OW32305   1.817   1.539  14.688 -0.1497 -0.5455 -0.0110
 6949SOL    HW132306   1.859   1.624  14.700 -3.7649  1.3033 -0.5039
 6949SOL    HW232307   1.726   1.568  14.692 -0.7793 -2.2081 -2.0654
 6950SOL     OW32308   1.853   3.613   9.649 -0.4487 -0.3827 -0.1918
 6950SOL    HW132309   1.818   3.559   9.579  0.8495 -2.3432  0.6918
 6950SOL    HW232310   1.852   3.700   9.609  1.4412 -0.4215 -0.3095
 6951SOL     OW32311   0.037   1.517  12.266  0.2500  0.6155  0.2661
 6951SOL    HW132312   4.694   1.527  12.333  0.8762  0.2480  0.9377
 6951SOL    HW232313   0.108   1.529  12.329  2.0411 -1.9149 -1.2427
 6952SOL     OW32314   3.325   1.047  15.440 -0.2081 -0.3430  0.8454
 6952SOL    HW132315   3.381   1.070  15.514  2.1443 -2.5624 -0.2592
 6952SOL    HW232316   3.243   1.088  15.468 -1.2507 -1.8118 -0.0624
 6953SOL     OW32317   1.200   0.701   8.726 -0.1066  0.2176 -0.3548
 6953SOL    HW132318   1.115   0.709   8.683 -0.0192 -0.0954 -0.5836
 6953SOL    HW232319   1.220   0.793   8.744 -0.4735  0.3958 -0.8581
 6954SOL     OW32320   1.358   1.816   3.551 -0.7126  0.5553 -0.2451
 6954SOL    HW132321   1.400   1.731   3.540  1.5178  1.7872 -1.1135
 6954SOL    HW232322   1.401   1.866   3.482 -1.7440  0.3456 -1.0467
 6955SOL     OW32323   1.071   3.475  12.030  0.4072 -0.0723 -0.0016
 6955SOL    HW132324   0.996   3.441  12.079  0.0730 -0.0860 -0.5260
 6955SOL    HW232325   1.032   3.515  11.953 -0.8371  0.8166  1.0921
 6956SOL     OW32326   3.944   2.936  13.055 -0.2479  0.2406 -0.3383
 6956SOL    HW132327   3.959   2.860  13.110  0.6586 -0.7109 -1.9007
 6956SOL    HW232328   3.926   2.903  12.967 -1.5434 -0.2382  0.1060
 6957SOL     OW32329   1.404   3.984   6.685  0.6516  0.2099  0.1013
 6957SOL    HW132330   1.350   4.057   6.654  2.4777  1.0410 -1.1656
 6957SOL    HW232331   1.492   4.021   6.672  0.8684 -0.1554  0.5209
 6958SOL     OW32332   2.337   1.802  16.321 -0.4180 -0.6383  0.2993
 6958SOL    HW132333   2.284   1.881  16.313  0.4087 -0.0441  0.7893
 6958SOL    HW232334   2.411   1.844  16.363  0.2349 -2.2741  0.7968
 6959SOL     OW32335   1.423   2.891   3.028  0.7463 -1.2635  0.0279
 6959SOL    HW132336   1.352   2.919   2.971  0.0575  1.0670  2.0590
 6959SOL    HW232337   1.439   2.973   3.075 -2.0872  0.4930 -2.0396
 6960SOL     OW32338   0.360   3.899   7.983  0.1240  0.1228 -0.1813
 6960SOL    HW132339   0.328   3.985   7.954 -2.8203 -1.3512 -1.2948
 6960SOL    HW232340   0.278   3.885   8.030  0.8504 -1.6586  0.5270
 6961SOL     OW32341   4.677   1.025  11.498  0.0232 -0.3481 -0.2840
 6961SOL    HW132342   0.016   0.953  11.506  0.0623 -0.2921 -0.0761
 6961SOL    HW232343   4.649   1.011  11.589  1.4634  0.1223  0.2355
 6962SOL     OW32344   3.657   4.474   1.759 -0.7163 -0.3520  0.2489
 6962SOL    HW132345   3.585   4.481   1.822  0.7337  0.9817  1.7611
 6962SOL    HW232346   3.711   4.405   1.797  0.5189  0.7623  0.4968
 6963SOL     OW32347   1.169   1.185  15.363 -0.0853  0.1448 -0.1275
 6963SOL    HW132348   1.089   1.235  15.382  0.1983  0.7063 -0.4392
 6963SOL    HW232349   1.210   1.174  15.449 -1.3803  0.1173  0.5002
 6964SOL     OW32350   0.332   0.699  10.419 -0.1949  0.2856 -0.6886
 6964SOL    HW132351   0.426   0.705  10.400  0.2035 -1.2816  0.7296
 6964SOL    HW232352   0.301   0.782  10.384  3.2932  1.4811 -0.9359
 6965SOL     OW32353   3.111   1.854   1.360 -0.0949 -0.7729  0.0956
 6965SOL    HW132354   3.194   1.820   1.394  1.1088  0.5736 -1.4940
 6965SOL    HW232355   3.055   1.818   1.429  0.3012  1.2864  1.4865
 6966SOL     OW32356   0.471   4.482   5.855  0.0461 -0.1797 -0.2835
 6966SOL    HW132357   0.509   4.526   5.778 -0.7997 -0.0454 -0.6180
 6966SOL    HW232358   0.545   4.427   5.882  1.0678  0.7486 -1.1227
 6967SOL     OW32359   3.232   1.800  11.777  0.2787  0.2534  0.2007
 6967SOL    HW132360   3.238   1.723  11.721  1.1043  0.1663  0.4069
 6967SOL    HW232361   3.139   1.790  11.796  0.1910  0.0555 -0.3466
 6968SOL     OW32362   3.504   1.896  14.565 -0.3361  0.6137  0.2846
 6968SOL    HW132363   3.475   1.985  14.586 -0.7876  0.2940  1.0172
 6968SOL    HW232364   3.564   1.913  14.493 -0.1101 -0.3486  0.2442
 6969SOL     OW32365   0.654   3.169   5.420  0.4395 -0.3004  0.4560
 6969SOL    HW132366   0.642   3.254   5.378 -0.2090 -1.6107 -2.0093
 6969SOL    HW232367   0.655   3.199   5.510  0.9643 -0.5148  0.5242
 6970SOL     OW32368   2.882   0.845  11.001  0.1975 -0.0139  0.3712
 6970SOL    HW132369   2.834   0.787  11.061 -0.2609  0.0783  0.0919
 6970SOL    HW232370   2.817   0.876  10.938 -0.8830 -0.0860  1.4405
 6971SOL     OW32371   3.044   3.236   5.413 -0.7041  0.2440  0.0280
 6971SOL    HW132372   3.091   3.267   5.336 -0.5595 -1.1643 -0.4455
 6971SOL    HW232373   3.111   3.193   5.466 -0.0874 -1.0210 -1.7547
 6972SOL     OW32374   0.557   3.827   6.524 -0.7408  0.5542  1.0176
 6972SOL    HW132375   0.631   3.888   6.531 -0.2776  0.1134  0.1192
 6972SOL    HW232376   0.491   3.894   6.510 -0.3842  0.8377  0.6665
 6973SOL     OW32377   3.563   4.292   2.678  0.5138 -0.4184  0.3817
 6973SOL    HW132378   3.640   4.243   2.648  0.1152 -0.9555  0.2434
 6973SOL    HW232379   3.495   4.225   2.684  0.6820 -0.6803 -0.5608
 6974SOL     OW32380   3.595   2.011  15.098 -0.1655 -0.1695 -0.1100
 6974SOL    HW132381   3.526   1.963  15.145 -1.1292 -0.6629 -2.0321
 6974SOL    HW232382   3.633   1.941  15.045 -1.5291 -0.9137 -0.1136
 6975SOL     OW32383   3.106   4.060   5.934 -0.0904 -0.0680  0.2079
 6975SOL    HW132384   3.199   4.045   5.951 -0.2505 -0.2421  0.9338
 6975SOL    HW232385   3.073   4.080   6.022  0.6114 -3.2670  1.2265
 6976SOL     OW32386   0.674   1.610   6.082  0.2278 -0.2516  0.1396
 6976SOL    HW132387   0.678   1.519   6.053 -1.5893 -0.7359  1.4352
 6976SOL    HW232388   0.579   1.620   6.075  0.6359  2.7187 -1.0536
 6977SOL     OW32389   1.034   4.465   2.231  0.0748  0.1300 -0.6851
 6977SOL    HW132390   1.005   4.376   2.208 -0.8591  0.3269 -0.2812
 6977SOL    HW232391   0.970   4.515   2.181 -1.6586 -0.4021  0.9756
 6978SOL     OW32392   0.120   2.803   1.537  0.7812 -0.3250  0.3515
 6978SOL    HW132393   0.149   2.714   1.521 -0.4211 -0.5070 -0.7527
 6978SOL    HW232394   0.071   2.826   1.458  2.2149 -0.0933 -0.4656
 6979SOL     OW32395   3.917   4.593   1.596 -0.5654 -0.3302 -0.3011
 6979SOL    HW132396   3.893   4.508   1.560 -1.0998 -0.1491 -0.3688
 6979SOL    HW232397   4.012   4.580   1.593 -0.7927 -1.7846 -1.3633
 6980SOL     OW32398   2.795   1.324   7.058 -0.7001  0.9020  0.6350
 6980SOL    HW132399   2.821   1.279   7.139  0.9618  1.8524  0.6359
 6980SOL    HW232400   2.883   1.345   7.026 -0.1221 -0.8521  1.0816
 6981SOL     OW32401   3.721   0.217   6.914 -0.2905 -0.6987  0.2163
 6981SOL    HW132402   3.655   0.211   6.983  1.5215 -0.2662  1.9896
 6981SOL    HW232403   3.795   0.257   6.960  0.6087  0.7431 -2.4339
 6982SOL     OW32404   3.706   2.038   5.284  0.2488 -0.0369 -0.4283
 6982SOL    HW132405   3.706   1.966   5.347  0.4344  0.4792  0.1654
 6982SOL    HW232406   3.800   2.054   5.283  0.0439  1.2891  0.5308
 6983SOL     OW32407   0.236   4.393   8.976 -0.2091 -0.3601 -0.1621
 6983SOL    HW132408   0.204   4.482   8.960 -0.2871 -0.4457 -0.4674
 6983SOL    HW232409   0.311   4.407   9.035  2.1388 -2.2846 -2.7026
 6984SOL     OW32410   3.521   0.851   7.915  0.0357  0.1402  0.4968
 6984SOL    HW132411   3.495   0.824   7.827  2.2266 -0.7157  0.1045
 6984SOL    HW232412   3.437   0.888   7.943 -0.0982 -0.0349  0.3281
 6985SOL     OW32413   0.816   3.543   3.174 -0.0411 -0.3709 -0.4959
 6985SOL    HW132414   0.826   3.574   3.264  0.5644  0.4334 -0.8456
 6985SOL    HW232415   0.905   3.518   3.151 -0.2613 -1.2305 -0.3955
 6986SOL     OW32416   0.675   2.289   2.403 -0.5623 -0.2851  0.0706
 6986SOL    HW132417   0.614   2.323   2.468  1.0734  1.0948  0.8619
 6986SOL    HW232418   0.619   2.285   2.325 -0.4026  1.3660 -0.1383
 6987SOL     OW32419   3.763   4.661   0.250  0.3023 -0.2531  0.1206
 6987SOL    HW132420   3.720   0.022   0.233 -0.3674 -0.6409 -0.1341
 6987SOL    HW232421   3.762   4.653   0.345 -1.8683  1.1083  0.2188
 6988SOL     OW32422   4.002   2.789  15.458 -0.2636 -0.4409 -0.0914
 6988SOL    HW132423   4.044   2.711  15.422  0.0848 -0.1782 -0.2543
 6988SOL    HW232424   4.050   2.853  15.405  0.1765 -0.3495  0.4204
 6989SOL     OW32425   0.955   4.315   4.966 -0.0952  0.1195  0.2678
 6989SOL    HW132426   0.972   4.221   4.966  0.2783  0.1861  0.8916
 6989SOL    HW232427   0.996   4.349   4.886  3.4206 -0.8231  1.6585
 6990SOL     OW32428   0.714   2.096   3.211 -0.3988 -0.5389  0.4627
 6990SOL    HW132429   0.632   2.114   3.164 -0.1276  0.6349  0.4367
 6990SOL    HW232430   0.675   2.099   3.298  1.5021 -3.1893  1.3777
 6991SOL     OW32431   1.802   4.614   8.271  0.3905  0.3554  0.4348
 6991SOL    HW132432   1.801   4.526   8.234  2.5048  0.5967 -0.1992
 6991SOL    HW232433   1.887   4.649   8.248  0.4332  0.3323  0.5554
 6992SOL     OW32434   3.096   1.495  12.752  0.3706 -0.1668  0.3288
 6992SOL    HW132435   3.098   1.526  12.843 -0.6400  0.2120  0.2152
 6992SOL    HW232436   3.011   1.513  12.712  0.3671 -2.2099 -0.5688
 6993SOL     OW32437   2.488   3.338  14.385 -0.2556 -0.7892  0.3312
 6993SOL    HW132438   2.564   3.284  14.409  2.6843  1.9501 -2.7708
 6993SOL    HW232439   2.425   3.289  14.437 -1.3595 -0.2961 -0.5274
 6994SOL     OW32440   1.148   1.377   2.354  0.5429 -0.4225 -0.0447
 6994SOL    HW132441   1.074   1.326   2.388 -0.2299  2.0954  2.0882
 6994SOL    HW232442   1.201   1.370   2.434  1.5791 -0.3423 -0.7311
 6995SOL     OW32443   4.052   4.503   8.413 -0.2021 -0.5764  0.2798
 6995SOL    HW132444   4.140   4.533   8.391  0.1137 -0.2071  2.0659
 6995SOL    HW232445   4.077   4.480   8.502  1.0383 -1.5612 -0.3225
 6996SOL     OW32446   1.257   2.847   5.951  0.2022 -0.1033 -0.1930
 6996SOL    HW132447   1.237   2.836   5.859  0.2029  1.6958 -0.4088
 6996SOL    HW232448   1.180   2.822   6.002  0.8746 -2.0948 -0.1484
 6997SOL     OW32449   3.124   2.827   4.726 -0.3504  0.6846  0.7156
 6997SOL    HW132450   3.127   2.846   4.632  0.6526  1.6266  0.9402
 6997SOL    HW232451   3.044   2.775   4.720 -0.0623  0.3640 -0.2681
 6998SOL     OW32452   1.146   2.813  16.933  0.4225 -0.5339 -0.4132
 6998SOL    HW132453   1.117   2.850  17.017  0.9513  0.6451 -0.7433
 6998SOL    HW232454   1.110   2.726  16.946 -0.6040 -0.1409 -0.6621
 6999SOL     OW32455   0.646   0.054   4.826 -0.1776  0.4332  0.1420
 6999SOL    HW132456   0.658   4.693   4.782  4.7693  0.5879  1.1530
 6999SOL    HW232457   0.666   0.031   4.917  1.6751  0.1561 -0.3267
 7000SOL     OW32458   2.255   2.073   8.627 -0.5484  0.0996 -0.2900
 7000SOL    HW132459   2.193   2.108   8.690  2.3387  1.3166  1.8642
 7000SOL    HW232460   2.208   1.992   8.607 -1.8309  1.1282 -1.4705
 7001SOL     OW32461   3.262   2.469   7.934  0.1040  0.0004 -0.4217
 7001SOL    HW132462   3.278   2.452   7.841 -3.1602  1.0441 -1.1999
 7001SOL    HW232463   3.171   2.440   7.944  0.1853  0.0131  0.3108
 7002SOL     OW32464   4.553   3.932   5.600  0.0057  0.3446 -0.0748
 7002SOL    HW132465   4.556   3.989   5.677  0.6364 -1.1193  0.9872
 7002SOL    HW232466   4.459   3.915   5.593  0.2168 -0.0880 -1.7149
 7003SOL     OW32467   0.286   3.681   3.965 -0.4003 -0.1096 -0.4673
 7003SOL    HW132468   0.212   3.681   4.026  1.2046 -1.4331  1.4724
 7003SOL    HW232469   0.341   3.605   3.984 -0.7392 -0.3260 -0.3559
 7004SOL     OW32470   1.938   4.167   7.771  0.2976 -0.3148 -0.4986
 7004SOL    HW132471   1.911   4.148   7.681  0.0734 -1.3665 -0.2076
 7004SOL    HW232472   1.861   4.210   7.808  0.7948  0.4313 -0.3252
 7005SOL     OW32473   4.245   3.904   7.597 -0.1987  0.5838 -0.0567
 7005SOL    HW132474   4.174   3.931   7.655 -0.0411 -2.4992  1.5193
 7005SOL    HW232475   4.310   3.969   7.624  0.5584  0.0807 -0.6742
 7006SOL     OW32476   1.703   0.017   3.736  0.2973  0.0357  0.3019
 7006SOL    HW132477   1.655   4.670   3.778 -0.4389  0.6800  0.5425
 7006SOL    HW232478   1.660   0.021   3.650 -0.8623 -0.1341  0.8780
 7007SOL     OW32479   4.224   1.489   2.725 -0.3079  0.0724 -0.0828
 7007SOL    HW132480   4.307   1.534   2.736 -0.7159  0.8606 -0.2328
 7007SOL    HW232481   4.258   1.420   2.669  2.3756 -0.4318  2.2116
 7008SOL     OW32482   0.977   2.722   7.785 -0.5954 -0.0732  0.1439
 7008SOL    HW132483   0.951   2.697   7.874  0.2781 -0.2028  0.3604
 7008SOL    HW232484   1.058   2.769   7.801 -0.9765  1.0236 -1.1536
 7009SOL     OW32485   1.020   3.684   4.276  0.0210  0.3278  0.0836
 7009SOL    HW132486   1.020   3.718   4.365  1.0032 -2.7398  1.2649
 7009SOL    HW232487   0.925   3.687   4.267 -0.0572  0.6103  1.0187
 7010SOL     OW32488   3.379   0.644   9.401 -0.0318 -0.1152  0.1093
 7010SOL    HW132489   3.324   0.709   9.445 -0.0813 -0.3484  0.3970
 7010SOL    HW232490   3.321   0.612   9.332  0.1262 -2.4650  1.0287
 7011SOL     OW32491   0.846   3.918   7.017  0.3447 -0.2598 -0.0584
 7011SOL    HW132492   0.899   3.844   6.988  0.8552  0.7276 -1.6590
 7011SOL    HW232493   0.875   3.920   7.108  0.8325  2.1484 -0.2810
 7012SOL     OW32494   2.236   2.336   0.205  0.7554  0.0427 -0.3389
 7012SOL    HW132495   2.191   2.275   0.264 -0.7519 -0.3869 -1.9069
 7012SOL    HW232496   2.240   2.268   0.138  2.0453  0.5180 -0.7406
 7013SOL     OW32497   2.227   1.540   3.625  0.0928  0.5436 -0.2273
 7013SOL    HW132498   2.137   1.570   3.619  0.0127  0.4349  0.4329
 7013SOL    HW232499   2.238   1.517   3.717  1.1904  1.5002 -0.1209
 7014SOL     OW32500   2.317   3.148   5.814 -0.3038 -0.2891  0.5622
 7014SOL    HW132501   2.390   3.100   5.853 -0.8340 -1.8485 -0.3654
 7014SOL    HW232502   2.254   3.076   5.807 -0.7941  0.4127 -2.4589
 7015SOL     OW32503   3.182   3.479   0.843 -0.4364 -0.1236 -0.2480
 7015SOL    HW132504   3.229   3.397   0.829 -1.1105 -1.0838  3.0085
 7015SOL    HW232505   3.171   3.513   0.754  0.6114  0.0869 -0.3020
 7016SOL     OW32506   1.274   1.478   4.977  0.5826  0.3208  0.2711
 7016SOL    HW132507   1.293   1.429   4.896  1.0621  0.6164  0.2039
 7016SOL    HW232508   1.223   1.409   5.019 -0.2584 -2.3152 -5.1721
 7017SOL     OW32509   0.537   0.973  14.821  0.0502 -0.3731  0.2727
 7017SOL    HW132510   0.607   0.958  14.757 -0.3167 -1.3517  0.1019
 7017SOL    HW232511   0.469   0.914  14.790 -2.2662  1.5562  1.7340
 7018SOL     OW32512   2.528   1.995   7.802  0.0679 -0.1162 -0.4892
 7018SOL    HW132513   2.481   1.984   7.885 -0.6112 -3.2166 -1.3090
 7018SOL    HW232514   2.505   2.083   7.771 -2.2460 -1.8331 -3.6361
 7019SOL     OW32515   0.473   0.895   2.249  0.2970 -0.5555  0.1801
 7019SOL    HW132516   0.419   0.822   2.280  0.5849 -0.8941 -0.1091
 7019SOL    HW232517   0.541   0.844   2.204 -1.4072 -0.7919 -2.1355
 7020SOL     OW32518   1.184   3.689   7.862 -0.4022  0.0642 -0.6814
 7020SOL    HW132519   1.203   3.611   7.914  0.3615  0.6150 -0.1254
 7020SOL    HW232520   1.117   3.735   7.912 -2.0278 -1.4101 -1.5246
 7021SOL     OW32521   3.255   0.211   7.169  0.4887  0.3567  0.0103
 7021SOL    HW132522   3.215   0.212   7.081  0.9280 -0.0377 -0.1918
 7021SOL    HW232523   3.238   0.123   7.201  1.7172 -0.1548 -0.7705
 7022SOL     OW32524   2.655   1.842   8.637  0.8802 -0.6003  0.0846
 7022SOL    HW132525   2.660   1.875   8.547 -1.7241 -0.3391  0.0541
 7022SOL    HW232526   2.627   1.920   8.684 -0.2264  0.5505 -2.4822
 7023SOL     OW32527   3.891   2.446   4.951  0.0679  0.7364 -0.3964
 7023SOL    HW132528   3.818   2.392   4.982  0.4185  1.8634  2.4231
 7023SOL    HW232529   3.932   2.392   4.883  2.1836  1.7508  0.0694
 7024SOL     OW32530   1.653   2.016   8.616  0.4040  0.0692  0.2019
 7024SOL    HW132531   1.725   2.072   8.644 -0.6150  1.4599  0.0442
 7024SOL    HW232532   1.598   2.027   8.693 -2.1005 -2.5152 -1.2206
 7025SOL     OW32533   3.779   3.200  16.388  0.0357  0.0643  0.1583
 7025SOL    HW132534   3.712   3.239  16.446  1.6527  2.4643  0.4083
 7025SOL    HW232535   3.854   3.237  16.434 -1.7036  2.4690  1.0910
 7026SOL     OW32536   2.908   1.615   1.982  0.2366 -0.4456 -0.6778
 7026SOL    HW132537   2.862   1.582   1.905 -1.3891  0.4071 -0.0613
 7026SOL    HW232538   2.946   1.539   2.025  1.0738  1.5230  2.0759
 7027SOL     OW32539   0.404   4.033   6.802  0.3703 -0.0328  0.2942
 7027SOL    HW132540   0.414   4.035   6.707 -0.1701 -1.9474  0.1998
 7027SOL    HW232541   0.366   3.946   6.814  1.0599 -0.0449  2.4024
 7028SOL     OW32542   3.223   4.491   9.741  0.2032  0.0675 -0.1840
 7028SOL    HW132543   3.296   4.440   9.776 -0.4284 -0.2706  0.6425
 7028SOL    HW232544   3.224   4.569   9.796 -2.8376 -0.1786  0.2561
 7029SOL     OW32545   2.890   0.565   5.650  0.3654  0.1414  0.3376
 7029SOL    HW132546   2.881   0.569   5.745 -1.2668 -0.8001  0.2078
 7029SOL    HW232547   2.941   0.483   5.649 -1.5646 -1.0542  0.1186
 7030SOL     OW32548   3.791   0.265   4.427 -0.2532 -0.1278 -0.0755
 7030SOL    HW132549   3.821   0.205   4.358 -0.9241 -1.9495  1.2011
 7030SOL    HW232550   3.752   0.203   4.488 -1.4613  1.4760  0.7683
 7031SOL     OW32551   4.569   2.042   7.179  0.2656 -0.2738  0.2992
 7031SOL    HW132552   4.655   2.001   7.172  0.2322 -0.4008  0.6308
 7031SOL    HW232553   4.539   1.996   7.257 -1.5371  0.0639 -0.1787
 7032SOL     OW32554   1.117   3.996   2.105 -0.0958  0.2675 -0.4338
 7032SOL    HW132555   1.114   3.991   2.200  0.0852 -0.8815 -0.4889
 7032SOL    HW232556   1.208   4.017   2.084 -0.3476  0.9348 -0.8598
 7033SOL     OW32557   2.340   2.921   2.685  0.3689 -0.1731  0.3125
 7033SOL    HW132558   2.334   2.826   2.687  1.2047 -0.1764  3.8926
 7033SOL    HW232559   2.399   2.937   2.759  1.1224 -2.2901  0.1668
 7034SOL     OW32560   1.630   0.443   8.886  0.1740 -0.2677  0.5165
 7034SOL    HW132561   1.603   0.355   8.863  0.1514 -0.3159  0.7251
 7034SOL    HW232562   1.551   0.480   8.847 -1.8352 -2.6629  2.2827
 7035SOL     OW32563   1.065   1.399   8.337 -0.3005 -0.2797 -0.1559
 7035SOL    HW132564   0.974   1.420   8.358 -0.2386  1.1553 -1.2549
 7035SOL    HW232565   1.114   1.412   8.418  2.2674  0.6847 -1.8368
 7036SOL     OW32566   2.394   0.130  15.677  0.1090 -0.2429 -0.7496
 7036SOL    HW132567   2.420   0.123  15.769 -0.1899  0.8356 -0.5834
 7036SOL    HW232568   2.387   0.225  15.672 -3.0882 -0.4977 -0.9271
 7037SOL     OW32569   0.833   1.606  11.039  0.4504 -0.2287  0.8109
 7037SOL    HW132570   0.834   1.522  11.086  1.5006 -0.6795 -0.0414
 7037SOL    HW232571   0.853   1.574  10.951  0.1444  1.3207  0.1788
 7038SOL     OW32572   1.318   0.907   8.862  0.1141 -0.4322 -0.0186
 7038SOL    HW132573   1.389   0.869   8.914 -0.2684 -0.9950  0.0968
 7038SOL    HW232574   1.280   0.953   8.936 -0.8666  1.5624 -1.7788
 7039SOL     OW32575   3.429   3.940   2.779 -0.3615 -0.2387  0.3895
 7039SOL    HW132576   3.418   3.951   2.684 -0.1017 -1.9422  0.1574
 7039SOL    HW232577   3.355   3.990   2.812  0.0443  1.6668 -1.6192
 7040SOL     OW32578   0.142   2.334   7.923  0.0326 -0.3936 -0.6123
 7040SOL    HW132579   0.192   2.407   7.958 -0.5938 -0.8889  1.3205
 7040SOL    HW232580   0.207   2.264   7.925 -1.1010 -1.3670  2.6330
 7041SOL     OW32581   4.333   3.643  14.909 -0.3790  0.4745  0.0667
 7041SOL    HW132582   4.343   3.589  14.988  0.0104  0.3424 -0.0721
 7041SOL    HW232583   4.359   3.727  14.948  1.9049  0.7874 -2.1560
 7042SOL     OW32584   0.825   0.935  11.794  0.5345  0.3242 -0.2445
 7042SOL    HW132585   0.766   0.912  11.866 -0.7558  0.1971 -1.3404
 7042SOL    HW232586   0.793   1.020  11.765 -2.7229 -0.1897  1.8380
 7043SOL     OW32587   3.470   1.981   5.171  0.5004 -0.1378 -0.2747
 7043SOL    HW132588   3.562   1.998   5.191  0.9812 -0.0769 -2.5042
 7043SOL    HW232589   3.428   2.004   5.253 -0.5892 -2.0241 -0.3096
 7044SOL     OW32590   2.103   2.091   5.939 -0.2331  0.5302 -0.1067
 7044SOL    HW132591   2.018   2.048   5.944  0.5551 -1.0656 -0.4222
 7044SOL    HW232592   2.074   2.182   5.935  0.3722  0.6719 -1.3085
 7045SOL     OW32593   3.834   3.355  10.101  0.0629  0.6388  0.2599
 7045SOL    HW132594   3.816   3.262  10.113 -1.8865  1.1185  1.0617
 7045SOL    HW232595   3.847   3.358  10.006  2.7316  0.5703  0.6221
 7046SOL     OW32596   3.682   2.883   5.833  0.0128  0.5111  0.5728
 7046SOL    HW132597   3.725   2.881   5.748  0.4753 -1.3395  0.8543
 7046SOL    HW232598   3.627   2.804   5.832 -1.2515  1.3718  1.6315
 7047SOL     OW32599   4.088   3.488   6.071  0.2727  0.0962  0.2729
 7047SOL    HW132600   4.154   3.533   6.123 -0.8996 -0.1147  1.9264
 7047SOL    HW232601   4.128   3.400   6.070  2.3198  1.0167  0.8495
 7048SOL     OW32602   2.098   2.764   1.563  0.8232 -0.3657 -0.1446
 7048SOL    HW132603   2.092   2.685   1.617 -3.3965 -0.0153 -0.1022
 7048SOL    HW232604   2.004   2.780   1.552  1.2085  0.9902 -1.5357
 7049SOL     OW32605   4.245   2.044  14.339 -1.0703  0.4578  0.3219
 7049SOL    HW132606   4.279   2.056  14.427 -0.0957  1.2152 -0.1561
 7049SOL    HW232607   4.234   2.133  14.307  2.2106  1.5618  2.3777
 7050SOL     OW32608   0.931   0.552   2.944  0.2806  0.1966 -0.0154
 7050SOL    HW132609   0.981   0.514   3.016 -0.6278  0.1954  0.6150
 7050SOL    HW232610   0.892   0.633   2.976  1.3217  0.7679 -0.1893
 7051SOL     OW32611   0.308   1.948   6.430  0.2136  0.0485  0.2376
 7051SOL    HW132612   0.344   2.034   6.409  0.3227 -0.9597 -3.7574
 7051SOL    HW232613   0.390   1.899   6.423  0.2468  0.1128  0.1702
 7052SOL     OW32614   4.553   3.740   6.485 -0.7304  0.1781  0.2130
 7052SOL    HW132615   4.611   3.676   6.525  0.3046  2.8967  3.0392
 7052SOL    HW232616   4.473   3.687   6.481  1.3620 -2.8785 -1.3023
 7053SOL     OW32617   0.895   4.225   4.031  0.2249  0.0236  0.2003
 7053SOL    HW132618   0.970   4.212   4.090  1.5673  0.2941 -1.4621
 7053SOL    HW232619   0.881   4.141   3.988 -2.5024  0.8375 -0.5107
 7054SOL     OW32620   3.961   2.712  17.581 -0.2917  0.7142  0.5973
 7054SOL    HW132621   4.045   2.702  17.535 -2.0770  1.2405 -2.8150
 7054SOL    HW232622   3.929   2.792  17.540 -2.1894 -2.6143 -4.4137
 7055SOL     OW32623   0.709   3.982   7.670 -0.0244 -0.0417 -0.2581
 7055SOL    HW132624   0.627   3.939   7.694  0.0434  0.0376  0.1067
 7055SOL    HW232625   0.768   3.912   7.699  0.5011 -0.2725 -1.8748
 7056SOL     OW32626   1.961   1.758  14.875 -0.3043  0.7820  0.1419
 7056SOL    HW132627   1.946   1.754  14.969  1.3530 -0.0540  0.3630
 7056SOL    HW232628   1.997   1.671  14.860 -2.6365 -0.1597  0.0218
 7057SOL     OW32629   2.950   2.444   4.328 -0.2253 -0.1467  0.0869
 7057SOL    HW132630   3.038   2.427   4.363 -0.8009 -2.1267  0.5621
 7057SOL    HW232631   2.969   2.429   4.236 -2.2195  2.2611 -0.7133
 7058SOL     OW32632   0.333   3.044  14.115 -0.2852 -0.5972 -0.1808
 7058SOL    HW132633   0.302   2.961  14.152  0.5694 -0.7730  0.1467
 7058SOL    HW232634   0.275   3.107  14.157 -1.3799 -1.0804 -0.9632
 7059SOL     OW32635   0.328   3.889   4.516  0.2268  0.1743  0.6792
 7059SOL    HW132636   0.354   3.825   4.582  0.1504 -1.6552 -1.0750
 7059SOL    HW232637   0.256   3.937   4.558  0.0818 -0.9424  1.6946
 7060SOL     OW32638   1.610   1.763  16.870  0.9404 -0.0391 -0.7764
 7060SOL    HW132639   1.634   1.786  16.780  2.0395  0.6450 -0.2985
 7060SOL    HW232640   1.686   1.800  16.914 -0.1157 -0.2232  1.1694
 7061SOL     OW32641   4.648   3.873   0.536 -0.1825 -0.1089 -0.5392
 7061SOL    HW132642   4.571   3.924   0.562 -0.7071 -1.3031  0.2774
 7061SOL    HW232643   4.714   3.936   0.507 -1.0409  2.1351  2.4388
 7062SOL     OW32644   1.979   0.546   1.264  0.2065 -0.5729  0.5837
 7062SOL    HW132645   1.971   0.538   1.359  0.6863  0.5092  0.7176
 7062SOL    HW232646   1.905   0.607   1.262 -0.2848 -1.1883  0.2087
 7063SOL     OW32647   3.879   0.708  17.496  0.3479  0.3214  0.1778
 7063SOL    HW132648   3.956   0.685  17.444 -0.1924 -1.6120  0.2610
 7063SOL    HW232649   3.831   0.627  17.482  0.1243  0.7172 -1.3544
 7064SOL     OW32650   4.308   0.802   9.328  0.0264  0.3702  0.2913
 7064SOL    HW132651   4.270   0.776   9.413  0.6661 -1.3789  0.0396
 7064SOL    HW232652   4.239   0.856   9.290  0.3124 -1.0979 -2.3102
 7065SOL     OW32653   0.006   3.489  16.776 -0.6113  0.3128 -0.0199
 7065SOL    HW132654   0.031   3.574  16.739  0.2178  0.4171  0.7928
 7065SOL    HW232655   4.645   3.477  16.734  0.2892 -0.8053 -1.5237
 7066SOL     OW32656   0.583   1.995   1.916  0.1687 -0.0955  0.4251
 7066SOL    HW132657   0.632   2.077   1.919 -0.0242  0.0423 -0.2541
 7066SOL    HW232658   0.498   2.039   1.926 -0.4726 -0.5737 -2.8929
 7067SOL     OW32659   1.449   4.084   2.404  0.3854 -0.0679  0.2010
 7067SOL    HW132660   1.417   4.010   2.352  0.8783 -1.0977  1.3665
 7067SOL    HW232661   1.394   4.076   2.482  0.1029  1.2429  0.1312
 7068SOL     OW32662   2.846   4.092   3.302 -0.1812 -0.4880  0.0322
 7068SOL    HW132663   2.829   4.036   3.377  1.7815 -0.2161  0.6771
 7068SOL    HW232664   2.751   4.105   3.303 -0.3384 -1.8268  1.2426
 7069SOL     OW32665   1.459   0.756   2.399  0.1207  0.3520  0.2756
 7069SOL    HW132666   1.523   0.702   2.353  1.7004  2.6407 -0.1883
 7069SOL    HW232667   1.384   0.698   2.385  0.2171  0.3352 -0.1839
 7070SOL     OW32668   4.133   3.775   4.887  0.1657  0.2178 -0.1486
 7070SOL    HW132669   4.078   3.749   4.813  0.8796 -0.5058 -0.4391
 7070SOL    HW232670   4.212   3.726   4.862 -0.2461 -0.9866  0.9058
 7071SOL     OW32671   0.635   3.718   4.603  0.1089  0.2700  0.1718
 7071SOL    HW132672   0.563   3.717   4.666  0.0475 -4.2457  0.0229
 7071SOL    HW232673   0.589   3.758   4.529 -2.1810  0.4720  1.6804
 7072SOL     OW32674   2.812   2.999   8.496  0.0645 -0.6135  0.1612
 7072SOL    HW132675   2.738   2.973   8.551  1.7426 -0.4377  2.5121
 7072SOL    HW232676   2.859   2.916   8.503  0.1583 -0.5060  0.8074
 7073SOL     OW32677   1.943   2.318   5.958  0.4390 -0.8748  0.4822
 7073SOL    HW132678   1.983   2.377   6.022  1.1158  1.3243 -1.9525
 7073SOL    HW232679   1.997   2.325   5.880  1.9594 -1.2264  1.4929
 7074SOL     OW32680   3.155   4.483  11.262 -0.7619 -0.1141  0.1385
 7074SOL    HW132681   3.129   4.391  11.267 -0.2296 -0.3888 -2.2632
 7074SOL    HW232682   3.112   4.515  11.342 -0.4511 -2.9459  1.4137
 7075SOL     OW32683   2.268   1.942   3.365 -0.0121 -0.1637  0.1627
 7075SOL    HW132684   2.261   2.021   3.311 -0.8997  0.3440  1.0350
 7075SOL    HW232685   2.347   1.971   3.412 -0.2620  1.1846 -0.2531
 7076SOL     OW32686   3.324   2.279  12.983 -0.1841  0.3489 -0.2698
 7076SOL    HW132687   3.397   2.221  12.961  0.6061  0.6919  1.4722
 7076SOL    HW232688   3.342   2.293  13.076  1.0187  1.8406 -0.7313
 7077SOL     OW32689   1.303   3.711   2.530 -0.0386  0.2303  0.5698
 7077SOL    HW132690   1.274   3.719   2.620 -0.7602  0.9257  0.2828
 7077SOL    HW232691   1.219   3.694   2.487 -0.3225  1.2237  0.7195
 7078SOL     OW32692   0.381   2.975   1.948 -0.1044  0.1703  0.1425
 7078SOL    HW132693   0.435   2.937   2.017 -2.1217 -1.0642  1.0604
 7078SOL    HW232694   0.310   2.912   1.959  1.2553 -1.4206 -0.1529
 7079SOL     OW32695   0.709   1.604   0.641  0.1055  0.0003  0.0085
 7079SOL    HW132696   0.647   1.557   0.696 -0.4247  1.1173  0.3616
 7079SOL    HW232697   0.797   1.569   0.653  1.5502  3.1419 -1.2522
 7080SOL     OW32698   3.969   3.533  14.946  0.3744 -0.3211  0.3827
 7080SOL    HW132699   3.910   3.588  14.997  1.8842  2.6138 -1.0526
 7080SOL    HW232700   4.006   3.474  15.012 -1.6350  0.6368  2.3639
 7081SOL     OW32701   0.470   1.751   6.887  0.4448  0.9015  0.1420
 7081SOL    HW132702   0.461   1.845   6.898 -1.0092  0.6301  1.2226
 7081SOL    HW232703   0.495   1.734   6.978 -1.3643 -0.5747  0.3622
 7082SOL     OW32704   3.895   4.560  11.603  0.3479 -0.0362  0.3266
 7082SOL    HW132705   3.857   4.648  11.594  0.9382  0.0290 -1.6920
 7082SOL    HW232706   3.908   4.550  11.697 -1.5506  0.1825  0.6239
 7083SOL     OW32707   1.638   1.073   5.809  0.5520 -0.1554  0.0160
 7083SOL    HW132708   1.559   1.110   5.848  0.2843  0.8319 -1.5079
 7083SOL    HW232709   1.662   0.992   5.856  2.0543 -0.3123 -1.0263
 7084SOL     OW32710   2.065   3.393   7.222 -0.2398  0.4700 -0.0117
 7084SOL    HW132711   2.117   3.470   7.249 -2.1177  1.0939  1.7939
 7084SOL    HW232712   2.063   3.344   7.304 -1.6105  2.4981  1.1883
 7085SOL     OW32713   1.418   2.751   3.294 -0.1664 -0.1763 -0.1926
 7085SOL    HW132714   1.359   2.677   3.281 -0.5051  0.2498 -1.0616
 7085SOL    HW232715   1.417   2.799   3.211  0.1717 -2.2534 -1.4008
 7086SOL     OW32716   3.312   0.941  12.460  0.0026  0.6796 -0.1981
 7086SOL    HW132717   3.248   1.001  12.497 -0.1491  0.9230 -0.8700
 7086SOL    HW232718   3.341   0.923  12.550 -2.2198 -1.4474  0.0757
 7087SOL     OW32719   3.679   0.378   3.773 -0.1113  0.1484 -0.0260
 7087SOL    HW132720   3.737   0.318   3.725 -0.6298 -0.0594 -0.3839
 7087SOL    HW232721   3.729   0.388   3.855 -1.8051 -1.3917  1.2113
 7088SOL     OW32722   3.768   1.295   7.105 -0.0924 -0.0931  0.4732
 7088SOL    HW132723   3.768   1.216   7.051  1.2025 -0.5096  1.0653
 7088SOL    HW232724   3.680   1.295   7.143 -0.3688  2.1671 -0.2134
 7089SOL     OW32725   0.617   3.737   2.640  0.4137 -0.5137  0.2495
 7089SOL    HW132726   0.662   3.658   2.611  0.4497 -0.7613  0.9794
 7089SOL    HW232727   0.585   3.760   2.553  1.1520  1.1083  0.4023
 7090SOL     OW32728   3.059   3.131   7.599 -0.3983  0.0912  0.0773
 7090SOL    HW132729   3.024   3.190   7.666  0.8633  1.9475 -0.8774
 7090SOL    HW232730   3.051   3.190   7.524 -2.1669  1.0009  0.9761
 7091SOL     OW32731   3.690   3.924   9.130  0.6488  0.0759 -0.4500
 7091SOL    HW132732   3.734   3.870   9.065  0.4370 -0.8089  0.1392
 7091SOL    HW232733   3.756   3.930   9.199  0.7128 -0.4052 -0.4715
 7092SOL     OW32734   3.588   2.051   7.867  0.0553 -0.4269  0.3953
 7092SOL    HW132735   3.645   2.027   7.940  0.3407 -2.0785 -0.3799
 7092SOL    HW232736   3.508   2.074   7.914  0.0515 -0.2176  0.2876
 7093SOL     OW32737   3.449   0.058   7.646 -0.0862  0.0262  0.9032
 7093SOL    HW132738   3.399   4.719   7.699 -1.2666  0.2808  0.0855
 7093SOL    HW232739   3.371   0.110   7.626  0.4802  0.7679  0.6304
 7094SOL     OW32740   3.774   0.965   5.178 -0.0911  0.2502  0.2370
 7094SOL    HW132741   3.708   1.003   5.236  0.9488  0.2030  1.4418
 7094SOL    HW232742   3.849   1.019   5.204  0.8873 -1.0190  0.0571
 7095SOL     OW32743   3.043   2.812   1.701  0.3245  0.5366 -0.3569
 7095SOL    HW132744   2.961   2.842   1.662  0.7417  4.0446  1.3740
 7095SOL    HW232745   3.013   2.809   1.792 -0.0239 -2.0890 -0.5824
 7096SOL     OW32746   2.107   2.296   9.113 -0.4527 -0.2689 -0.1552
 7096SOL    HW132747   2.085   2.331   9.199  0.2895  0.9927 -0.4869
 7096SOL    HW232748   2.087   2.367   9.052  1.3131  0.9554  0.6973
 7097SOL     OW32749   3.844   1.501   7.622  0.6058 -1.2797 -0.2027
 7097SOL    HW132750   3.878   1.415   7.646 -1.1072 -1.8896 -0.0047
 7097SOL    HW232751   3.811   1.530   7.707 -1.5727 -3.0648 -0.4580
 7098SOL     OW32752   0.115   0.986   3.866  0.2118 -0.2218  0.1529
 7098SOL    HW132753   0.052   0.981   3.794  1.9883 -0.6831 -1.3752
 7098SOL    HW232754   0.185   0.949   3.812 -0.8800 -1.6600 -0.2761
 7099SOL     OW32755   3.041   2.319  14.403 -0.6098  0.0771 -0.1268
 7099SOL    HW132756   3.080   2.405  14.388 -0.0114 -0.4624 -1.7202
 7099SOL    HW232757   2.975   2.343  14.468 -3.0478 -0.4580 -2.4003
 7100SOL     OW32758   1.761   3.908   3.865 -0.2964  0.0805  0.6168
 7100SOL    HW132759   1.826   3.969   3.830  0.8984 -0.3513  2.0827
 7100SOL    HW232760   1.713   3.954   3.934 -0.7951  1.7558 -0.8506
 7101SOL     OW32761   3.874   3.227   9.655  0.2434  0.4780  0.3777
 7101SOL    HW132762   3.948   3.217   9.594 -0.2524 -1.1359  0.0344
 7101SOL    HW232763   3.831   3.143   9.639 -1.4888  1.7180 -1.4115
 7102SOL     OW32764   0.800   3.971  17.456  0.3312 -0.2976  0.1215
 7102SOL    HW132765   0.823   3.981  17.548 -0.4276  0.4979  0.2270
 7102SOL    HW232766   0.886   3.958  17.416  0.3680 -0.7497  0.3536
 7103SOL     OW32767   1.018   3.286   5.328  0.0748 -0.2716 -0.2965
 7103SOL    HW132768   1.057   3.373   5.333 -1.8220  0.4842  1.5428
 7103SOL    HW232769   1.067   3.234   5.393  1.0618  0.0702 -0.7615
 7104SOL     OW32770   1.723   3.197   2.417  0.5635 -1.1093 -0.0440
 7104SOL    HW132771   1.647   3.245   2.385  2.4368  1.8915 -0.0002
 7104SOL    HW232772   1.767   3.271   2.459  1.0056  0.1082 -2.6506
 7105SOL     OW32773   2.966   2.663   8.028 -0.5611  0.1780 -0.1158
 7105SOL    HW132774   2.967   2.717   7.949 -3.2489 -2.7790 -2.1663
 7105SOL    HW232775   2.979   2.722   8.103 -2.3929  1.6392 -0.9392
 7106SOL     OW32776   2.151   3.396   1.610  0.0402  0.0736 -0.1505
 7106SOL    HW132777   2.197   3.441   1.681 -0.3658 -0.4614  0.4567
 7106SOL    HW232778   2.220   3.397   1.544  0.3998 -2.4754  0.1876
 7107SOL     OW32779   3.130   1.498  11.400 -1.2625 -0.1431  0.3297
 7107SOL    HW132780   3.151   1.584  11.363  0.7684 -1.0345 -0.5524
 7107SOL    HW232781   3.097   1.460  11.319 -1.0681 -1.2723  0.7705
 7108SOL     OW32782   1.622   2.960   0.805  0.1360  0.5451  0.4707
 7108SOL    HW132783   1.567   2.888   0.774  2.8395 -0.5452 -1.9020
 7108SOL    HW232784   1.706   2.932   0.767  0.8306  1.6538  1.1949
 7109SOL     OW32785   2.943   0.616   2.283 -0.2190  0.1117 -0.2398
 7109SOL    HW132786   2.862   0.590   2.240 -1.1133  0.8933  0.9894
 7109SOL    HW232787   2.954   0.705   2.249 -1.0360 -0.5315 -2.1670
 7110SOL     OW32788   2.006   2.764   3.970 -0.2784  0.0829  0.4464
 7110SOL    HW132789   2.046   2.782   3.885 -1.0244 -0.1645  0.0440
 7110SOL    HW232790   1.949   2.688   3.958 -0.5720  0.5924 -1.4143
 7111SOL     OW32791   3.708   3.832   8.004  0.3181 -0.5251  0.2690
 7111SOL    HW132792   3.747   3.913   8.039  1.0152  0.0405 -1.8379
 7111SOL    HW232793   3.627   3.860   7.961  1.6690  2.9219 -0.0546
 7112SOL     OW32794   4.348   4.343   9.108 -0.2441 -0.1818 -0.0360
 7112SOL    HW132795   4.383   4.426   9.077  0.1617 -0.6896 -0.9473
 7112SOL    HW232796   4.422   4.284   9.091 -0.4003 -0.0379 -1.1912
 7113SOL     OW32797   4.239   4.376   8.633 -0.0648  0.0109  0.4340
 7113SOL    HW132798   4.185   4.326   8.694 -0.6908  0.0025 -0.1261
 7113SOL    HW232799   4.326   4.361   8.670  0.9798  1.5114 -1.4023
 7114SOL     OW32800   1.147   2.187   5.563 -0.3240  0.4246 -0.2825
 7114SOL    HW132801   1.117   2.104   5.526  0.1428  0.5242 -0.8941
 7114SOL    HW232802   1.066   2.229   5.592 -0.4070 -1.6260  2.4054
 7115SOL     OW32803   2.169   1.168   2.707 -0.0017  0.4727  0.3778
 7115SOL    HW132804   2.228   1.201   2.774 -0.4799 -0.2265  1.1354
 7115SOL    HW232805   2.082   1.198   2.732  0.1865  1.6568 -0.3689
 7116SOL     OW32806   3.649   2.554   4.134  0.1793 -0.3405 -0.4566
 7116SOL    HW132807   3.597   2.523   4.208  0.0129  1.8926  0.3487
 7116SOL    HW232808   3.674   2.644   4.154 -0.5290 -0.2576  0.0368
 7117SOL     OW32809   3.921   2.356  13.133 -0.3891 -0.3695 -0.0268
 7117SOL    HW132810   3.874   2.289  13.084 -1.7155  0.6239 -0.1271
 7117SOL    HW232811   3.894   2.434  13.085  0.3363 -0.8222 -1.1956
 7118SOL     OW32812   2.532   3.514  17.280 -0.0102 -0.3614 -0.7994
 7118SOL    HW132813   2.546   3.582  17.346  1.6099 -1.3810 -0.1132
 7118SOL    HW232814   2.482   3.563  17.214  1.8465  1.0285 -1.1685
 7119SOL     OW32815   1.297   2.214   3.155  0.1615 -0.1983  0.4754
 7119SOL    HW132816   1.333   2.227   3.067 -0.8471 -0.1086  0.0745
 7119SOL    HW232817   1.264   2.301   3.174 -2.5388 -1.2696  0.7258
 7120SOL     OW32818   4.520   0.560   9.980  0.5035 -0.0521 -0.0713
 7120SOL    HW132819   4.482   0.503   9.913  2.4318 -2.1231  0.6254
 7120SOL    HW232820   4.605   0.582   9.942  0.2126  1.0764 -0.0632
 7121SOL     OW32821   3.278   2.853  17.274  0.5079  0.7145 -0.1430
 7121SOL    HW132822   3.368   2.885  17.276  0.9535 -0.3215 -3.9673
 7121SOL    HW232823   3.234   2.888  17.352  0.0532 -2.0082  0.8464
 7122SOL     OW32824   4.405   3.941   7.941 -0.0069  0.2601  0.0172
 7122SOL    HW132825   4.395   3.964   8.033 -1.7171  1.6131 -0.5016
 7122SOL    HW232826   4.328   3.983   7.904  2.2981  2.2934 -2.4117
 7123SOL     OW32827   2.741   0.948   7.028 -0.0859  0.2199  0.1925
 7123SOL    HW132828   2.735   0.883   6.958  0.2791 -0.2630  0.6082
 7123SOL    HW232829   2.671   0.920   7.086 -0.0121 -0.1238  0.1205
 7124SOL     OW32830   4.688   4.682  14.889 -0.0012 -0.0780 -0.0229
 7124SOL    HW132831   4.718   4.593  14.872  2.4395  0.3312  2.0103
 7124SOL    HW232832   4.619   4.690  14.824  0.6622 -0.3355 -0.7651
 7125SOL     OW32833   1.888   0.315   5.709  0.0288  0.0360  0.1614
 7125SOL    HW132834   1.913   0.248   5.773  0.5720 -1.5374 -1.7278
 7125SOL    HW232835   1.830   0.375   5.757  1.9742  0.1570  2.4074
 7126SOL     OW32836   0.913   3.803   6.268  0.8400  0.5384 -0.0848
 7126SOL    HW132837   0.964   3.722   6.266 -0.6126 -0.4053  0.9818
 7126SOL    HW232838   0.866   3.793   6.185 -2.7219  0.0826  1.9598
 7127SOL     OW32839   3.266   4.068   3.295 -0.3024 -0.3520 -0.4699
 7127SOL    HW132840   3.304   4.154   3.275  0.9535 -1.1606 -1.5860
 7127SOL    HW232841   3.193   4.063   3.233  0.6288  0.3569 -1.6360
 7128SOL     OW32842   1.857   4.537   2.052  0.0599  0.2184  0.7319
 7128SOL    HW132843   1.788   4.483   2.012  2.1353 -1.8222 -0.0494
 7128SOL    HW232844   1.929   4.476   2.037 -1.4469 -0.8633 -2.1846
 7129SOL     OW32845   3.521   3.487  14.796 -0.1144 -0.3828  0.1364
 7129SOL    HW132846   3.449   3.492  14.733 -1.6260  0.2891  1.8819
 7129SOL    HW232847   3.487   3.555  14.855  0.6188  0.0813  0.0298
 7130SOL     OW32848   4.251   3.829   8.561  0.4735  0.5286 -0.1338
 7130SOL    HW132849   4.313   3.801   8.493 -1.5625  0.7124 -2.0609
 7130SOL    HW232850   4.203   3.748   8.577  1.2223  0.3603  1.2885
 7131SOL     OW32851   1.880   3.497  13.806 -0.2908  0.0441  0.2387
 7131SOL    HW132852   1.882   3.421  13.864 -1.5701  0.5224  0.9212
 7131SOL    HW232853   1.793   3.482  13.768  0.8597  1.0212 -2.7319
 7132SOL     OW32854   0.429   0.880   9.664 -0.2786 -0.5217  0.3846
 7132SOL    HW132855   0.515   0.843   9.649  0.1429 -0.0272  1.5917
 7132SOL    HW232856   0.448   0.887   9.757  2.0608 -2.2199  0.0378
 7133SOL     OW32857   4.350   3.594   8.113  0.1385 -0.7526 -0.1034
 7133SOL    HW132858   4.258   3.572   8.128  0.2057 -0.0553  1.3207
 7133SOL    HW232859   4.374   3.639   8.194 -0.7474  2.9932 -1.8809
 7134SOL     OW32860   4.684   0.435   9.296 -0.2487  0.2709 -0.1836
 7134SOL    HW132861   4.662   0.344   9.276 -2.2656  0.5000  0.9720
 7134SOL    HW232862   4.616   0.460   9.359  0.5538 -0.0201  0.8050
 7135SOL     OW32863   0.661   0.912   8.010 -0.0480 -0.2822  0.0052
 7135SOL    HW132864   0.706   0.996   8.016  1.8505 -1.3007  0.2874
 7135SOL    HW232865   0.727   0.846   7.986  0.0174 -0.3216  0.3025
 7136SOL     OW32866   3.663   2.906   8.677  0.0689 -0.3136  0.0185
 7136SOL    HW132867   3.622   2.976   8.626  1.0159  1.0901  1.1977
 7136SOL    HW232868   3.626   2.829   8.635 -0.7954  0.2150 -0.2086
 7137SOL     OW32869   3.641   0.497  13.062  0.0477 -0.4775 -0.4008
 7137SOL    HW132870   3.685   0.416  13.089  1.1501  0.0185 -0.7017
 7137SOL    HW232871   3.669   0.498  12.970  2.1507 -1.3086  0.2315
 7138SOL     OW32872   0.233   0.726   3.880 -0.0539 -0.1022 -0.6908
 7138SOL    HW132873   0.168   0.680   3.825  0.6604 -1.8278 -0.0712
 7138SOL    HW232874   0.193   0.723   3.967 -1.1137  1.1427 -1.1334
 7139SOL     OW32875   1.300   4.676   8.504  0.2321 -0.0975 -0.0342
 7139SOL    HW132876   1.357   4.611   8.547  1.5983  3.0490  2.9127
 7139SOL    HW232877   1.324   4.656   8.413 -2.1815  1.1708 -0.9315
 7140SOL     OW32878   2.053   3.132  16.853 -0.4411  0.6534  0.0112
 7140SOL    HW132879   1.975   3.158  16.902 -2.1345  0.9287 -2.8773
 7140SOL    HW232880   2.127   3.148  16.912  0.4577  2.4466 -1.6238
 7141SOL     OW32881   4.074   2.012   3.348  0.4176 -0.1008 -0.0274
 7141SOL    HW132882   4.139   1.942   3.346  1.0432  0.4990 -0.4919
 7141SOL    HW232883   4.084   2.059   3.265 -3.2250 -2.1661 -1.6315
 7142SOL     OW32884   1.045   2.917  17.188  0.1430  0.5803  0.9493
 7142SOL    HW132885   0.960   2.885  17.218  0.8310 -0.7750  1.4676
 7142SOL    HW232886   1.034   3.005  17.152 -1.4356 -0.4877 -1.2503
 7143SOL     OW32887   2.232   3.409  12.143 -0.6568  0.3312  0.3555
 7143SOL    HW132888   2.303   3.437  12.201 -0.0456  1.2524 -0.8168
 7143SOL    HW232889   2.275   3.441  12.063  0.4947 -2.0363  0.0201
 7144SOL     OW32890   3.925   2.706  14.539 -0.2075  0.0434  0.4922
 7144SOL    HW132891   3.926   2.790  14.585  0.0614  0.7880 -0.8718
 7144SOL    HW232892   3.910   2.650  14.615  0.8024  1.5536  1.7921
 7145SOL     OW32893   4.439   4.205   7.619 -0.0314  0.3842  0.1991
 7145SOL    HW132894   4.505   4.258   7.664  0.6618 -0.3837  0.0895
 7145SOL    HW232895   4.365   4.262   7.637 -0.7948 -0.8207  0.8795
 7146SOL     OW32896   4.627   3.830  17.142  0.2221  0.3961 -0.5991
 7146SOL    HW132897   4.673   3.913  17.153  0.7815  0.4032 -3.0239
 7146SOL    HW232898   4.676   3.789  17.071  3.0045 -0.5180  1.8357
 7147SOL     OW32899   3.939   2.090  11.591 -0.4535 -0.2693 -0.0350
 7147SOL    HW132900   3.962   2.051  11.507 -1.0756 -2.3073  0.7393
 7147SOL    HW232901   3.853   2.070  11.627 -1.2426  1.3334 -1.0551
 7148SOL     OW32902   4.250   4.547   4.140  0.3978 -0.1595 -0.0800
 7148SOL    HW132903   4.312   4.581   4.205  1.9341 -1.1306 -1.0210
 7148SOL    HW232904   4.208   4.624   4.102 -0.2906 -1.6341 -2.3309
 7149SOL     OW32905   3.670   3.524   8.517  0.2429  0.1166 -0.7992
 7149SOL    HW132906   3.601   3.529   8.451 -2.3807  2.3282  2.0801
 7149SOL    HW232907   3.660   3.593   8.583 -0.7828 -1.3656  0.5936
 7150SOL     OW32908   4.193   4.398   5.586 -0.5142  0.3790  0.2723
 7150SOL    HW132909   4.109   4.359   5.564  0.3122 -0.8337 -0.7677
 7150SOL    HW232910   4.242   4.317   5.600 -1.6434 -0.1807  0.9340
 7151SOL     OW32911   3.158   4.412   2.119 -0.0714  0.1060 -0.0379
 7151SOL    HW132912   3.078   4.422   2.169 -0.9440  0.8067 -1.5646
 7151SOL    HW232913   3.151   4.324   2.082  0.0213  0.3673 -0.6888
 7152SOL     OW32914   4.392   0.636   3.013 -0.2476 -0.1101 -0.3745
 7152SOL    HW132915   4.429   0.592   3.090  0.2981  3.0817  1.1811
 7152SOL    HW232916   4.426   0.575   2.948  3.3347  0.4557  0.9575
 7153SOL     OW32917   4.212   2.635  17.484 -0.3079 -0.0640  0.3883
 7153SOL    HW132918   4.255   2.553  17.510  0.5408  0.6547  1.2640
 7153SOL    HW232919   4.219   2.629  17.389 -0.2057  1.4526  0.3093
 7154SOL     OW32920   3.301   1.226   8.131  0.1350  0.2278 -0.2001
 7154SOL    HW132921   3.235   1.278   8.085 -0.4684 -1.0681 -0.8266
 7154SOL    HW232922   3.340   1.286   8.194  2.5767 -1.4868 -0.0982
 7155SOL     OW32923   1.847   0.087  10.563  0.0654  0.9542 -0.2589
 7155SOL    HW132924   1.878   0.081  10.653  2.4603  0.2143 -1.1228
 7155SOL    HW232925   1.762   0.128  10.578 -0.9670 -1.8957  1.4967
 7156SOL     OW32926   3.138   3.951   2.443  0.3286 -0.1982  0.1805
 7156SOL    HW132927   3.070   3.906   2.393  0.8628 -1.1286  0.2933
 7156SOL    HW232928   3.083   4.009   2.496 -1.3086 -1.6741  0.1014
 7157SOL     OW32929   1.070   1.816   4.900 -0.7399  0.4736 -0.3276
 7157SOL    HW132930   1.070   1.848   4.809 -0.3021 -0.7772 -0.7627
 7157SOL    HW232931   0.982   1.779   4.891 -0.5589 -0.1366  0.4657
 7158SOL     OW32932   1.948   0.461   7.415  0.2692  0.4053  0.3135
 7158SOL    HW132933   1.931   0.553   7.436 -3.3331  0.4699 -3.0056
 7158SOL    HW232934   1.876   0.416   7.459 -0.7008  0.0296 -1.6603
 7159SOL     OW32935   4.123   0.422  11.036 -0.0249 -0.5156  0.1863
 7159SOL    HW132936   4.192   0.464  11.087 -0.1521 -0.5022  0.3499
 7159SOL    HW232937   4.061   0.494  11.020  0.5702  0.0130  0.2376
 7160SOL     OW32938   0.225   4.440   0.446  0.1758 -0.4194  0.6162
 7160SOL    HW132939   0.136   4.466   0.423  0.8877  1.5728  0.1032
 7160SOL    HW232940   0.240   4.383   0.371  0.6210  1.0619 -0.4326
 7161SOL     OW32941   0.672   4.242   1.757  0.0805 -0.3831 -0.2430
 7161SOL    HW132942   0.649   4.317   1.702  3.3826  0.8088  0.0451
 7161SOL    HW232943   0.598   4.227   1.816  0.0540 -0.0281 -0.1852
 7162SOL     OW32944   1.538   0.543   7.653  0.7144 -0.6186  0.0890
 7162SOL    HW132945   1.554   0.614   7.590 -1.0030 -1.0065 -0.7831
 7162SOL    HW232946   1.616   0.541   7.707  0.8406 -0.3474 -0.0844
 7163SOL     OW32947   4.388   0.289  15.087 -0.0041 -0.1810  0.0917
 7163SOL    HW132948   4.337   0.209  15.075  1.5996 -1.0472 -0.9771
 7163SOL    HW232949   4.444   0.278  15.009 -0.2909  2.3278 -0.4792
 7164SOL     OW32950   3.662   1.169  12.696 -0.5028 -0.5163  0.3430
 7164SOL    HW132951   3.725   1.236  12.671 -0.1943 -1.7752 -2.3249
 7164SOL    HW232952   3.584   1.222  12.712 -1.3045 -1.0461 -1.7668
 7165SOL     OW32953   1.211   0.384   7.894 -0.0563  0.1221  0.7157
 7165SOL    HW132954   1.305   0.378   7.911 -0.1421  0.0264  1.1528
 7165SOL    HW232955   1.201   0.475   7.867  0.7864  0.2629  0.8786
 7166SOL     OW32956   3.450   2.689   7.984  0.2011  0.5100 -0.1831
 7166SOL    HW132957   3.381   2.623   7.976  0.7791 -0.3195  1.8217
 7166SOL    HW232958   3.473   2.674   8.075  0.2584 -0.0589 -0.2915
 7167SOL     OW32959   4.431   0.576  10.232  0.4029 -0.1278 -0.0927
 7167SOL    HW132960   4.435   0.668  10.258  2.3446 -0.2895  0.1862
 7167SOL    HW232961   4.472   0.577  10.145 -1.6061  3.2458 -0.9748
 7168SOL     OW32962   0.306   4.576   3.204  0.3343 -0.0076  0.2560
 7168SOL    HW132963   0.368   4.612   3.267  2.4064  0.0048 -1.7967
 7168SOL    HW232964   0.307   4.486   3.237  1.0377 -0.1350 -0.1202
 7169SOL     OW32965   4.346   2.863   6.159 -1.0037 -0.0947  0.1874
 7169SOL    HW132966   4.372   2.778   6.193 -1.3975 -0.4783 -0.4677
 7169SOL    HW232967   4.282   2.888   6.225  1.1671  2.3339  1.3643
 7170SOL     OW32968   3.312   3.476   6.210 -0.2288  0.4030  0.9089
 7170SOL    HW132969   3.401   3.451   6.234  0.6898  2.3417 -0.4752
 7170SOL    HW232970   3.290   3.544   6.273 -1.0355 -0.4030  1.5014
 7171SOL     OW32971   2.744   0.088   0.032 -0.1888 -0.5683 -0.5683
 7171SOL    HW132972   2.658   0.059   0.062  0.2246 -1.4533 -0.2594
 7171SOL    HW232973   2.777   0.135   0.109  2.2503 -0.5164 -1.6256
 7172SOL     OW32974   3.326   0.599   4.573 -0.3688 -0.0625  0.1056
 7172SOL    HW132975   3.287   0.520   4.535 -3.2267  1.4635 -0.0956
 7172SOL    HW232976   3.246   0.642   4.602 -1.3275 -1.4391 -0.5019
 7173SOL     OW32977   3.340   0.944   4.737  0.6530  0.8172 -0.0204
 7173SOL    HW132978   3.302   0.967   4.652  0.4988 -0.7663 -0.3863
 7173SOL    HW232979   3.290   0.864   4.753 -1.8436  1.8749 -2.5501
 7174SOL     OW32980   4.598   0.562  11.424 -0.3930 -0.1572  0.0900
 7174SOL    HW132981   4.675   0.511  11.398  1.3118  3.3122 -1.5656
 7174SOL    HW232982   4.530   0.505  11.388  1.3863 -0.9720 -1.9802
 7175SOL     OW32983   1.579   1.718   1.989  0.4379  0.4577 -0.1548
 7175SOL    HW132984   1.503   1.769   2.018 -0.8321 -1.5704  0.0373
 7175SOL    HW232985   1.625   1.718   2.073 -0.1885  1.6806  0.1946
 7176SOL     OW32986   2.564   2.798   5.715 -0.2939 -0.4520  0.3890
 7176SOL    HW132987   2.646   2.752   5.695 -0.5582 -0.7947  0.0835
 7176SOL    HW232988   2.541   2.837   5.631  1.1271 -0.7790 -0.1486
 7177SOL     OW32989   2.514   1.792   6.689 -0.7097  0.7204  0.0098
 7177SOL    HW132990   2.589   1.771   6.634 -0.7505  0.4844  0.0425
 7177SOL    HW232991   2.546   1.830   6.771 -0.5540  0.4431  0.0763
 7178SOL     OW32992   4.505   1.377  16.600  0.8728 -0.0704  0.0973
 7178SOL    HW132993   4.494   1.341  16.688 -0.2709 -1.2076 -0.5186
 7178SOL    HW232994   4.415   1.402  16.577  0.8849 -1.8673 -1.9007
 7179SOL     OW32995   0.712   2.233   1.919 -0.2540 -0.0457 -0.4271
 7179SOL    HW132996   0.707   2.294   1.845 -1.5455 -0.8475 -1.0014
 7179SOL    HW232997   0.796   2.261   1.954 -0.7603  2.1548 -0.9816
 7180SOL     OW32998   4.205   0.009  13.031 -0.3254  0.2334  0.2604
 7180SOL    HW132999   4.130   0.022  12.973  1.2126  3.5668 -0.9806
 7180SOL    HW233000   4.199   0.077  13.099  1.5830  0.4282  0.2362
 7181SOL     OW33001   4.324   0.526   7.886  0.4834 -0.3561  0.1412
 7181SOL    HW133002   4.400   0.556   7.837 -0.7342  1.4022 -0.6695
 7181SOL    HW233003   4.300   0.611   7.924 -0.1385 -0.0251 -0.9797
 7182SOL     OW33004   4.330   3.866   5.434  0.0661 -0.0442 -0.5293
 7182SOL    HW133005   4.295   3.952   5.413  0.6756 -0.2110 -2.1894
 7182SOL    HW233006   4.343   3.825   5.348  0.6416  0.8414 -0.8604
 7183SOL     OW33007   0.775   1.867   9.497 -0.5046 -0.1195  0.5503
 7183SOL    HW133008   0.819   1.933   9.443  1.2304 -1.7516 -0.0069
 7183SOL    HW233009   0.717   1.911   9.560 -1.6532  1.2891 -1.4914
 7184SOL     OW33010   2.656   1.563  10.046  0.2137 -0.6163  0.2495
 7184SOL    HW133011   2.744   1.601  10.047 -0.4511  1.0270 -1.9317
 7184SOL    HW233012   2.593   1.632  10.061  0.3156  0.0501 -2.3190
 7185SOL     OW33013   2.960   3.641   4.001 -0.0278  0.4085  0.3554
 7185SOL    HW133014   2.986   3.555   4.035 -1.0650  0.3741  1.0705
 7185SOL    HW233015   2.969   3.608   3.912 -0.5528  1.0717  0.0685
 7186SOL     OW33016   1.809   3.380   1.680 -0.4571 -0.3104 -0.2278
 7186SOL    HW133017   1.802   3.296   1.635 -0.7624 -0.4211  0.0231
 7186SOL    HW233018   1.840   3.341   1.762 -0.5004  1.9006  0.8460
 7187SOL     OW33019   4.388   2.322  12.135  0.7063 -0.7353  0.3933
 7187SOL    HW133020   4.353   2.321  12.046 -0.1080 -0.2372  0.7046
 7187SOL    HW233021   4.314   2.293  12.188 -0.5011  2.1325  0.3283
 7188SOL     OW33022   0.841   3.686   7.467 -0.0865  0.1462  0.2433
 7188SOL    HW133023   0.772   3.752   7.470 -1.0191 -0.8821  1.3547
 7188SOL    HW233024   0.794   3.622   7.521 -1.5901 -1.1474 -2.5779
 7189SOL     OW33025   1.235   3.722   7.116 -0.4554 -0.4640 -0.5514
 7189SOL    HW133026   1.183   3.744   7.039  2.0801 -1.1120 -2.4710
 7189SOL    HW233027   1.165   3.729   7.181  0.3086  0.3724  0.1977
 7190SOL     OW33028   3.714   3.239   3.274  0.1059 -0.0438  0.1584
 7190SOL    HW133029   3.693   3.309   3.211  1.0882 -1.2604 -1.5246
 7190SOL    HW233030   3.781   3.290   3.319 -0.0132  1.1206 -0.9547
 7191SOL     OW33031   4.331   3.558   1.856  0.4775  0.0538 -0.1522
 7191SOL    HW133032   4.364   3.560   1.766 -0.5156 -0.8673 -0.5358
 7191SOL    HW233033   4.406   3.596   1.903  1.9161 -0.9911 -1.5773
 7192SOL     OW33034   2.046   0.861   1.021 -0.2021 -0.4071 -0.6827
 7192SOL    HW133035   2.141   0.847   1.019 -0.1776 -0.2398 -0.7145
 7192SOL    HW233036   2.019   0.795   0.957 -1.0211  0.3650 -1.1256
 7193SOL     OW33037   1.725   3.364   4.509  0.0915 -0.0756  0.3813
 7193SOL    HW133038   1.721   3.279   4.465  3.9214 -1.3517  2.5529
 7193SOL    HW233039   1.800   3.400   4.461  1.0263 -3.0803 -0.3983
 7194SOL     OW33040   4.452   4.014   3.121 -0.1020  0.0775 -0.1392
 7194SOL    HW133041   4.449   4.108   3.139 -0.5658  0.2321 -1.0352
 7194SOL    HW233042   4.516   3.975   3.180 -1.2227  1.9799  2.3279
 7195SOL     OW33043   1.497   2.628  11.243 -0.2418  0.1984  0.1350
 7195SOL    HW133044   1.459   2.605  11.328  2.5059 -2.9255  0.5103
 7195SOL    HW233045   1.423   2.677  11.207  0.6604  0.2763 -1.6374
 7196SOL     OW33046   3.133   4.282   8.546  0.6854 -0.2128 -0.4879
 7196SOL    HW133047   3.214   4.250   8.506 -0.2442 -1.6592 -1.2114
 7196SOL    HW233048   3.156   4.372   8.568  1.1908 -0.2505 -0.8423
 7197SOL     OW33049   1.408   2.794   6.344 -0.3315 -0.2454 -0.0585
 7197SOL    HW133050   1.477   2.833   6.398 -1.9139 -0.1318  1.8801
 7197SOL    HW233051   1.386   2.722   6.403  0.5068 -1.8104 -1.6455
 7198SOL     OW33052   0.308   3.389   3.009 -0.1487 -0.0679  0.2609
 7198SOL    HW133053   0.297   3.469   3.061  0.5506 -0.2505  0.6945
 7198SOL    HW233054   0.391   3.391   2.961 -0.4354 -2.7532 -0.3328
 7199SOL     OW33055   4.435   3.011   7.878 -0.5811  0.3668  0.0596
 7199SOL    HW133056   4.449   3.102   7.853  1.8660  0.3080  1.2261
 7199SOL    HW233057   4.341   3.000   7.863 -0.4635 -0.3475 -0.1835
 7200SOL     OW33058   1.307   3.032  17.432  0.0970  0.2767  0.0496
 7200SOL    HW133059   1.302   2.947  17.388  2.1857  0.2481 -0.1189
 7200SOL    HW233060   1.320   3.079  17.350 -0.7836  1.8744  0.8237
 7201SOL     OW33061   4.631   2.202  13.179 -0.2639 -0.0707 -0.2201
 7201SOL    HW133062   4.560   2.147  13.146 -0.2611 -0.5627  0.5942
 7201SOL    HW233063   4.702   2.166  13.125  1.5913  1.7812  0.9761
 7202SOL     OW33064   4.310   2.704   9.501  0.4905  0.3323  0.3295
 7202SOL    HW133065   4.345   2.616   9.497 -1.7109 -0.5599  0.6631
 7202SOL    HW233066   4.342   2.723   9.589 -1.7590  0.0093  1.2274
 7203SOL     OW33067   1.113   2.908   8.667 -0.6575 -0.0663 -0.7356
 7203SOL    HW133068   1.190   2.870   8.709 -1.3414 -2.3519 -1.5701
 7203SOL    HW233069   1.082   2.834   8.615 -2.2761 -0.3869  0.6904
 7204SOL     OW33070   0.189   4.321  14.902  0.0524  0.5993 -0.0428
 7204SOL    HW133071   0.192   4.402  14.850 -1.6347  0.9657  0.4346
 7204SOL    HW233072   0.099   4.328  14.936  0.5250  0.1403  1.3007
 7205SOL     OW33073   1.326   3.644   1.843  0.5137  0.3876 -0.0057
 7205SOL    HW133074   1.332   3.550   1.828 -0.6148  0.6762 -2.2353
 7205SOL    HW233075   1.286   3.635   1.930 -0.1970  0.2403 -0.3558
 7206SOL     OW33076   2.367   1.739   4.192 -0.0899 -0.1164  0.3637
 7206SOL    HW133077   2.371   1.675   4.120  1.4030 -0.7987  1.0608
 7206SOL    HW233078   2.315   1.813   4.160  1.3547  0.3910 -0.7987
 7207SOL     OW33079   3.054   3.523  14.874  0.0786 -0.1818 -0.6335
 7207SOL    HW133080   3.031   3.614  14.892 -0.3073 -0.3173 -0.4496
 7207SOL    HW233081   3.045   3.493  14.965  0.0353 -1.2417 -0.9881
 7208SOL     OW33082   0.066   1.637   8.099 -0.0334  0.4570  0.0149
 7208SOL    HW133083   0.023   1.709   8.145  1.1638 -1.5888  4.3198
 7208SOL    HW233084   0.011   1.565   8.129 -0.1523 -1.1310 -3.9851
 7209SOL     OW33085   4.251   0.049   6.014 -0.2193 -0.2001 -0.0598
 7209SOL    HW133086   4.274   4.685   6.045 -0.9546  0.5640  2.6430
 7209SOL    HW233087   4.282   0.103   6.087  2.9568 -2.2177  0.1046
 7210SOL     OW33088   2.226   0.580   4.826  0.8153 -0.8817 -0.5572
 7210SOL    HW133089   2.295   0.578   4.761  1.2215  0.7098 -0.1824
 7210SOL    HW233090   2.232   0.670   4.858  0.2475 -0.9497 -0.2523
 7211SOL     OW33091   1.266   0.947   4.963  0.8299 -0.5198  0.0950
 7211SOL    HW133092   1.193   0.906   4.917  1.2703 -1.8937  0.6459
 7211SOL    HW233093   1.332   0.878   4.962  0.2209 -1.0648 -2.0658
 7212SOL     OW33094   1.985   4.720   4.194  0.1082  0.3789 -0.2352
 7212SOL    HW133095   2.011   4.698   4.105  0.1255 -0.7333  0.0490
 7212SOL    HW233096   1.988   0.091   4.179  1.8668  0.2447 -0.7431
 7213SOL     OW33097   4.106   1.960  12.109 -0.3204  0.6220 -0.3990
 7213SOL    HW133098   4.154   2.007  12.041  1.6187  1.1193  1.3064
 7213SOL    HW233099   4.023   2.006  12.098 -0.0058  0.5737 -2.9620
 7214SOL     OW33100   3.780   2.338   6.828 -0.4190 -0.1887 -0.1103
 7214SOL    HW133101   3.831   2.333   6.909  1.0079 -0.2360 -1.0163
 7214SOL    HW233102   3.728   2.258   6.838  1.5819 -1.6047 -1.2319
 7215SOL     OW33103   4.051   3.730  12.230  0.8042 -0.3500 -0.2899
 7215SOL    HW133104   4.017   3.682  12.306 -2.0884 -0.2237 -1.4812
 7215SOL    HW233105   4.123   3.680  12.192  0.3794 -2.4218  1.6387
 7216SOL     OW33106   1.997   0.384   6.532  0.6023  0.0096 -0.2974
 7216SOL    HW133107   2.076   0.358   6.486  0.5557  0.3513 -0.5714
 7216SOL    HW233108   1.928   0.357   6.473  0.8738 -2.3247  0.4793
 7217SOL     OW33109   2.428   0.688   7.649 -0.4835  0.4864 -0.0212
 7217SOL    HW133110   2.348   0.714   7.603 -0.3290 -1.8809 -1.6211
 7217SOL    HW233111   2.404   0.609   7.697  0.0589  0.5378  0.3376
 7218SOL     OW33112   2.774   1.050   3.537 -0.2458  0.2728 -0.7168
 7218SOL    HW133113   2.794   1.143   3.525 -0.7836  0.5087  0.2376
 7218SOL    HW233114   2.735   1.053   3.625 -0.2487  1.3319 -0.7558
 7219SOL     OW33115   2.313   0.463   2.679 -0.1385  0.6389 -0.3138
 7219SOL    HW133116   2.358   0.383   2.651  0.7943  1.7277 -1.9471
 7219SOL    HW233117   2.241   0.422   2.726  0.2310  1.6813  1.1658
 7220SOL     OW33118   3.312   1.163   8.516  0.0878 -0.0108  0.2894
 7220SOL    HW133119   3.275   1.146   8.603  1.3204 -1.0415  0.6178
 7220SOL    HW233120   3.397   1.194   8.545 -0.1294  0.1501  0.7615
 7221SOL     OW33121   3.647   0.652   5.979 -0.3605  0.1963  0.7249
 7221SOL    HW133122   3.649   0.636   5.884  0.7904  0.7241  0.6536
 7221SOL    HW233123   3.712   0.723   5.976 -0.5700  0.4818  3.4330
 7222SOL     OW33124   1.646   2.692  11.004 -0.6214 -0.0349  0.7541
 7222SOL    HW133125   1.615   2.618  10.952 -1.0970  0.9949 -0.4208
 7222SOL    HW233126   1.604   2.671  11.088 -0.4503 -2.4994  0.2176
 7223SOL     OW33127   2.716   1.481  11.466 -0.1162 -0.2045 -0.2919
 7223SOL    HW133128   2.675   1.411  11.415 -3.2494 -0.6678  2.9033
 7223SOL    HW233129   2.781   1.514  11.403 -0.5008  0.5142 -0.3147
 7224SOL     OW33130   2.717   2.755  13.083  0.0102 -0.2434 -0.3106
 7224SOL    HW133131   2.656   2.693  13.042 -2.0685  0.3003  1.9269
 7224SOL    HW233132   2.652   2.817  13.117  1.0584  0.2348  0.8413
 7225SOL     OW33133   0.835   1.356   4.260  0.0913 -0.3002 -0.2433
 7225SOL    HW133134   0.826   1.267   4.227 -0.3484  0.3075 -1.7502
 7225SOL    HW233135   0.747   1.392   4.247 -0.6517 -1.9459  0.1622
 7226SOL     OW33136   2.236   2.452  16.620 -0.3389 -0.0197  0.3693
 7226SOL    HW133137   2.208   2.530  16.572 -0.3685  1.7069  3.1340
 7226SOL    HW233138   2.321   2.480  16.654  0.1334 -0.6769 -0.2708
 7227SOL     OW33139   4.246   0.230   9.611 -0.0460  0.2497  0.2204
 7227SOL    HW133140   4.169   0.234   9.554  0.7219  1.0193 -0.7439
 7227SOL    HW233141   4.289   0.153   9.573 -0.3236  0.2983 -0.1932
 7228SOL     OW33142   2.868   1.427   6.598 -0.2100 -0.4264 -0.2020
 7228SOL    HW133143   2.790   1.385   6.560 -0.9804  1.7219 -0.9721
 7228SOL    HW233144   2.932   1.406   6.530 -0.0843  1.1989 -0.5714
 7229SOL     OW33145   0.296   4.008   2.487 -0.2818 -0.2305 -0.1502
 7229SOL    HW133146   0.244   4.066   2.431 -0.1020  1.0302  0.9769
 7229SOL    HW233147   0.237   3.998   2.562 -1.0909 -1.2449 -0.9273
 7230SOL     OW33148   0.592   2.189  13.135  0.6819 -0.3236  0.1375
 7230SOL    HW133149   0.609   2.138  13.215 -0.7968 -0.9866  0.0266
 7230SOL    HW233150   0.523   2.138  13.092 -1.9701  2.8261  0.6400
 7231SOL     OW33151   0.568   4.550  14.949 -0.0538  0.2265  0.0731
 7231SOL    HW133152   0.547   4.580  14.861 -0.5246 -2.1162 -0.6031
 7231SOL    HW233153   0.651   4.507  14.932  1.1231  1.5029  2.5139
 7232SOL     OW33154   2.528   2.655   9.509  0.6930 -0.1314  0.5580
 7232SOL    HW133155   2.538   2.699   9.425  2.1894 -1.7789 -0.1099
 7232SOL    HW233156   2.616   2.653   9.548  1.6915  1.3400 -1.6336
 7233SOL     OW33157   2.187   4.623  12.819 -0.4187  0.4711  0.3560
 7233SOL    HW133158   2.280   4.611  12.798  0.3078  0.0637  3.6300
 7233SOL    HW233159   2.201   4.645  12.912 -0.4285  0.4551  0.3613
 7234SOL     OW33160   1.719   1.064   1.357  0.0001 -0.3861 -0.4937
 7234SOL    HW133161   1.703   1.038   1.266  0.5162  0.2786 -0.7775
 7234SOL    HW233162   1.777   1.140   1.357 -2.6204  1.5995 -0.1047
 7235SOL     OW33163   2.303   1.012   1.920 -0.1415  0.2601 -0.2989
 7235SOL    HW133164   2.252   0.932   1.935 -0.4969  0.3889 -0.8306
 7235SOL    HW233165   2.243   1.079   1.953  1.4669  0.2475  2.5888
 7236SOL     OW33166   1.506   3.034  16.097 -0.2698  0.1570  0.0528
 7236SOL    HW133167   1.452   3.047  16.019 -2.4580  2.4097  1.9550
 7236SOL    HW233168   1.543   2.947  16.082 -0.9530 -0.4191  1.6426
 7237SOL     OW33169   4.509   1.090   9.313  0.0791 -0.4141 -0.2926
 7237SOL    HW133170   4.470   1.058   9.394 -0.2961 -1.9726 -1.0991
 7237SOL    HW233171   4.457   1.167   9.290 -1.1313 -1.2485 -0.3102
 7238SOL     OW33172   2.709   0.323   2.826 -0.3700 -0.3982  0.4392
 7238SOL    HW133173   2.678   0.261   2.891 -1.4906  0.5913  0.8514
 7238SOL    HW233174   2.654   0.400   2.838  2.1199  1.7980 -2.1989
 7239SOL     OW33175   2.281   1.827   5.762  0.2329 -0.0236  0.2404
 7239SOL    HW133176   2.228   1.838   5.684  2.1908  0.3256 -1.0529
 7239SOL    HW233177   2.320   1.915   5.755 -1.4525  0.7905  1.0956
 7240SOL     OW33178   3.363   0.155   2.487 -0.1421  0.4765  0.0692
 7240SOL    HW133179   3.356   0.180   2.394 -0.6661 -0.7271 -0.2134
 7240SOL    HW233180   3.290   0.093   2.486  0.0134  0.2706  1.7908
 7241SOL     OW33181   1.452   3.152   2.717  0.4464  0.1102  0.3050
 7241SOL    HW133182   1.435   3.226   2.659  2.1895 -0.0562 -0.4130
 7241SOL    HW233183   1.471   3.199   2.798  2.0611  1.7341 -1.0244
 7242SOL     OW33184   2.835   2.188  11.163  0.2139 -0.1256  0.0422
 7242SOL    HW133185   2.840   2.246  11.239  2.7864 -1.2441  0.7372
 7242SOL    HW233186   2.763   2.131  11.191 -0.0327  0.7875  1.2557
 7243SOL     OW33187   0.517   0.023   3.923  0.4394  0.0243  0.0877
 7243SOL    HW133188   0.565   4.708   3.995 -0.1553  1.2154  1.1227
 7243SOL    HW233189   0.588   0.022   3.859  1.6527  1.1891  1.4508
 7244SOL     OW33190   3.904   4.630   1.880 -0.1893  0.3160 -0.1407
 7244SOL    HW133191   3.874   4.650   1.791 -0.7833 -0.9786 -0.2318
 7244SOL    HW233192   3.980   4.573   1.871 -0.3066  0.2637 -0.8072
 7245SOL     OW33193   2.823   1.738   6.156 -0.1933  0.1336 -0.4788
 7245SOL    HW133194   2.903   1.684   6.155 -0.0686  0.3109  0.0032
 7245SOL    HW233195   2.856   1.822   6.188 -0.5014 -0.3798  1.1950
 7246SOL     OW33196   2.936   3.701   2.372 -0.2909  0.0058 -0.2469
 7246SOL    HW133197   2.920   3.756   2.449 -0.6806 -1.0475  0.4209
 7246SOL    HW233198   2.991   3.635   2.414 -0.5541 -1.0914 -1.6353
 7247SOL     OW33199   3.519   2.338   0.559  0.0475 -0.0722  0.4397
 7247SOL    HW133200   3.448   2.399   0.540 -0.1959 -0.1966  0.9661
 7247SOL    HW233201   3.598   2.387   0.579 -1.1351  1.5867  1.0170
 7248SOL     OW33202   0.971   0.977   3.858  0.1197  0.3459 -0.1095
 7248SOL    HW133203   0.976   0.898   3.911  1.3093 -0.2206 -1.1037
 7248SOL    HW233204   1.012   0.956   3.775  0.4423  0.1097  0.1131
 7249SOL     OW33205   3.296   1.595  16.825  0.1212 -0.2645 -0.2898
 7249SOL    HW133206   3.274   1.688  16.812  1.9222 -0.1165 -2.3078
 7249SOL    HW233207   3.363   1.589  16.757 -0.3708  1.4490 -0.9433
 7250SOL     OW33208   3.042   2.456   2.755 -0.6233 -0.0102 -0.3875
 7250SOL    HW133209   3.018   2.543   2.786  0.0549  0.6567 -1.7003
 7250SOL    HW233210   3.040   2.415   2.841  0.8331  1.5250  0.3937
 7251SOL     OW33211   2.611   3.211   7.732  0.0847  0.5082 -0.7409
 7251SOL    HW133212   2.571   3.250   7.810 -0.1680 -1.5761  0.1432
 7251SOL    HW233213   2.575   3.123   7.727  0.5014  0.2521  1.0592
 7252SOL     OW33214   1.167   0.552   7.649  0.8390  0.1541  0.9708
 7252SOL    HW133215   1.225   0.612   7.601  0.6583 -2.0153 -1.9375
 7252SOL    HW233216   1.196   0.466   7.619  3.1094  1.8102 -1.6612
 7253SOL     OW33217   4.165   3.340   7.218 -0.0712 -0.0031 -0.0083
 7253SOL    HW133218   4.122   3.425   7.204 -1.3854 -1.2238 -3.5406
 7253SOL    HW233219   4.254   3.361   7.190  0.9142 -1.8092  1.7920
 7254SOL     OW33220   2.079   3.640  13.690  0.2737  0.6653 -0.0084
 7254SOL    HW133221   2.018   3.575  13.725  1.4130 -0.3141  0.1818
 7254SOL    HW233222   2.031   3.686  13.622 -0.8514  0.0137  0.3509
 7255SOL     OW33223   0.442   0.988   5.009 -0.0751 -0.0299  0.1976
 7255SOL    HW133224   0.518   1.015   5.059  0.5839 -0.2639 -0.6811
 7255SOL    HW233225   0.368   1.038   5.044 -1.3338 -2.4310  0.9663
 7256SOL     OW33226   1.555   4.423   0.914 -0.2728  0.3351  0.3453
 7256SOL    HW133227   1.555   4.351   0.977  0.0296 -0.4333 -0.5289
 7256SOL    HW233228   1.470   4.400   0.877  0.2137  2.3296 -1.9791
 7257SOL     OW33229   2.022   2.427   7.514 -0.2066  0.2801 -0.7693
 7257SOL    HW133230   1.952   2.399   7.454 -0.5046  1.6811 -1.0786
 7257SOL    HW233231   2.080   2.352   7.520 -3.2200 -1.9064  0.7225
 7258SOL     OW33232   3.027   0.758  11.271  0.6606 -0.1441 -0.0305
 7258SOL    HW133233   3.103   0.768  11.329  0.2938 -2.3840  0.8510
 7258SOL    HW233234   2.967   0.812  11.322  0.4462  0.9958 -1.5045
 7259SOL     OW33235   4.333   1.309   5.385  0.0136  0.3070  0.2809
 7259SOL    HW133236   4.321   1.404   5.386 -1.0413  0.1680  0.9745
 7259SOL    HW233237   4.244   1.273   5.384  0.3239 -0.4478  0.0015
 7260SOL     OW33238   1.652   4.025  14.207  0.1758  0.0654 -0.9889
 7260SOL    HW133239   1.618   4.082  14.139 -2.9881 -0.6112  0.0189
 7260SOL    HW233240   1.736   4.068  14.224 -0.4815  1.3267 -0.9141
 7261SOL     OW33241   1.057   3.030   5.466 -0.0485 -0.7084 -1.0816
 7261SOL    HW133242   1.041   2.948   5.513 -4.2592  0.3652 -0.6974
 7261SOL    HW233243   1.151   3.016   5.450 -0.8053 -1.9703 -4.5886
 7262SOL     OW33244   1.479   2.841   8.007  0.1400  0.0611 -0.1591
 7262SOL    HW133245   1.506   2.813   8.095 -0.4923  1.3297  0.4328
 7262SOL    HW233246   1.430   2.768   7.968 -0.5216  0.7822 -0.6782
 7263SOL     OW33247   3.655   0.007   1.010 -0.3292  0.1366 -0.3310
 7263SOL    HW133248   3.643   4.658   1.070 -1.5307  0.4325 -0.2121
 7263SOL    HW233249   3.729   4.703   0.956  0.4906  0.6892  0.5081
 7264SOL     OW33250   3.277   4.056   1.092  0.4357 -0.0751 -0.1938
 7264SOL    HW133251   3.357   4.005   1.101  1.6476  1.5358 -2.0452
 7264SOL    HW233252   3.319   4.142   1.083  3.3218 -1.4694  0.1098
 7265SOL     OW33253   2.181   0.846   6.336 -0.2649  0.4912  0.4089
 7265SOL    HW133254   2.240   0.838   6.261  1.9628  1.3432  2.0892
 7265SOL    HW233255   2.181   0.757   6.370  1.9181  0.1804 -0.4280
 7266SOL     OW33256   1.867   0.164   9.085 -0.5908  0.2620  0.3367
 7266SOL    HW133257   1.773   0.168   9.100 -0.4086  0.4656  1.4600
 7266SOL    HW233258   1.898   0.215   9.160 -1.2694  0.4441  0.4878
 7267SOL     OW33259   1.934   2.263   6.326  0.1418  0.8370  0.2406
 7267SOL    HW133260   1.917   2.357   6.321 -0.6839  0.6761  0.0824
 7267SOL    HW233261   2.012   2.262   6.270 -1.1303  0.8802 -1.5156
 7268SOL     OW33262   0.359   2.084  12.360 -0.1840 -0.1620  0.4246
 7268SOL    HW133263   0.387   2.170  12.393 -0.6153 -0.3727  1.3211
 7268SOL    HW233264   0.336   2.028  12.434  3.8353 -0.8552  1.1725
 7269SOL     OW33265   4.163   1.470   6.722  0.0981  0.4315 -0.0345
 7269SOL    HW133266   4.190   1.526   6.794  2.3081 -1.2262  0.4107
 7269SOL    HW233267   4.239   1.411   6.716  0.2464  0.5973  0.2353
 7270SOL     OW33268   0.323   2.450   9.652 -0.2952  0.0797 -0.8493
 7270SOL    HW133269   0.401   2.461   9.597  0.6993 -2.0883  0.1055
 7270SOL    HW233270   0.268   2.419   9.581  0.6550  0.6125 -1.8197
 7271SOL     OW33271   3.170   4.461   9.168 -0.1823 -0.2819 -0.0522
 7271SOL    HW133272   3.090   4.490   9.124 -0.2677 -1.2024 -0.5142
 7271SOL    HW233273   3.135   4.412   9.242  0.3438  0.6504  0.8129
 7272SOL     OW33274   1.741   3.553  10.454  0.1496 -0.1000 -0.5455
 7272SOL    HW133275   1.831   3.548  10.421  0.6024 -0.3463  0.7034
 7272SOL    HW233276   1.766   3.509  10.536  0.9491  1.0313 -0.1791
 7273SOL     OW33277   0.372   4.611   4.656 -0.3137 -0.1484 -0.1928
 7273SOL    HW133278   0.307   4.579   4.718  0.1306  0.4435  0.5800
 7273SOL    HW233279   0.309   4.649   4.594 -0.4422 -0.6470 -0.3665
 7274SOL     OW33280   0.517   1.255   8.764  0.1400  0.0844  0.3431
 7274SOL    HW133281   0.483   1.342   8.787 -0.6634 -0.1921  0.1903
 7274SOL    HW233282   0.461   1.216   8.698  1.7854 -1.1061 -0.3676
 7275SOL     OW33283   0.106   4.475   5.409  0.2654 -0.4607  0.1243
 7275SOL    HW133284   0.116   4.493   5.502 -0.6982 -1.1002  0.3620
 7275SOL    HW233285   0.047   4.546   5.383  1.1831  0.0880 -0.4433
 7276SOL     OW33286   0.969   3.210   5.654  0.0291  0.3386  0.2515
 7276SOL    HW133287   0.877   3.187   5.642 -0.0253  0.8064 -0.1990
 7276SOL    HW233288   1.001   3.145   5.593  0.6211  1.3980 -0.5674
 7277SOL     OW33289   1.239   1.718   5.073  0.0677  0.4173  0.0263
 7277SOL    HW133290   1.257   1.629   5.044 -2.0208 -0.0267  0.1369
 7277SOL    HW233291   1.175   1.751   5.009  0.9611 -0.3129 -1.2600
 7278SOL     OW33292   1.280   1.313   3.449  0.4114 -0.3275 -0.4630
 7278SOL    HW133293   1.332   1.394   3.452 -2.2796  1.3426  0.6315
 7278SOL    HW233294   1.344   1.243   3.462  1.8175  1.1850  0.7723
 7279SOL     OW33295   0.111   0.860   1.293 -0.3003  0.8352  0.2528
 7279SOL    HW133296   0.063   0.812   1.225  0.7292  2.0788 -1.3519
 7279SOL    HW233297   0.155   0.786   1.335  0.0493  1.1323  0.4054
 7280SOL     OW33298   0.905   3.557   8.677  0.1376 -0.0171  0.0871
 7280SOL    HW133299   0.979   3.605   8.714  0.6860 -1.2374  0.5568
 7280SOL    HW233300   0.887   3.503   8.754 -1.6496  2.0447  1.1299
 7281SOL     OW33301   1.610   1.976   4.530  0.2187  0.0447  0.0031
 7281SOL    HW133302   1.515   1.966   4.528 -0.0595  2.5957  0.3757
 7281SOL    HW233303   1.638   1.928   4.452 -0.3536 -0.7135  0.2684
 7282SOL     OW33304   3.783   1.021   3.123  0.3987 -0.3912  0.2182
 7282SOL    HW133305   3.732   1.097   3.096 -1.3524 -0.5094  3.1513
 7282SOL    HW233306   3.819   0.998   3.038 -3.5028  0.4912 -1.6563
 7283SOL     OW33307   3.739   1.919  14.361 -0.1941  0.0575  0.4323
 7283SOL    HW133308   3.826   1.958  14.358  0.3192 -1.1489 -0.0667
 7283SOL    HW233309   3.741   1.847  14.298 -1.1253  1.6413 -1.4101
 7284SOL     OW33310   0.968   1.800   0.070 -0.3210 -0.1270  0.0349
 7284SOL    HW133311   0.993   1.750   0.148  1.0060  0.2652 -0.1462
 7284SOL    HW233312   1.047   1.854   0.072 -0.1822 -0.2883 -1.1029
 7285SOL     OW33313   2.759   0.962   5.618 -0.3659 -0.6757 -0.2472
 7285SOL    HW133314   2.765   0.964   5.522 -0.1606 -0.3124 -0.2278
 7285SOL    HW233315   2.738   1.048   5.653  0.5407  0.2391 -1.9735
 7286SOL     OW33316   3.876   4.492   6.564  0.1999  0.7410 -0.0190
 7286SOL    HW133317   3.874   4.398   6.545  1.8089  0.5695  0.6007
 7286SOL    HW233318   3.787   4.508   6.593  0.5527  0.0348  1.4453
 7287SOL     OW33319   2.578   4.274  10.741  0.0460 -0.5120  0.7034
 7287SOL    HW133320   2.574   4.184  10.772  1.9941 -1.0460 -0.6190
 7287SOL    HW233321   2.634   4.312  10.808 -0.4742  0.3317  0.6635
 7288SOL     OW33322   1.227   4.391   3.621  0.6317 -0.0341  0.0783
 7288SOL    HW133323   1.151   4.341   3.648 -1.1937  0.8812 -3.3081
 7288SOL    HW233324   1.294   4.323   3.626 -0.5765 -1.1725  0.7845
 7289SOL     OW33325   1.634   2.964   3.311 -0.2385 -0.2390 -0.0809
 7289SOL    HW133326   1.675   2.887   3.272  0.6464  0.1291  0.1322
 7289SOL    HW233327   1.576   2.912   3.368 -1.3778  0.2815 -0.7720
 7290SOL     OW33328   1.498   4.061  14.639  0.6802  0.4820 -0.3633
 7290SOL    HW133329   1.495   3.982  14.585 -2.5137  0.6954 -0.5113
 7290SOL    HW233330   1.406   4.088  14.641  0.5463 -0.0340  0.4350
 7291SOL     OW33331   1.112   0.464   2.491 -0.0569 -0.4116  0.1020
 7291SOL    HW133332   1.203   0.434   2.503  0.0900  0.1310  0.3160
 7291SOL    HW233333   1.093   0.509   2.573 -2.6658 -0.5008 -0.4607
 7292SOL     OW33334   2.779   0.536   2.588  0.0514 -0.5145 -0.0218
 7292SOL    HW133335   2.829   0.606   2.631  1.9787 -2.3932  0.7762
 7292SOL    HW233336   2.702   0.541   2.644  1.0068 -1.8545  1.4116
 7293SOL     OW33337   4.427   1.270  13.003 -0.1588  0.7456  0.3713
 7293SOL    HW133338   4.430   1.226  12.919 -1.2045  0.2301  0.6029
 7293SOL    HW233339   4.438   1.358  12.965 -3.0989  0.7340 -0.4806
 7294SOL     OW33340   4.131   4.712  10.997  0.6984 -0.0810  0.5175
 7294SOL    HW133341   4.054   0.039  11.022  2.0759  2.4801 -0.4738
 7294SOL    HW233342   4.173   0.042  10.930 -1.5226 -0.5960 -1.2820
 7295SOL     OW33343   4.638   4.478  10.118  0.1184  0.2886 -0.5463
 7295SOL    HW133344   4.704   4.538  10.153  0.4108  0.3859 -1.2676
 7295SOL    HW233345   4.666   4.404  10.173 -1.5191 -0.6541 -0.9864
 7296SOL     OW33346   4.304   1.090   9.570 -0.7379 -0.3974 -0.7558
 7296SOL    HW133347   4.344   1.051   9.647  2.2803  1.8157 -1.2029
 7296SOL    HW233348   4.224   1.039   9.558 -1.0487 -0.0614 -0.0621
 7297SOL     OW33349   2.948   2.882  11.559 -0.4521 -0.0611 -0.0941
 7297SOL    HW133350   2.940   2.787  11.569 -0.8017 -0.2320 -1.8444
 7297SOL    HW233351   2.854   2.902  11.565  0.2980  3.4436 -0.1734
 7298SOL     OW33352   0.698   3.108   1.940 -0.1499 -0.1123  0.4546
 7298SOL    HW133353   0.661   3.050   1.874  0.9124 -0.1655 -0.1032
 7298SOL    HW233354   0.775   3.059   1.969  0.0518  0.0015  0.1188
 7299SOL     OW33355   2.721   2.128   1.602  0.0345 -0.3655  0.5018
 7299SOL    HW133356   2.712   2.049   1.655  0.3935 -1.8111 -1.6122
 7299SOL    HW233357   2.782   2.101   1.533 -1.7966 -1.1006 -0.8249
 7300SOL     OW33358   1.722   2.160   7.452  0.0639  0.3474 -0.2136
 7300SOL    HW133359   1.721   2.247   7.411  0.0751  0.0139 -0.9137
 7300SOL    HW233360   1.720   2.186   7.544  0.2482  1.8775 -0.6468
 7301SOL     OW33361   0.469   0.866   4.070  0.1025 -0.5713 -0.8398
 7301SOL    HW133362   0.518   0.919   4.007  0.9909 -1.2195 -0.6785
 7301SOL    HW233363   0.396   0.821   4.027  1.2523 -2.8735 -0.3522
 7302SOL     OW33364   2.641   2.550   4.663 -0.3421 -0.0894  0.0508
 7302SOL    HW133365   2.687   2.490   4.605  0.0574  2.0791 -1.9052
 7302SOL    HW233366   2.570   2.574   4.603  1.2018 -0.7294 -2.0575
 7303SOL     OW33367   4.121   3.198   5.360 -0.5571  0.0953  0.3880
 7303SOL    HW133368   4.065   3.269   5.328 -0.0993  1.5875  2.8812
 7303SOL    HW233369   4.085   3.124   5.311 -0.1964 -1.0199  1.8076
 7304SOL     OW33370   3.275   0.648   6.814  0.0317  0.1636  0.0726
 7304SOL    HW133371   3.193   0.601   6.826  0.8014 -1.5370 -1.5111
 7304SOL    HW233372   3.249   0.723   6.761  2.7089  0.4221 -0.8745
 7305SOL     OW33373   2.915   2.524   3.077  0.3635  0.2312  0.0835
 7305SOL    HW133374   2.887   2.611   3.049  0.5306  0.2371 -0.0648
 7305SOL    HW233375   2.844   2.464   3.054  1.3674 -1.1322  0.4940
 7306SOL     OW33376   0.040   0.423  15.813 -0.2141  0.2153  0.3060
 7306SOL    HW133377   0.105   0.391  15.750 -0.1951 -1.3932  1.1474
 7306SOL    HW233378   0.036   0.512  15.777 -4.6945  0.7522  2.1470
 7307SOL     OW33379   0.182   1.036   6.015 -0.3429 -0.1010  0.2040
 7307SOL    HW133380   0.142   1.045   5.928 -1.7488 -1.6195  0.6991
 7307SOL    HW233381   0.249   1.103   6.003  0.7531 -1.3135 -0.4737
 7308SOL     OW33382   3.042   2.901   1.322 -0.1159 -0.0497 -0.1713
 7308SOL    HW133383   3.128   2.908   1.280  1.3307 -0.5590  2.7093
 7308SOL    HW233384   3.058   2.845   1.398 -1.6205 -0.2323 -0.0053
 7309SOL     OW33385   4.172   1.488   3.676  0.1295  0.0371  0.4356
 7309SOL    HW133386   4.227   1.529   3.743 -0.7829  2.9592 -0.5928
 7309SOL    HW233387   4.104   1.455   3.735 -0.6340 -0.5621 -0.7803
 7310SOL     OW33388   2.047   1.749  12.219 -0.2524 -0.4383 -0.4407
 7310SOL    HW133389   2.056   1.816  12.287  0.8677 -0.0569 -0.9621
 7310SOL    HW233390   2.036   1.676  12.281 -1.6087  1.2436  1.2875
 7311SOL     OW33391   3.368   1.939   4.890  0.7064 -0.0635 -0.4396
 7311SOL    HW133392   3.429   1.890   4.946  0.4636 -0.3853 -0.4553
 7311SOL    HW233393   3.319   1.862   4.862 -1.2803 -0.1958  3.3282
 7312SOL     OW33394   3.165   2.240   2.598 -0.1311  0.2375  0.5283
 7312SOL    HW133395   3.250   2.203   2.622  1.2069  2.0298 -1.5102
 7312SOL    HW233396   3.145   2.300   2.671  1.3457  1.3889 -0.0152
 7313SOL     OW33397   0.465   3.638  12.175 -0.0448 -0.0020  0.0126
 7313SOL    HW133398   0.530   3.585  12.220 -1.3653 -0.2192  1.6930
 7313SOL    HW233399   0.490   3.630  12.083  0.2671  0.5756  0.0493
 7314SOL     OW33400   3.607   4.468   1.487  0.0020 -0.2750  0.1386
 7314SOL    HW133401   3.511   4.467   1.486 -0.0408  2.9250  1.7065
 7314SOL    HW233402   3.632   4.458   1.579 -2.0284  1.2379  0.8496
 7315SOL     OW33403   3.050   3.922  17.344 -0.1567 -0.0872  0.3656
 7315SOL    HW133404   3.126   3.962  17.386 -0.5132  0.2944  0.6334
 7315SOL    HW233405   3.086   3.834  17.332  1.5369  0.5467  0.8078
 7316SOL     OW33406   3.078   0.179   6.925  0.2258 -0.8581  0.1687
 7316SOL    HW133407   2.990   0.214   6.913 -0.3063 -2.6667 -1.0967
 7316SOL    HW233408   3.078   0.107   6.863 -0.9726  1.1312 -2.1190
 7317SOL     OW33409   0.231   0.963   7.158  0.2654  0.0943 -0.0377
 7317SOL    HW133410   0.227   1.015   7.078 -0.0678 -0.7311 -0.5565
 7317SOL    HW233411   0.204   0.882   7.116  1.2654 -0.2248 -0.0603
 7318SOL     OW33412   0.518   3.554   3.173 -0.1838 -0.0929 -0.2070
 7318SOL    HW133413   0.511   3.459   3.179  0.5221 -0.1741 -0.6301
 7318SOL    HW233414   0.611   3.551   3.150 -0.2974 -1.4252 -0.5065
 7319SOL     OW33415   1.144   2.954   6.335  0.0921 -0.3918  0.2504
 7319SOL    HW133416   1.201   2.887   6.298  0.5852 -0.0411  0.3702
 7319SOL    HW233417   1.113   2.915   6.417 -1.1703 -0.8001 -0.4185
 7320SOL     OW33418   4.539   3.203  16.612 -0.1190  0.4718 -0.0658
 7320SOL    HW133419   4.625   3.162  16.605 -0.2562 -0.2013  2.3735
 7320SOL    HW233420   4.527   3.248  16.528  1.3776 -2.7271 -2.0008
 7321SOL     OW33421   2.195   0.889   6.856 -0.2605  0.2515 -0.0552
 7321SOL    HW133422   2.147   0.944   6.917 -1.6993 -0.0067 -0.9394
 7321SOL    HW233423   2.187   0.939   6.774  0.0580 -0.6924 -0.6665
 7322SOL     OW33424   2.239   1.780   0.290  0.5594 -0.1417  0.1701
 7322SOL    HW133425   2.300   1.854   0.288  0.8494 -0.3515  1.5878
 7322SOL    HW233426   2.209   1.783   0.199 -0.7934  1.3910  0.6590
 7323SOL     OW33427   4.629   0.168   6.540 -0.5785  0.0264  0.2636
 7323SOL    HW133428   4.575   0.097   6.575  0.6908 -0.9964  0.1396
 7323SOL    HW233429   4.566   0.233   6.508  0.4916 -0.9860 -3.8855
 7324SOL     OW33430   3.215   2.287   4.527 -0.6388  0.2604 -0.0244
 7324SOL    HW133431   3.180   2.305   4.440 -1.7146  1.6377  0.6913
 7324SOL    HW233432   3.308   2.287   4.506 -0.4443 -0.8532  0.7827
 7325SOL     OW33433   0.275   1.865   1.823 -0.1343 -0.8785  0.3448
 7325SOL    HW133434   0.318   1.931   1.876 -2.4500  2.1974 -1.6142
 7325SOL    HW233435   0.203   1.844   1.883 -0.4566 -1.5718 -0.2855
 7326SOL     OW33436   1.221   0.865   9.250  0.1027 -0.4004  0.1665
 7326SOL    HW133437   1.178   0.901   9.327 -0.5735 -1.7613  0.4175
 7326SOL    HW233438   1.177   0.781   9.239  0.2883 -0.8859  3.0743
 7327SOL     OW33439   3.578   1.054  13.935 -0.3754  0.0914 -0.0818
 7327SOL    HW133440   3.527   0.981  13.900  1.5380 -1.2995  0.0627
 7327SOL    HW233441   3.635   1.010  13.997 -3.7133 -1.7114  1.7215
 7328SOL     OW33442   2.120   2.843  16.916  0.3550 -0.0466 -0.4320
 7328SOL    HW133443   2.102   2.935  16.897  0.4139 -0.4370 -2.4071
 7328SOL    HW233444   2.098   2.844  17.009 -0.9224  0.5713 -0.7427
 7329SOL     OW33445   1.903   3.808   3.456  0.1693 -0.7269  0.0031
 7329SOL    HW133446   1.971   3.742   3.448  2.3123  1.5183 -0.3579
 7329SOL    HW233447   1.948   3.880   3.411 -0.6713 -0.3559 -0.2528
 7330SOL     OW33448   4.370   0.086   3.198 -0.0867 -0.6667 -0.5728
 7330SOL    HW133449   4.290   0.090   3.251 -0.8213  1.0916 -1.8188
 7330SOL    HW233450   4.350   0.013   3.140  1.7336 -0.0290 -1.9945
 7331SOL     OW33451   0.519   3.277   7.568  0.6776 -0.1218  0.1184
 7331SOL    HW133452   0.610   3.258   7.544 -0.1745 -0.4051 -2.8620
 7331SOL    HW233453   0.539   3.297   7.660  0.2892 -0.1190  0.2040
 7332SOL     OW33454   3.338   3.009   4.345 -0.3403  0.1428 -0.2092
 7332SOL    HW133455   3.267   3.068   4.370  1.0518  1.5254  0.4454
 7332SOL    HW233456   3.394   3.003   4.423 -0.7953 -3.0948 -0.1081
 7333SOL     OW33457   3.370   1.293   9.245 -0.4632 -0.2438  0.0050
 7333SOL    HW133458   3.298   1.352   9.222  2.8042  2.9391 -1.9877
 7333SOL    HW233459   3.436   1.351   9.283 -0.2831 -2.2716  2.7875
 7334SOL     OW33460   4.473   3.193   4.037 -0.3316  0.0062 -0.2791
 7334SOL    HW133461   4.487   3.195   4.132 -2.1119 -1.7797  0.0126
 7334SOL    HW233462   4.528   3.268   4.015 -0.8916  0.2109 -0.9687
 7335SOL     OW33463   3.178   2.820   0.591  0.4202  0.4518 -0.5857
 7335SOL    HW133464   3.109   2.760   0.564  1.4251 -0.6465 -0.7080
 7335SOL    HW233465   3.179   2.793   0.683  2.2929  0.3943 -0.6268
 7336SOL     OW33466   3.216   0.533   1.696  0.3638  0.5274 -0.7897
 7336SOL    HW133467   3.299   0.513   1.654  0.3235 -3.1563  0.8304
 7336SOL    HW233468   3.153   0.531   1.624  1.1356  1.9196 -1.4910
 7337SOL     OW33469   3.874   3.455   8.283  0.4746 -0.2393 -0.1610
 7337SOL    HW133470   3.831   3.501   8.354  2.6839  2.5092 -0.6167
 7337SOL    HW233471   3.853   3.364   8.303 -2.0322  1.1657  3.4597
 7338SOL     OW33472   0.684   3.418   4.232 -0.1022  0.1541  0.4841
 7338SOL    HW133473   0.748   3.410   4.302 -0.8657  0.8947  1.2503
 7338SOL    HW233474   0.700   3.330   4.196  0.6525  0.6521 -0.4036
 7339SOL     OW33475   2.541   3.910   1.302  0.8934 -0.5938  0.2178
 7339SOL    HW133476   2.626   3.870   1.288 -0.0783 -1.9554 -1.7950
 7339SOL    HW233477   2.553   3.990   1.250 -1.3693 -0.1389  0.3722
 7340SOL     OW33478   2.017   0.647  10.251  0.5287 -0.1701  0.7554
 7340SOL    HW133479   2.079   0.637  10.179  0.1374  0.3286  0.3557
 7340SOL    HW233480   2.032   0.740  10.271  0.8077 -0.3646  1.4551
 7341SOL     OW33481   0.704   2.938   2.789  0.6928  0.4549  0.6158
 7341SOL    HW133482   0.671   2.975   2.871 -0.3249  0.7899  0.0594
 7341SOL    HW233483   0.676   3.000   2.722 -0.3375  0.3414  0.9460
 7342SOL     OW33484   4.159   4.436   9.278  0.0061 -0.5315  0.3416
 7342SOL    HW133485   4.228   4.408   9.218  0.2256 -1.9714  1.2800
 7342SOL    HW233486   4.199   4.413   9.362  1.3660  0.9768  0.1214
 7343SOL     OW33487   0.730   3.258  17.313 -0.5471 -0.1139  0.2940
 7343SOL    HW133488   0.798   3.202  17.350  0.4275 -0.3796 -1.8822
 7343SOL    HW233489   0.670   3.258  17.388 -0.0729 -0.3679  0.6782
 7344SOL     OW33490   4.414   1.117   4.443 -0.0957 -0.2213 -0.3221
 7344SOL    HW133491   4.332   1.082   4.408 -0.6955 -0.0297  0.8797
 7344SOL    HW233492   4.424   1.082   4.531  1.5441  0.8351 -0.0798
 7345SOL     OW33493   0.241   1.747  10.505 -0.7614 -0.5460  0.3261
 7345SOL    HW133494   0.232   1.674  10.444 -0.2323 -0.7445  0.4856
 7345SOL    HW233495   0.156   1.792  10.506 -2.2296 -3.3516  1.4234
 7346SOL     OW33496   4.076   0.525   5.071  0.7203 -0.1885 -0.0968
 7346SOL    HW133497   4.070   0.617   5.045 -0.5468  0.1706  1.4716
 7346SOL    HW233498   4.140   0.518   5.142  1.6254  1.7227 -0.7245
 7347SOL     OW33499   3.792   0.017   9.059  0.5614 -0.7644 -0.4557
 7347SOL    HW133500   3.820   4.686   9.132  1.0432 -0.7138 -0.6011
 7347SOL    HW233501   3.804   0.107   9.092  0.1269 -1.3078  1.1716
 7348SOL     OW33502   1.309   2.240   5.768 -0.1405  0.0562  0.0095
 7348SOL    HW133503   1.249   2.203   5.703  3.0870 -1.9872 -1.8536
 7348SOL    HW233504   1.301   2.172   5.836 -1.8526 -0.2926 -0.5382
 7349SOL     OW33505   1.054   0.223  11.512  0.1138  0.2921 -0.3176
 7349SOL    HW133506   1.060   0.319  11.509 -0.5931  0.3010 -1.3863
 7349SOL    HW233507   1.126   0.197  11.454  1.8913 -0.3962  2.1968
 7350SOL     OW33508   2.838   2.410   8.230 -0.1006 -0.0009 -0.2743
 7350SOL    HW133509   2.754   2.455   8.225  1.6247  2.8575 -3.2432
 7350SOL    HW233510   2.865   2.433   8.319 -0.8233  1.5339 -0.4586
 7351SOL     OW33511   1.312   1.504   2.900  0.0435  0.1682  0.4538
 7351SOL    HW133512   1.269   1.587   2.883  0.4827  0.1736 -0.6880
 7351SOL    HW233513   1.247   1.478   2.964 -0.5707 -1.0361 -0.6600
 7352SOL     OW33514   1.119   1.415   3.077  0.6729  0.6715 -0.4609
 7352SOL    HW133515   1.079   1.420   3.164 -1.9683 -3.2290 -1.4112
 7352SOL    HW233516   1.037   1.420   3.028 -0.6020  2.5707  1.8653
 7353SOL     OW33517   2.290   3.402   8.883  0.3807 -0.2401 -0.7436
 7353SOL    HW133518   2.276   3.496   8.877  1.1725 -0.0215  0.9623
 7353SOL    HW233519   2.366   3.398   8.941  0.8737  0.6613 -1.3267
 7354SOL     OW33520   0.893   2.729   4.341 -0.0613 -0.3763 -0.0042
 7354SOL    HW133521   0.915   2.718   4.433 -0.8166 -1.3723  0.0474
 7354SOL    HW233522   0.873   2.823   4.337 -0.1755 -0.4228 -0.6345
 7355SOL     OW33523   2.377   3.799   3.655 -0.4226 -0.4790  0.0296
 7355SOL    HW133524   2.294   3.785   3.701 -1.9128  1.6793 -2.0199
 7355SOL    HW233525   2.385   3.718   3.603 -2.7910 -1.1005  0.6391
 7356SOL     OW33526   0.321   1.951   2.918 -0.6398 -0.2373  0.5387
 7356SOL    HW133527   0.322   1.857   2.936  2.3567 -0.2915  0.0767
 7356SOL    HW233528   0.309   1.960   2.823  3.2413 -0.4723 -0.0013
 7357SOL     OW33529   3.520   4.460   7.550 -0.6983  0.4891  0.1817
 7357SOL    HW133530   3.488   4.370   7.549 -0.6875  0.4853  0.1744
 7357SOL    HW233531   3.470   4.494   7.624  1.7540  1.5273  1.3711
 7358SOL     OW33532   3.243   4.636  16.117  0.4202  0.4383 -0.0028
 7358SOL    HW133533   3.280   4.550  16.099  1.0527  0.5572  0.7648
 7358SOL    HW233534   3.269   4.682  16.037  1.1669 -1.2840 -0.7351
 7359SOL     OW33535   0.782   4.030   6.657 -0.0469  0.0027  0.2592
 7359SOL    HW133536   0.743   4.052   6.742  0.6639  0.9197  0.3636
 7359SOL    HW233537   0.873   4.053   6.676  0.4642  0.4298 -2.7488
 7360SOL     OW33538   4.705   2.536  10.985  0.4980 -0.6365 -0.0979
 7360SOL    HW133539   0.045   2.603  11.009 -0.7561  0.9237 -1.1216
 7360SOL    HW233540   4.622   2.579  11.005  0.9993  0.8679 -1.2179
 7361SOL     OW33541   3.200   2.781   6.104 -0.1917 -0.1793 -0.5506
 7361SOL    HW133542   3.213   2.876   6.104  0.6333 -0.3034  1.1291
 7361SOL    HW233543   3.108   2.762   6.122 -0.9056  4.2939  0.6881
 7362SOL     OW33544   4.366   1.126   6.875 -0.1666 -0.3924  0.6932
 7362SOL    HW133545   4.450   1.164   6.902  0.7688 -0.6041 -1.9563
 7362SOL    HW233546   4.353   1.185   6.801 -0.0583  1.5802  2.2458
 7363SOL     OW33547   2.930   2.394   4.967  0.2197 -0.2149 -0.3152
 7363SOL    HW133548   2.950   2.379   4.874  0.8607  0.0356 -0.2189
 7363SOL    HW233549   3.019   2.404   5.001  0.4925  0.8268 -1.3445
 7364SOL     OW33550   4.521   4.596  11.083 -0.4518 -0.2372 -0.1932
 7364SOL    HW133551   4.490   4.644  11.159  0.5836  0.1986 -0.0366
 7364SOL    HW233552   4.614   4.589  11.104 -0.6261 -3.3089 -0.4610
 7365SOL     OW33553   2.866   4.400   4.490 -0.2438 -0.3723  0.2040
 7365SOL    HW133554   2.781   4.444   4.481 -0.5856 -0.9807  0.4503
 7365SOL    HW233555   2.871   4.352   4.407  0.0359 -1.6537  0.9570
 7366SOL     OW33556   1.082   1.852  16.343  0.3298  0.3775  0.4409
 7366SOL    HW133557   1.110   1.900  16.421 -2.4263  1.4880  0.7308
 7366SOL    HW233558   0.988   1.859  16.356  0.5906 -0.0212  2.5768
 7367SOL     OW33559   1.511   4.479   3.435  0.5025  0.3911 -0.8138
 7367SOL    HW133560   1.427   4.458   3.394 -0.1466  0.0838  0.6632
 7367SOL    HW233561   1.554   4.395   3.448 -0.4989 -0.0021 -0.0707
 7368SOL     OW33562   2.880   2.267   3.375  0.4995 -0.3283 -0.2309
 7368SOL    HW133563   2.964   2.247   3.335  1.9933  2.7662  1.3196
 7368SOL    HW233564   2.819   2.230   3.312  1.3198  0.3387 -1.4054
 7369SOL     OW33565   2.570   0.589   2.750  0.1735  0.6955 -0.1709
 7369SOL    HW133566   2.485   0.567   2.711 -0.1641 -0.5688  1.2415
 7369SOL    HW233567   2.537   0.558   2.835 -0.4542 -0.1333 -0.7207
 7370SOL     OW33568   2.276   3.194   2.701  0.1749  0.0379  0.1847
 7370SOL    HW133569   2.320   3.109   2.694  2.2463  1.1770 -0.6702
 7370SOL    HW233570   2.256   3.189   2.794 -0.6793 -0.4345 -0.0212
 7371SOL     OW33571   0.162   2.364   2.332 -0.2065  0.0269 -0.6477
 7371SOL    HW133572   0.235   2.408   2.288  0.4339  1.5009  1.8866
 7371SOL    HW233573   0.082   2.407   2.300  1.2892  2.5878 -0.9887
 7372SOL     OW33574   1.816   1.309   9.857 -0.5308  0.3784  0.3538
 7372SOL    HW133575   1.826   1.229   9.805  1.4658  1.1559 -0.4776
 7372SOL    HW233576   1.811   1.374   9.787  0.7723  2.0306  1.8018
 7373SOL     OW33577   2.432   2.979   7.689  0.3210 -0.0123  0.2548
 7373SOL    HW133578   2.457   2.925   7.614  1.8319  1.8288 -0.5698
 7373SOL    HW233579   2.443   2.922   7.766  0.8666  0.1764  0.3208
 7374SOL     OW33580   0.592   2.164   1.445 -0.3907 -0.2647  0.0658
 7374SOL    HW133581   0.555   2.228   1.385  0.9289  1.4136  1.0667
 7374SOL    HW233582   0.534   2.186   1.518  1.3520  1.3470  0.9441
 7375SOL     OW33583   1.045   2.851   6.554 -0.5250 -0.6681 -0.1516
 7375SOL    HW133584   1.111   2.794   6.593  0.0871  0.1638  0.0199
 7375SOL    HW233585   0.974   2.795   6.522 -0.3576 -0.3140 -1.1539
 7376SOL     OW33586   2.584   3.052   4.032 -0.2755 -0.1430  0.1920
 7376SOL    HW133587   2.581   3.139   3.991 -2.3895 -1.1087 -1.7081
 7376SOL    HW233588   2.642   3.075   4.105 -1.4436 -1.7387  1.6111
 7377SOL     OW33589   2.582   3.360   5.620  0.5833 -0.6960  0.3904
 7377SOL    HW133590   2.579   3.336   5.527  0.2499  1.1166 -0.0556
 7377SOL    HW233591   2.614   3.450   5.617  0.0073 -0.5848 -2.7841
 7378SOL     OW33592   0.880   4.159  12.700 -0.1269  0.3901  0.1017
 7378SOL    HW133593   0.911   4.243  12.733 -0.2355  0.2221  0.6425
 7378SOL    HW233594   0.790   4.176  12.727  0.2587 -0.1680  1.7429
 7379SOL     OW33595   2.629   0.665  14.174  0.0092 -0.3164  0.0457
 7379SOL    HW133596   2.652   0.614  14.096 -0.1344 -2.8468  1.6662
 7379SOL    HW233597   2.535   0.649  14.176  0.1099 -0.8571  0.7812
 7380SOL     OW33598   2.008   1.048   6.271  0.2271  0.2975 -0.0446
 7380SOL    HW133599   2.057   0.969   6.293  0.1269  0.7556  1.8155
 7380SOL    HW233600   1.998   1.041   6.176 -0.5618 -2.6898  0.2680
 7381SOL     OW33601   2.536   3.301   7.970  0.3896 -0.0229 -0.2114
 7381SOL    HW133602   2.538   3.360   8.045 -2.8776  1.6898 -1.4788
 7381SOL    HW233603   2.525   3.214   8.009  1.2892 -0.7950 -1.6741
 7382SOL     OW33604   3.542   0.882   6.999 -0.3689  0.5552  0.1720
 7382SOL    HW133605   3.459   0.908   6.961 -0.0827  1.7751  0.3888
 7382SOL    HW233606   3.591   0.963   6.988  0.6630 -0.0527  0.2924
 7383SOL     OW33607   3.847   2.589   8.568  0.3396 -0.6048 -0.2791
 7383SOL    HW133608   3.884   2.612   8.653  0.7198  0.2340 -0.6731
 7383SOL    HW233609   3.903   2.629   8.502  0.5111  0.1205  0.3090
 7384SOL     OW33610   4.189   1.013   1.548  0.4387  0.4580 -0.0416
 7384SOL    HW133611   4.224   1.069   1.478  0.8617 -2.4700 -2.2026
 7384SOL    HW233612   4.130   0.946   1.514  0.5176  0.4395 -0.1405
 7385SOL     OW33613   4.203   0.457   9.013  0.5971 -0.0257 -0.3062
 7385SOL    HW133614   4.208   0.479   9.106 -1.4915 -1.2965  0.0943
 7385SOL    HW233615   4.285   0.489   8.974  0.1978 -0.3215 -1.3961
 7386SOL     OW33616   3.903   1.357  12.178  0.2980 -0.5893  0.9605
 7386SOL    HW133617   3.841   1.376  12.249  1.0244 -1.5608  1.8532
 7386SOL    HW233618   3.838   1.300  12.136 -0.2976  0.6519  0.1835
 7387SOL     OW33619   4.649   4.332   8.499  0.0014 -0.4804  0.2061
 7387SOL    HW133620   4.670   4.384   8.577 -1.6884 -1.4168  1.2908
 7387SOL    HW233621   4.634   4.241   8.524 -4.0171  0.0886 -0.0962
 7388SOL     OW33622   0.026   0.182  15.595 -0.5363 -0.2155  0.0818
 7388SOL    HW133623   0.068   0.144  15.518 -0.0473 -1.2752  0.8725
 7388SOL    HW233624   0.095   0.232  15.638 -1.6142  1.0619  0.3630
 7389SOL     OW33625   1.030   3.148   3.826  0.0505 -0.2472 -0.6346
 7389SOL    HW133626   0.993   3.234   3.803 -0.8157  0.0349  1.7707
 7389SOL    HW233627   1.054   3.167   3.917  0.7646 -1.6707 -0.5406
 7390SOL     OW33628   1.908   1.825  10.141 -0.5984 -0.4681  0.0247
 7390SOL    HW133629   1.978   1.877  10.180 -1.0768 -1.1229  1.7301
 7390SOL    HW233630   1.860   1.812  10.222 -0.0989 -2.2811  0.0229
 7391SOL     OW33631   2.767   1.376  15.914 -0.6128 -0.6226  0.7475
 7391SOL    HW133632   2.828   1.348  15.845  1.6069  0.4253  2.2751
 7391SOL    HW233633   2.816   1.446  15.957  0.6029 -1.0092 -0.0043
 7392SOL     OW33634   4.041   2.664   6.743 -0.0193  0.1234 -0.1568
 7392SOL    HW133635   4.052   2.571   6.723 -1.2140 -0.6356  2.7500
 7392SOL    HW233636   4.085   2.668   6.827 -1.3926  0.1242  0.5702
 7393SOL     OW33637   3.010   2.473   2.472 -0.2182  0.9383 -0.1689
 7393SOL    HW133638   2.940   2.412   2.450 -1.3700  1.8272  1.0632
 7393SOL    HW233639   3.029   2.452   2.563  0.4116 -1.2390 -0.7951
 7394SOL     OW33640   4.530   0.062   9.704  0.1705  0.3903  0.2228
 7394SOL    HW133641   4.596   0.065   9.634 -1.5232  0.6952 -1.3701
 7394SOL    HW233642   4.588   0.087   9.776  0.7865  0.5755 -0.3411
 7395SOL     OW33643   3.869   0.606   3.412 -0.0198  0.5049  0.0479
 7395SOL    HW133644   3.839   0.548   3.343 -1.3729 -1.1557  2.0394
 7395SOL    HW233645   3.870   0.688   3.362  0.0964  0.5506  0.1246
 7396SOL     OW33646   1.580   3.315   8.651  0.5906  0.1520  0.3270
 7396SOL    HW133647   1.533   3.382   8.699 -1.0604  1.0908 -2.6160
 7396SOL    HW233648   1.524   3.306   8.574  0.6078  0.2591  0.3032
 7397SOL     OW33649   1.696   1.663   5.855 -0.5036 -0.0362  0.3733
 7397SOL    HW133650   1.748   1.595   5.897  1.7357  0.2345 -1.9784
 7397SOL    HW233651   1.727   1.661   5.765 -1.4632 -1.3224  0.0721
 7398SOL     OW33652   1.040   0.453   4.401 -0.9444  0.0496  0.0166
 7398SOL    HW133653   1.098   0.416   4.467 -1.3617 -0.6631 -0.0133
 7398SOL    HW233654   0.981   0.378   4.394 -0.3401 -0.6099  2.2486
 7399SOL     OW33655   2.259   0.753   8.369 -0.1376  0.2772  0.6658
 7399SOL    HW133656   2.289   0.807   8.442  1.0456 -1.9917  1.8598
 7399SOL    HW233657   2.347   0.722   8.345  0.0762  2.6999 -1.7285
 7400SOL     OW33658   1.301   0.165   5.944 -0.1009  0.0839  0.0626
 7400SOL    HW133659   1.369   0.136   5.883  1.0860 -0.3777  1.6033
 7400SOL    HW233660   1.344   0.149   6.028 -2.2150  1.9783  1.5094
 7401SOL     OW33661   1.830   2.802   1.562  0.0683  0.0723  0.2048
 7401SOL    HW133662   1.745   2.800   1.605 -1.1099  1.9518 -2.0568
 7401SOL    HW233663   1.809   2.851   1.483  1.3073 -0.8021 -0.6859
 7402SOL     OW33664   2.733   3.013  12.831 -0.1944  0.0676 -0.7685
 7402SOL    HW133665   2.794   2.948  12.797  0.7785  0.4810  0.2086
 7402SOL    HW233666   2.698   2.975  12.912 -1.3731 -1.4949 -2.0186
 7403SOL     OW33667   2.132   1.390   7.269 -0.7940 -0.9742 -0.3081
 7403SOL    HW133668   2.045   1.431   7.275 -0.8055 -1.2751  1.5119
 7403SOL    HW233669   2.175   1.472   7.246 -0.8599 -0.6115  0.8676
 7404SOL     OW33670   4.515   4.359   6.770 -0.1026  0.6498  0.3665
 7404SOL    HW133671   4.600   4.393   6.800  0.0289 -0.7078  1.4948
 7404SOL    HW233672   4.462   4.432   6.803  0.3856  0.9502  0.4953
 7405SOL     OW33673   4.716   2.731   6.695 -0.3721 -0.2723  0.1087
 7405SOL    HW133674   4.642   2.739   6.635  0.4470  2.0262 -0.5705
 7405SOL    HW233675   4.677   2.755   6.779  0.5497  0.2578  0.3756
 7406SOL     OW33676   4.721   1.088   1.648  0.1832  0.1190  0.6563
 7406SOL    HW133677   0.001   1.183   1.638 -0.2205  0.0801  0.1361
 7406SOL    HW233678   0.049   1.082   1.729  1.6073  1.2131 -0.1717
 7407SOL     OW33679   0.039   0.564  14.515  0.4825  0.6014 -0.3700
 7407SOL    HW133680   0.105   0.632  14.523  0.2160  0.7296  0.7645
 7407SOL    HW233681   4.717   0.569  14.599  2.0247 -1.5462  0.5641
 7408SOL     OW33682   2.809   0.999  14.696 -0.4734 -0.2557 -0.0782
 7408SOL    HW133683   2.811   1.066  14.627 -3.1269  1.6092  1.6870
 7408SOL    HW233684   2.737   0.955  14.650  0.7654 -2.4810  0.1152
 7409SOL     OW33685   3.640   3.870  17.501 -0.4112  0.0034 -0.2845
 7409SOL    HW133686   3.691   3.890  17.423 -2.9908 -0.9261 -2.2429
 7409SOL    HW233687   3.556   3.849  17.459  0.9797 -2.6097 -1.7191
 7410SOL     OW33688   1.920   4.267   2.451  0.0465  0.9656 -0.7489
 7410SOL    HW133689   1.864   4.325   2.399 -0.1360  0.9399 -0.5826
 7410SOL    HW233690   1.844   4.216   2.478  1.9405 -1.6401 -0.3749
 7411SOL     OW33691   0.736   1.089   6.914 -0.1849 -0.4901  0.2675
 7411SOL    HW133692   0.700   1.141   6.985 -1.4189  0.7446 -1.2769
 7411SOL    HW233693   0.827   1.079   6.943  0.6213 -0.1703 -2.1833
 7412SOL     OW33694   2.021   2.004  10.330 -0.1289  0.6463  0.5995
 7412SOL    HW133695   2.107   2.037  10.356  1.0185  0.1572 -2.6117
 7412SOL    HW233696   1.960   2.009  10.403 -0.7468  0.1354  0.1124
 7413SOL     OW33697   2.353   4.672   9.050  0.3964  0.3147 -0.4871
 7413SOL    HW133698   2.258   4.675   9.035  0.2318 -0.0088  0.4627
 7413SOL    HW233699   2.363   4.718   9.133 -1.7356 -0.2844  0.1078
 7414SOL     OW33700   2.220   1.621   9.501  0.0049 -0.3710  0.5230
 7414SOL    HW133701   2.227   1.714   9.480 -1.6040 -0.4337 -0.3105
 7414SOL    HW233702   2.235   1.575   9.419  0.1340 -0.8401  0.8140
 7415SOL     OW33703   2.669   1.485   5.742 -0.6181  0.1784 -0.3979
 7415SOL    HW133704   2.620   1.550   5.690 -0.5450 -0.7109 -1.5916
 7415SOL    HW233705   2.755   1.492   5.701 -0.0293 -1.6921  0.5613
 7416SOL     OW33706   0.478   0.511   9.749  0.3257 -0.0202  0.5967
 7416SOL    HW133707   0.403   0.569   9.755 -0.6014 -1.2041  0.4618
 7416SOL    HW233708   0.450   0.438   9.694 -0.2039 -0.2967  1.2294
 7417SOL     OW33709   3.338   1.418   2.083 -0.1984  0.2743 -0.5849
 7417SOL    HW133710   3.407   1.441   2.022 -1.4274  0.7967 -1.7749
 7417SOL    HW233711   3.337   1.322   2.086  3.3950  0.2812  0.1051
 7418SOL     OW33712   1.874   4.406  12.913  0.4232 -0.1313  0.4144
 7418SOL    HW133713   1.902   4.493  12.942 -1.9916  0.4367  1.0733
 7418SOL    HW233714   1.956   4.357  12.913  1.0093  0.8443 -0.5234
 7419SOL     OW33715   4.666   3.108  13.609 -0.0540  0.3116 -0.1978
 7419SOL    HW133716   4.705   3.168  13.545 -0.6836  0.3702 -0.5278
 7419SOL    HW233717   4.627   3.045  13.549  1.5855 -0.4114 -0.4892
 7420SOL     OW33718   3.811   3.268   1.316  0.3417  0.4537 -0.0363
 7420SOL    HW133719   3.729   3.229   1.286  0.3144  0.3242  0.2000
 7420SOL    HW233720   3.864   3.246   1.240  1.4808 -0.0195  0.8823
 7421SOL     OW33721   1.302   1.337   7.896 -0.4473  0.3275  0.4140
 7421SOL    HW133722   1.254   1.314   7.976 -2.2961  1.3825 -0.4000
 7421SOL    HW233723   1.383   1.361   7.940 -0.0784  0.2846 -0.2462
 7422SOL     OW33724   2.895   1.433   3.804  0.3028  0.0048 -0.8931
 7422SOL    HW133725   2.924   1.404   3.717  1.9181 -1.0521  0.0147
 7422SOL    HW233726   2.969   1.479   3.842  0.4370 -2.3297  1.6705
 7423SOL     OW33727   2.036   3.410   3.915  0.0129 -0.0884  0.2277
 7423SOL    HW133728   2.037   3.499   3.948 -0.4812  0.7145 -1.9441
 7423SOL    HW233729   2.126   3.394   3.942  0.5958 -0.3426 -1.8463
 7424SOL     OW33730   4.634   3.628  13.216 -0.3098  0.4424  0.2751
 7424SOL    HW133731   4.690   3.685  13.164  1.9396 -0.0749  2.1339
 7424SOL    HW233732   4.572   3.593  13.152 -0.3531 -1.7618  1.5002
 7425SOL     OW33733   1.580   4.549   9.434  0.3461 -0.2780  0.4010
 7425SOL    HW133734   1.486   4.567   9.445  0.2510  0.0516 -0.8805
 7425SOL    HW233735   1.581   4.502   9.350  1.1158  1.0875 -0.3590
 7426SOL     OW33736   1.012   0.128   3.753  0.4968  0.7358  0.8175
 7426SOL    HW133737   1.053   0.051   3.715 -1.5940  0.2841 -0.5426
 7426SOL    HW233738   1.053   0.128   3.839 -1.2378  0.6525  1.6548
 7427SOL     OW33739   0.115   1.707   2.195  0.3980 -0.2256  0.7000
 7427SOL    HW133740   0.086   1.758   2.120 -0.1298 -2.5116 -0.6569
 7427SOL    HW233741   0.050   1.636   2.191 -2.8560  2.7163  1.0029
 7428SOL     OW33742   0.366   0.894   8.635  0.9587  0.0492  0.6254
 7428SOL    HW133743   0.351   0.874   8.727 -0.6268  1.3454  0.6341
 7428SOL    HW233744   0.451   0.849   8.632  1.0222  0.3096 -1.4458
 7429SOL     OW33745   1.127   3.993   4.544 -0.0678  0.1768 -0.1982
 7429SOL    HW133746   1.075   3.913   4.548 -0.8302  0.7081  0.4816
 7429SOL    HW233747   1.181   3.989   4.622 -1.2543  2.4556  0.7654
 7430SOL     OW33748   4.077   4.534   4.943  0.0725  0.0643  0.4910
 7430SOL    HW133749   4.144   4.588   4.986  0.0741 -0.7259  1.4920
 7430SOL    HW233750   4.012   4.541   5.013  0.9278  0.2680  1.2643
 7431SOL     OW33751   3.406   4.563   6.862 -0.9426 -0.5266 -0.1718
 7431SOL    HW133752   3.397   4.629   6.793 -1.6231 -2.1658 -1.6309
 7431SOL    HW233753   3.465   4.608   6.924  0.0398 -0.7443 -0.9454
 7432SOL     OW33754   0.616   0.358   3.712 -0.0849 -0.2549 -0.0718
 7432SOL    HW133755   0.528   0.337   3.679  0.9806 -0.0026 -3.1069
 7432SOL    HW233756   0.646   0.415   3.641  3.0893 -2.9898 -0.9112
 7433SOL     OW33757   1.218   0.326   2.207  0.2251  0.4938  0.0086
 7433SOL    HW133758   1.123   0.336   2.199 -0.1807 -2.8537  0.9449
 7433SOL    HW233759   1.246   0.310   2.117  0.0189 -0.4788  0.1246
 7434SOL     OW33760   2.865   3.187   8.152 -0.5990 -0.1288 -0.9254
 7434SOL    HW133761   2.837   3.222   8.067 -1.3775 -0.5861 -0.8599
 7434SOL    HW233762   2.888   3.094   8.147 -3.5856 -0.8799 -0.2370
 7435SOL     OW33763   0.108   0.610   5.804 -0.3621  0.5510  0.3611
 7435SOL    HW133764   0.065   0.607   5.889 -1.3060  0.9590 -0.1106
 7435SOL    HW233765   0.183   0.555   5.828  0.5980  0.8877 -1.8763
 7436SOL     OW33766   2.067   1.016   7.936 -0.5993 -0.8306 -0.0575
 7436SOL    HW133767   1.986   1.063   7.957 -0.7810 -0.9164 -0.5629
 7436SOL    HW233768   2.088   0.984   8.023 -2.0456 -0.9961  0.2282
 7437SOL     OW33769   3.600   1.936   7.387 -0.0454  0.0351  0.4087
 7437SOL    HW133770   3.513   1.902   7.405 -0.4667  0.6256 -0.4633
 7437SOL    HW233771   3.611   1.923   7.293  1.7544 -3.2041  1.0923
 7438SOL     OW33772   1.326   4.642   8.251  0.3469  0.0480  0.4077
 7438SOL    HW133773   1.262   4.588   8.204 -1.0866  1.4418  0.7358
 7438SOL    HW233774   1.406   4.613   8.209  0.6848  1.2493  0.2433
 7439SOL     OW33775   1.060   1.465   4.177 -0.6772 -0.5130 -0.5679
 7439SOL    HW133776   1.118   1.408   4.229  2.2414  2.4695 -0.5478
 7439SOL    HW233777   0.973   1.444   4.211 -2.3360  0.6765 -4.1471
 7440SOL     OW33778   2.664   3.827   6.922  0.6735 -0.0142  0.5222
 7440SOL    HW133779   2.700   3.813   6.835  0.7910  1.9603  0.2632
 7440SOL    HW233780   2.609   3.904   6.910  0.2846 -0.5879 -1.2466
 7441SOL     OW33781   0.175   1.717   6.908  0.1632 -0.1702 -0.2899
 7441SOL    HW133782   0.251   1.661   6.923  0.5926  0.1402 -1.2338
 7441SOL    HW233783   0.173   1.753   6.996 -0.6321 -2.8798  0.7684
 7442SOL     OW33784   3.800   4.079   3.625 -0.2762 -0.0708 -0.2925
 7442SOL    HW133785   3.775   4.007   3.567 -0.5488  0.3167 -0.6619
 7442SOL    HW233786   3.777   4.052   3.714  1.2647 -0.9936 -0.1785
 7443SOL     OW33787   3.374   0.570   8.312  0.2314 -0.6459 -0.1216
 7443SOL    HW133788   3.328   0.640   8.266 -0.2798 -0.7079  0.2843
 7443SOL    HW233789   3.447   0.546   8.256  1.3295  3.1460 -0.3448
 7444SOL     OW33790   3.043   3.116   2.340 -0.0823  0.1872 -0.2596
 7444SOL    HW133791   3.073   3.097   2.429  0.1996  0.0490 -0.3818
 7444SOL    HW233792   2.979   3.044   2.336 -0.2811  0.5257 -3.4535
 7445SOL     OW33793   2.940   2.903   8.209 -0.0756  0.4931  0.2575
 7445SOL    HW133794   2.909   2.901   8.299  0.3093  3.0291  0.4481
 7445SOL    HW233795   3.036   2.904   8.216 -0.0803  0.5132  0.3195
 7446SOL     OW33796   4.109   4.224   7.386 -0.1945  0.3495 -0.1949
 7446SOL    HW133797   4.182   4.250   7.331 -1.7557 -0.0496 -2.4737
 7446SOL    HW233798   4.139   4.236   7.476 -0.4502  0.3375 -0.1071
 7447SOL     OW33799   1.425   1.907   0.605 -1.0227 -0.2559  0.6076
 7447SOL    HW133800   1.418   1.833   0.545 -1.3950  0.3975 -0.1542
 7447SOL    HW233801   1.408   1.866   0.690  1.6675 -1.5664  0.5086
 7448SOL     OW33802   0.187   3.425   5.435 -0.0304  0.0895 -0.6933
 7448SOL    HW133803   0.134   3.355   5.398  0.1204  0.0217 -0.7825
 7448SOL    HW233804   0.270   3.419   5.386  1.3446  1.9618  1.3868
 7449SOL     OW33805   0.741   1.288   7.623 -0.0178 -0.4389  0.5333
 7449SOL    HW133806   0.811   1.291   7.688  0.8671  3.4747 -0.5920
 7449SOL    HW233807   0.662   1.291   7.677  0.5016  1.0741  1.2090
 7450SOL     OW33808   3.077   0.212   9.361 -0.6032  0.0736 -0.6947
 7450SOL    HW133809   3.042   0.135   9.405 -1.6862  2.1102  1.9764
 7450SOL    HW233810   3.050   0.283   9.419  1.7461  0.6183 -0.2729
 7451SOL     OW33811   0.016   4.391   0.683  0.7170  0.0832  0.1565
 7451SOL    HW133812   0.018   4.347   0.768  2.6166 -1.1098 -0.5178
 7451SOL    HW233813   4.684   4.328   0.638  0.6770 -0.1268  0.4967
 7452SOL     OW33814   0.373   2.810  13.615  0.4167  0.5840  0.4053
 7452SOL    HW133815   0.371   2.836  13.708  1.2979  2.2825 -0.0441
 7452SOL    HW233816   0.372   2.891  13.565 -0.0077  1.7907  2.3532
 7453SOL     OW33817   1.873   1.617  13.039 -0.1490  0.5890  0.0912
 7453SOL    HW133818   1.793   1.608  12.987 -0.2172  2.0890 -0.0673
 7453SOL    HW233819   1.855   1.563  13.115 -0.9402 -1.7821 -1.7663
 7454SOL     OW33820   1.247   2.530   5.853 -0.1025  0.5897 -0.2677
 7454SOL    HW133821   1.231   2.436   5.854  0.2912  0.5176 -0.6818
 7454SOL    HW233822   1.156   2.560   5.853 -0.4296 -0.4181 -0.3097
 7455SOL     OW33823   1.247   4.641  15.120 -0.1979  0.4906  0.5308
 7455SOL    HW133824   1.272   4.716  15.066  0.9631 -1.4268 -1.5926
 7455SOL    HW233825   1.167   4.668  15.165 -1.8124  0.7035 -2.5147
 7456SOL     OW33826   2.332   3.422   5.795 -0.1050  0.1941  0.2678
 7456SOL    HW133827   2.328   3.328   5.811 -1.5039 -0.0143 -1.2985
 7456SOL    HW233828   2.399   3.423   5.726 -0.4221 -0.5689 -0.0535
 7457SOL     OW33829   1.575   1.871   2.373 -0.2582 -0.3269  0.1867
 7457SOL    HW133830   1.668   1.852   2.379  0.0014  0.8470 -0.1922
 7457SOL    HW233831   1.552   1.801   2.311 -0.1664  1.4228 -1.8260
 7458SOL     OW33832   2.869   3.140   5.119 -0.4810  0.3602 -0.3502
 7458SOL    HW133833   2.913   3.075   5.175 -1.2988 -0.3021 -0.4767
 7458SOL    HW233834   2.936   3.209   5.119 -0.4576  0.3461  1.2691
 7459SOL     OW33835   4.128   0.996   3.834  0.2952  0.2010 -0.7125
 7459SOL    HW133836   4.189   1.014   3.906  0.6135  0.0691 -0.9482
 7459SOL    HW233837   4.165   0.912   3.807  0.0305 -1.0490  2.7105
 7460SOL     OW33838   3.390   4.363   7.996 -0.3211 -0.4251  0.3858
 7460SOL    HW133839   3.326   4.301   7.961 -2.1898  1.6731  0.1745
 7460SOL    HW233840   3.433   4.309   8.063  2.4387  0.5363 -0.5928
 7461SOL     OW33841   3.071   2.975   1.014 -0.0213  0.8323 -0.7700
 7461SOL    HW133842   3.016   2.946   0.941  1.4581 -1.7322 -0.8728
 7461SOL    HW233843   3.004   2.971   1.082 -0.4182 -1.1496 -1.2811
 7462SOL     OW33844   3.579   0.794   5.676  0.7396 -0.1516  0.0640
 7462SOL    HW133845   3.543   0.865   5.728 -0.2490 -0.1882 -0.5589
 7462SOL    HW233846   3.669   0.796   5.707 -0.4322 -0.1072  3.4016
 7463SOL     OW33847   3.363   1.366  11.711 -0.0884  0.3792 -0.0004
 7463SOL    HW133848   3.360   1.338  11.803  0.1673  0.4567  0.0319
 7463SOL    HW233849   3.375   1.284  11.663 -0.4285  0.6988 -0.6361
 7464SOL     OW33850   1.296   0.306   6.596  0.2356  0.0413 -0.2236
 7464SOL    HW133851   1.359   0.237   6.615  0.9114  1.6291  3.3755
 7464SOL    HW233852   1.264   0.317   6.686 -2.6912 -1.0718 -1.1536
 7465SOL     OW33853   1.424   3.413   3.831  0.4244  0.1529  0.2135
 7465SOL    HW133854   1.517   3.408   3.854 -0.3243  0.5987  3.3790
 7465SOL    HW233855   1.406   3.332   3.782  1.7536  0.1476 -0.2670
 7466SOL     OW33856   2.275   1.795   4.701  0.1438  0.8796  0.7033
 7466SOL    HW133857   2.243   1.753   4.621 -0.0583  1.6147  0.3897
 7466SOL    HW233858   2.195   1.785   4.752  0.1251 -1.3900  0.2002
 7467SOL     OW33859   3.028   4.040   4.933  0.0085 -0.1846 -0.7328
 7467SOL    HW133860   3.009   4.056   5.025  1.3111 -0.5677 -0.3906
 7467SOL    HW233861   3.065   3.952   4.928  2.1481  0.6756 -0.1287
 7468SOL     OW33862   1.924   4.578  13.966  0.8274  0.1524 -1.1438
 7468SOL    HW133863   1.969   4.652  13.925  0.6047  1.0035  0.1320
 7468SOL    HW233864   2.002   4.531  13.996  0.6054 -0.1427 -1.0452
 7469SOL     OW33865   3.670   1.653   8.480 -0.0960 -0.7232  0.7437
 7469SOL    HW133866   3.624   1.573   8.504 -0.9593  0.3744  2.7342
 7469SOL    HW233867   3.754   1.615   8.454 -0.9722 -1.6096 -0.7452
 7470SOL     OW33868   3.675   4.673   6.822  0.2910 -0.1872 -0.7776
 7470SOL    HW133869   3.692   4.643   6.912 -1.6027  1.1253  0.0230
 7470SOL    HW233870   3.683   0.044   6.834  1.5742 -0.0140 -3.0369
 7471SOL     OW33871   4.601   4.637   8.310  0.0074  0.0744 -0.0751
 7471SOL    HW133872   4.521   4.591   8.336  0.5370 -0.5612  0.4088
 7471SOL    HW233873   4.610   4.696   8.385 -1.3653  2.8482 -2.0842
 7472SOL     OW33874   1.354   4.336   2.683  0.3615  0.3361  0.4459
 7472SOL    HW133875   1.430   4.393   2.669  1.3637 -0.7306  1.6037
 7472SOL    HW233876   1.398   4.252   2.689  0.0588  0.1711  0.3743
 7473SOL     OW33877   3.136   0.723   6.377 -1.2318  0.4485  0.0352
 7473SOL    HW133878   3.096   0.806   6.350 -0.1635  1.1543  0.5781
 7473SOL    HW233879   3.117   0.669   6.301 -0.3722  1.5840 -0.9827
 7474SOL     OW33880   3.965   4.314   3.511  0.1892 -0.9073 -0.2392
 7474SOL    HW133881   3.931   4.400   3.487 -0.9201 -0.7423  1.9293
 7474SOL    HW233882   3.909   4.255   3.460 -1.0212 -1.0807  1.3041
 7475SOL     OW33883   3.488   1.538   6.224  0.0285 -0.4924 -0.0380
 7475SOL    HW133884   3.508   1.622   6.182 -0.7981 -0.1616  0.2248
 7475SOL    HW233885   3.511   1.563   6.314 -0.2762 -0.5452  0.0543
 7476SOL     OW33886   0.928   3.316   7.930  0.5845  0.0235  0.2500
 7476SOL    HW133887   0.915   3.362   8.013  1.1338  0.8149 -0.0963
 7476SOL    HW233888   0.951   3.388   7.870 -2.0499  0.2084 -0.5174
 7477SOL     OW33889   0.593   1.501   4.274 -0.4842  0.5361 -0.5668
 7477SOL    HW133890   0.622   1.536   4.358 -1.9753 -1.0531  0.5898
 7477SOL    HW233891   0.502   1.528   4.264 -1.0099 -0.9513  0.1557
 7478SOL     OW33892   4.563   0.229   3.090  0.4821 -1.1180  0.0819
 7478SOL    HW133893   4.643   0.177   3.099  0.2808 -1.2927  0.8442
 7478SOL    HW233894   4.499   0.177   3.139  0.9224 -0.8478  0.9574
 7479SOL     OW33895   1.906   3.814   4.605  0.0471  0.1453 -0.4991
 7479SOL    HW133896   1.969   3.757   4.562 -2.5625 -0.8244 -3.0341
 7479SOL    HW233897   1.932   3.794   4.695 -0.2778  1.2686 -0.1480
 7480SOL     OW33898   0.975   0.262   3.401  0.7257  0.5405  0.1017
 7480SOL    HW133899   0.961   0.200   3.473  1.0835 -0.0996 -0.3707
 7480SOL    HW233900   0.896   0.315   3.406  0.0076 -0.4857 -0.4874
 7481SOL     OW33901   3.465   1.210   7.138 -0.0052 -0.3675  0.3712
 7481SOL    HW133902   3.373   1.222   7.160 -0.5538 -1.6805 -1.2184
 7481SOL    HW233903   3.456   1.146   7.067  0.7717  0.8803 -0.8323
 7482SOL     OW33904   3.216   0.977   1.518 -0.0459  0.4206 -0.5983
 7482SOL    HW133905   3.303   0.966   1.481  0.5571  0.7818  0.7269
 7482SOL    HW233906   3.229   0.941   1.606  0.9467  0.7780 -0.6071
 7483SOL     OW33907   3.489   0.341  15.958 -0.2639 -0.0803  0.6113
 7483SOL    HW133908   3.550   0.269  15.939 -2.3366 -1.2264 -1.7407
 7483SOL    HW233909   3.409   0.298  15.988  0.7285 -2.4230 -0.0462
 7484SOL     OW33910   2.354   1.023   2.239  0.0270  0.2781 -0.0152
 7484SOL    HW133911   2.335   0.930   2.255  5.4877 -1.0884 -1.4872
 7484SOL    HW233912   2.350   1.069   2.322 -0.3407  2.4018 -1.2117
 7485SOL     OW33913   3.333   4.267   9.020  0.0201  0.1928 -0.3100
 7485SOL    HW133914   3.397   4.269   9.091  0.4775 -0.3929 -0.7031
 7485SOL    HW233915   3.294   4.353   9.034  0.0521  0.1682 -0.0690
 7486SOL     OW33916   0.350   1.431   1.698  0.5925 -0.4635  0.7383
 7486SOL    HW133917   0.262   1.470   1.701  0.3732 -0.9169  0.3118
 7486SOL    HW233918   0.404   1.487   1.752  0.2685 -0.6133  1.2177
 7487SOL     OW33919   1.798   1.600   4.371  0.1702  0.2278  0.4904
 7487SOL    HW133920   1.837   1.597   4.458 -1.0248  0.8923  1.0463
 7487SOL    HW233921   1.856   1.543   4.319 -1.7858 -1.2316 -0.0855
 7488SOL     OW33922   0.511   0.094  15.454 -0.9007  0.1185 -0.5263
 7488SOL    HW133923   0.420   0.121  15.466 -0.5681  1.2727 -0.6001
 7488SOL    HW233924   0.513   0.045  15.371 -3.1560 -1.1246  0.1780
 7489SOL     OW33925   3.173   2.490   5.040  0.3903 -0.0039  0.3172
 7489SOL    HW133926   3.158   2.577   5.005  0.5018 -0.0932  0.0455
 7489SOL    HW233927   3.231   2.446   4.978  0.0521  0.3888 -0.2730
 7490SOL     OW33928   4.701   0.528   2.888 -0.2627  0.7490 -0.4278
 7490SOL    HW133929   0.034   0.494   2.818  1.3232 -1.8699  2.1406
 7490SOL    HW233930   4.624   0.476   2.864  1.7019 -2.8236  1.0014
 7491SOL     OW33931   2.290   3.969   2.126 -0.1074 -0.2572 -0.8900
 7491SOL    HW133932   2.325   3.902   2.184 -1.8893 -1.6105 -1.3598
 7491SOL    HW233933   2.203   3.934   2.105  0.6383 -1.1400 -2.4633
 7492SOL     OW33934   1.665   2.346   5.875 -0.0618  0.5985  0.3999
 7492SOL    HW133935   1.653   2.254   5.899  3.5677  0.2076  0.6643
 7492SOL    HW233936   1.760   2.340   5.864  0.1217  2.5790  0.8978
 7493SOL     OW33937   1.279   0.574   2.299 -0.2247 -0.0045  0.2751
 7493SOL    HW133938   1.255   0.491   2.258 -0.4452 -0.3500  1.1131
 7493SOL    HW233939   1.197   0.600   2.340  0.3623  1.9689  0.1809
 7494SOL     OW33940   1.543   3.614   5.391 -0.6671  0.6640 -0.5876
 7494SOL    HW133941   1.582   3.606   5.304 -1.1137 -2.0303 -0.5279
 7494SOL    HW233942   1.603   3.677   5.431 -1.6613  1.7291 -0.7815
 7495SOL     OW33943   1.372   3.077   0.113  0.0887  0.1973 -0.6094
 7495SOL    HW133944   1.450   3.050   0.163  0.0725 -1.5880 -1.5380
 7495SOL    HW233945   1.307   3.054   0.179  0.5847 -1.1873 -0.5923
 7496SOL     OW33946   4.638   2.251  13.451  0.5512 -0.0535  0.6992
 7496SOL    HW133947   4.599   2.253  13.364 -0.2018  0.4761  1.0477
 7496SOL    HW233948   0.009   2.266  13.444  0.3391  0.9123 -0.2020
 7497SOL     OW33949   2.809   3.844   1.307  0.4457  0.0386 -0.5463
 7497SOL    HW133950   2.873   3.868   1.239 -0.3428  0.6378 -1.0907
 7497SOL    HW233951   2.824   3.914   1.371 -1.7687  1.4498 -1.5592
 7498SOL     OW33952   1.599   1.343   2.704 -0.4986 -0.1133  0.0358
 7498SOL    HW133953   1.577   1.386   2.787 -0.1359  0.2009 -0.0332
 7498SOL    HW233954   1.581   1.420   2.649 -0.4282 -0.7792 -0.9242
 7499SOL     OW33955   1.539   2.098  11.071  0.3190 -0.0921  0.4753
 7499SOL    HW133956   1.460   2.139  11.107 -0.6101 -0.9651 -0.5568
 7499SOL    HW233957   1.553   2.170  11.009 -0.4489  2.0361  2.7628
 7500SOL     OW33958   2.515   1.610   5.015  0.8967  0.0394  0.3655
 7500SOL    HW133959   2.608   1.620   5.036  0.2115  1.6322  2.6460
 7500SOL    HW233960   2.502   1.537   5.075 -1.4048  0.6954  0.6520
 7501SOL     OW33961   3.325   1.324  17.039  0.8329 -0.1045 -0.0010
 7501SOL    HW133962   3.402   1.330  17.096 -0.4236  2.4248  1.4357
 7501SOL    HW233963   3.282   1.245  17.071 -0.7906  0.1684 -1.5165
 7502SOL     OW33964   3.861   2.715   4.538 -0.0462  0.0054 -0.4859
 7502SOL    HW133965   3.864   2.668   4.622 -0.6753  0.1633 -0.3740
 7502SOL    HW233966   3.922   2.674   4.478 -0.3055 -2.0754  0.6808
 7503SOL     OW33967   2.826   4.034   5.210 -0.4257 -0.6741 -0.2856
 7503SOL    HW133968   2.834   4.058   5.303  0.3196 -0.4997 -0.4007
 7503SOL    HW233969   2.827   4.123   5.175 -1.1646 -0.3933  0.4048
 7504SOL     OW33970   3.832   0.434   2.107 -0.0889 -0.0819 -0.5211
 7504SOL    HW133971   3.765   0.501   2.088 -0.1160  0.8283  2.8857
 7504SOL    HW233972   3.806   0.367   2.043  1.4819  0.3237 -1.5774
 7505SOL     OW33973   4.203   0.252   7.049 -0.1827 -0.1625  0.0664
 7505SOL    HW133974   4.161   0.209   7.124 -1.2947 -0.6451 -0.8339
 7505SOL    HW233975   4.251   0.320   7.095  0.7453  0.8910 -2.4591
 7506SOL     OW33976   3.763   1.525   2.792 -0.4159  0.2668 -0.3556
 7506SOL    HW133977   3.733   1.585   2.724  0.6022  3.5913  2.1170
 7506SOL    HW233978   3.693   1.537   2.856  0.3425  0.1757  0.5037
 7507SOL     OW33979   2.216   3.178   4.769 -0.0949  0.3250  0.6826
 7507SOL    HW133980   2.194   3.090   4.798  0.0245  0.8209  2.3117
 7507SOL    HW233981   2.311   3.167   4.762 -0.4252 -0.6114 -2.3373
 7508SOL     OW33982   3.415   1.686  12.607 -0.1578 -0.1074 -0.4884
 7508SOL    HW133983   3.447   1.760  12.555  1.6385  0.7216  1.8189
 7508SOL    HW233984   3.348   1.641  12.555  2.0225 -2.8981 -0.8893
 7509SOL     OW33985   4.566   2.002   6.265  0.1548 -0.4069 -0.0750
 7509SOL    HW133986   4.537   1.981   6.177 -1.3294 -2.1430  0.8311
 7509SOL    HW233987   4.586   1.923   6.316 -0.7424  0.2979  1.3732
 7510SOL     OW33988   0.173   1.541   8.943  0.3162  0.0211  0.0341
 7510SOL    HW133989   0.108   1.586   8.890 -1.0032 -0.4269  1.3020
 7510SOL    HW233990   0.201   1.617   8.994  0.2431 -0.3214  0.5796
 7511SOL     OW33991   0.363   4.207   5.127 -0.5710 -0.2519 -0.5930
 7511SOL    HW133992   0.341   4.295   5.156 -0.7586  0.1271 -1.8893
 7511SOL    HW233993   0.272   4.179   5.119 -1.7808  3.7163 -0.4645
 7512SOL     OW33994   1.232   2.738   5.425 -0.1731 -0.3357 -0.7005
 7512SOL    HW133995   1.182   2.675   5.477  0.2505 -0.3759 -0.3470
 7512SOL    HW233996   1.306   2.690   5.390 -0.4839 -1.4532  0.1985
 7513SOL     OW33997   0.995   3.141   2.186 -0.5560  0.0489 -0.5109
 7513SOL    HW133998   0.995   3.116   2.094 -2.9752  0.7970 -0.7150
 7513SOL    HW233999   1.066   3.084   2.216  1.2817  1.3550 -2.3291
 7514SOL     OW34000   3.662   2.450  15.910 -0.2258 -0.1560  0.4610
 7514SOL    HW134001   3.632   2.535  15.879 -0.1598 -0.7459 -1.2271
 7514SOL    HW234002   3.756   2.467  15.907 -0.7238  2.2376 -1.2470
 7515SOL     OW34003   1.218   2.888   4.707  0.0456  0.2069  0.3408
 7515SOL    HW134004   1.259   2.858   4.626 -1.1958 -1.1932  0.2348
 7515SOL    HW234005   1.283   2.851   4.767 -0.0719 -3.0927 -1.5954
 7516SOL     OW34006   1.895   2.421  11.534 -0.3915 -0.1817 -0.4992
 7516SOL    HW134007   1.854   2.344  11.494  0.0653 -1.0775  0.7570
 7516SOL    HW234008   1.856   2.494  11.486 -0.6816 -0.5894 -0.8948
 7517SOL     OW34009   0.274   1.256   1.465  0.3756  0.1550 -0.4045
 7517SOL    HW134010   0.337   1.293   1.527 -1.0457 -1.6257  2.1281
 7517SOL    HW234011   0.265   1.327   1.402  0.7584  0.8051  0.2732
 7518SOL     OW34012   2.139   3.163  16.582 -0.2452 -0.0537  0.7046
 7518SOL    HW134013   2.085   3.186  16.658 -0.2930 -0.4994  0.8009
 7518SOL    HW234014   2.222   3.138  16.623  0.3084  2.7944  1.3331
 7519SOL     OW34015   2.022   2.668   8.350 -0.4387  0.2917 -0.2117
 7519SOL    HW134016   1.981   2.620   8.423 -0.0266  0.9967  0.4778
 7519SOL    HW234017   1.937   2.702   8.322  0.1857  1.8106 -0.2238
 7520SOL     OW34018   1.925   1.558  15.338  0.1475 -0.6184  0.1116
 7520SOL    HW134019   1.883   1.473  15.329 -0.8224 -0.0747 -0.5174
 7520SOL    HW234020   2.013   1.548  15.302  0.5690  0.5400  0.8173
 7521SOL     OW34021   0.777   2.223   4.287 -0.3106  0.1083 -0.0653
 7521SOL    HW134022   0.702   2.169   4.262  0.5599  0.3814 -3.2587
 7521SOL    HW234023   0.849   2.161   4.299 -1.0084 -0.4868  1.0453
 7522SOL     OW34024   3.065   0.004   8.952 -0.5245 -0.4588 -0.3403
 7522SOL    HW134025   3.031   0.075   9.007  1.4332  2.0086 -2.2838
 7522SOL    HW234026   2.988   4.671   8.946 -0.5011 -0.6724  1.4362
 7523SOL     OW34027   0.188   2.535   7.176  0.0986 -0.0471  0.1975
 7523SOL    HW134028   0.236   2.588   7.239  0.7463  0.2469 -0.5440
 7523SOL    HW234029   0.199   2.454   7.227  0.5335 -0.3126 -0.3166
 7524SOL     OW34030   1.743   0.717   3.431 -0.2756  0.0597 -0.2070
 7524SOL    HW134031   1.752   0.628   3.463  3.2327  0.3189 -0.4381
 7524SOL    HW234032   1.685   0.741   3.502 -3.0085  0.3904 -2.5569
 7525SOL     OW34033   1.041   1.126   4.808  0.4748 -0.1290  0.1747
 7525SOL    HW134034   0.993   1.050   4.777 -0.3179  0.1690  0.6603
 7525SOL    HW234035   0.989   1.146   4.887  0.9636  0.9343  0.2237
 7526SOL     OW34036   1.823   2.519   7.755 -0.8054 -0.4187  0.3654
 7526SOL    HW134037   1.758   2.586   7.731  0.8884 -0.4505 -4.4750
 7526SOL    HW234038   1.897   2.549   7.702 -0.5977 -1.8042 -0.1158
 7527SOL     OW34039   4.587   4.178   4.971  0.0917 -0.6728 -0.2453
 7527SOL    HW134040   4.651   4.210   4.907 -0.6672 -0.1922 -0.7569
 7527SOL    HW234041   4.503   4.173   4.926 -0.1057  0.7740 -0.0562
 7528SOL     OW34042   0.471   3.476   4.014  0.3122  0.0956 -0.1278
 7528SOL    HW134043   0.544   3.520   3.969  0.4907 -0.5328 -0.4464
 7528SOL    HW234044   0.512   3.484   4.100 -2.0012 -0.2552  1.0243
 7529SOL     OW34045   1.381   4.318  17.254 -0.3248  0.0812 -0.1404
 7529SOL    HW134046   1.350   4.408  17.244  0.9579  0.4256 -1.0537
 7529SOL    HW234047   1.331   4.293  17.332 -0.6106 -1.2501 -0.7356
 7530SOL     OW34048   2.074   3.190   2.431 -0.1517 -0.1133  0.0653
 7530SOL    HW134049   2.004   3.235   2.478 -1.1016  0.1996 -1.6642
 7530SOL    HW234050   2.080   3.105   2.476 -0.9047 -0.7427 -1.0090
 7531SOL     OW34051   2.206   2.258   7.169  0.1191 -0.1421 -0.1012
 7531SOL    HW134052   2.244   2.209   7.097  0.5695 -0.8676  0.6216
 7531SOL    HW234053   2.115   2.270   7.142  1.3710  3.2217 -2.8213
 7532SOL     OW34054   2.519   2.481   2.596  0.3960 -0.2218 -0.4534
 7532SOL    HW134055   2.544   2.535   2.522  0.2478 -0.1697 -0.4664
 7532SOL    HW234056   2.603   2.465   2.638  0.8576  1.2817 -0.8222
 7533SOL     OW34057   2.073   3.101   3.606 -0.2060  0.0616  0.3204
 7533SOL    HW134058   2.106   3.016   3.633  0.2920 -0.0700 -0.7262
 7533SOL    HW234059   2.135   3.128   3.539  0.5536  0.6065  1.2493
 7534SOL     OW34060   0.714   1.001   3.944  0.0228 -0.3031  0.7148
 7534SOL    HW134061   0.786   1.015   3.883 -0.2742 -1.3887  0.1072
 7534SOL    HW234062   0.752   1.029   4.026  0.0462  3.2257 -0.4933
 7535SOL     OW34063   3.055   1.049  11.206  0.5577  1.2836  0.5076
 7535SOL    HW134064   3.002   1.087  11.136  1.2560 -0.5122 -1.0062
 7535SOL    HW234065   2.987   1.032  11.272 -0.0869 -0.4179 -0.5961
 7536SOL     OW34066   1.907   3.808   7.901 -0.3903 -0.0498 -0.1739
 7536SOL    HW134067   2.002   3.813   7.894 -0.2956 -0.0830  1.0983
 7536SOL    HW234068   1.869   3.840   7.819 -0.3016 -1.7083 -0.8557
 7537SOL     OW34069   4.490   4.464  13.343  0.5525  0.4665  0.2377
 7537SOL    HW134070   4.510   4.540  13.398 -4.6946  1.5577  0.6359
 7537SOL    HW234071   4.579   4.430  13.332  0.3171 -0.8151  2.2207
 7538SOL     OW34072   2.196   1.652   1.551 -0.3535  0.1667  0.1117
 7538SOL    HW134073   2.210   1.607   1.634  1.5419  0.0863 -0.2650
 7538SOL    HW234074   2.101   1.663   1.543  0.0470  2.5545 -1.3606
 7539SOL     OW34075   1.471   4.048   6.963 -0.5938  0.2008 -0.2006
 7539SOL    HW134076   1.438   4.021   6.878  0.9501  0.1494 -0.7882
 7539SOL    HW234077   1.455   4.142   6.951 -1.8828 -0.3151 -2.5151
 7540SOL     OW34078   4.642   2.700   2.168 -0.4558 -0.0876 -0.2285
 7540SOL    HW134079   4.643   2.668   2.258  1.3508  1.6068  0.3496
 7540SOL    HW234080   4.568   2.760   2.173 -0.2916  0.2159 -1.4225
 7541SOL     OW34081   1.166   4.262  17.431 -0.2762  0.0860  0.0394
 7541SOL    HW134082   1.100   4.331  17.428  0.0277  0.3375 -0.8701
 7541SOL    HW234083   1.112   4.189  17.398  0.8369 -0.3737 -0.7580
 7542SOL     OW34084   1.758   1.748   7.863  0.5036 -0.7346 -0.8587
 7542SOL    HW134085   1.783   1.817   7.801 -2.4234  0.7986 -0.3425
 7542SOL    HW234086   1.676   1.709   7.835 -1.8016  1.5060  2.6661
 7543SOL     OW34087   3.817   4.484   5.931 -0.2573 -0.4344 -0.3265
 7543SOL    HW134088   3.806   4.419   5.861 -0.2540 -0.5042 -0.2617
 7543SOL    HW234089   3.912   4.494   5.927 -0.1745 -0.1389  2.7236
 7544SOL     OW34090   4.302   4.648   8.741  0.6124  0.2201  0.1999
 7544SOL    HW134091   4.257   4.571   8.706 -1.0595  0.9269  0.7984
 7544SOL    HW234092   4.229   4.710   8.736  0.4866 -0.0157 -0.7954
 7545SOL     OW34093   0.820   3.162   4.494  0.0840 -0.2489 -0.0663
 7545SOL    HW134094   0.748   3.139   4.436  0.7644 -0.1269 -0.9593
 7545SOL    HW234095   0.893   3.153   4.432  3.1347  2.2165  3.1460
 7546SOL     OW34096   2.259   1.703   5.032 -0.1844  0.3470  0.9474
 7546SOL    HW134097   2.342   1.667   5.002  1.3869  2.7648  2.3380
 7546SOL    HW234098   2.242   1.651   5.111  2.6448 -0.3934  1.0563
 7547SOL     OW34099   0.621   2.238   0.032 -0.1403 -0.3457  0.2797
 7547SOL    HW134100   0.527   2.242   0.015 -0.4558  1.9661  2.4208
 7547SOL    HW234101   0.653   2.228  17.639  1.7744  0.3683  0.8849
 7548SOL     OW34102   3.922   0.303   1.576 -0.8562  0.1600 -0.3211
 7548SOL    HW134103   3.967   0.295   1.660 -0.0675  0.4292 -0.7110
 7548SOL    HW234104   3.831   0.289   1.600 -0.0930 -1.9630  1.4169
 7549SOL     OW34105   3.869   1.281  13.272 -0.1318  0.5383  0.1482
 7549SOL    HW134106   3.813   1.207  13.295  0.5967 -0.8037 -2.3561
 7549SOL    HW234107   3.922   1.256  13.196  1.5001  0.6512  1.2615
 7550SOL     OW34108   4.398   0.761   3.928 -1.1266 -0.6629  0.3477
 7550SOL    HW134109   4.410   0.813   3.848 -0.7847 -0.5666  0.4642
 7550SOL    HW234110   4.378   0.830   3.992 -2.5717 -1.6445  0.9570
 7551SOL     OW34111   3.453   2.370  10.419  1.1654 -0.1961 -0.3057
 7551SOL    HW134112   3.417   2.290  10.379  0.7809  0.8209 -1.9570
 7551SOL    HW234113   3.466   2.345  10.511  1.5888 -1.6772 -0.7650
 7552SOL     OW34114   1.603   0.644  17.310  0.1944 -0.8440 -0.4221
 7552SOL    HW134115   1.528   0.610  17.260  0.8581 -3.1351  0.1334
 7552SOL    HW234116   1.558   0.682  17.386  0.6931  0.9386 -1.0200
 7553SOL     OW34117   0.155   1.147   4.690  0.1216 -0.6605 -0.5049
 7553SOL    HW134118   0.118   1.083   4.629  0.0059 -1.0822  0.0089
 7553SOL    HW234119   0.164   1.088   4.765 -0.2254 -0.0298  0.0398
 7554SOL     OW34120   1.214   1.556   4.436  0.0071 -0.2262  0.7316
 7554SOL    HW134121   1.139   1.518   4.482  0.0660 -0.0750  0.9558
 7554SOL    HW234122   1.260   1.603   4.507 -0.9385  1.3263  0.3220
 7555SOL     OW34123   1.567   0.033   3.475 -0.7891  0.6821 -0.2504
 7555SOL    HW134124   1.597   0.072   3.394  0.0578 -1.8436 -1.1452
 7555SOL    HW234125   1.512   4.690   3.433 -0.5984  0.5043 -0.2148
 7556SOL     OW34126   3.000   1.888   7.828  0.5804  0.1625  0.1191
 7556SOL    HW134127   2.914   1.927   7.844  0.0703 -0.7655 -0.3140
 7556SOL    HW234128   2.970   1.802   7.797 -2.1732  1.0965  0.2281
 7557SOL     OW34129   0.944   1.039  10.630 -0.4622 -0.4645  0.2611
 7557SOL    HW134130   0.907   1.112  10.679  3.0350  1.1631  0.4368
 7557SOL    HW234131   1.027   1.072  10.596 -0.1170  0.2411  1.7911
 7558SOL     OW34132   1.321   4.685  16.900  0.2183 -0.7303  0.6920
 7558SOL    HW134133   1.268   4.606  16.905 -1.5632  0.4911  0.9655
 7558SOL    HW234134   1.384   4.645  16.839  0.2432  0.5824 -0.1621
 7559SOL     OW34135   4.604   1.240   6.966  0.6284 -0.1159  0.1634
 7559SOL    HW134136   4.623   1.331   6.941  2.1201 -0.2309  0.8839
 7559SOL    HW234137   4.689   1.197   6.970  1.2566  1.0124 -0.9561
 7560SOL     OW34138   3.511   3.430   4.957  0.2590  0.5167 -0.3544
 7560SOL    HW134139   3.456   3.479   4.896  0.0975  0.1313 -0.5179
 7560SOL    HW234140   3.509   3.342   4.920 -0.0390  0.9443 -1.3430
 7561SOL     OW34141   3.946   4.641   6.358 -0.6124 -0.0030 -0.1746
 7561SOL    HW134142   3.924   4.592   6.437 -3.3319 -0.5848 -1.2851
 7561SOL    HW234143   3.972   4.562   6.309  0.6047  0.8790 -0.9483
 7562SOL     OW34144   1.932   2.983   1.107  0.3848 -0.4370  0.0729
 7562SOL    HW134145   2.006   2.996   1.048 -1.4735  0.2585 -2.1426
 7562SOL    HW234146   1.917   2.890   1.089  2.4139 -1.1115  1.8812
 7563SOL     OW34147   0.951   1.790  17.245 -0.0468 -0.0281  0.7767
 7563SOL    HW134148   1.031   1.830  17.211 -0.4105 -0.1451 -0.2063
 7563SOL    HW234149   0.960   1.807  17.339  0.9437 -0.1371  0.6928
 7564SOL     OW34150   3.915   1.180  11.465 -0.6823 -0.1750  0.3704
 7564SOL    HW134151   3.958   1.265  11.470 -1.1391  0.0596  0.2732
 7564SOL    HW234152   3.936   1.145  11.379  1.9647  2.6579 -0.1442
 7565SOL     OW34153   3.122   0.397   5.700 -0.1562  0.0593 -0.0657
 7565SOL    HW134154   3.195   0.378   5.641  0.9247 -1.5644  1.7695
 7565SOL    HW234155   3.159   0.476   5.739  1.7967 -0.7133 -0.3372
 7566SOL     OW34156   2.298   0.057   7.468 -0.0694 -0.0397 -0.1899
 7566SOL    HW134157   2.224   0.030   7.523 -3.0262  4.5552 -1.9130
 7566SOL    HW234158   2.367   4.718   7.492  0.2489  0.0898 -0.7751
 7567SOL     OW34159   1.447   1.345   8.172 -0.0704  0.6405  0.0906
 7567SOL    HW134160   1.403   1.428   8.158 -0.4039  0.5730  0.7723
 7567SOL    HW234161   1.529   1.347   8.122  0.8395  1.2488  1.6443
 7568SOL     OW34162   2.918   1.400   4.678 -0.7625  0.1612 -0.0372
 7568SOL    HW134163   2.940   1.485   4.641  1.3884 -0.3365  0.0767
 7568SOL    HW234164   2.825   1.395   4.657  0.2611 -1.0429 -4.3829
 7569SOL     OW34165   3.178   1.887   6.989 -0.5324 -0.3712 -0.4871
 7569SOL    HW134166   3.201   1.814   7.047 -0.5262 -1.3872 -1.7871
 7569SOL    HW234167   3.154   1.949   7.058 -0.0886 -0.0711 -0.6048
 7570SOL     OW34168   3.778   0.706   3.700 -0.6038 -0.1078  0.0253
 7570SOL    HW134169   3.852   0.658   3.664  0.7160  1.6679  0.3484
 7570SOL    HW234170   3.713   0.697   3.631 -1.1649  0.3563  0.4952
 7571SOL     OW34171   4.706   0.758  10.459  0.2998 -1.1804 -0.1118
 7571SOL    HW134172   0.059   0.808  10.430 -1.3236  0.8700 -0.8516
 7571SOL    HW234173   4.635   0.797  10.408 -0.4171 -0.0989  1.7193
 7572SOL     OW34174   1.142   2.793   7.380  0.0043  0.4295 -0.1912
 7572SOL    HW134175   1.048   2.779   7.380  0.3986 -2.3102  1.5060
 7572SOL    HW234176   1.141   2.887   7.363 -2.3402  0.7555  1.8316
 7573SOL     OW34177   3.957   2.749  13.797  0.0639  0.1410 -0.3568
 7573SOL    HW134178   4.026   2.758  13.862 -0.9828  1.0025  0.6520
 7573SOL    HW234179   3.899   2.819  13.828 -0.2531 -1.2026  2.1177
 7574SOL     OW34180   0.344   2.108   1.937  0.0342 -0.5475 -0.7165
 7574SOL    HW134181   0.261   2.101   1.983  0.6234 -2.7388  0.0288
 7574SOL    HW234182   0.328   2.192   1.894  0.4691  1.1144  2.3417
 7575SOL     OW34183   2.987   1.784   8.506 -0.3172  0.5045 -0.2046
 7575SOL    HW134184   2.994   1.766   8.412  2.4259 -0.2326  0.1246
 7575SOL    HW234185   2.970   1.877   8.514 -3.0050  0.2802 -3.6565
 7576SOL     OW34186   3.032   1.959   2.879 -0.4420 -0.7626  0.0708
 7576SOL    HW134187   2.943   1.960   2.916 -0.4390  0.5804  0.0393
 7576SOL    HW234188   2.997   1.929   2.795 -0.4110  1.3945 -0.7089
 7577SOL     OW34189   0.579   2.439   8.587  0.0243  0.2770 -0.4399
 7577SOL    HW134190   0.557   2.512   8.529 -1.0460  1.3557  1.3266
 7577SOL    HW234191   0.494   2.400   8.608  0.3554 -0.5042 -0.5718
 7578SOL     OW34192   1.268   0.502  15.009 -0.4307 -0.8010  0.7884
 7578SOL    HW134193   1.236   0.413  15.029 -1.4964 -1.2002 -2.6507
 7578SOL    HW234194   1.202   0.523  14.943 -0.1839 -0.8909  0.5101
 7579SOL     OW34195   0.085   1.681   2.934 -0.1347 -0.2224 -0.4468
 7579SOL    HW134196   0.039   1.701   3.015  1.1728 -3.1476  1.0194
 7579SOL    HW234197   0.036   1.744   2.881 -2.0941 -1.7412 -0.4292
 7580SOL     OW34198   3.531   0.509   7.253 -0.3738 -0.0913  0.6976
 7580SOL    HW134199   3.527   0.604   7.247 -0.3929 -0.1683 -0.4293
 7580SOL    HW234200   3.560   0.481   7.166 -0.4043  1.7735  0.0762
 7581SOL     OW34201   0.200   0.865  15.894 -0.5622 -0.3551 -0.3873
 7581SOL    HW134202   0.219   0.926  15.823 -2.3012 -0.6330 -1.0933
 7581SOL    HW234203   0.211   0.919  15.972 -2.4285  0.9692 -1.0559
 7582SOL     OW34204   0.467   1.327   7.655 -0.2306  0.5190 -0.2299
 7582SOL    HW134205   0.374   1.304   7.665 -0.4954  1.3131 -0.9554
 7582SOL    HW234206   0.480   1.356   7.746  3.4791  0.2756 -0.6708
 7583SOL     OW34207   1.264   4.005   5.532  0.2473 -0.0354 -0.3569
 7583SOL    HW134208   1.218   4.050   5.602  2.4945  0.9280  0.5163
 7583SOL    HW234209   1.196   4.019   5.467 -0.7493  1.5549  1.0373
 7584SOL     OW34210   2.386   3.284  17.244  0.0306 -0.5100  0.2120
 7584SOL    HW134211   2.448   3.211  17.240 -0.4442 -0.8311 -1.5476
 7584SOL    HW234212   2.432   3.367  17.247  1.7531 -1.3912 -1.6571
 7585SOL     OW34213   1.183   3.605   6.313 -0.4499  0.3105 -0.2883
 7585SOL    HW134214   1.146   3.540   6.373 -0.2195 -0.4598 -0.9742
 7585SOL    HW234215   1.229   3.542   6.258  0.2954  0.9367 -0.3730
 7586SOL     OW34216   0.112   0.583   6.312 -0.4063 -0.5378  0.0288
 7586SOL    HW134217   0.105   0.570   6.406 -3.0551  1.6967  0.1383
 7586SOL    HW234218   0.206   0.575   6.292 -0.4264  1.4468 -0.9237
 7587SOL     OW34219   0.012   1.398   9.197 -0.2575 -0.0156  0.9616
 7587SOL    HW134220   0.070   1.378   9.123 -1.9060 -0.6647 -0.1633
 7587SOL    HW234221   4.648   1.371   9.170  0.2123 -1.4223  0.8342
 7588SOL     OW34222   0.179   3.265   6.376 -0.5132  0.6209  0.5326
 7588SOL    HW134223   0.248   3.329   6.392 -0.9673  0.7362  2.1147
 7588SOL    HW234224   0.200   3.195   6.439 -0.7352  2.2716  2.4496
 7589SOL     OW34225   2.503   0.364   9.058  0.2796  0.0379  0.1256
 7589SOL    HW134226   2.536   0.367   8.968 -0.2819 -1.0151 -0.1146
 7589SOL    HW234227   2.586   0.349   9.104 -0.7323 -1.6812  1.3857
 7590SOL     OW34228   0.383   4.525   8.263 -0.1124  0.3271  0.2464
 7590SOL    HW134229   0.369   4.620   8.258  1.0975  0.4792 -0.1832
 7590SOL    HW234230   0.313   4.507   8.326 -0.9561 -0.1932 -0.8360
 7591SOL     OW34231   2.621   1.046   9.198  0.2007  0.4590 -0.0895
 7591SOL    HW134232   2.627   1.019   9.106  0.9077  2.0947 -0.5072
 7591SOL    HW234233   2.676   0.976   9.233 -0.5465 -1.1647 -2.1816
 7592SOL     OW34234   1.891   0.833   9.386 -0.2497  0.4070  0.9899
 7592SOL    HW134235   1.838   0.800   9.313 -0.8897  2.0468  0.6926
 7592SOL    HW234236   1.949   0.896   9.344 -0.2529 -0.6574 -0.6070
 7593SOL     OW34237   3.812   1.789   5.968  0.0078 -0.2715 -0.3714
 7593SOL    HW134238   3.771   1.786   5.882 -0.9540  0.1063  0.0830
 7593SOL    HW234239   3.830   1.697   5.988  2.9976  0.5878  0.9841
 7594SOL     OW34240   2.987   0.751   5.953  0.2467 -0.2549  0.3076
 7594SOL    HW134241   2.904   0.780   5.989 -0.7912  0.0465 -2.3752
 7594SOL    HW234242   2.992   0.815   5.882 -1.1930 -0.3250  0.1611
 7595SOL     OW34243   3.845   3.660   5.693  0.0748 -0.2418 -0.3126
 7595SOL    HW134244   3.836   3.568   5.669  0.6472 -0.8071  1.7057
 7595SOL    HW234245   3.852   3.656   5.788  1.9774  0.8880 -0.4000
 7596SOL     OW34246   4.112   4.017   7.803 -0.2802 -0.9437  0.4240
 7596SOL    HW134247   4.112   4.071   7.883 -1.5711  1.7759 -1.4171
 7596SOL    HW234248   4.019   3.994   7.802 -0.3873 -0.6510  2.9075
 7597SOL     OW34249   1.990   0.063   7.205  0.0527 -0.6495 -0.1196
 7597SOL    HW134250   1.972   0.009   7.281  1.3440 -0.0205  0.6219
 7597SOL    HW234251   1.918   0.050   7.142  0.4628 -1.5736 -0.3986
 7598SOL     OW34252   3.410   3.834   7.911  0.0002  0.4389 -0.1298
 7598SOL    HW134253   3.460   3.814   7.832 -0.5981 -0.1664 -0.3507
 7598SOL    HW234254   3.364   3.751   7.923  1.2884 -0.5086 -1.6664
 7599SOL     OW34255   1.053   1.161   5.730 -0.1486 -0.3865 -0.3165
 7599SOL    HW134256   1.033   1.246   5.769  1.7619  0.0201 -0.2272
 7599SOL    HW234257   1.147   1.162   5.714  0.1656 -0.2463  1.5286
 7600SOL     OW34258   2.429   1.918   2.785 -0.2219  1.0962 -0.1488
 7600SOL    HW134259   2.422   2.011   2.763 -0.5218  0.4780 -2.6810
 7600SOL    HW234260   2.445   1.919   2.879 -0.0786  0.1447 -0.1584
 7601SOL     OW34261   0.783   0.378  11.198  0.2780  0.2131  0.0944
 7601SOL    HW134262   0.705   0.351  11.149 -1.2202 -1.5762  3.4953
 7601SOL    HW234263   0.769   0.468  11.169 -0.7275 -0.1009 -0.3741
 7602SOL     OW34264   3.046   1.395   8.659  0.8431 -0.1185 -0.2561
 7602SOL    HW134265   3.082   1.483   8.650 -0.5353  0.4889  0.2012
 7602SOL    HW234266   2.963   1.398   8.611  0.8181  0.8294 -0.1499
 7603SOL     OW34267   0.197   2.445   6.933  0.0546  0.1730  0.2699
 7603SOL    HW134268   0.128   2.389   6.968  0.1118  0.4617  0.8415
 7603SOL    HW234269   0.237   2.478   7.013 -1.8309  1.5400  0.6380
 7604SOL     OW34270   2.410   4.379   6.247 -0.2794 -0.3772 -0.2393
 7604SOL    HW134271   2.411   4.354   6.339  2.1085  0.6736  0.0081
 7604SOL    HW234272   2.362   4.304   6.213 -0.2176  0.2158 -1.6517
 7605SOL     OW34273   1.980   4.066   3.798 -0.4287  0.1749 -0.3417
 7605SOL    HW134274   2.033   3.999   3.842 -2.5171  0.3347  2.3752
 7605SOL    HW234275   2.038   4.095   3.727  2.4175  1.0817  2.3228
 7606SOL     OW34276   3.088   1.842   1.969 -0.1773 -0.4501 -0.0416
 7606SOL    HW134277   3.032   1.766   1.949 -0.0710 -0.3218 -0.8312
 7606SOL    HW234278   3.158   1.788   2.006  0.2738 -0.6710 -1.2224
 7607SOL     OW34279   1.419   3.291   1.549  0.5742 -1.1459 -0.1759
 7607SOL    HW134280   1.359   3.255   1.614  1.1472  0.5537  1.2862
 7607SOL    HW234281   1.461   3.360   1.600 -1.4773  0.1625 -0.2417
 7608SOL     OW34282   1.384   3.277  14.214 -0.8502 -0.6830  0.3311
 7608SOL    HW134283   1.355   3.363  14.184 -0.6042 -0.5548  0.4571
 7608SOL    HW234284   1.365   3.229  14.134  3.5333 -1.8213 -0.0441
 7609SOL     OW34285   3.211   4.180   9.821  0.7168  0.1094  1.4030
 7609SOL    HW134286   3.259   4.226   9.889  1.0532  0.9060  0.6303
 7609SOL    HW234287   3.127   4.222   9.839  1.7902  2.9259 -0.1433
 7610SOL     OW34288   0.637   3.478  16.521  0.1928 -0.1456 -0.2582
 7610SOL    HW134289   0.675   3.391  16.509  0.5132  0.0788 -0.8578
 7610SOL    HW234290   0.567   3.476  16.456 -0.9921 -4.1887  1.1001
 7611SOL     OW34291   4.549   4.122   4.155  0.2917  0.3344  0.1869
 7611SOL    HW134292   4.514   4.038   4.126 -0.1904  0.5934  0.0127
 7611SOL    HW234293   4.481   4.153   4.215 -0.2043  1.2016 -0.8194
 7612SOL     OW34294   3.543   1.518   2.983  0.4714  0.1491 -0.3937
 7612SOL    HW134295   3.593   1.442   3.010 -1.5668 -0.8052  0.7192
 7612SOL    HW234296   3.500   1.480   2.907  0.1202 -2.5426  1.1556
 7613SOL     OW34297   0.101   2.194   9.726 -0.2895 -0.4116  0.7936
 7613SOL    HW134298   0.124   2.260   9.661  0.3082 -0.8747  0.5390
 7613SOL    HW234299   0.090   2.244   9.807 -0.4614 -0.8432  1.0428
 7614SOL     OW34300   0.506   2.170   4.883  0.2351 -0.6183  0.2380
 7614SOL    HW134301   0.434   2.163   4.946 -0.1402 -0.1819 -0.1421
 7614SOL    HW234302   0.521   2.079   4.856  0.9689 -0.3303 -0.3305
 7615SOL     OW34303   0.977   3.395   2.498 -0.4753  0.0671 -0.2572
 7615SOL    HW134304   0.892   3.349   2.491 -0.6418  0.0714  1.8913
 7615SOL    HW234305   1.008   3.383   2.408  0.3792  1.2877 -0.1125
 7616SOL     OW34306   3.573   3.946   5.860  0.0068 -0.1328  0.5718
 7616SOL    HW134307   3.664   3.937   5.886 -0.1083  0.3422  1.1382
 7616SOL    HW234308   3.563   4.040   5.875 -3.0168 -0.3502 -0.1005
 7617SOL     OW34309   2.922   0.939   8.444  0.5086 -0.2358 -0.2384
 7617SOL    HW134310   2.885   1.027   8.446 -0.2186 -0.5372 -1.0283
 7617SOL    HW234311   2.873   0.888   8.380 -0.4570  1.0592 -0.5217
 7618SOL     OW34312   4.442   2.462   0.078 -0.0545 -0.0323 -0.3039
 7618SOL    HW134313   4.463   2.540   0.026 -1.2960  1.3185  1.2189
 7618SOL    HW234314   4.425   2.400   0.007  0.9867  0.1270 -0.7016
 7619SOL     OW34315   2.745   2.792  15.773 -0.1317  0.6923 -0.4048
 7619SOL    HW134316   2.721   2.700  15.780 -0.1448  0.6957 -0.4036
 7619SOL    HW234317   2.663   2.820  15.731 -1.2543 -1.0037  0.6674
 7620SOL     OW34318   4.622   0.441   5.295 -0.3971 -0.1732 -0.0115
 7620SOL    HW134319   4.667   0.392   5.226 -0.1985  1.5999 -1.1407
 7620SOL    HW234320   4.674   0.423   5.373 -1.2965  1.8765  1.0718
 7621SOL     OW34321   0.094   4.038  17.221 -0.1383 -0.5406  0.3840
 7621SOL    HW134322   0.187   4.050  17.203 -0.4454  0.4858 -0.5300
 7621SOL    HW234323   0.085   4.096  17.296 -4.4357 -2.7483  1.5861
 7622SOL     OW34324   3.364   4.419   7.215 -0.5195 -0.5832  0.2894
 7622SOL    HW134325   3.324   4.338   7.248 -1.7838 -0.5241 -1.0675
 7622SOL    HW234326   3.307   4.441   7.142 -1.6562 -2.4339  0.6081
 7623SOL     OW34327   0.108   4.275   6.922 -0.3275 -0.0855 -0.2693
 7623SOL    HW134328   0.068   4.358   6.897 -0.9315 -0.4173 -0.4110
 7623SOL    HW234329   0.083   4.259   7.013 -1.6993 -0.4505 -0.7140
 7624SOL     OW34330   1.531   4.294   2.255 -0.0068  0.3845  0.2769
 7624SOL    HW134331   1.601   4.325   2.312  0.0967 -1.2106  1.0175
 7624SOL    HW234332   1.503   4.214   2.301  1.1722  0.1892  0.6625
 7625SOL     OW34333   0.197   4.500   3.805  0.1855  0.3062  0.0209
 7625SOL    HW134334   0.252   4.424   3.783 -1.9097 -1.3380  0.3867
 7625SOL    HW234335   0.150   4.504   3.722 -1.4176 -1.2934  0.8458
 7626SOL     OW34336   0.551   1.979  10.814 -0.2144 -0.4255  0.3134
 7626SOL    HW134337   0.617   1.975  10.744 -0.5523 -1.3197  0.0589
 7626SOL    HW234338   0.479   2.022  10.769 -0.5406  0.6783  1.8862
 7627SOL     OW34339   1.510   4.598   2.259 -0.6082 -0.4150  0.6439
 7627SOL    HW134340   1.514   4.502   2.255 -0.1425 -0.5339  3.8687
 7627SOL    HW234341   1.521   4.620   2.166  0.7778  0.9733  1.1397
 7628SOL     OW34342   4.541   3.903   8.355 -0.2318 -0.8094  0.3268
 7628SOL    HW134343   4.585   3.871   8.276  0.0689  0.5104 -0.0344
 7628SOL    HW234344   4.455   3.924   8.321 -0.5335  0.4696  1.8703
 7629SOL     OW34345   1.049   3.018  14.264 -0.3174 -0.2949 -0.0113
 7629SOL    HW134346   0.976   2.997  14.206  0.7922 -1.4490 -1.0057
 7629SOL    HW234347   1.005   3.088  14.312  0.2198  2.0273 -2.9526
 7630SOL     OW34348   0.032   1.476   6.420  0.0521 -0.3265 -0.2605
 7630SOL    HW134349   0.110   1.480   6.475 -0.6627 -0.8860  0.8027
 7630SOL    HW234350   0.027   1.569   6.400 -0.5664 -0.3974 -0.4460
 7631SOL     OW34351   2.722   4.627   7.435  0.2338 -0.1635  0.3984
 7631SOL    HW134352   2.735   4.710   7.481  0.9334 -1.7909  3.1912
 7631SOL    HW234353   2.639   4.599   7.473  0.2114  1.1318  1.2932
 7632SOL     OW34354   1.984   3.739   5.232  0.1612 -1.0023 -0.0040
 7632SOL    HW134355   1.902   3.707   5.196 -1.1896  0.8185  1.4531
 7632SOL    HW234356   1.974   3.749   5.327 -1.9953 -0.1191 -0.3314
 7633SOL     OW34357   3.345   2.499   2.822  0.2477  0.2053  0.1742
 7633SOL    HW134358   3.371   2.558   2.893  0.5655  0.2789 -0.0065
 7633SOL    HW234359   3.264   2.543   2.795  0.2229 -0.3480 -0.6532
 7634SOL     OW34360   4.368   0.273   2.228  0.2873  0.2629  0.2133
 7634SOL    HW134361   4.372   0.355   2.180 -0.7883  0.2233  0.0661
 7634SOL    HW234362   4.333   0.313   2.308 -2.4225  0.9764 -1.3559
 7635SOL     OW34363   3.501   1.863   2.198  0.6046 -0.0433  0.0915
 7635SOL    HW134364   3.583   1.816   2.206  1.0721  0.9347  0.9481
 7635SOL    HW234365   3.499   1.917   2.276  0.1198  2.1626 -1.4510
 7636SOL     OW34366   3.562   2.327  16.234  0.4251 -0.3762  0.4359
 7636SOL    HW134367   3.572   2.422  16.240 -0.0378 -0.3001 -0.0170
 7636SOL    HW234368   3.536   2.321  16.326  0.3759  0.2359  0.4617
 7637SOL     OW34369   4.491   3.696  15.378  1.0694 -0.4803 -0.0949
 7637SOL    HW134370   4.437   3.749  15.320 -1.5581 -1.0293  1.8433
 7637SOL    HW234371   4.557   3.665  15.315 -0.3716  1.1311 -2.4000
 7638SOL     OW34372   0.327   0.997  14.545 -0.1322 -0.0389  0.0685
 7638SOL    HW134373   0.365   0.950  14.471  0.6037  0.2249  0.2802
 7638SOL    HW234374   0.352   1.089  14.537 -1.1452  0.1457 -0.9753
 7639SOL     OW34375   2.894   1.958  14.009  0.0814 -0.1945 -0.1406
 7639SOL    HW134376   2.952   1.993  14.076 -0.7302 -0.9654  0.9816
 7639SOL    HW234377   2.925   2.016  13.940  0.7997 -0.7841 -0.3056
 7640SOL     OW34378   2.483   3.258  11.436 -0.0535  0.2453 -0.3241
 7640SOL    HW134379   2.441   3.204  11.371 -1.6833 -1.9071  2.5231
 7640SOL    HW234380   2.458   3.210  11.515 -0.3156  3.5520  1.6178
 7641SOL     OW34381   0.652   3.103  17.066 -0.0815 -0.5891  0.3625
 7641SOL    HW134382   0.697   3.023  17.093  0.9955  0.0672  0.5207
 7641SOL    HW234383   0.658   3.150  17.149  0.0836 -0.6961  0.4101
 7642SOL     OW34384   1.084   1.212   7.267 -0.4496  0.5082  0.1342
 7642SOL    HW134385   1.062   1.134   7.318 -0.1860 -1.1634 -2.3056
 7642SOL    HW234386   1.015   1.266   7.305 -1.4210  1.8286 -3.4840
 7643SOL     OW34387   1.589   2.980   4.810  0.5262  0.9776  0.9809
 7643SOL    HW134388   1.564   3.054   4.755  0.9204 -0.6725 -1.4165
 7643SOL    HW234389   1.685   2.984   4.803  0.6210 -1.7691  0.8631
 7644SOL     OW34390   4.030   1.221   8.824  0.4140  0.3899  0.0417
 7644SOL    HW134391   3.973   1.279   8.774  0.7497  1.3164  0.7365
 7644SOL    HW234392   3.958   1.190   8.880  0.4421 -0.2345 -0.2715
 7645SOL     OW34393   3.240   0.633   5.813  0.2213  0.1419 -0.4006
 7645SOL    HW134394   3.312   0.688   5.844 -0.4216  0.0039  1.3245
 7645SOL    HW234395   3.168   0.683   5.852 -1.0093 -0.6586 -1.6324
 7646SOL     OW34396   3.042   3.461   9.116  0.0957  0.3859  0.2391
 7646SOL    HW134397   2.994   3.522   9.172  1.2078  1.5054 -0.0060
 7646SOL    HW234398   3.075   3.527   9.054 -2.5478  1.1668 -0.3241
 7647SOL     OW34399   0.675   1.114   6.647  0.0754 -0.0987 -0.6008
 7647SOL    HW134400   0.769   1.130   6.656 -0.4883  0.0839  4.5753
 7647SOL    HW234401   0.653   1.075   6.731 -0.4121  0.0408 -0.6637
 7648SOL     OW34402   4.629   2.001  17.108  0.5806 -0.0793  0.0035
 7648SOL    HW134403   4.580   2.069  17.155  0.5012 -1.3803  1.8124
 7648SOL    HW234404   4.592   2.007  17.020  0.6500 -0.2701 -0.0385
 7649SOL     OW34405   1.195   1.223   1.572 -0.1841 -0.1518  0.0078
 7649SOL    HW134406   1.289   1.208   1.583 -0.2031 -0.9430 -0.9593
 7649SOL    HW234407   1.192   1.258   1.483 -1.9460  1.0574  0.5597
 7650SOL     OW34408   3.180   3.794   4.724 -0.2247  0.8299  0.4682
 7650SOL    HW134409   3.124   3.751   4.658  1.5847  0.2540 -0.7011
 7650SOL    HW234410   3.153   3.883   4.704  0.6816  0.3822 -2.7330
 7651SOL     OW34411   4.398   3.822   3.903  0.5997 -0.0390 -0.3253
 7651SOL    HW134412   4.486   3.859   3.892  1.1999 -1.2088  0.4488
 7651SOL    HW234413   4.382   3.840   3.996 -0.6139 -0.0033 -0.5381
 7652SOL     OW34414   2.937   3.333   8.655  0.3492 -0.2131 -0.2482
 7652SOL    HW134415   2.844   3.308   8.657  0.3516 -0.1509  0.5007
 7652SOL    HW234416   2.936   3.383   8.573  0.9238  0.9902  0.4827
 7653SOL     OW34417   0.689   4.348   6.412  0.3488  0.1087  0.3563
 7653SOL    HW134418   0.653   4.437   6.413 -2.5238 -1.0335 -1.3209
 7653SOL    HW234419   0.754   4.364   6.344 -1.1234 -0.1949 -1.1126
 7654SOL     OW34420   3.095   0.146  10.907  0.3875 -0.0813  0.3852
 7654SOL    HW134421   3.039   0.131  10.983  0.5314  0.9721  0.7002
 7654SOL    HW234422   3.126   0.058  10.887  2.0247  0.6581 -0.3164
 7655SOL     OW34423   3.462   2.228   4.202  0.0108 -0.8397 -0.3333
 7655SOL    HW134424   3.552   2.200   4.181  0.3458  0.1198 -0.1515
 7655SOL    HW234425   3.413   2.187   4.131 -0.3781  1.0864 -1.1714
 7656SOL     OW34426   3.076   3.338   6.167  0.3028 -0.5167  0.0865
 7656SOL    HW134427   3.163   3.377   6.176  0.1195  0.2646 -1.4906
 7656SOL    HW234428   3.064   3.351   6.073 -0.4897 -1.5992  0.0379
 7657SOL     OW34429   1.494   2.627   7.134 -0.2245 -0.6678  0.2558
 7657SOL    HW134430   1.479   2.536   7.160 -0.1050 -0.3703  1.3443
 7657SOL    HW234431   1.411   2.674   7.128  0.9269  1.1194 -1.8921
 7658SOL     OW34432   2.703   3.688   3.086  0.4236 -0.6249 -0.6222
 7658SOL    HW134433   2.795   3.708   3.099 -0.0779  0.1175  1.7302
 7658SOL    HW234434   2.717   3.596   3.060  1.2811 -0.5744 -0.3394
 7659SOL     OW34435   2.338   2.838  10.655 -0.0982  0.4438  0.0544
 7659SOL    HW134436   2.361   2.898  10.726 -1.4101  0.1931  0.6770
 7659SOL    HW234437   2.280   2.893  10.601 -0.4699  0.7846  0.8041
 7660SOL     OW34438   2.846   0.942  13.419  0.7087  0.2488  0.0274
 7660SOL    HW134439   2.808   0.874  13.364  0.2846 -0.1820  0.8514
 7660SOL    HW234440   2.933   0.946  13.381  1.1470  0.7800  1.1027
 7661SOL     OW34441   3.656   3.205  17.336 -0.2652  0.2776  0.3889
 7661SOL    HW134442   3.745   3.239  17.334  0.1585 -0.8141  0.6225
 7661SOL    HW234443   3.649   3.192  17.431  1.0170  0.4873  0.5132
 7662SOL     OW34444   0.252   0.913   2.654 -0.5912  0.0306  0.3947
 7662SOL    HW134445   0.306   0.969   2.709  0.7930  0.0626 -1.0065
 7662SOL    HW234446   0.247   0.965   2.574  0.0361  0.4984  0.6591
 7663SOL     OW34447   2.365   0.324   7.016  0.5443 -0.0894 -0.2727
 7663SOL    HW134448   2.354   0.289   7.105 -1.7251 -1.1047 -0.9559
 7663SOL    HW234449   2.340   0.248   6.963  0.4732 -0.2242 -0.0489
 7664SOL     OW34450   1.498   0.758   6.106 -0.0858  0.4073 -0.2545
 7664SOL    HW134451   1.410   0.791   6.120 -0.7226 -1.8020  0.8810
 7664SOL    HW234452   1.512   0.732   6.197  2.5466  2.1128 -0.1479
 7665SOL     OW34453   1.272   4.389   4.375  0.4688 -0.2799 -0.3790
 7665SOL    HW134454   1.321   4.419   4.452 -0.7036  2.5414 -0.7238
 7665SOL    HW234455   1.301   4.447   4.305  0.9952 -0.3506 -0.2226
 7666SOL     OW34456   4.170   1.434   9.646  0.0234 -0.0316  0.9503
 7666SOL    HW134457   4.204   1.519   9.617 -0.1141 -0.6024 -0.8818
 7666SOL    HW234458   4.085   1.423   9.604  0.2835  1.8464 -0.0616
 7667SOL     OW34459   0.738   4.155   6.109  0.0909  0.0395 -0.1768
 7667SOL    HW134460   0.672   4.224   6.097 -0.2856 -0.0948  1.0677
 7667SOL    HW234461   0.718   4.139   6.201 -0.0338  2.1999  0.1720
 7668SOL     OW34462   1.934   0.627   3.676  0.4679 -0.0915  0.4649
 7668SOL    HW134463   2.026   0.622   3.650  0.2761  0.8829 -0.3710
 7668SOL    HW234464   1.906   0.562   3.612 -0.5265 -0.2975  1.1038
 7669SOL     OW34465   2.743   1.893   1.749  0.1055 -0.4812 -0.5198
 7669SOL    HW134466   2.678   1.823   1.749  0.7193 -1.0565 -0.5954
 7669SOL    HW234467   2.792   1.861   1.825  1.0166 -2.1402 -1.7990
 7670SOL     OW34468   0.241   3.631   2.606  0.2954  0.4352  0.0879
 7670SOL    HW134469   0.201   3.675   2.680  0.3090  0.6580 -0.0388
 7670SOL    HW234470   0.228   3.690   2.532 -1.0094 -0.3213 -0.2806
 7671SOL     OW34471   0.884   4.194   7.047  0.2518 -0.2130  0.4763
 7671SOL    HW134472   0.976   4.208   7.023  0.5801 -0.3745  1.6037
 7671SOL    HW234473   0.875   4.099   7.037  0.6341  0.0554 -2.2814
 7672SOL     OW34474   1.323   1.930   0.249  0.0264 -0.0997 -0.2660
 7672SOL    HW134475   1.317   1.845   0.294 -1.5282  0.1795  0.0668
 7672SOL    HW234476   1.410   1.961   0.272  0.9844 -1.6911 -1.7354
 7673SOL     OW34477   2.531   2.466   1.920  0.6208 -0.1298  0.2757
 7673SOL    HW134478   2.513   2.388   1.973  0.8381 -0.7379 -0.5477
 7673SOL    HW234479   2.502   2.526   1.989  0.9228  1.5556 -1.0572
 7674SOL     OW34480   3.700   1.396   4.812 -0.5346  0.4247 -0.3207
 7674SOL    HW134481   3.621   1.412   4.863  0.1943 -0.4402  1.0592
 7674SOL    HW234482   3.730   1.484   4.790  0.4629 -0.3330 -2.0138
 7675SOL     OW34483   1.225   3.021  15.108 -0.0490  0.8973 -0.2702
 7675SOL    HW134484   1.308   2.975  15.119 -0.7942  0.0536  1.8401
 7675SOL    HW234485   1.249   3.057  15.022 -1.1573  1.3308 -0.3903
 7676SOL     OW34486   3.897   0.994   4.242  0.0134 -0.4359 -0.2917
 7676SOL    HW134487   3.835   0.996   4.315 -0.9214 -5.0688 -0.9582
 7676SOL    HW234488   3.835   0.977   4.171 -0.4290 -0.9612  0.2182
 7677SOL     OW34489   0.813   4.050   2.616 -0.0018  0.5692 -0.0938
 7677SOL    HW134490   0.790   4.139   2.645  0.2969  0.7425 -0.4010
 7677SOL    HW234491   0.752   3.999   2.670  0.1807  0.2464 -0.1928
 7678SOL     OW34492   2.402   3.337   4.267  0.2582  0.2690 -0.7238
 7678SOL    HW134493   2.384   3.399   4.338  1.3221 -0.6048  0.2961
 7678SOL    HW234494   2.452   3.401   4.217  1.9818 -0.0042  0.6355
 7679SOL     OW34495   1.873   1.761   6.404 -0.2265  0.4157 -0.1139
 7679SOL    HW134496   1.919   1.838   6.372  1.9956 -0.5623  0.7165
 7679SOL    HW234497   1.809   1.748   6.334  1.8443 -0.2254 -1.8891
 7680SOL     OW34498   0.010   3.128  10.758  0.1163  0.1730  0.4368
 7680SOL    HW134499   4.652   3.141  10.710  0.8769 -1.4414 -1.2887
 7680SOL    HW234500   0.051   3.214  10.754 -0.2590  0.3935  1.3301
 7681SOL     OW34501   4.543   4.169   2.734 -0.2801 -0.2149 -0.1477
 7681SOL    HW134502   4.523   4.261   2.752  2.6071  0.7048 -1.5335
 7681SOL    HW234503   4.589   4.165   2.650 -0.4264 -2.1793 -0.1315
 7682SOL     OW34504   2.075   4.714  10.869  0.3261  0.6428 -0.2657
 7682SOL    HW134505   2.112   0.051  10.805 -0.4727  1.7490  0.3076
 7682SOL    HW234506   1.987   0.028  10.875  0.4388  0.8261  0.2161
 7683SOL     OW34507   3.602   1.674  15.306  0.4661 -0.3859  0.1443
 7683SOL    HW134508   3.646   1.590  15.296  1.6814  0.5970 -2.6458
 7683SOL    HW234509   3.525   1.661  15.251  0.3070 -0.2689  0.3351
 7684SOL     OW34510   0.151   3.728   5.358  0.2030 -0.5592 -0.3020
 7684SOL    HW134511   0.093   3.717   5.433  0.9435 -1.2693  0.1787
 7684SOL    HW234512   0.238   3.703   5.389  0.6686  0.2584 -0.9660
 7685SOL     OW34513   2.842   4.103   4.453  0.1219  0.0441 -0.2573
 7685SOL    HW134514   2.765   4.112   4.510 -0.2863 -1.8797 -0.4893
 7685SOL    HW234515   2.816   4.166   4.386 -2.6363  0.3310  1.0802
 7686SOL     OW34516   2.345   1.174   1.125 -0.6918 -0.1205  0.1177
 7686SOL    HW134517   2.362   1.262   1.161  0.8170 -1.0406  1.6603
 7686SOL    HW234518   2.394   1.196   1.046 -1.9379 -0.7533 -0.8247
 7687SOL     OW34519   4.136   2.076  11.836 -0.1637 -0.2305  0.1124
 7687SOL    HW134520   4.054   2.107  11.873 -1.4453 -2.2344 -1.0923
 7687SOL    HW234521   4.100   2.042  11.754 -2.2900  0.6136  0.6985
 7688SOL     OW34522   4.099   4.065   4.695 -0.5244  0.4858 -0.2469
 7688SOL    HW134523   4.098   4.158   4.718  0.2188  0.4946 -0.2226
 7688SOL    HW234524   4.009   4.045   4.720  0.0648  0.8504  2.1240
 7689SOL     OW34525   2.624   1.274   0.583  0.1116  0.2501 -0.5882
 7689SOL    HW134526   2.662   1.361   0.596  3.8673 -1.4696  0.0506
 7689SOL    HW234527   2.532   1.286   0.606 -0.5815 -0.1207 -3.2506
 7690SOL     OW34528   0.987   2.534   1.879  0.1382  0.2660 -0.3652
 7690SOL    HW134529   0.998   2.450   1.925  0.5147 -0.2151 -1.3406
 7690SOL    HW234530   1.075   2.549   1.847  0.0348  1.1651 -0.2245
 7691SOL     OW34531   1.812   2.599  11.807  0.1117 -0.2429 -0.7715
 7691SOL    HW134532   1.802   2.516  11.854  0.0818  0.3297  0.2380
 7691SOL    HW234533   1.831   2.660  11.878 -0.9690 -2.1685  1.1921
 7692SOL     OW34534   4.564   3.452  17.377 -0.0881 -0.7003  0.1700
 7692SOL    HW134535   4.646   3.448  17.327  0.5851  0.1201  1.2141
 7692SOL    HW234536   4.553   3.545  17.396  2.0672 -0.3989 -0.0198
 7693SOL     OW34537   4.586   0.710   4.651 -0.0294  0.0795  0.2751
 7693SOL    HW134538   4.629   0.627   4.628  1.3439  1.7414 -3.2004
 7693SOL    HW234539   4.498   0.692   4.618  0.3223 -0.3494 -0.4285
 7694SOL     OW34540   4.360   1.231   2.013  0.0394  0.1066  1.0850
 7694SOL    HW134541   4.332   1.310   1.967 -1.3757 -0.9357  0.1506
 7694SOL    HW234542   4.330   1.256   2.100  0.8170  1.2203  1.0276
 7695SOL     OW34543   1.876   3.981   6.481 -0.1226  0.2840  0.5333
 7695SOL    HW134544   1.954   3.936   6.449 -1.2595 -1.6610  0.4893
 7695SOL    HW234545   1.811   3.947   6.419  0.8385 -0.9033  0.1902
 7696SOL     OW34546   2.099   1.310   1.464  0.2216  0.1909 -0.0133
 7696SOL    HW134547   2.178   1.256   1.461 -0.7262 -1.1949  0.0029
 7696SOL    HW234548   2.141   1.382   1.417  0.6250 -0.2885 -0.3965
 7697SOL     OW34549   2.611   3.950   5.072  0.1751  0.1928 -0.8115
 7697SOL    HW134550   2.685   3.994   5.113 -1.5085  1.4994  0.7547
 7697SOL    HW234551   2.661   3.916   4.997 -0.7663 -1.4931 -0.6954
 7698SOL     OW34552   2.863   1.610   0.969 -0.0667 -0.0617 -0.2037
 7698SOL    HW134553   2.814   1.645   1.043  1.2130  0.0291  0.5975
 7698SOL    HW234554   2.859   1.675   0.898  1.3155 -1.1387 -1.2725
 7699SOL     OW34555   2.273   4.465   4.299 -0.2821  0.1581 -0.0737
 7699SOL    HW134556   2.297   4.529   4.365  1.4388 -0.8614  0.2792
 7699SOL    HW234557   2.275   4.391   4.359  0.1352 -1.7696 -2.4328
 7700SOL     OW34558   1.455   0.802   5.245  0.5026  0.2951  0.1827
 7700SOL    HW134559   1.377   0.849   5.215  0.3897 -1.1292 -1.7840
 7700SOL    HW234560   1.428   0.731   5.303  1.9311 -0.1057  0.3692
 7701SOL     OW34561   1.338   2.856  11.277 -0.0837  0.1062 -0.1813
 7701SOL    HW134562   1.283   2.830  11.203 -1.8856  0.0907  1.1540
 7701SOL    HW234563   1.385   2.938  11.263 -1.4178  0.9647  0.4080
 7702SOL     OW34564   0.159   4.628   9.319  0.2369 -0.1444 -0.4605
 7702SOL    HW134565   0.091   4.580   9.273  1.8045 -1.8302 -0.9991
 7702SOL    HW234566   0.233   4.568   9.327  0.2831 -0.0436 -0.1563
 7703SOL     OW34567   0.270   0.211   2.507  0.1885 -0.3259  0.3762
 7703SOL    HW134568   0.303   0.176   2.590  1.6546 -0.8616 -0.4407
 7703SOL    HW234569   0.179   0.182   2.517  0.0033  0.8963  2.3647
 7704SOL     OW34570   2.832   3.216   7.040 -0.2136 -0.1308 -0.4712
 7704SOL    HW134571   2.918   3.190   7.007  0.2162  0.7519 -0.0377
 7704SOL    HW234572   2.782   3.146   6.999 -0.7776  0.2530 -0.4394
 7705SOL     OW34573   0.615   3.504  10.481  0.4475 -0.0137 -0.1421
 7705SOL    HW134574   0.674   3.575  10.507  2.9089 -2.4516  0.9020
 7705SOL    HW234575   0.674   3.429  10.479 -1.6148 -1.6021 -1.7028
 7706SOL     OW34576   1.893   0.725   5.292 -0.3413  0.2403  0.3401
 7706SOL    HW134577   1.928   0.806   5.254 -0.8063  1.0290  1.6120
 7706SOL    HW234578   1.896   0.741   5.386  3.9403  2.4967 -0.1787
 7707SOL     OW34579   2.430   1.582   3.432  0.2590  0.2112 -0.5947
 7707SOL    HW134580   2.490   1.653   3.456 -0.5758  0.7773 -0.2014
 7707SOL    HW234581   2.386   1.563   3.514  1.7045  0.6138  0.2756
 7708SOL     OW34582   2.758   2.839   2.605 -0.8069  0.2538  0.2266
 7708SOL    HW134583   2.850   2.829   2.580 -0.6785 -0.1416  0.8696
 7708SOL    HW234584   2.716   2.779   2.543  0.1576 -1.1596  0.9321
 7709SOL     OW34585   3.865   2.311   8.485  0.3947  0.0268  0.2075
 7709SOL    HW134586   3.866   2.406   8.494 -1.4056  0.1039 -0.4333
 7709SOL    HW234587   3.793   2.308   8.423 -0.0330  0.9967  0.6601
 7710SOL     OW34588   3.870   3.564   5.946 -0.5065 -0.4351  0.5941
 7710SOL    HW134589   3.949   3.540   5.993 -0.2872  1.0012  0.9615
 7710SOL    HW234590   3.810   3.598   6.013 -0.2495 -0.5312  0.8737
 7711SOL     OW34591   1.184   1.836   4.332 -0.8846 -0.5345  0.1730
 7711SOL    HW134592   1.229   1.753   4.349  0.6874  0.3777  0.4240
 7711SOL    HW234593   1.203   1.850   4.239  1.2246 -0.3379  0.6380
 7712SOL     OW34594   0.678   0.347  13.918  0.1563  0.3031  0.0625
 7712SOL    HW134595   0.604   0.357  13.978 -0.4175  0.1435 -0.6225
 7712SOL    HW234596   0.636   0.332  13.834  1.6624 -0.9835 -0.4703
 7713SOL     OW34597   0.137   1.467   3.639  0.3376 -0.3530  0.4371
 7713SOL    HW134598   0.220   1.467   3.590  1.1952  2.3318  1.8796
 7713SOL    HW234599   0.162   1.401   3.705  0.6862  1.3426  2.0055
 7714SOL     OW34600   3.857   3.855   6.468 -0.2008 -0.1357 -0.2984
 7714SOL    HW134601   3.819   3.830   6.553 -1.1310  2.1438 -0.0381
 7714SOL    HW234602   3.880   3.767   6.438 -0.3942 -0.5847  0.8635
 7715SOL     OW34603   3.357   2.472  12.780  0.3588 -0.7014  0.0602
 7715SOL    HW134604   3.358   2.410  12.853 -0.9132 -0.3479  0.3808
 7715SOL    HW234605   3.333   2.554  12.824  0.5734 -0.5127 -0.1749
 7716SOL     OW34606   0.731   1.409  10.235 -0.3585  0.4557  0.2327
 7716SOL    HW134607   0.656   1.411  10.293  1.5560  2.3045  2.6242
 7716SOL    HW234608   0.759   1.321  10.210 -1.1425  0.9718 -2.5414
 7717SOL     OW34609   0.827   1.969  17.476 -0.2203 -0.0975  0.0176
 7717SOL    HW134610   0.832   2.054  17.521 -2.2088  1.2140 -2.2135
 7717SOL    HW234611   0.795   2.005  17.393  1.9130  1.7181 -0.0435
 7718SOL     OW34612   1.266   1.945   7.786 -0.5113  0.0939  0.3088
 7718SOL    HW134613   1.222   1.862   7.769  0.5223 -0.5495  0.7908
 7718SOL    HW234614   1.278   1.977   7.697  0.3041 -0.1002  0.3467
 7719SOL     OW34615   3.623   0.388   0.878  0.2102 -0.1754 -0.0531
 7719SOL    HW134616   3.584   0.316   0.828  1.0598 -0.2829 -0.5632
 7719SOL    HW234617   3.701   0.399   0.823  1.0467  0.0492  1.1607
 7720SOL     OW34618   4.361   0.744   6.715 -0.1877  0.2682 -0.0093
 7720SOL    HW134619   4.453   0.719   6.704  0.3166  2.9543 -1.9972
 7720SOL    HW234620   4.359   0.752   6.810 -1.4960  0.4522 -0.0423
 7721SOL     OW34621   0.047   3.060  16.913 -0.4032  0.2858  0.2693
 7721SOL    HW134622   0.096   3.044  16.832  1.8103  0.8152  1.4985
 7721SOL    HW234623   4.689   3.103  16.887 -0.9651 -0.9362  0.0535
 7722SOL     OW34624   3.637   2.173   2.206 -0.1061 -0.4176 -0.4908
 7722SOL    HW134625   3.587   2.229   2.265  0.6678  0.1521 -0.3828
 7722SOL    HW234626   3.630   2.084   2.241 -3.2446 -0.1257 -0.3479
 7723SOL     OW34627   2.660   1.294   4.948 -0.5070  0.1227 -0.2430
 7723SOL    HW134628   2.596   1.313   5.016  2.7165 -0.6430  3.0119
 7723SOL    HW234629   2.715   1.372   4.954 -1.1048  0.4406  1.0965
 7724SOL     OW34630   0.259   0.321   6.115  0.0040  0.3774  0.1659
 7724SOL    HW134631   0.335   0.271   6.146  1.2540  1.3375 -1.3566
 7724SOL    HW234632   0.268   0.401   6.166 -0.4039  0.4326  0.1463
 7725SOL     OW34633   3.809   0.746   1.985 -0.0246 -0.5577  0.2641
 7725SOL    HW134634   3.765   0.742   1.900 -0.7537  2.2555  0.4931
 7725SOL    HW234635   3.903   0.735   1.970  0.5123  0.3302  2.8571
 7726SOL     OW34636   1.408   1.110  16.265  0.2603  0.5774  0.0450
 7726SOL    HW134637   1.472   1.072  16.325  0.8940 -1.8608 -2.1614
 7726SOL    HW234638   1.430   1.200  16.288 -0.3079  0.4613  1.0316
 7727SOL     OW34639   1.787   1.517   9.671 -0.3722 -0.3294  0.3789
 7727SOL    HW134640   1.847   1.569   9.618 -0.6889 -0.4057 -0.0567
 7727SOL    HW234641   1.738   1.590   9.708 -0.1941  0.2378 -0.5055
 7728SOL     OW34642   3.965   3.454   8.782 -0.2851 -0.4265  0.0664
 7728SOL    HW134643   3.890   3.400   8.807 -0.8002  1.5279  2.6656
 7728SOL    HW234644   4.000   3.399   8.712  0.4297  0.2301 -0.0886
 7729SOL     OW34645   3.480   4.648   5.120  0.2334 -0.1668 -0.1250
 7729SOL    HW134646   3.475   4.658   5.215 -1.3001 -0.2466 -0.1957
 7729SOL    HW234647   3.388   4.635   5.100  0.1793 -1.4292  0.9903
 7730SOL     OW34648   3.673   1.628   5.478 -0.2163  0.6380  0.0433
 7730SOL    HW134649   3.713   1.541   5.470  0.8630  1.0482  0.9634
 7730SOL    HW234650   3.582   1.609   5.456  0.1161 -1.2144  0.3006
 7731SOL     OW34651   0.117   3.575   8.190  0.2157  0.0230  0.0653
 7731SOL    HW134652   0.203   3.538   8.207 -0.1167 -0.0478  1.6626
 7731SOL    HW234653   0.061   3.501   8.215  0.6240 -0.0944  0.6206
 7732SOL     OW34654   2.037   0.392   2.842  0.4627  0.0489 -0.3659
 7732SOL    HW134655   1.945   0.365   2.840  0.6459 -0.3937 -3.3693
 7732SOL    HW234656   2.035   0.450   2.766 -0.0096  0.8946  0.2980
 7733SOL     OW34657   1.733   3.342   7.735  0.2927 -0.8877  0.1036
 7733SOL    HW134658   1.783   3.310   7.811  1.1613  0.3077  0.0359
 7733SOL    HW234659   1.808   3.360   7.677 -0.9280  1.2845 -0.7695
 7734SOL     OW34660   3.228   0.856  16.518  0.4163  0.0921 -0.4125
 7734SOL    HW134661   3.193   0.769  16.541 -1.4559  1.2970  1.2768
 7734SOL    HW234662   3.275   0.881  16.598  1.3791 -0.3471 -0.8373
 7735SOL     OW34663   3.683   4.635   5.496 -0.3577 -0.3599 -0.0428
 7735SOL    HW134664   3.759   4.652   5.552 -0.0458 -0.9844 -0.2798
 7735SOL    HW234665   3.721   4.571   5.436  1.4972 -0.0909  0.8233
 7736SOL     OW34666   0.742   0.157  10.844 -0.3340  0.0724  0.5818
 7736SOL    HW134667   0.746   0.124  10.933 -0.9595 -1.4468  0.0374
 7736SOL    HW234668   0.802   0.230  10.861 -0.2519 -0.0379  0.7670
 7737SOL     OW34669   3.812   0.258   9.154  0.1663 -0.0039 -1.0676
 7737SOL    HW134670   3.820   0.320   9.081  0.9401 -1.1839 -1.9798
 7737SOL    HW234671   3.779   0.314   9.224 -1.2252 -0.0965 -1.6482
 7738SOL     OW34672   2.638   3.247  17.506  0.1142 -0.0768 -0.0284
 7738SOL    HW134673   2.647   3.333  17.467  0.9517 -0.1372  0.0460
 7738SOL    HW234674   2.545   3.222  17.505 -0.1483  0.7226  2.2790
 7739SOL     OW34675   0.477   4.631   2.119  0.1128  0.1248  0.2532
 7739SOL    HW134676   0.421   4.664   2.048  1.6550 -0.9211 -1.4526
 7739SOL    HW234677   0.415   4.648   2.190 -0.8765  2.6800 -1.2073
 7740SOL     OW34678   3.492   2.089  16.564  0.4714 -0.3469 -0.5002
 7740SOL    HW134679   3.424   2.054  16.506 -0.7925  1.1964  0.0594
 7740SOL    HW234680   3.499   2.179  16.531 -2.8264  0.5102  1.1807
 7741SOL     OW34681   1.942   2.532   2.392  0.1864  0.0434 -0.3735
 7741SOL    HW134682   1.857   2.504   2.424 -0.6329  0.2845 -2.3528
 7741SOL    HW234683   1.994   2.548   2.471 -3.3839 -0.2709  2.0094
 7742SOL     OW34684   2.135   1.916  12.413  0.1605 -0.1765 -0.2623
 7742SOL    HW134685   2.128   2.011  12.418  0.5563 -0.0776 -1.5205
 7742SOL    HW234686   2.202   1.893  12.477 -0.8006 -0.9476  0.4784
 7743SOL     OW34687   3.079   3.234   2.781  0.5539 -0.4744  0.1838
 7743SOL    HW134688   3.004   3.233   2.720 -0.6353  1.1544  1.6236
 7743SOL    HW234689   3.155   3.245   2.724  1.9381  1.3242  2.3905
 7744SOL     OW34690   0.535   0.130   7.860 -0.1308  0.1564  0.2479
 7744SOL    HW134691   0.626   0.108   7.879  0.2251  0.1839 -1.4758
 7744SOL    HW234692   0.524   0.065   7.791  0.5749  1.5713 -1.1793
 7745SOL     OW34693   2.888   0.491  10.139 -0.0763 -0.4778  0.1975
 7745SOL    HW134694   2.876   0.409  10.187 -1.4234  1.0011  2.3821
 7745SOL    HW234695   2.808   0.475  10.089  0.2257 -0.1012 -0.4162
 7746SOL     OW34696   3.079   3.420   7.481  0.2208  0.2837 -0.1285
 7746SOL    HW134697   3.139   3.453   7.414 -0.2460 -1.0709 -1.2392
 7746SOL    HW234698   3.000   3.414   7.427  0.1479  3.1117 -0.3261
 7747SOL     OW34699   3.694   1.183  11.616  0.3158  0.5140  1.1105
 7747SOL    HW134700   3.696   1.270  11.654  0.0579  0.8046  0.4653
 7747SOL    HW234701   3.772   1.189  11.560  1.4415  2.3494  2.8865
 7748SOL     OW34702   4.677   3.657   0.285 -0.9323  0.0664 -0.1576
 7748SOL    HW134703   4.605   3.596   0.275 -1.6891  0.5965  2.0639
 7748SOL    HW234704   0.008   3.604   0.344  0.5412  0.7400 -0.9073
 7749SOL     OW34705   0.205   1.284   9.003  0.1291  0.3415 -0.3453
 7749SOL    HW134706   0.187   1.273   8.909 -0.7682 -0.1347 -0.1090
 7749SOL    HW234707   0.200   1.379   9.016  1.5397  0.2396  0.8662
 7750SOL     OW34708   0.349   3.539   4.402 -0.8039  0.6294 -0.1751
 7750SOL    HW134709   0.367   3.525   4.495  1.9419 -1.2469 -0.9975
 7750SOL    HW234710   0.337   3.447   4.379  1.2252  0.7298 -1.6695
 7751SOL     OW34711   2.459   0.609   5.894  0.1496 -0.2313 -0.2340
 7751SOL    HW134712   2.505   0.668   5.835  0.4222 -0.9508 -0.7401
 7751SOL    HW234713   2.538   0.594   5.946 -0.0671  0.0941  0.1852
 7752SOL     OW34714   1.707   3.571   4.183  0.1548  0.1703  0.3600
 7752SOL    HW134715   1.654   3.492   4.174  1.0273 -0.6046  2.0663
 7752SOL    HW234716   1.658   3.627   4.123 -0.5584  0.7425  1.4814
 7753SOL     OW34717   1.518   1.222   3.514 -0.3673  0.2848 -0.1092
 7753SOL    HW134718   1.610   1.226   3.486  0.2103 -3.5943  1.1758
 7753SOL    HW234719   1.522   1.220   3.610 -2.5300 -0.5496 -0.0546
 7754SOL     OW34720   0.502   2.365   0.679 -0.7883  0.2867 -0.1325
 7754SOL    HW134721   0.558   2.384   0.605 -0.8919 -1.1412 -0.5740
 7754SOL    HW234722   0.429   2.413   0.639 -0.6286  1.1770  0.6316
 7755SOL     OW34723   0.436   2.907   3.565 -1.0613  0.0211 -0.1566
 7755SOL    HW134724   0.527   2.879   3.576 -0.1282  3.3896  0.7008
 7755SOL    HW234725   0.438   2.886   3.472  1.8862  0.5425 -0.1824
 7756SOL     OW34726   4.684   3.800  13.417  0.0941 -0.5343 -0.1410
 7756SOL    HW134727   4.677   3.727  13.355  1.1781 -1.3937  0.7346
 7756SOL    HW234728   0.055   3.817  13.415  0.5911 -3.2957 -0.1902
 7757SOL     OW34729   4.494   4.419   3.514 -0.5920  0.0680 -0.2474
 7757SOL    HW134730   4.520   4.490   3.573  0.2340 -1.3656  1.1248
 7757SOL    HW234731   4.485   4.348   3.578 -2.2832  0.2397 -0.2958
 7758SOL     OW34732   4.628   0.434  10.361  0.0869 -0.3188 -0.0273
 7758SOL    HW134733   4.708   0.465  10.318 -0.3736  0.9423  0.0232
 7758SOL    HW234734   4.561   0.474  10.306  1.6176  1.4917 -0.5873
 7759SOL     OW34735   0.978   0.489   4.767 -0.4613 -0.2092  0.3323
 7759SOL    HW134736   1.025   0.434   4.704  0.4520 -1.0758  1.7440
 7759SOL    HW234737   0.971   0.430   4.843 -1.3444  1.5074  1.5622
 7760SOL     OW34738   1.222   2.156   2.241  0.2715  0.0071  0.0591
 7760SOL    HW134739   1.227   2.246   2.209  0.3510 -0.1176 -0.2799
 7760SOL    HW234740   1.129   2.154   2.263  0.9253  0.8931  2.8842
 7761SOL     OW34741   1.919   0.102  13.844  0.1020 -0.1091  0.5281
 7761SOL    HW134742   2.003   0.141  13.821 -1.6271  2.4774 -1.4407
 7761SOL    HW234743   1.910   0.133  13.934  1.3910  1.7050  0.0370
 7762SOL     OW34744   1.273   3.431   7.770 -0.3413  0.4022  0.3899
 7762SOL    HW134745   1.274   3.356   7.830 -1.4125 -0.3224 -0.4973
 7762SOL    HW234746   1.179   3.444   7.755 -0.4862 -0.4937  0.5229
 7763SOL     OW34747   3.255   3.166   6.769  0.1986 -0.0866 -0.1227
 7763SOL    HW134748   3.276   3.230   6.701 -0.6160  1.0048  0.6786
 7763SOL    HW234749   3.322   3.188   6.834  1.1739  0.8260 -1.4451
 7764SOL     OW34750   4.236   3.837   0.668 -0.0308  0.1004 -0.2012
 7764SOL    HW134751   4.199   3.781   0.599  0.9267  0.5013 -1.0254
 7764SOL    HW234752   4.310   3.879   0.625 -0.8124  1.6710 -0.0296
 7765SOL     OW34753   4.229   3.490   2.586 -0.1949  0.2307  0.7596
 7765SOL    HW134754   4.319   3.460   2.597  0.7732  2.6155 -0.7325
 7765SOL    HW234755   4.237   3.580   2.554  0.6508 -0.1802 -0.1726
 7766SOL     OW34756   3.299   3.421   3.399  0.3631 -0.0879 -0.0117
 7766SOL    HW134757   3.345   3.393   3.320 -0.6653  1.3020 -1.0750
 7766SOL    HW234758   3.355   3.382   3.467  0.6785 -0.5456 -0.5286
 7767SOL     OW34759   4.715   3.290   4.472 -0.1479  0.2205 -0.5580
 7767SOL    HW134760   4.690   3.254   4.557  1.6611 -1.4438 -0.7486
 7767SOL    HW234761   0.055   3.224   4.445  0.7599  1.8878 -2.5155
 7768SOL     OW34762   1.082   1.727   8.750 -0.5948 -0.4226 -0.3940
 7768SOL    HW134763   1.104   1.695   8.838 -1.6324 -1.2763 -0.4534
 7768SOL    HW234764   1.125   1.664   8.692 -2.1647 -3.1347  1.4401
 7769SOL     OW34765   0.813   1.159  10.852  0.4312 -0.0741  0.0279
 7769SOL    HW134766   0.747   1.187  10.788  0.3969  0.4432  0.2881
 7769SOL    HW234767   0.836   1.237  10.903 -1.5131 -0.3573  1.3285
 7770SOL     OW34768   4.288   1.369   2.226  0.5329 -0.0344  0.3630
 7770SOL    HW134769   4.349   1.349   2.297  0.6267  1.6276  0.7509
 7770SOL    HW234770   4.270   1.461   2.245  0.6598 -0.1614  1.0750
 7771SOL     OW34771   4.474   1.867   3.643  0.0073  0.1773  0.7317
 7771SOL    HW134772   4.462   1.773   3.634  1.0717  0.1207 -0.0586
 7771SOL    HW234773   4.384   1.899   3.655  0.6072  2.4376 -0.6581
 7772SOL     OW34774   3.591   0.268   1.118 -0.2346  0.0323  0.3689
 7772SOL    HW134775   3.615   0.182   1.083 -2.9591 -0.2313 -0.7925
 7772SOL    HW234776   3.583   0.309   1.031 -2.5659 -2.6432 -0.6622
 7773SOL     OW34777   4.673   4.557   0.453  0.2486  0.3519 -0.0314
 7773SOL    HW134778   4.578   4.548   0.443  0.0440 -0.0972  2.2785
 7773SOL    HW234779   4.683   4.548   0.547  0.6775 -0.4373 -0.1573
 7774SOL     OW34780   0.373   0.401   7.874 -0.0615  0.1438 -0.4736
 7774SOL    HW134781   0.445   0.387   7.813  1.5982  0.7300  1.3434
 7774SOL    HW234782   0.304   0.378   7.812 -0.9309 -0.1281  0.5991
 7775SOL     OW34783   4.115   0.910  15.270  0.3697  0.6829 -0.1741
 7775SOL    HW134784   4.085   0.825  15.236 -1.9380  0.9957  1.0343
 7775SOL    HW234785   4.102   0.894  15.363 -0.7436  0.9254 -0.2789
 7776SOL     OW34786   4.536   4.178  13.611  0.3114 -0.1052  0.0178
 7776SOL    HW134787   4.604   4.157  13.674  0.7274 -1.0871 -0.7517
 7776SOL    HW234788   4.568   4.147  13.526 -0.9889 -1.5257  0.0504
 7777SOL     OW34789   1.460   1.690   4.030  0.5917 -0.0871  0.2881
 7777SOL    HW134790   1.485   1.704   4.121 -1.4313 -1.5931  1.0810
 7777SOL    HW234791   1.384   1.633   4.042  0.9564 -0.6084  0.1087
 7778SOL     OW34792   0.116   1.007   8.680  0.5036 -0.3560 -0.2999
 7778SOL    HW134793   0.091   0.953   8.604 -1.9144  0.0249  0.2337
 7778SOL    HW234794   0.211   1.004   8.672  0.9555  3.0731  4.0192
 7779SOL     OW34795   2.044   1.951   8.416 -0.6540 -0.2547 -0.6160
 7779SOL    HW134796   2.071   1.943   8.325 -2.3737 -1.9962 -0.9836
 7779SOL    HW234797   1.951   1.954   8.394 -1.2834 -1.6669  1.9097
 7780SOL     OW34798   2.279   3.268   7.692 -0.1452 -0.0719  0.6170
 7780SOL    HW134799   2.350   3.206   7.676  1.2660  1.7549 -0.2449
 7780SOL    HW234800   2.217   3.212   7.738 -1.7653  1.1319 -0.0977
 7781SOL     OW34801   0.296   3.805   4.965 -0.1629 -0.6632  0.1803
 7781SOL    HW134802   0.231   3.857   5.011  0.9839 -0.7622  1.9000
 7781SOL    HW234803   0.365   3.818   5.030 -0.7119  0.5025  0.5257
 7782SOL     OW34804   3.478   1.846  16.848  0.1156  0.0322  0.5473
 7782SOL    HW134805   3.573   1.861  16.850 -0.0576  1.0776  0.5923
 7782SOL    HW234806   3.461   1.793  16.926 -1.6488 -0.1417  0.0333
 7783SOL     OW34807   2.663   0.970   2.223 -0.0199 -0.5033  0.1580
 7783SOL    HW134808   2.640   0.895   2.279  0.0355 -1.6957 -1.4313
 7783SOL    HW234809   2.713   0.924   2.156 -0.7136  0.0664 -0.7559
 7784SOL     OW34810   1.446   4.533   6.429  0.1109 -0.2979 -0.1754
 7784SOL    HW134811   1.459   4.472   6.356 -0.8388  0.1071 -0.6813
 7784SOL    HW234812   1.439   4.479   6.508 -0.5023  1.8455  1.2441
 7785SOL     OW34813   4.504   0.692   5.361 -0.2053  0.0072  0.7289
 7785SOL    HW134814   4.586   0.723   5.400 -0.1725  0.9657 -0.1125
 7785SOL    HW234815   4.538   0.604   5.344  0.0002  0.3129 -0.4030
 7786SOL     OW34816   3.945   1.763   7.920 -0.3607  0.3355  0.3721
 7786SOL    HW134817   4.007   1.713   7.973 -0.2203 -1.4284 -1.4606
 7786SOL    HW234818   3.875   1.700   7.902  0.3348 -0.4114  0.2539
 7787SOL     OW34819   1.771   0.970  12.247 -0.3045 -0.1985  0.4236
 7787SOL    HW134820   1.843   1.032  12.236 -0.2270 -0.0942  1.5435
 7787SOL    HW234821   1.775   0.919  12.166 -1.0701 -0.4832  0.5671
 7788SOL     OW34822   2.465   4.235   9.006 -0.3094  0.2877 -0.8534
 7788SOL    HW134823   2.435   4.145   9.021  1.0706 -0.0770 -0.3251
 7788SOL    HW234824   2.400   4.277   9.062 -0.5916 -0.9461 -0.2449
 7789SOL     OW34825   2.916   3.256   7.295  0.6203  0.0258  0.1770
 7789SOL    HW134826   2.855   3.257   7.369  1.4681  0.8883  0.8675
 7789SOL    HW234827   2.863   3.234   7.218 -0.2652  0.4706  0.6532
 7790SOL     OW34828   2.085   0.354   0.006 -0.1125 -0.1429  0.4914
 7790SOL    HW134829   2.175   0.383  17.687 -0.3206  0.6051  0.6836
 7790SOL    HW234830   2.074   0.347   0.101  3.4013 -1.4705  0.7824
 7791SOL     OW34831   3.880   0.649  16.102  0.4130  0.3361 -0.4268
 7791SOL    HW134832   3.864   0.620  16.192  1.5595 -1.4284 -0.7888
 7791SOL    HW234833   3.805   0.603  16.066  0.3269 -1.8313  2.4901
 7792SOL     OW34834   2.565   4.663   0.850 -0.2063 -1.0246 -0.8315
 7792SOL    HW134835   2.568   4.609   0.929  0.5684  0.3895  0.1179
 7792SOL    HW234836   2.654   4.699   0.844  0.9293 -3.4226  1.7226
 7793SOL     OW34837   3.514   3.971   3.924  0.3028 -0.2152 -0.5373
 7793SOL    HW134838   3.598   3.982   3.969 -0.8770 -0.4934  1.6739
 7793SOL    HW234839   3.509   4.063   3.900  1.0832 -0.0299  0.0121
 7794SOL     OW34840   2.880   3.214   7.806  0.0709  0.5015 -0.5311
 7794SOL    HW134841   2.914   3.135   7.848 -1.3072  0.7608  1.0400
 7794SOL    HW234842   2.794   3.184   7.776 -0.8271  0.5466  2.0272
 7795SOL     OW34843   0.041   1.044   9.219 -0.3049  0.0394 -0.2648
 7795SOL    HW134844   0.078   1.060   9.305  0.3797  1.8161 -0.8747
 7795SOL    HW234845   4.671   1.053   9.235 -0.2512  0.4793 -0.1948
 7796SOL     OW34846   1.175   0.129  11.771 -0.5443 -0.0973  0.1775
 7796SOL    HW134847   1.127   0.185  11.710  0.8159  1.1598  0.2557
 7796SOL    HW234848   1.108   0.068  11.803  0.6705  0.1535  3.1264
 7797SOL     OW34849   2.587   0.460   2.259  0.3761 -0.0914  0.4173
 7797SOL    HW134850   2.625   0.507   2.184 -0.0579 -1.1649 -0.4746
 7797SOL    HW234851   2.580   0.538   2.314 -0.1679  0.5288 -0.5322
 7798SOL     OW34852   3.625   1.209  13.719 -0.5223  0.1531  0.3711
 7798SOL    HW134853   3.609   1.170  13.805  2.0698 -0.2886  0.6771
 7798SOL    HW234854   3.701   1.163  13.684  0.3341 -0.1818  2.6463
 7799SOL     OW34855   0.448   2.193   7.662 -0.5863 -0.3708  0.4920
 7799SOL    HW134856   0.403   2.184   7.746 -2.0356 -0.9640 -0.3455
 7799SOL    HW234857   0.468   2.286   7.669 -2.7954  0.0030  1.7260
 7800SOL     OW34858   3.213   4.032  14.993  0.5994 -0.3812  0.3341
 7800SOL    HW134859   3.133   4.084  14.985  0.9433 -0.0105 -0.6659
 7800SOL    HW234860   3.267   4.054  14.917  0.5713 -2.9293 -0.4294
 7801SOL     OW34861   2.832   3.698  11.667 -0.2071 -0.1667 -0.0460
 7801SOL    HW134862   2.828   3.689  11.762  0.9820  0.7091  0.0984
 7801SOL    HW234863   2.891   3.628  11.640  0.0962 -0.7246  2.0965
 7802SOL     OW34864   0.018   0.655   5.010 -0.0277  0.4851  0.1772
 7802SOL    HW134865   0.099   0.691   5.046  0.0449  0.7048 -0.2051
 7802SOL    HW234866   0.036   0.562   5.024 -1.1612  0.2441  0.0040
 7803SOL     OW34867   3.576   0.320  16.866 -0.6996  0.0549 -0.4753
 7803SOL    HW134868   3.570   0.225  16.861 -3.3657  0.0928  2.4276
 7803SOL    HW234869   3.659   0.335  16.821  0.3081  0.8821  1.6402
 7804SOL     OW34870   0.525   1.719   3.140  0.2619  0.2630  0.3224
 7804SOL    HW134871   0.527   1.673   3.056 -0.9584 -0.7023  0.8197
 7804SOL    HW234872   0.448   1.675   3.175 -2.0167  3.9531  0.0217
 7805SOL     OW34873   1.745   2.931   2.999  0.5889  0.1320  0.3334
 7805SOL    HW134874   1.760   2.862   3.063 -1.6947  0.7012  1.5096
 7805SOL    HW234875   1.686   2.888   2.938  0.8628  1.0733 -0.6019
 7806SOL     OW34876   0.018   0.956  17.563 -0.2709  0.3721 -0.4127
 7806SOL    HW134877   0.074   1.033  17.568  1.8747 -1.2528  0.7209
 7806SOL    HW234878   4.690   0.957  17.644  3.4064  1.1266  1.9407
 7807SOL     OW34879   2.347   2.770   5.883  0.0563  0.3157 -0.4181
 7807SOL    HW134880   2.385   2.759   5.971 -0.4679 -1.6975 -0.4400
 7807SOL    HW234881   2.424   2.746   5.831 -1.3698  0.4291 -2.5806
 7808SOL     OW34882   0.396   4.303   6.818 -0.4422  0.5897 -0.6985
 7808SOL    HW134883   0.303   4.283   6.825 -0.3950  0.0712 -1.5541
 7808SOL    HW234884   0.437   4.217   6.824 -0.7431  0.7382  3.3076
 7809SOL     OW34885   3.964   2.945  14.966 -0.5574  0.0180 -0.2957
 7809SOL    HW134886   3.980   2.855  14.996  0.2798  0.1314 -0.4141
 7809SOL    HW234887   3.969   2.928  14.872  1.8577  1.4197 -0.4121
 7810SOL     OW34888   1.035   2.837   3.004 -0.2734  0.0444 -0.2269
 7810SOL    HW134889   1.110   2.895   3.018 -0.4489  0.5611 -1.4492
 7810SOL    HW234890   1.045   2.773   3.075  2.8501 -1.3926 -1.9529
 7811SOL     OW34891   1.068   0.545  16.684  0.1632  0.0431  0.0606
 7811SOL    HW134892   1.000   0.482  16.661  0.2839 -0.1290  0.1760
 7811SOL    HW234893   1.082   0.530  16.777 -1.1017 -0.7475  0.1133
 7812SOL     OW34894   4.623   3.218   6.934  0.0249 -0.3212 -0.4247
 7812SOL    HW134895   4.570   3.157   6.985 -1.6221 -0.2160 -2.0144
 7812SOL    HW234896   4.663   3.265   7.007 -4.2184 -0.1778  1.8369
 7813SOL     OW34897   1.965   4.621  13.080 -0.5093 -0.5204 -0.4723
 7813SOL    HW134898   2.059   4.606  13.073 -0.3340  0.4535 -0.2017
 7813SOL    HW234899   1.948   4.622  13.174 -1.3017 -1.5839 -0.6049
 7814SOL     OW34900   2.176   0.888   2.698 -0.3818  0.4358  0.1595
 7814SOL    HW134901   2.107   0.954   2.685  0.9077  1.1318 -2.9659
 7814SOL    HW234902   2.245   0.939   2.741  1.1241 -0.7023 -0.9485
 7815SOL     OW34903   4.679   3.372   7.155  0.0782  0.5576  0.5872
 7815SOL    HW134904   4.677   3.468   7.157 -1.6675  0.5304  0.5049
 7815SOL    HW234905   0.046   3.347   7.174 -1.2439 -5.3217 -0.8879
 7816SOL     OW34906   0.187   4.414   4.138 -0.3265  0.2797 -0.1536
 7816SOL    HW134907   0.129   4.488   4.123  0.2419  1.1572  2.0230
 7816SOL    HW234908   0.129   4.342   4.115 -1.0071  1.3910 -1.8927
 7817SOL     OW34909   2.055   4.210   4.978  0.1148 -0.7727  0.1568
 7817SOL    HW134910   1.967   4.175   4.988 -0.1986  0.4810  1.7370
 7817SOL    HW234911   2.106   4.144   5.025  2.1802  0.2029 -0.6840
 7818SOL     OW34912   2.483   1.971   2.079  0.6735  0.0074 -0.0344
 7818SOL    HW134913   2.577   1.952   2.085  0.8331  0.7828 -0.0801
 7818SOL    HW234914   2.473   1.899   2.018  2.1487 -0.0909 -0.1765
 7819SOL     OW34915   3.128   4.259   9.397 -1.0217  0.4721  0.1112
 7819SOL    HW134916   3.065   4.195   9.432 -0.0294 -0.2958  0.4938
 7819SOL    HW234917   3.206   4.205   9.380  0.2699  2.6490 -0.8475
 7820SOL     OW34918   2.206   0.639   7.209  0.4170  0.1890  0.3785
 7820SOL    HW134919   2.286   0.602   7.173  0.0527  0.7008 -0.9693
 7820SOL    HW234920   2.228   0.732   7.200  3.2221 -0.5750 -0.5534
 7821SOL     OW34921   1.043   4.478   5.396 -0.0576 -0.0348  0.4801
 7821SOL    HW134922   0.963   4.427   5.398  1.2753 -2.1415  0.5151
 7821SOL    HW234923   1.079   4.469   5.307 -0.6997  2.7247 -0.0716
 7822SOL     OW34924   1.430   0.009  11.776 -0.0733 -0.2078  0.1471
 7822SOL    HW134925   1.349   0.059  11.772  0.7407  1.0649 -0.5706
 7822SOL    HW234926   1.459   0.034  11.864 -0.7373 -1.3353  0.6750
 7823SOL     OW34927   1.614   2.722  12.476  0.3316  0.3287 -0.1055
 7823SOL    HW134928   1.654   2.636  12.489 -1.8999 -0.7783 -0.5587
 7823SOL    HW234929   1.536   2.712  12.421  0.8821 -0.6356 -0.6961
 7824SOL     OW34930   4.672   3.589   1.074 -0.0776  0.5069  0.0551
 7824SOL    HW134931   4.591   3.542   1.053  0.9601  0.1064 -3.0850
 7824SOL    HW234932   4.707   3.535   1.145 -2.3518  0.1516  0.9186
 7825SOL     OW34933   3.604   3.572  10.861 -0.0234 -0.2103  1.1948
 7825SOL    HW134934   3.674   3.511  10.885  0.5990  0.3364  0.7587
 7825SOL    HW234935   3.641   3.633  10.798 -0.6289  1.1300  2.1366
 7826SOL     OW34936   0.448   1.791   5.579  0.7303  0.3438  0.7300
 7826SOL    HW134937   0.513   1.818   5.513 -0.5580  0.0219 -0.6683
 7826SOL    HW234938   0.419   1.876   5.612  1.0432  0.3071  1.1010
 7827SOL     OW34939   0.913   1.698   5.775  0.7448 -0.5071  0.3493
 7827SOL    HW134940   0.870   1.725   5.856  0.1552 -0.3989 -0.0010
 7827SOL    HW234941   0.943   1.609   5.793  0.1314 -0.9483 -0.8015
 7828SOL     OW34942   2.984   0.822   5.622  0.5395  0.9478 -0.4118
 7828SOL    HW134943   2.966   0.731   5.600  1.1178  0.5750  0.6040
 7828SOL    HW234944   2.892   0.849   5.619 -0.3001 -1.9697 -0.4177
 7829SOL     OW34945   3.108   0.549  17.349  0.4731 -0.1744 -0.3985
 7829SOL    HW134946   3.034   0.490  17.360 -0.4488  0.9462 -0.6778
 7829SOL    HW234947   3.066   0.634  17.342 -1.0719 -0.7618  1.7945
 7830SOL     OW34948   2.944   1.662   7.667  0.0032  0.0705 -0.2412
 7830SOL    HW134949   2.917   1.580   7.625  0.2995 -0.6832  1.0419
 7830SOL    HW234950   2.886   1.721   7.619  1.5976  2.2300  0.5059
 7831SOL     OW34951   3.482   1.364   6.003  0.3767  0.3517 -0.4198
 7831SOL    HW134952   3.486   1.437   6.065  0.3039  1.2362 -1.4414
 7831SOL    HW234953   3.515   1.287   6.049  1.7380  1.0349 -0.2626
 7832SOL     OW34954   1.459   1.163   5.087 -0.1783 -0.2494  0.1438
 7832SOL    HW134955   1.525   1.177   5.020 -0.1878  1.5379  0.4955
 7832SOL    HW234956   1.398   1.102   5.047  0.7833 -2.0954  1.4925
 7833SOL     OW34957   0.823   2.224   3.912  0.2835  0.3520 -0.3567
 7833SOL    HW134958   0.773   2.165   3.968 -0.8635  0.5455 -1.1833
 7833SOL    HW234959   0.816   2.307   3.959 -0.2770 -1.1683  2.2178
 7834SOL     OW34960   0.935   1.715   2.343 -0.3664  0.0188  0.0726
 7834SOL    HW134961   0.921   1.802   2.382 -2.1668 -1.9316  3.7946
 7834SOL    HW234962   0.938   1.663   2.424 -1.5136  0.3722  0.3334
 7835SOL     OW34963   1.794   2.318   4.086  0.5072  0.6387 -0.4240
 7835SOL    HW134964   1.795   2.334   4.180 -1.7475  1.3098 -0.5153
 7835SOL    HW234965   1.793   2.222   4.083 -2.2600  0.6872 -0.8732
 7836SOL     OW34966   3.678   1.154   5.450  0.4651  0.2678  0.4467
 7836SOL    HW134967   3.593   1.181   5.416 -1.0782 -2.6552  1.9375
 7836SOL    HW234968   3.655   1.090   5.518  2.2089 -2.0460 -1.1206
 7837SOL     OW34969   3.456   3.598   0.751 -0.6374  0.0156  0.3258
 7837SOL    HW134970   3.460   3.618   0.658 -0.5486 -0.9040  0.1240
 7837SOL    HW234971   3.506   3.516   0.750 -0.3458  0.2138 -0.7254
 7838SOL     OW34972   0.207   0.242  13.673  0.5920 -0.7018  0.3473
 7838SOL    HW134973   0.195   0.256  13.579 -0.6571 -0.0498  0.5914
 7838SOL    HW234974   0.123   0.274  13.706 -1.8014 -2.5983 -3.9324
 7839SOL     OW34975   3.651   3.069   8.913 -0.5850 -0.4174  0.0049
 7839SOL    HW134976   3.555   3.064   8.906 -0.5623  1.0700 -1.6612
 7839SOL    HW234977   3.673   3.023   8.832 -1.3828  1.6184 -1.3802
 7840SOL     OW34978   0.341   2.674   6.723 -0.1852  0.8738 -0.0498
 7840SOL    HW134979   0.338   2.578   6.717 -0.7871  0.7123  2.8169
 7840SOL    HW234980   0.359   2.690   6.815 -0.4297  0.2384  0.1085
 7841SOL     OW34981   1.530   3.951   9.840 -0.1557 -0.2071  0.3103
 7841SOL    HW134982   1.452   3.949   9.784  0.3117 -0.1024 -0.3417
 7841SOL    HW234983   1.586   3.991   9.774 -1.1808  0.8409  0.0598
 7842SOL     OW34984   4.006   1.789   3.747 -0.2909 -0.2315  0.1115
 7842SOL    HW134985   3.943   1.766   3.679  1.5839  0.6003 -1.9114
 7842SOL    HW234986   4.050   1.867   3.713  0.3253 -0.3376  0.6735
 7843SOL     OW34987   0.410   2.072   5.619  0.2009 -0.1490 -0.0587
 7843SOL    HW134988   0.475   2.109   5.560  1.7753 -2.7945  0.0330
 7843SOL    HW234989   0.424   2.120   5.701 -0.8530 -0.2965  0.2100
 7844SOL     OW34990   1.923   2.647   5.395 -0.1177  0.1327 -0.3416
 7844SOL    HW134991   2.009   2.666   5.358  0.4825  1.2231  1.6055
 7844SOL    HW234992   1.942   2.632   5.488  0.0734  2.1018 -0.0408
 7845SOL     OW34993   4.088   3.972  14.054  0.0681 -0.6446 -0.1249
 7845SOL    HW134994   4.129   3.927  13.981 -0.4030 -0.1156 -0.7189
 7845SOL    HW234995   4.168   4.013  14.087 -1.8871  2.3185  0.9553
 7846SOL     OW34996   2.599   2.744   1.005  0.0538  0.2333 -0.1879
 7846SOL    HW134997   2.571   2.740   1.097 -0.2562  2.0197 -0.1983
 7846SOL    HW234998   2.677   2.690   1.010  0.7943  1.2335 -0.9826
 7847SOL     OW34999   0.753   1.447   8.085 -0.1304  0.2347 -0.1781
 7847SOL    HW135000   0.843   1.450   8.053  0.2763 -1.8616  0.7127
 7847SOL    HW235001   0.763   1.459   8.180  0.6483 -2.8025  0.1319
 7848SOL     OW35002   3.765   3.525   9.504  0.2129 -0.3492 -0.6114
 7848SOL    HW135003   3.704   3.500   9.573 -1.4397  0.4698 -1.7734
 7848SOL    HW235004   3.822   3.579   9.559 -1.5472  1.0949 -0.2250
 7849SOL     OW35005   4.195   4.128   2.572 -0.0407  0.1860 -0.2832
 7849SOL    HW135006   4.135   4.201   2.556 -0.8238 -0.4001  0.0097
 7849SOL    HW235007   4.259   4.143   2.502 -1.5049  1.9233 -1.2625
 7850SOL     OW35008   2.624   4.445   8.954 -0.4434  0.0443  0.3010
 7850SOL    HW135009   2.568   4.372   8.927 -1.0487  0.1319  1.2932
 7850SOL    HW235010   2.652   4.409   9.039  1.4918 -1.6416 -1.0626
 7851SOL     OW35011   3.851   4.062  12.561  0.6933  0.0848 -0.2735
 7851SOL    HW135012   3.785   4.007  12.604 -1.7406 -0.1662 -4.3360
 7851SOL    HW235013   3.932   4.017  12.582  1.1854  1.1127  0.0226
 7852SOL     OW35014   2.544   1.999   3.756  0.1186  0.7260  0.6485
 7852SOL    HW135015   2.487   1.980   3.831 -0.9946  0.9659 -0.1426
 7852SOL    HW235016   2.575   2.089   3.761 -3.2416  1.9392 -0.5448
 7853SOL     OW35017   4.199   1.014   3.135 -0.2029  0.2479 -0.3500
 7853SOL    HW135018   4.259   0.996   3.063  1.0505  0.0792  0.7509
 7853SOL    HW235019   4.129   0.954   3.108 -1.5032  1.9258 -0.7221
 7854SOL     OW35020   0.116   4.018  14.763  0.2385 -0.0745 -0.1140
 7854SOL    HW135021   0.050   4.035  14.830  0.1128  0.2583 -0.3234
 7854SOL    HW235022   0.199   4.024  14.810  0.5625 -2.5154 -0.3646
 7855SOL     OW35023   4.557   1.121  13.195  0.0874 -0.3490  0.0732
 7855SOL    HW135024   4.494   1.050  13.202 -0.8891  0.5119 -0.0293
 7855SOL    HW235025   4.515   1.177  13.130  0.3387  0.6244  0.7376
 7856SOL     OW35026   4.121   1.713   0.732 -0.1990 -0.6898  0.2057
 7856SOL    HW135027   4.052   1.647   0.730 -0.7568 -0.1537  2.6309
 7856SOL    HW235028   4.179   1.686   0.803 -1.8011  1.6069  2.3545
 7857SOL     OW35029   2.110   3.324   5.459  0.5880 -0.0960  0.2447
 7857SOL    HW135030   2.131   3.345   5.368 -0.0214  0.1408  0.1543
 7857SOL    HW235031   2.025   3.368   5.464  1.5010  1.7682 -0.4971
 7858SOL     OW35032   3.851   2.351  10.679  0.0829 -0.3808  0.3812
 7858SOL    HW135033   3.810   2.418  10.625 -0.6224 -1.1612 -0.0432
 7858SOL    HW235034   3.824   2.368  10.770 -0.9925  0.3872 -0.0816
 7859SOL     OW35035   1.395   3.135   4.112 -0.0292  0.3774  0.1590
 7859SOL    HW135036   1.487   3.118   4.096 -1.0234 -2.5802 -2.4149
 7859SOL    HW235037   1.369   3.046   4.134  0.0767  0.2680 -0.1616
 7860SOL     OW35038   4.052   0.150   7.240  0.2036 -0.1341 -0.8138
 7860SOL    HW135039   4.081   0.061   7.260  0.8214  0.3927  0.6055
 7860SOL    HW235040   4.039   0.181   7.330 -2.0537  0.1210 -1.2153
 7861SOL     OW35041   1.757   0.363   1.838  0.1609  0.3963 -0.3887
 7861SOL    HW135042   1.753   0.438   1.897  2.3040  0.0812  0.1632
 7861SOL    HW235043   1.830   0.320   1.883  1.0909  1.8263 -0.5634
 7862SOL     OW35044   2.077   1.763   6.556  0.3110  0.0914 -0.4581
 7862SOL    HW135045   2.133   1.782   6.480 -0.5771  0.1401 -1.0912
 7862SOL    HW235046   1.991   1.786   6.522  0.8238  0.9363 -1.1865
 7863SOL     OW35047   1.679   1.952  10.920 -0.0951  0.8378 -0.1067
 7863SOL    HW135048   1.744   1.939  10.988  0.1260 -0.1356 -0.5026
 7863SOL    HW235049   1.610   1.986  10.976  1.2125  2.8280  0.2581
 7864SOL     OW35050   1.230   3.695   2.130  0.2372  0.3281  0.3788
 7864SOL    HW135051   1.229   3.789   2.108 -1.0239  0.9347  2.9937
 7864SOL    HW235052   1.170   3.698   2.205  1.3095 -0.8513  1.2750
 7865SOL     OW35053   1.484   3.131   3.156  0.0306  0.5776 -0.8241
 7865SOL    HW135054   1.551   3.081   3.203 -0.8052  0.7970  0.5876
 7865SOL    HW235055   1.522   3.219   3.163  0.0481  0.4796  0.2354
 7866SOL     OW35056   1.133   1.776   9.250 -0.5118  0.3614  0.7891
 7866SOL    HW135057   1.152   1.699   9.304  0.3934 -0.3213 -0.5123
 7866SOL    HW235058   1.157   1.843   9.314 -1.0485 -0.0983  1.4719
 7867SOL     OW35059   0.160   2.119   3.292  0.1287 -0.0169  0.4285
 7867SOL    HW135060   0.178   2.196   3.345 -0.6301  1.3316 -1.3085
 7867SOL    HW235061   0.097   2.082   3.354 -0.8805 -0.2858 -0.7850
 7868SOL     OW35062   0.779   2.621  17.043  0.4077 -1.0183  0.5685
 7868SOL    HW135063   0.875   2.618  17.052  0.6920  1.9354 -1.4901
 7868SOL    HW235064   0.770   2.627  16.948  1.4130 -0.9134  0.4784
 7869SOL     OW35065   3.578   1.814  16.497 -0.5176 -0.1957 -0.6263
 7869SOL    HW135066   3.583   1.814  16.402  0.9231  1.4870 -0.5505
 7869SOL    HW235067   3.559   1.907  16.503  1.3418 -0.0696  3.5558
 7870SOL     OW35068   0.987   2.575   0.240 -0.1019  0.2853 -0.0087
 7870SOL    HW135069   1.001   2.644   0.304 -1.0204  1.2725 -0.8690
 7870SOL    HW235070   1.051   2.516   0.280  0.6227  1.5130  0.6422
 7871SOL     OW35071   0.128   2.701   4.667 -0.0221 -0.3657  0.3210
 7871SOL    HW135072   0.111   2.607   4.674  1.9378 -0.7655 -0.4008
 7871SOL    HW235073   0.136   2.716   4.762  0.9362  0.5909  0.0838
 7872SOL     OW35074   3.842   1.759  16.707 -0.0375  0.3154  0.3666
 7872SOL    HW135075   3.872   1.824  16.644  0.4576  1.2177  1.5297
 7872SOL    HW235076   3.795   1.811  16.773 -2.2800 -0.0618 -0.9209
 7873SOL     OW35077   3.886   4.570   8.204  0.2314  0.2475 -0.1907
 7873SOL    HW135078   3.800   4.577   8.246  0.1127  1.2980 -0.5937
 7873SOL    HW235079   3.944   4.537   8.273  0.9600  1.2934 -0.3043
 7874SOL     OW35080   1.795   1.296  15.309 -0.3710  0.7033 -0.1583
 7874SOL    HW135081   1.819   1.226  15.369  1.0498  1.9576  0.7336
 7874SOL    HW235082   1.711   1.319  15.349 -0.3971  1.7395 -0.7947
 7875SOL     OW35083   1.572   0.707   8.973 -0.4750 -0.1115  0.4869
 7875SOL    HW135084   1.545   0.768   9.041  2.6613 -0.6766  2.2586
 7875SOL    HW235085   1.621   0.640   9.022  0.7033 -0.3908 -1.0699
 7876SOL     OW35086   2.739   2.274   6.629 -0.0923 -0.2184  0.8919
 7876SOL    HW135087   2.793   2.327   6.688  1.1488 -0.4838 -0.0273
 7876SOL    HW235088   2.670   2.246   6.690 -2.0575 -0.0532 -1.2451
 7877SOL     OW35089   4.233   0.233  14.674  0.1490 -0.2713 -0.0747
 7877SOL    HW135090   4.171   0.304  14.657  1.0324  0.1380 -1.5356
 7877SOL    HW235091   4.269   0.225  14.586 -0.8588  2.0996 -0.7058
 7878SOL     OW35092   1.853   3.788   1.617  0.2829 -0.5828 -0.6164
 7878SOL    HW135093   1.883   3.717   1.561  0.0609 -1.6371  0.6214
 7878SOL    HW235094   1.860   3.864   1.559 -0.4075  0.7536  1.0490
 7879SOL     OW35095   4.539   1.653   4.055  0.2992  0.0181 -0.6235
 7879SOL    HW135096   4.623   1.692   4.079 -0.3238 -0.1850  1.8409
 7879SOL    HW235097   4.499   1.726   4.008 -0.7578 -1.5693 -2.2213
 7880SOL     OW35098   2.457   3.679  14.956  0.4622  0.1803  0.1592
 7880SOL    HW135099   2.534   3.648  15.004  0.6023  2.3435  1.3422
 7880SOL    HW235100   2.461   3.634  14.871 -0.0798  0.2260  0.1105
 7881SOL     OW35101   1.312   4.237   7.110  0.2599 -0.1259 -0.2975
 7881SOL    HW135102   1.238   4.230   7.050 -0.7995 -2.1572  1.2260
 7881SOL    HW235103   1.290   4.165   7.170  2.0020  0.4968  1.0786
 7882SOL     OW35104   1.802   0.319  14.769  0.1159  0.1456  0.1992
 7882SOL    HW135105   1.897   0.319  14.779  0.0641  2.8273  0.7563
 7882SOL    HW235106   1.765   0.369  14.842 -1.7803 -2.4551  0.9972
 7883SOL     OW35107   4.069   4.610   5.866  0.1370 -0.3225 -0.0002
 7883SOL    HW135108   4.124   4.673   5.912  0.7372 -1.1095  0.3668
 7883SOL    HW235109   4.141   4.549   5.846  0.1943  0.3430 -1.8380
 7884SOL     OW35110   3.555   1.500   1.478  0.3012 -0.2002  0.5954
 7884SOL    HW135111   3.489   1.430   1.480  0.5523 -0.3629  3.5303
 7884SOL    HW235112   3.508   1.566   1.529  0.7904  2.1121 -1.9649
 7885SOL     OW35113   2.156   0.817   8.693  0.0313 -0.0702  0.4647
 7885SOL    HW135114   2.197   0.734   8.717  1.0699  1.1025  2.7869
 7885SOL    HW235115   2.068   0.815   8.730 -0.6111  0.1283 -1.0402
 7886SOL     OW35116   4.228   3.351  10.117  0.2199  0.5880  0.8298
 7886SOL    HW135117   4.228   3.355  10.022  0.0504 -3.7088  0.6214
 7886SOL    HW235118   4.194   3.264  10.140 -0.9891  0.8911  0.1409
 7887SOL     OW35119   1.499   1.668   6.740  0.2785  0.3046  0.3114
 7887SOL    HW135120   1.571   1.618   6.701 -0.6490 -3.4327  3.3682
 7887SOL    HW235121   1.533   1.752   6.770  2.9224 -1.2696  1.6580
 7888SOL     OW35122   4.619   3.455   2.333  0.0834 -0.0462 -0.1543
 7888SOL    HW135123   4.714   3.443   2.334 -0.1902 -2.2113 -0.6784
 7888SOL    HW235124   4.612   3.549   2.318  1.2673  0.1368  0.4106
 7889SOL     OW35125   2.647   0.393   8.209  0.6129  0.4888  0.2746
 7889SOL    HW135126   2.742   0.406   8.213  0.8864 -1.1953 -1.0605
 7889SOL    HW235127   2.630   0.306   8.175  2.2594 -0.1502  1.1184
 7890SOL     OW35128   3.077   0.445   3.791 -0.2700 -0.4070  0.2717
 7890SOL    HW135129   3.106   0.450   3.700 -2.2884  0.9156 -0.2911
 7890SOL    HW235130   3.138   0.498   3.843 -1.1640  1.1613 -0.2615
 7891SOL     OW35131   4.274   4.090  17.631 -0.3019  0.3272  0.2063
 7891SOL    HW135132   4.299   4.140   0.012  3.2884  0.8553 -1.2867
 7891SOL    HW235133   4.280   3.997  17.652 -0.8715  0.0046 -1.0790
 7892SOL     OW35134   2.262   1.674  12.076 -0.2251 -0.7688 -0.1894
 7892SOL    HW135135   2.262   1.581  12.052  0.0726 -1.0270  0.7734
 7892SOL    HW235136   2.183   1.690  12.129 -1.2390  1.0865 -2.2927
 7893SOL     OW35137   2.843   1.077   3.937 -0.6878 -0.1463 -0.1436
 7893SOL    HW135138   2.905   1.126   3.991  0.6192  0.4600 -2.2330
 7893SOL    HW235139   2.808   1.146   3.880 -0.0344 -1.2084 -1.8202
 7894SOL     OW35140   4.424   4.404  11.374  0.7204  0.2433 -0.0448
 7894SOL    HW135141   4.348   4.461  11.391 -0.6894 -1.2115 -1.4816
 7894SOL    HW235142   4.388   4.345  11.308 -0.2910 -1.1011  1.6704
 7895SOL     OW35143   2.959   3.010   4.851  0.5490  0.3805 -0.1783
 7895SOL    HW135144   3.014   2.942   4.812 -0.7842 -0.6519 -0.2483
 7895SOL    HW235145   2.968   3.004   4.946 -3.3845 -1.6348  0.0935
 7896SOL     OW35146   3.940   1.965   8.466 -0.0309  0.3807 -0.1876
 7896SOL    HW135147   3.846   1.954   8.484  0.6777 -3.0814  1.6004
 7896SOL    HW235148   3.976   1.999   8.548  1.5266  0.0866 -0.7439
 7897SOL     OW35149   1.481   1.761   2.755 -0.0668  0.0912  0.2177
 7897SOL    HW135150   1.388   1.748   2.736  0.3043  0.5895 -1.8775
 7897SOL    HW235151   1.466   1.784   2.847 -1.7142  0.2480 -0.1000
 7898SOL     OW35152   0.299   2.785   0.505 -0.2652 -0.2100  0.3617
 7898SOL    HW135153   0.216   2.809   0.546 -0.8860 -1.6524 -0.0515
 7898SOL    HW235154   0.287   2.790   0.410 -0.2055 -0.5420  0.3353
 7899SOL     OW35155   0.239   3.308   4.068 -0.6521  0.3643  0.0643
 7899SOL    HW135156   0.240   3.372   4.140  0.9056 -1.0508  1.3001
 7899SOL    HW235157   0.308   3.351   4.018  0.4399  2.2836  3.1687
 7900SOL     OW35158   2.065   2.483   4.625 -0.4355  1.0986  0.2705
 7900SOL    HW135159   2.042   2.393   4.600  1.1583  1.3336 -2.0565
 7900SOL    HW235160   2.029   2.480   4.713  0.8518  2.9829  0.8544
 7901SOL     OW35161   1.756   1.715   2.843 -0.1856 -0.0133 -0.2146
 7901SOL    HW135162   1.681   1.763   2.808 -1.1632  0.5818  2.7211
 7901SOL    HW235163   1.720   1.680   2.925  1.6515  0.4540  0.7956
 7902SOL     OW35164   0.413   2.782   1.431 -0.0456  0.3558 -0.1527
 7902SOL    HW135165   0.403   2.801   1.524 -1.0985 -1.1122  0.0314
 7902SOL    HW235166   0.387   2.869   1.399  0.6768  0.5709 -0.1504
 7903SOL     OW35167   0.274   4.193  15.324 -0.2729  0.1731  0.0986
 7903SOL    HW135168   0.249   4.213  15.414 -0.9440  1.7450 -0.4292
 7903SOL    HW235169   0.237   4.106  15.308 -2.0608  0.7202  1.2640
 7904SOL     OW35170   4.487   2.999   2.840 -0.1178 -0.1438  0.0476
 7904SOL    HW135171   4.493   3.064   2.911 -2.2604 -0.5280  0.6018
 7904SOL    HW235172   4.480   3.063   2.769  1.1827 -0.7663 -0.6340
 7905SOL     OW35173   0.787   2.016   1.337 -0.1459  0.2294 -0.2965
 7905SOL    HW135174   0.826   2.101   1.319  0.0072  0.5309  1.4896
 7905SOL    HW235175   0.710   2.052   1.381  0.6303 -0.2237  1.4354
 7906SOL     OW35176   1.316   0.179  16.367  0.0382 -0.6256 -0.2279
 7906SOL    HW135177   1.325   0.176  16.462  1.3400 -0.7186 -0.3639
 7906SOL    HW235178   1.385   0.234  16.332 -2.1344  1.0372 -1.9180
 7907SOL     OW35179   1.729   2.542   3.522  0.2984 -0.2921 -0.1883
 7907SOL    HW135180   1.684   2.587   3.594 -0.0242 -0.6700 -0.1539
 7907SOL    HW235181   1.657   2.516   3.464 -0.0623  0.3292 -0.0237
 7908SOL     OW35182   2.867   0.559   4.825 -0.0348  0.1996 -0.1075
 7908SOL    HW135183   2.885   0.653   4.817  3.2417 -0.4606 -0.6515
 7908SOL    HW235184   2.856   0.532   4.734 -1.8712 -1.5276  0.6454
 7909SOL     OW35185   3.989   2.332   4.721  0.2507 -0.4534  0.3661
 7909SOL    HW135186   3.961   2.357   4.633 -0.8651 -2.3056  0.2137
 7909SOL    HW235187   4.052   2.260   4.712  2.7117  1.4419  2.1944
 7910SOL     OW35188   2.688   3.419   6.115 -0.4797  0.6727 -0.4768
 7910SOL    HW135189   2.712   3.353   6.051 -1.0585 -0.6309  0.6674
 7910SOL    HW235190   2.748   3.491   6.094  0.1703  0.3204  0.1873
 7911SOL     OW35191   2.934   0.873  16.198 -0.3802 -0.1591 -0.0706
 7911SOL    HW135192   2.906   0.912  16.115 -0.4983  3.1009  1.5384
 7911SOL    HW235193   3.021   0.911  16.209 -0.3233  0.0929 -1.3992
 7912SOL     OW35194   4.130   3.780   2.708  0.6172 -0.5404 -0.0212
 7912SOL    HW135195   4.153   3.866   2.742  2.3939 -2.3697  3.4602
 7912SOL    HW235196   4.190   3.779   2.633 -0.2784 -2.2294 -0.7237
 7913SOL     OW35197   0.171   1.700  14.786  0.0686 -0.2660 -0.8976
 7913SOL    HW135198   0.213   1.770  14.836 -0.3630 -0.4343 -0.3038
 7913SOL    HW235199   0.091   1.678  14.834  1.1439 -0.9445  0.5622
 7914SOL     OW35200   3.033   1.282   4.070 -0.2922  0.2247  0.6861
 7914SOL    HW135201   3.109   1.334   4.046 -1.2077  1.2198 -0.0625
 7914SOL    HW235202   3.060   1.268   4.160  0.3541  1.3368  0.6597
 7915SOL     OW35203   4.514   4.290   8.254 -0.0595  0.2115 -0.0691
 7915SOL    HW135204   4.550   4.310   8.341 -0.4245 -2.4161  0.6920
 7915SOL    HW235205   4.422   4.276   8.275  0.2075  0.6590  1.4351
 7916SOL     OW35206   1.460   0.304  17.292  0.1832 -0.3039  0.4443
 7916SOL    HW135207   1.432   0.317  17.382  0.4043  2.4087  0.0983
 7916SOL    HW235208   1.527   0.235  17.299  0.6534  0.3520  2.2648
 7917SOL     OW35209   3.153   2.466  16.089 -0.1582  0.2330 -0.2648
 7917SOL    HW135210   3.247   2.477  16.099 -0.3896  1.7007  0.3877
 7917SOL    HW235211   3.121   2.516  16.164 -1.3151 -0.9898  0.0574
 7918SOL     OW35212   1.938   2.425   7.991 -0.2004 -0.1102  0.0614
 7918SOL    HW135213   2.010   2.486   7.983  0.6285 -1.2428 -1.2705
 7918SOL    HW235214   1.909   2.428   7.899 -2.2539 -0.7285  0.6746
 7919SOL     OW35215   2.446   1.756   9.157 -0.8807 -0.3282  0.0510
 7919SOL    HW135216   2.395   1.833   9.132  0.4870  0.4699 -0.3340
 7919SOL    HW235217   2.535   1.785   9.134 -0.8515  1.4400  2.2861
 7920SOL     OW35218   3.856   4.345   8.680 -0.2100 -0.0700  0.4606
 7920SOL    HW135219   3.850   4.415   8.745 -1.0207  0.6669 -0.3965
 7920SOL    HW235220   3.951   4.342   8.672 -0.2573 -0.7967  0.1213
 7921SOL     OW35221   4.243   0.386  10.217  0.0797  0.2181 -0.2437
 7921SOL    HW135222   4.245   0.382  10.313 -2.1977  0.2306 -0.1794
 7921SOL    HW235223   4.321   0.432  10.187 -0.8030  3.0896  1.7776
 7922SOL     OW35224   1.081   2.411  11.824 -0.1843 -0.3859  0.3713
 7922SOL    HW135225   1.083   2.347  11.753  1.4230 -0.0368  0.1031
 7922SOL    HW235226   1.017   2.462  11.773 -0.9819  0.3453  2.0920
 7923SOL     OW35227   1.957   1.540   7.468 -0.3220 -0.2023 -0.4545
 7923SOL    HW135228   1.936   1.554   7.376 -1.2229 -2.3137 -0.5475
 7923SOL    HW235229   2.038   1.490   7.464 -1.3951 -1.7457 -2.5858
 7924SOL     OW35230   1.714   3.600  15.938 -0.0232 -0.2024 -0.1311
 7924SOL    HW135231   1.781   3.669  15.940  0.4795 -0.7436  1.8890
 7924SOL    HW235232   1.759   3.540  15.879 -2.0871  0.5484 -2.4679
 7925SOL     OW35233   3.196   3.145   7.204  0.4697 -0.5732 -0.3098
 7925SOL    HW135234   3.119   3.146   7.261 -0.1643  1.6300 -1.2199
 7925SOL    HW235235   3.251   3.083   7.252  0.6736  0.0518  0.2469
 7926SOL     OW35236   4.115   0.085  14.871  0.4344 -0.7248  0.2164
 7926SOL    HW135237   4.151   0.131  14.796 -0.4598 -1.3933 -0.6301
 7926SOL    HW235238   4.052   0.147  14.908 -0.0045 -0.0476 -1.6351
 7927SOL     OW35239   2.233   2.401   9.368  0.8657  0.1133  0.3688
 7927SOL    HW135240   2.300   2.341   9.338 -0.8765 -1.5031 -0.2885
 7927SOL    HW235241   2.260   2.472   9.309 -1.4067  0.1408 -0.6451
 7928SOL     OW35242   0.200   1.896   9.471 -0.0143  0.3689 -0.3586
 7928SOL    HW135243   0.283   1.848   9.474 -0.8789 -1.0404  1.0321
 7928SOL    HW235244   0.218   1.964   9.535 -0.2237 -0.0415  0.1360
 7929SOL     OW35245   0.521   0.244  17.008 -0.3758 -0.0012 -0.7395
 7929SOL    HW135246   0.547   0.323  16.960 -0.5026  0.6170  0.2017
 7929SOL    HW235247   0.605   0.213  17.041 -0.0777  0.8263 -0.7066
 7930SOL     OW35248   1.121   0.272  15.053  0.1595 -0.0644 -0.0787
 7930SOL    HW135249   1.079   0.187  15.066 -1.9400  0.9866 -0.1568
 7930SOL    HW235250   1.101   0.315  15.137  0.8919  0.2136 -0.0476
 7931SOL     OW35251   3.508   3.074   4.127  0.2339  0.2124 -0.7502
 7931SOL    HW135252   3.465   3.051   4.209  1.7384 -1.1854 -0.3702
 7931SOL    HW235253   3.472   3.013   4.063 -0.0210 -1.3614  0.8898
 7932SOL     OW35254   4.600   0.233  12.114  0.7109 -0.3058  0.3086
 7932SOL    HW135255   4.664   0.276  12.171  2.6391 -1.7533 -0.7642
 7932SOL    HW235256   4.601   0.145  12.151  0.4080 -1.2475 -1.9489
 7933SOL     OW35257   2.922   3.271   6.574  0.2214  0.5528 -0.3139
 7933SOL    HW135258   2.862   3.270   6.649  0.3289 -0.6022 -0.2423
 7933SOL    HW235259   2.884   3.347   6.530 -0.7437  1.3240  1.8734
 7934SOL     OW35260   4.046   0.137  11.632  0.5176 -0.7132 -0.3974
 7934SOL    HW135261   4.110   0.207  11.617 -0.6045  0.3495 -0.1643
 7934SOL    HW235262   4.088   0.069  11.579 -0.9389  0.3901 -2.9627
 7935SOL     OW35263   1.978   1.842   4.726 -0.2346  0.3091  0.7193
 7935SOL    HW135264   1.888   1.864   4.747 -0.7523 -0.8093 -0.2700
 7935SOL    HW235265   2.020   1.866   4.808  0.6516  0.3208  0.2713
 7936SOL     OW35266   3.077   2.066   7.171  0.2528  0.2251  0.3477
 7936SOL    HW135267   3.035   2.152   7.173  1.7064  0.9539 -0.1701
 7936SOL    HW235268   3.031   2.026   7.244  0.7799 -1.9920 -0.5198
 7937SOL     OW35269   3.314   4.626   9.013  0.1079  0.1015 -0.4457
 7937SOL    HW135270   3.283   4.585   9.094  2.6079  0.0985  0.5351
 7937SOL    HW235271   3.248   4.693   8.999 -0.8071 -0.3539  1.7362
 7938SOL     OW35272   2.230   3.179  17.061  0.5932  0.5001 -0.2657
 7938SOL    HW135273   2.254   3.222  17.143 -0.2086 -0.5975  0.5392
 7938SOL    HW235274   2.316   3.165  17.020  0.8668  0.3309  0.3729
 7939SOL     OW35275   2.331   4.205   6.498  0.7941 -0.3203 -0.1746
 7939SOL    HW135276   2.339   4.146   6.573 -1.8670 -0.0209  0.3671
 7939SOL    HW235277   2.412   4.177   6.456 -0.4744  1.6818 -3.9461
 7940SOL     OW35278   0.602   3.742   5.617 -0.5091  0.0580  0.1412
 7940SOL    HW135279   0.517   3.734   5.575  0.7723 -2.2051 -2.0906
 7940SOL    HW235280   0.619   3.836   5.611  3.4052 -0.6386  0.2177
 7941SOL     OW35281   2.779   2.122   5.546  0.0634 -0.0463 -0.0740
 7941SOL    HW135282   2.864   2.105   5.507 -0.4436  3.1204 -2.5730
 7941SOL    HW235283   2.764   2.208   5.506 -2.1209 -0.5816 -0.4325
 7942SOL     OW35284   0.465   2.287   1.218 -0.3768 -0.1231 -0.5522
 7942SOL    HW135285   0.467   2.276   1.123 -0.3932  1.1214 -0.6949
 7942SOL    HW235286   0.377   2.325   1.224 -0.5663 -0.6605  0.0837
 7943SOL     OW35287   3.808   1.025   6.685  0.3714 -0.4697 -0.3457
 7943SOL    HW135288   3.772   0.949   6.639 -1.0064 -1.0700  1.7207
 7943SOL    HW235289   3.901   1.000   6.681  1.0312  2.2392 -2.0947
 7944SOL     OW35290   2.751   1.173   8.405 -1.0029 -0.1506 -0.0059
 7944SOL    HW135291   2.746   1.176   8.500  0.1077  0.2495  0.0363
 7944SOL    HW235292   2.679   1.232   8.383  0.3089  1.1119 -0.8796
 7945SOL     OW35293   0.172   1.571   4.214  0.2696 -0.1309 -0.3675
 7945SOL    HW135294   0.122   1.540   4.289  2.0366  0.1234  0.9144
 7945SOL    HW235295   0.154   1.501   4.151 -1.1143 -0.4545  0.3924
 7946SOL     OW35296   0.849   2.752   6.408 -0.4319  0.3775 -0.2911
 7946SOL    HW135297   0.788   2.679   6.413 -1.6997  1.4817  0.3836
 7946SOL    HW235298   0.797   2.831   6.393 -0.7372  0.5618  1.7082
 7947SOL     OW35299   2.312   0.063   5.068 -0.1761  0.1494 -0.3110
 7947SOL    HW135300   2.299   0.138   5.126  2.0067  0.5386 -0.3452
 7947SOL    HW235301   2.315   0.102   4.981  0.1704 -0.1282 -0.4257
 7948SOL     OW35302   0.582   0.437   3.153  0.6660  0.0232 -0.4081
 7948SOL    HW135303   0.662   0.385   3.141  0.3223 -0.4812 -0.4920
 7948SOL    HW235304   0.518   0.369   3.174  0.8078 -0.4211 -1.4151
 7949SOL     OW35305   2.508   2.709   5.032  0.1863 -0.2118  0.0562
 7949SOL    HW135306   2.563   2.632   5.049  1.4070  0.4213 -1.0133
 7949SOL    HW235307   2.582   2.769   5.027  3.1558 -3.7655  0.9987
 7950SOL     OW35308   1.678   3.665   7.516  0.1927  0.3231  0.0759
 7950SOL    HW135309   1.642   3.615   7.590 -1.8409 -0.0932 -1.2233
 7950SOL    HW235310   1.603   3.694   7.466  1.0868  3.3610  0.5203
 7951SOL     OW35311   2.839   2.883   7.253 -0.1687  0.5268 -0.0209
 7951SOL    HW135312   2.811   2.880   7.162  1.3301  0.3768 -0.4814
 7951SOL    HW235313   2.818   2.975   7.268  0.3125  0.8218 -1.1962
 7952SOL     OW35314   4.500   2.659   9.999  0.4106 -0.1761  0.6416
 7952SOL    HW135315   4.503   2.703  10.083  3.1149  0.2296  0.3437
 7952SOL    HW235316   4.442   2.710   9.943  0.7394 -1.1749 -0.6236
 7953SOL     OW35317   4.156   4.645  16.564 -0.0088  0.0270  0.1931
 7953SOL    HW135318   4.105   4.582  16.513 -0.5510  0.4385  0.2219
 7953SOL    HW235319   4.084   4.699  16.598 -1.8216 -1.3171 -1.4720
 7954SOL     OW35320   1.655   0.252   4.387  0.4094 -0.2078  0.3561
 7954SOL    HW135321   1.657   0.168   4.341  0.8558  0.8204 -1.5168
 7954SOL    HW235322   1.690   0.216   4.468  1.3259 -0.5732 -0.2052
 7955SOL     OW35323   2.054   1.915   3.058  0.6654  0.1298  0.7086
 7955SOL    HW135324   2.145   1.947   3.059  1.0751 -0.9834 -1.5211
 7955SOL    HW235325   2.000   1.986   3.023 -0.3218 -1.0725 -0.1876
 7956SOL     OW35326   1.689   2.717   4.050  0.1355  0.1041 -0.0414
 7956SOL    HW135327   1.659   2.735   3.961  0.5232 -1.5552 -0.5138
 7956SOL    HW235328   1.734   2.636   4.026 -0.7399 -0.8410  1.4837
 7957SOL     OW35329   0.806   0.278   5.571 -0.2616 -0.1797  0.1427
 7957SOL    HW135330   0.895   0.309   5.555  0.2047 -1.6305 -0.1149
 7957SOL    HW235331   0.791   0.315   5.658  0.1505  1.5784 -0.5302
 7958SOL     OW35332   4.440   2.177  13.951 -0.2185  0.4595  0.4291
 7958SOL    HW135333   4.515   2.208  13.898 -0.2174  0.3563  0.3697
 7958SOL    HW235334   4.378   2.249  13.942 -0.9835 -0.5194 -2.2783
 7959SOL     OW35335   0.612   0.495  16.176 -0.2559  0.1119 -0.4534
 7959SOL    HW135336   0.591   0.578  16.219  0.1037 -0.2637  0.4392
 7959SOL    HW235337   0.522   0.463  16.177  0.3087 -1.4588 -0.3237
 7960SOL     OW35338   4.199   3.259   4.238 -0.3284 -0.4986  0.5951
 7960SOL    HW135339   4.161   3.342   4.207  1.2506  0.0134  0.0630
 7960SOL    HW235340   4.282   3.290   4.273 -1.2767  0.7841  1.7350
 7961SOL     OW35341   1.933   3.952  15.108 -0.0842 -0.4098 -0.5746
 7961SOL    HW135342   1.912   4.000  15.028 -1.8679 -0.2960 -0.0441
 7961SOL    HW235343   1.913   3.863  15.077 -0.6612 -1.1095  1.7638
 7962SOL     OW35344   0.749   3.669   5.022 -0.0349  0.4926  0.1311
 7962SOL    HW135345   0.683   3.606   4.992 -0.0820  1.0852 -0.9829
 7962SOL    HW235346   0.723   3.684   5.113  1.4559  0.4192  0.5667
 7963SOL     OW35347   0.674   4.702   2.908  0.5441  0.4826 -0.3059
 7963SOL    HW135348   0.671   0.071   2.885  1.2313  0.4469 -0.5414
 7963SOL    HW235349   0.723   4.669   2.832 -0.8757 -0.2019 -0.9179
 7964SOL     OW35350   1.799   1.431   4.818  0.0654 -0.1803  0.1488
 7964SOL    HW135351   1.725   1.371   4.817  0.1737 -0.2966 -1.9568
 7964SOL    HW235352   1.840   1.392   4.895  0.1609 -0.0741  0.1516
 7965SOL     OW35353   0.220   0.435   2.276  0.3707 -0.2254  0.3219
 7965SOL    HW135354   0.173   0.370   2.224  0.4498 -1.9637  2.4193
 7965SOL    HW235355   0.159   0.507   2.285  0.1637 -0.0206 -2.7258
 7966SOL     OW35356   0.914   2.626   0.743  0.1000  0.0416 -0.0495
 7966SOL    HW135357   0.930   2.562   0.813  0.1376  0.5169  0.3767
 7966SOL    HW235358   1.002   2.661   0.739 -0.0389  0.3782 -0.1290
 7967SOL     OW35359   4.435   1.228   5.063  0.5463 -0.5768 -0.2068
 7967SOL    HW135360   4.424   1.295   4.997 -2.1719 -2.0333 -1.1955
 7967SOL    HW235361   4.428   1.273   5.147 -1.6475 -1.0394 -0.1509
 7968SOL     OW35362   2.334   2.514   4.599  0.3762  0.3392  0.2303
 7968SOL    HW135363   2.353   2.424   4.626 -1.6172  0.1941  1.1003
 7968SOL    HW235364   2.239   2.522   4.598  0.1989 -1.9172 -2.6525
 7969SOL     OW35365   1.608   2.191   5.306  0.3682  0.6669 -0.4155
 7969SOL    HW135366   1.653   2.230   5.381 -2.4612  0.0000  1.6361
 7969SOL    HW235367   1.538   2.141   5.348 -0.5127  0.9437 -1.5443
 7970SOL     OW35368   3.262   0.724   8.800  0.1437 -0.1651  0.2780
 7970SOL    HW135369   3.286   0.748   8.710  1.1465  0.5144  0.7351
 7970SOL    HW235370   3.334   0.676   8.840  1.4304  0.1048 -1.7283
 7971SOL     OW35371   2.615   4.451   1.719 -0.4269  0.0890  0.6217
 7971SOL    HW135372   2.542   4.430   1.777 -0.6973  0.0993  0.2864
 7971SOL    HW235373   2.583   4.530   1.675  1.0740 -1.4960 -3.2933
 7972SOL     OW35374   0.873   1.761   6.503 -0.3583  0.2582  0.2455
 7972SOL    HW135375   0.956   1.717   6.485 -1.1192 -0.7277 -0.8678
 7972SOL    HW235376   0.813   1.691   6.532 -1.1783 -0.5032 -3.3226
 7973SOL     OW35377   0.429   3.023  12.201 -0.0969 -0.1097  0.2596
 7973SOL    HW135378   0.364   2.972  12.249  0.3224  0.8593  1.8419
 7973SOL    HW235379   0.505   2.971  12.228  0.1387  1.4416  2.6134
 7974SOL     OW35380   1.953   4.659   5.695  0.1659  0.1044  0.5098
 7974SOL    HW135381   2.041   4.627   5.715  0.9490  2.3098  0.5645
 7974SOL    HW235382   1.931   4.715   5.770  1.4422  1.1612  0.0938
 7975SOL     OW35383   0.558   0.323   4.018 -0.3721  0.2851  0.2460
 7975SOL    HW135384   0.599   0.237   4.025 -0.0947  0.3160 -0.9876
 7975SOL    HW235385   0.548   0.333   3.923 -1.0365  0.7403  0.3627
 7976SOL     OW35386   1.772   4.292   6.335 -0.2135 -0.0055 -0.3357
 7976SOL    HW135387   1.840   4.230   6.307  0.0679  0.9382 -1.7744
 7976SOL    HW235388   1.826   4.368   6.356  0.2130 -0.2564 -0.5123
 7977SOL     OW35389   1.054   3.830  12.289 -0.1466  0.4935  0.4861
 7977SOL    HW135390   1.079   3.899  12.228  2.3370  0.1999  1.1513
 7977SOL    HW235391   1.029   3.883  12.364 -0.4849  0.1071  0.6450
 7978SOL     OW35392   4.098   2.936   5.824 -0.1892  0.2352  0.2344
 7978SOL    HW135393   4.159   2.887   5.770 -1.9625 -2.0137  0.2692
 7978SOL    HW235394   4.155   2.995   5.874  0.9370 -1.9436  1.5404
 7979SOL     OW35395   4.290   1.606   7.183 -0.3961 -0.6127 -0.3107
 7979SOL    HW135396   4.234   1.656   7.242 -1.2199 -0.9750 -0.7959
 7979SOL    HW235397   4.378   1.606   7.221 -0.1101  0.8423 -0.9517
 7980SOL     OW35398   4.289   0.768   7.972  0.2663  0.2456  0.1125
 7980SOL    HW135399   4.345   0.790   8.046  0.4553 -0.2709  0.1232
 7980SOL    HW235400   4.202   0.768   8.012  1.5728 -0.0999  2.9514
 7981SOL     OW35401   4.085   2.922   7.561 -0.6577 -0.2016 -0.0899
 7981SOL    HW135402   4.100   3.006   7.518  3.9299 -1.7312 -1.4832
 7981SOL    HW235403   3.991   2.905   7.550 -0.5414 -1.4644  0.8624
 7982SOL     OW35404   2.193   1.879   9.462  0.0755 -0.0022  0.0070
 7982SOL    HW135405   2.192   1.907   9.554  1.2815 -1.3585  0.4276
 7982SOL    HW235406   2.226   1.953   9.412 -2.1670 -0.0523 -1.5456
 7983SOL     OW35407   3.989   4.075   1.402  0.0174  0.2721 -0.0016
 7983SOL    HW135408   3.920   4.139   1.417 -0.6421 -0.2105 -0.9613
 7983SOL    HW235409   3.982   4.051   1.309 -1.4388 -1.5341  0.5569
 7984SOL     OW35410   3.193   1.677   4.408 -0.1223 -0.6910  0.2694
 7984SOL    HW135411   3.242   1.626   4.343  1.4046 -0.4720  1.2543
 7984SOL    HW235412   3.208   1.766   4.376 -1.2909 -1.4980 -2.5264
 7985SOL     OW35413   1.166   0.082   3.139 -0.1939  0.1351 -0.0419
 7985SOL    HW135414   1.189   0.123   3.222 -1.8128  1.1849 -0.1186
 7985SOL    HW235415   1.085   0.035   3.158 -0.3146  0.5818  0.5295
 7986SOL     OW35416   2.735   2.770   7.731 -0.3212  0.1730  0.4243
 7986SOL    HW135417   2.787   2.817   7.796 -0.7040  0.7055  0.3431
 7986SOL    HW235418   2.776   2.804   7.651 -1.3942  0.6119  0.0681
 7987SOL     OW35419   3.370   2.048   5.435  0.2938  0.8566 -0.3856
 7987SOL    HW135420   3.325   2.125   5.469 -1.5427 -0.1577 -0.5426
 7987SOL    HW235421   3.431   2.030   5.507 -2.2063 -2.3378  0.9479
 7988SOL     OW35422   1.451   4.569   3.693  0.2107 -1.1339 -0.0781
 7988SOL    HW135423   1.508   4.568   3.616  0.2650 -1.4958 -0.0353
 7988SOL    HW235424   1.396   4.492   3.681  0.9554 -1.7139  0.2295
 7989SOL     OW35425   1.604   2.963   6.525 -0.2572  0.1866 -0.2757
 7989SOL    HW135426   1.651   3.043   6.501 -2.2732  2.2665  2.8056
 7989SOL    HW235427   1.513   2.991   6.519 -0.9386 -2.0576 -0.6024
 7990SOL     OW35428   4.347   4.091  13.327  0.3310  0.3932 -0.7441
 7990SOL    HW135429   4.437   4.079  13.356 -1.1225 -2.4894  2.5949
 7990SOL    HW235430   4.331   4.003  13.294 -1.0128 -0.1645  1.3728
 7991SOL     OW35431   1.868   4.557   7.706  0.6115  0.3721  0.4952
 7991SOL    HW135432   1.840   4.601   7.787  1.6208  1.5938  0.1724
 7991SOL    HW235433   1.961   4.538   7.720  0.7788 -0.6870 -2.0711
 7992SOL     OW35434   3.922   4.584   3.261 -0.2127 -0.4022  0.1244
 7992SOL    HW135435   3.962   4.600   3.176 -1.2111  1.2141 -0.0377
 7992SOL    HW235436   3.904   4.491   3.249  1.0758 -0.7825  1.0886
 7993SOL     OW35437   1.547   2.832   0.328  0.3060  0.4954 -0.1031
 7993SOL    HW135438   1.548   2.927   0.331 -0.7167  0.5177 -0.7316
 7993SOL    HW235439   1.635   2.816   0.365  0.0862 -2.5068 -0.8401
 7994SOL     OW35440   3.973   2.015   2.369 -0.3224  0.6165 -0.4053
 7994SOL    HW135441   3.930   2.012   2.283 -1.9281 -1.5939  0.4946
 7994SOL    HW235442   4.019   2.099   2.365 -1.0826  1.0948  1.0261
 7995SOL     OW35443   3.973   2.393  15.022 -0.4212 -0.2875  0.1170
 7995SOL    HW135444   4.023   2.389  15.104  1.2834 -1.6946 -0.9869
 7995SOL    HW235445   3.922   2.312  15.021  0.4359 -0.7883 -2.7636
 7996SOL     OW35446   2.271   4.216   8.717 -0.3897 -0.8042 -0.0858
 7996SOL    HW135447   2.189   4.220   8.667 -0.2217 -0.1573 -0.3049
 7996SOL    HW235448   2.338   4.221   8.650 -0.7867 -1.8549 -0.5708
 7997SOL     OW35449   2.445   3.075   0.778  0.0683 -0.5667 -0.2464
 7997SOL    HW135450   2.405   3.142   0.834  1.6711 -0.3942  0.6888
 7997SOL    HW235451   2.441   3.115   0.691 -0.2256 -2.8545 -1.2731
 7998SOL     OW35452   2.542   2.315   5.147  0.1662  0.3480 -0.4493
 7998SOL    HW135453   2.609   2.383   5.140  0.9271 -0.3646 -0.1063
 7998SOL    HW235454   2.528   2.306   5.242 -0.1322 -3.8428 -0.9230
 7999SOL     OW35455   1.887   1.614   8.364  0.0480  0.1063 -0.3511
 7999SOL    HW135456   1.847   1.683   8.417 -0.2332  0.7011 -1.3333
 7999SOL    HW235457   1.895   1.659   8.280 -1.1416  0.9315 -0.0234
 8000SOL     OW35458   2.279   0.133  14.639 -0.1869 -0.7992  0.3133
 8000SOL    HW135459   2.192   0.105  14.668 -1.2577 -1.1233 -3.2460
 8000SOL    HW235460   2.338   0.101  14.707  1.4156  0.6624 -0.4095
 8001SOL     OW35461   1.221   1.117   4.272 -0.1520  0.4947  0.3934
 8001SOL    HW135462   1.305   1.072   4.265  0.3145  1.2976  0.6936
 8001SOL    HW235463   1.246   1.210   4.263  1.8423  0.1589  2.5115
 8002SOL     OW35464   4.556   3.449  11.126 -0.3028  0.4535 -0.3022
 8002SOL    HW135465   4.535   3.515  11.192 -1.7246  0.3881 -0.6932
 8002SOL    HW235466   4.534   3.365  11.164  0.1388  0.6813  0.4523
 8003SOL     OW35467   2.371   2.490   9.616 -0.0149  1.0135  0.3185
 8003SOL    HW135468   2.292   2.485   9.561  2.1454 -1.4777 -2.5233
 8003SOL    HW235469   2.428   2.557   9.579  1.7334  0.5755  2.2879
 8004SOL     OW35470   1.058   1.793   4.023  0.0195 -0.9025  0.3106
 8004SOL    HW135471   1.117   1.818   3.952  0.1048  0.1746  0.7427
 8004SOL    HW235472   1.078   1.700   4.018  1.1780 -0.6455  0.2262
 8005SOL     OW35473   0.154   2.330   9.477 -0.2132  0.0089 -0.7882
 8005SOL    HW135474   0.061   2.343   9.457 -0.4659 -1.2321 -0.3938
 8005SOL    HW235475   0.181   2.288   9.395  0.4579  0.1924 -0.6570
 8006SOL     OW35476   3.234   2.134   5.010  0.2366  0.2604 -0.4462
 8006SOL    HW135477   3.302   2.159   5.073 -1.0755 -1.9721  1.8492
 8006SOL    HW235478   3.275   2.054   4.977 -0.4489  0.0030 -0.6520
 8007SOL     OW35479   2.822   3.858   5.783 -0.2798 -0.5645 -0.0901
 8007SOL    HW135480   2.914   3.882   5.787 -0.9291  1.7802  0.8343
 8007SOL    HW235481   2.814   3.790   5.850 -0.2126 -0.6427 -0.1622
 8008SOL     OW35482   2.968   3.890  11.978 -0.5115 -0.4121 -0.0083
 8008SOL    HW135483   2.914   3.930  12.046  1.5359  2.2190  0.0593
 8008SOL    HW235484   2.946   3.797  11.992  0.8990 -0.7433  0.0108
 8009SOL     OW35485   2.326   1.510   2.911  0.0516 -0.3071  0.4936
 8009SOL    HW135486   2.247   1.539   2.957  0.0055  0.7661 -0.2574
 8009SOL    HW235487   2.378   1.504   2.991 -0.8893  1.1803  1.2361
 8010SOL     OW35488   4.264   1.610   1.990  0.0699 -0.1149  0.1909
 8010SOL    HW135489   4.346   1.658   1.977  1.5796 -2.6282  0.4592
 8010SOL    HW235490   4.295   1.531   1.944 -0.9805  1.4348 -3.2126
 8011SOL     OW35491   2.485   3.142   6.565 -0.6339  0.4413 -0.2695
 8011SOL    HW135492   2.407   3.196   6.573  0.4360  2.0324 -0.4560
 8011SOL    HW235493   2.543   3.185   6.502 -0.5040  1.9268  0.8577
 8012SOL     OW35494   0.631   4.612   7.414  0.8269 -0.8677  0.6493
 8012SOL    HW135495   0.673   4.672   7.476  2.1399 -2.4894  1.3276
 8012SOL    HW235496   0.629   4.527   7.457  1.5808 -2.0007 -1.5367
 8013SOL     OW35497   4.489   3.887   0.897 -0.2524 -0.0718 -0.2012
 8013SOL    HW135498   4.494   3.919   0.807  0.0620  0.7008  0.0981
 8013SOL    HW235499   4.497   3.795   0.872  0.7409 -0.1853  0.5572
 8014SOL     OW35500   2.632   2.133   6.426  0.4597 -0.1278 -0.2548
 8014SOL    HW135501   2.676   2.190   6.489  1.1806 -3.1939  2.0131
 8014SOL    HW235502   2.589   2.202   6.375 -0.6409 -0.6371 -0.0193
 8015SOL     OW35503   4.635   0.385   3.961 -0.1003  0.0656 -0.3293
 8015SOL    HW135504   4.702   0.316   3.957  1.8114  1.7637  2.2584
 8015SOL    HW235505   4.591   0.345   4.036 -0.5984  1.9789  0.3931
 8016SOL     OW35506   2.761   3.627  13.401  0.4876  0.1134 -0.2957
 8016SOL    HW135507   2.746   3.694  13.467  0.3633  0.4816 -0.6947
 8016SOL    HW235508   2.689   3.643  13.339  1.0801  1.9644 -0.4826
 8017SOL     OW35509   2.961   2.072   0.941 -0.0594 -0.0311 -0.5902
 8017SOL    HW135510   2.939   2.149   0.993  0.7540 -0.7259  0.7916
 8017SOL    HW235511   2.876   2.028   0.952 -0.3200  0.3698 -1.0048
 8018SOL     OW35512   0.211   1.846   7.812 -0.5441  0.7860  0.3985
 8018SOL    HW135513   0.192   1.847   7.906 -0.7409  1.3502  0.3561
 8018SOL    HW235514   0.302   1.818   7.811 -0.9042 -0.3757 -0.4059
 8019SOL     OW35515   1.185   3.777   0.066 -0.0850 -0.3475 -0.2695
 8019SOL    HW135516   1.237   3.706   0.102 -0.5088 -0.1953  0.6379
 8019SOL    HW235517   1.110   3.786   0.124  0.2564 -1.1998  0.3052
 8020SOL     OW35518   3.376   0.366  17.127 -0.0639  0.5076 -0.2683
 8020SOL    HW135519   3.303   0.351  17.187 -0.4842 -0.0210 -0.9196
 8020SOL    HW235520   3.389   0.274  17.106 -1.7298  0.2833 -0.3571
 8021SOL     OW35521   4.430   4.170   4.622 -0.2808  0.4745 -0.5840
 8021SOL    HW135522   4.362   4.160   4.556  0.2786  1.1504 -1.2551
 8021SOL    HW235523   4.371   4.150   4.695  0.2681 -0.1389 -0.3092
 8022SOL     OW35524   1.088   3.454  14.210 -0.6025 -0.0951 -0.0875
 8022SOL    HW135525   1.112   3.384  14.270 -0.2731 -0.2786 -0.4358
 8022SOL    HW235526   1.174   3.492  14.193  0.9141 -2.6570  1.9997
 8023SOL     OW35527   1.254   2.531   1.812 -0.1538 -0.7427  0.5957
 8023SOL    HW135528   1.285   2.603   1.758 -3.3985 -1.3148 -2.0420
 8023SOL    HW235529   1.333   2.496   1.853  1.4021  1.0101 -0.8658
 8024SOL     OW35530   2.380   3.153  17.525 -0.4365 -0.6231 -0.2218
 8024SOL    HW135531   2.335   3.226  17.566  0.7972 -0.4551  0.8750
 8024SOL    HW235532   2.308   3.110  17.479 -1.0540 -1.0946  1.1871
 8025SOL     OW35533   4.222   0.047  15.116  0.1010 -0.2252  0.0299
 8025SOL    HW135534   4.209   0.061  15.022  0.4753  1.0631  0.1702
 8025SOL    HW235535   4.132   0.025  15.139  0.5268 -2.0231 -0.0381
 8026SOL     OW35536   4.121   2.451  11.400  0.2471 -1.0397  0.4738
 8026SOL    HW135537   4.194   2.481  11.455  1.2604 -0.7575 -1.0303
 8026SOL    HW235538   4.098   2.375  11.455 -0.1540 -0.4251  1.1617
 8027SOL     OW35539   2.195   3.071   5.485 -0.0608  0.0372 -0.3546
 8027SOL    HW135540   2.221   3.046   5.573 -0.7170 -2.7264 -0.9585
 8027SOL    HW235541   2.161   3.161   5.488  2.9261  1.1063  1.3590
 8028SOL     OW35542   3.315   3.591   7.016  0.3115 -0.0237  0.2458
 8028SOL    HW135543   3.407   3.618   7.011  0.2285  0.3466  0.7440
 8028SOL    HW235544   3.277   3.613   6.931  1.3200  0.1557 -0.1561
 8029SOL     OW35545   1.167   4.417   5.178  0.1366 -0.3283 -0.6368
 8029SOL    HW135546   1.262   4.412   5.189  0.2300  1.0058 -0.8641
 8029SOL    HW235547   1.143   4.338   5.130 -3.4820 -0.0298  0.6573
 8030SOL     OW35548   3.971   1.431   4.255 -0.4748 -0.6170 -0.7291
 8030SOL    HW135549   3.960   1.430   4.350 -0.2682  0.2576 -0.6873
 8030SOL    HW235550   3.998   1.521   4.234 -0.5288 -0.0639  1.5695
 8031SOL     OW35551   0.611   2.970   8.250  0.3127  0.0212 -0.2378
 8031SOL    HW135552   0.650   3.021   8.321  1.0450 -1.4032  0.3969
 8031SOL    HW235553   0.677   2.992   8.184 -0.7779  1.0804 -0.9551
 8032SOL     OW35554   2.561   2.900  12.632 -0.2194  0.0294  0.0643
 8032SOL    HW135555   2.639   2.923  12.684 -0.0568 -0.6727  0.1267
 8032SOL    HW235556   2.544   2.810  12.660 -0.8546  0.5705  1.4491
 8033SOL     OW35557   0.035   0.286   7.406  0.5980 -0.3332  0.3882
 8033SOL    HW135558   0.089   0.364   7.394  0.6022 -0.4448 -0.2956
 8033SOL    HW235559   0.001   0.284   7.317  1.1169 -2.1403  0.2381
 8034SOL     OW35560   2.955   2.018   2.215  0.3805 -0.4156 -0.0259
 8034SOL    HW135561   2.977   1.958   2.286  1.9935  1.4599  1.0522
 8034SOL    HW235562   2.996   1.987   2.134  0.6617 -1.8529  0.6598
 8035SOL     OW35563   0.288   3.628   5.613  0.5519  0.2767 -0.2505
 8035SOL    HW135564   0.241   3.671   5.684 -1.0077 -2.0838  0.1562
 8035SOL    HW235565   0.218   3.571   5.579  2.9180 -2.3662 -0.7320
 8036SOL     OW35566   1.053   2.205   7.340  0.3091  0.0831  0.5357
 8036SOL    HW135567   1.104   2.131   7.306 -0.3687  0.9391 -2.4241
 8036SOL    HW235568   1.110   2.232   7.411 -1.2648  1.3605  1.3211
 8037SOL     OW35569   3.862   0.772  15.816 -0.1932 -0.2784 -0.0986
 8037SOL    HW135570   3.919   0.724  15.755 -0.2492  0.4964 -0.7662
 8037SOL    HW235571   3.897   0.741  15.900  0.9382 -1.0274 -0.8472
 8038SOL     OW35572   3.577   3.045  15.901  0.2194  0.4781 -0.0914
 8038SOL    HW135573   3.504   3.095  15.938  1.8700  2.6724  0.2418
 8038SOL    HW235574   3.647   3.065  15.964 -0.3300  0.8486  0.4036
 8039SOL     OW35575   1.895   2.576  12.177 -0.2196 -0.2408 -0.4308
 8039SOL    HW135576   1.914   2.649  12.235  3.7294 -1.4066 -0.2674
 8039SOL    HW235577   1.830   2.529  12.231  1.1461 -0.8180  0.7128
 8040SOL     OW35578   1.458   4.041  13.705  0.0045 -0.5352  0.5831
 8040SOL    HW135579   1.447   4.136  13.703 -0.2035 -0.5739 -0.0217
 8040SOL    HW235580   1.550   4.033  13.727  0.0369  1.3053  1.1021
 8041SOL     OW35581   3.669   2.432   4.527 -0.5907  0.1462  0.5881
 8041SOL    HW135582   3.707   2.472   4.605 -1.1732  2.3747 -0.2642
 8041SOL    HW235583   3.748   2.398   4.485 -1.2614 -0.6656 -0.0058
 8042SOL     OW35584   1.383   0.047   2.055  0.2168  0.1892  0.2742
 8042SOL    HW135585   1.374   0.024   1.963  1.1893  0.1885  0.1806
 8042SOL    HW235586   1.418   0.136   2.049 -0.0139  0.2318 -0.4543
 8043SOL     OW35587   2.668   3.810  13.145  0.0121  0.0658 -0.5107
 8043SOL    HW135588   2.606   3.775  13.208  1.4947  1.0923  1.5465
 8043SOL    HW235589   2.754   3.774  13.166 -1.2844 -3.0032 -0.5513
 8044SOL     OW35590   2.469   2.866  16.951  0.1150  0.2336 -0.0039
 8044SOL    HW135591   2.540   2.823  16.999  1.5475  2.1617 -0.3823
 8044SOL    HW235592   2.397   2.804  16.941  0.1261  0.6202 -2.3684
 8045SOL     OW35593   0.499   3.521  11.585 -0.4439 -0.4190  0.3825
 8045SOL    HW135594   0.540   3.453  11.639 -1.5432 -2.3689 -1.2589
 8045SOL    HW235595   0.425   3.549  11.639 -0.8538  0.6921 -0.7603
 8046SOL     OW35596   0.602   3.902   7.123  0.5051 -0.2969  0.1522
 8046SOL    HW135597   0.644   3.863   7.199  1.5946 -0.9589 -0.7847
 8046SOL    HW235598   0.686   3.907   7.077 -2.0833 -1.7714 -4.7677
 8047SOL     OW35599   4.468   2.143   3.554  0.0432  0.7350  0.4091
 8047SOL    HW135600   4.542   2.102   3.599 -1.0294 -3.1608 -1.4313
 8047SOL    HW235601   4.489   2.143   3.461  0.0574 -2.2675  0.4093
 8048SOL     OW35602   0.359   0.109  17.215  0.0366 -0.2391  0.5081
 8048SOL    HW135603   0.311   0.156  17.283 -2.5058 -3.1207  0.6888
 8048SOL    HW235604   0.315   0.133  17.134 -2.9451 -2.1933  1.5774
 8049SOL     OW35605   1.542   3.460   1.708 -0.0169  0.3440  0.2567
 8049SOL    HW135606   1.630   3.423   1.717 -0.6632 -1.0419  0.8617
 8049SOL    HW235607   1.552   3.521   1.781 -0.6932  1.4890 -0.6070
 8050SOL     OW35608   3.423   0.354  17.470  0.4594 -0.4226  0.7923
 8050SOL    HW135609   3.345   0.299  17.481  0.0176  0.2083  0.7430
 8050SOL    HW235610   3.478   0.301  17.412  0.3625  3.1790 -2.5506
 8051SOL     OW35611   0.498   1.048   4.335  0.0607 -0.0006 -0.2964
 8051SOL    HW135612   0.580   1.029   4.381  1.4235  1.0787 -2.2766
 8051SOL    HW235613   0.490   0.967   4.285  0.2720 -0.2653  0.0971
 8052SOL     OW35614   1.111   0.496  11.503  0.7212  0.5259  0.4447
 8052SOL    HW135615   1.062   0.520  11.581  1.2051 -3.8747  2.0836
 8052SOL    HW235616   1.197   0.532  11.524  1.4066 -1.5066  1.0737
 8053SOL     OW35617   3.075   4.230   7.554  0.4913  0.2797 -0.1067
 8053SOL    HW135618   3.062   4.323   7.537 -1.2363  0.0197 -0.2971
 8053SOL    HW235619   3.014   4.188   7.493 -1.8634  1.6042  1.3391
 8054SOL     OW35620   1.256   2.197   6.968 -0.5462 -0.5134  0.5275
 8054SOL    HW135621   1.304   2.264   6.919 -0.1500 -1.0467  0.1855
 8054SOL    HW235622   1.167   2.228   6.986 -0.6650  0.5777 -1.8798
 8055SOL     OW35623   0.287   2.393   7.371 -0.3278 -0.2741 -0.1238
 8055SOL    HW135624   0.216   2.329   7.373 -1.4989  1.1079  1.8529
 8055SOL    HW235625   0.360   2.333   7.389 -0.5502  0.2986  2.7265
 8056SOL     OW35626   1.488   3.391   4.176  0.3555 -0.5057  0.3696
 8056SOL    HW135627   1.414   3.437   4.137  0.8020 -0.3038 -0.2447
 8056SOL    HW235628   1.460   3.301   4.157  0.6349 -0.3891 -0.6056
 8057SOL     OW35629   3.523   3.105   8.553  0.0561  0.4501  0.7849
 8057SOL    HW135630   3.450   3.090   8.493  1.2385  2.2262 -1.1224
 8057SOL    HW235631   3.506   3.191   8.591 -3.4640  0.8789 -1.7026
 8058SOL     OW35632   0.260   0.131  16.945 -0.6556 -0.4432 -0.2610
 8058SOL    HW135633   0.268   0.057  16.884  1.9933  1.7112 -2.5685
 8058SOL    HW235634   0.351   0.142  16.974 -0.4214 -0.0648 -1.1449
 8059SOL     OW35635   0.654   1.141  12.048  0.5360 -0.1884 -0.2881
 8059SOL    HW135636   0.617   1.184  11.970  0.9869 -1.1562 -1.0366
 8059SOL    HW235637   0.687   1.216  12.098 -0.0269 -0.5342  0.5982
 8060SOL     OW35638   0.970   1.622  15.974  0.0909  0.5920  0.7387
 8060SOL    HW135639   0.956   1.549  15.914  1.8311 -0.4901  1.6565
 8060SOL    HW235640   0.881   1.655  15.992  0.0033  1.1326 -0.7608
 8061SOL     OW35641   2.412   3.311  13.720  0.2493  0.0298  0.8829
 8061SOL    HW135642   2.408   3.406  13.710  2.4813 -0.1217 -1.4611
 8061SOL    HW235643   2.506   3.294  13.717 -0.0281 -1.3477 -0.5037
 8062SOL     OW35644   3.709   0.916  17.497  0.1991  0.3935 -0.3922
 8062SOL    HW135645   3.784   0.856  17.493 -1.3501 -1.6058  0.6110
 8062SOL    HW235646   3.645   0.857  17.538  0.8142  0.5832  0.8419
 8063SOL     OW35647   1.414   4.443   7.263 -0.3016 -0.1906  0.3224
 8063SOL    HW135648   1.415   4.511   7.196 -1.7865 -0.5817 -0.0835
 8063SOL    HW235649   1.385   4.370   7.208 -1.6289  0.8723 -0.3839
 8064SOL     OW35650   0.006   1.274   3.082  0.3534  0.2683  0.2482
 8064SOL    HW135651   0.084   1.266   3.137 -0.8308  0.9594  2.0227
 8064SOL    HW235652   4.675   1.197   3.096 -0.1393  0.3344 -1.3610
 8065SOL     OW35653   4.659   1.645   9.215 -0.7210  0.0249 -0.3343
 8065SOL    HW135654   4.586   1.606   9.262 -1.3959  1.8016  0.0855
 8065SOL    HW235655   4.708   1.565   9.196  0.8669  1.0584 -0.6153
 8066SOL     OW35656   3.278   2.936   3.714 -0.5290 -0.7035 -0.3032
 8066SOL    HW135657   3.258   3.023   3.681  0.1559 -1.3942 -2.5282
 8066SOL    HW235658   3.195   2.893   3.693 -0.6652  0.0339 -1.2566
 8067SOL     OW35659   0.306   4.679   8.942  0.0346  0.1461 -0.4232
 8067SOL    HW135660   0.360   4.705   9.017  0.0194  3.0455 -1.3898
 8067SOL    HW235661   0.279   0.039   8.903  0.0424 -0.1364 -1.0373
 8068SOL     OW35662   3.179   1.483  17.693  0.2673 -0.1594  0.0723
 8068SOL    HW135663   3.232   1.521   0.067 -0.6533 -1.5188  1.4995
 8068SOL    HW235664   3.100   1.451   0.040  0.7206  0.3120  1.2353
 8069SOL     OW35665   0.834   0.592   1.542 -0.2038  0.6164  0.5867
 8069SOL    HW135666   0.911   0.614   1.489  1.3048  0.9364  2.9151
 8069SOL    HW235667   0.848   0.651   1.616  0.7615  2.0544 -0.7280
 8070SOL     OW35668   0.575   4.384   2.167 -0.8052  0.3814  0.8503
 8070SOL    HW135669   0.516   4.318   2.131  0.3221 -0.2929  0.2296
 8070SOL    HW235670   0.526   4.462   2.139 -3.0070 -1.6214 -0.8252
 8071SOL     OW35671   0.940   4.027   5.968 -0.0583  0.6029  0.3078
 8071SOL    HW135672   0.882   4.019   5.892  0.3410  0.2238  0.0352
 8071SOL    HW235673   0.885   4.066   6.035  0.5528  2.0102 -0.0162
 8072SOL     OW35674   3.543   3.331   3.516 -0.0470  0.3481  0.1643
 8072SOL    HW135675   3.609   3.380   3.467 -0.6422  1.7952  0.8280
 8072SOL    HW235676   3.574   3.322   3.606 -0.1781 -1.2460  0.0526
 8073SOL     OW35677   1.834   0.492   5.169  0.1016 -0.0630 -0.6581
 8073SOL    HW135678   1.879   0.495   5.085 -0.2825  3.0340 -0.7547
 8073SOL    HW235679   1.868   0.575   5.202  0.8021 -0.0490 -1.4203
 8074SOL     OW35680   3.825   0.389   5.875  0.1344  0.1182 -0.2148
 8074SOL    HW135681   3.730   0.384   5.888  0.2542 -0.9407  0.2275
 8074SOL    HW235682   3.840   0.435   5.792 -0.5284  0.3502 -0.2097
 8075SOL     OW35683   3.847   1.367   6.601 -0.5279 -0.7201 -0.1378
 8075SOL    HW135684   3.888   1.284   6.624 -0.3505 -0.3716  0.8164
 8075SOL    HW235685   3.884   1.414   6.676 -2.0743  0.4368 -0.1082
 8076SOL     OW35686   0.021   1.347   1.100  0.3619 -0.5418 -0.2580
 8076SOL    HW135687   4.657   1.368   1.132  0.2690 -0.7678 -0.3572
 8076SOL    HW235688   0.044   1.280   1.165 -0.4276 -1.5373 -1.0064
 8077SOL     OW35689   1.766   0.438   6.093  0.2802 -0.0878  0.0767
 8077SOL    HW135690   1.857   0.454   6.118  1.0421 -1.0293 -2.0992
 8077SOL    HW235691   1.728   0.477   6.172  1.6755  2.4848 -0.5594
 8078SOL     OW35692   2.208   4.497   3.673 -0.3274 -0.1130 -0.0259
 8078SOL    HW135693   2.162   4.440   3.612  0.0958  0.9522 -1.3423
 8078SOL    HW235694   2.184   4.451   3.754  0.8516 -1.8628 -0.6704
 8079SOL     OW35695   3.406   2.654  12.071 -0.3714 -0.1659  0.1655
 8079SOL    HW135696   3.361   2.737  12.088  1.1813  0.3900  1.5937
 8079SOL    HW235697   3.473   2.682  12.008 -0.0327 -0.9004  0.2029
 8080SOL     OW35698   4.521   0.415   6.219  0.5891  0.1048 -0.4259
 8080SOL    HW135699   4.540   0.322   6.228  1.8088  0.5306  1.4142
 8080SOL    HW235700   4.520   0.440   6.311 -0.6799  1.1222 -0.7080
 8081SOL     OW35701   3.935   4.225   6.999  0.4023  0.8964 -0.1706
 8081SOL    HW135702   3.925   4.130   6.986 -0.4677  0.8951  0.4776
 8081SOL    HW235703   4.028   4.224   7.023  0.1872 -1.1885  0.6446
 8082SOL     OW35704   0.714   1.042  12.676 -0.1957 -0.3804 -0.6523
 8082SOL    HW135705   0.746   1.116  12.624 -0.6336  1.3318  1.5511
 8082SOL    HW235706   0.636   1.024  12.623 -0.2654 -0.2414 -0.5958
 8083SOL     OW35707   3.900   3.517  10.334  0.5604 -0.0454  0.3740
 8083SOL    HW135708   3.887   3.462  10.257 -0.8859  0.7905  0.0195
 8083SOL    HW235709   3.809   3.527  10.361  0.4755 -0.2132  0.1511
 8084SOL     OW35710   3.633   3.716   3.266  0.5912  0.2167 -0.2974
 8084SOL    HW135711   3.615   3.806   3.241  0.4741  0.0503 -0.8052
 8084SOL    HW235712   3.647   3.681   3.178 -0.6670  0.3294 -0.5332
 8085SOL     OW35713   3.752   3.148   4.229  0.4095 -0.4071 -0.0188
 8085SOL    HW135714   3.696   3.184   4.297 -0.3183  0.4208 -1.0537
 8085SOL    HW235715   3.678   3.123   4.175 -0.0582 -0.2812  0.5702
 8086SOL     OW35716   0.949   4.169  11.158 -0.0635  0.0291  0.1572
 8086SOL    HW135717   0.902   4.093  11.122  0.2593 -0.4780  0.8019
 8086SOL    HW235718   1.023   4.176  11.098 -0.2271 -1.7309 -0.2592
 8087SOL     OW35719   4.404   1.344   8.476  1.0770  0.5805  0.2337
 8087SOL    HW135720   4.342   1.325   8.546  1.7760  0.2262  0.7545
 8087SOL    HW235721   4.449   1.260   8.481  0.6395  0.3171 -0.2545
 8088SOL     OW35722   2.133   3.430  17.222 -0.0337 -0.1932 -0.0327
 8088SOL    HW135723   2.214   3.380  17.214 -0.2317 -0.2392 -1.8077
 8088SOL    HW235724   2.163   3.513  17.258 -1.0883  0.4940 -0.7065
 8089SOL     OW35725   4.049   1.494   9.258  0.4793  0.1317  0.5732
 8089SOL    HW135726   4.061   1.473   9.165  1.4086  0.3594  0.6384
 8089SOL    HW235727   4.074   1.416   9.309  0.9437 -0.6319 -0.8035
 8090SOL     OW35728   3.898   1.702   1.064 -0.1046  0.4144 -0.3837
 8090SOL    HW135729   3.916   1.763   1.136 -0.8268 -1.6100  1.5290
 8090SOL    HW235730   3.813   1.736   1.034 -0.0934 -1.5338 -2.6181
 8091SOL     OW35731   2.228   0.205  15.387  0.2883  0.1440 -0.1090
 8091SOL    HW135732   2.230   0.111  15.407 -0.9069  0.2103  0.3216
 8091SOL    HW235733   2.297   0.203  15.320 -1.0677 -1.6563 -1.4530
 8092SOL     OW35734   3.438   2.309  10.689  0.5136  0.5318  0.4996
 8092SOL    HW135735   3.496   2.329  10.762  1.7511  0.6784 -0.5275
 8092SOL    HW235736   3.369   2.259  10.732  0.8549 -0.8598 -0.6066
 8093SOL     OW35737   1.516   3.006  15.412 -0.7404  0.6584 -0.3744
 8093SOL    HW135738   1.516   2.969  15.324 -0.8606 -0.0394 -0.0797
 8093SOL    HW235739   1.513   2.923  15.459  0.3414  0.6736 -0.2821
 8094SOL     OW35740   4.457   3.712  12.991 -0.4509  0.0658  0.0642
 8094SOL    HW135741   4.533   3.719  12.933 -0.9577  2.4082 -0.3403
 8094SOL    HW235742   4.409   3.790  12.963  0.1902  0.5525  0.3077
 8095SOL     OW35743   0.739   1.891   8.915 -0.2413 -0.6334  0.0795
 8095SOL    HW135744   0.741   1.816   8.973 -1.4853  0.0781  1.0610
 8095SOL    HW235745   0.808   1.943   8.956 -1.8442  3.4299 -2.3289
 8096SOL     OW35746   2.861   1.647   4.218  0.3035 -0.2487  0.6494
 8096SOL    HW135747   2.878   1.616   4.307 -2.4297  0.7187  1.4884
 8096SOL    HW235748   2.774   1.682   4.233  0.5301  1.1180 -1.2217
 8097SOL     OW35749   2.798   4.144   2.386  0.7128  0.5564  0.1603
 8097SOL    HW135750   2.723   4.196   2.413 -0.4036 -1.3932  0.8466
 8097SOL    HW235751   2.755   4.099   2.314  0.0636  0.9067  0.3333
 8098SOL     OW35752   1.268   0.487   8.918 -0.4184  0.1286 -0.3634
 8098SOL    HW135753   1.233   0.554   8.859 -0.0986 -0.6486 -1.4321
 8098SOL    HW235754   1.287   0.414   8.859  0.6787  0.0029  0.1498
 8099SOL     OW35755   1.740   0.467   7.861 -0.5294 -0.2664 -0.3424
 8099SOL    HW135756   1.804   0.449   7.930  0.0104 -1.2606 -1.1171
 8099SOL    HW235757   1.773   0.536   7.803 -1.0414  1.3551  1.2875
 8100SOL     OW35758   3.442   0.908  13.533 -0.2527  0.2242  0.3227
 8100SOL    HW135759   3.430   1.003  13.532 -0.5678  0.1981  1.8993
 8100SOL    HW235760   3.523   0.895  13.483  0.1190  0.5260  0.8508
 8101SOL     OW35761   2.660   3.229   0.149 -0.6072 -0.2788 -0.2424
 8101SOL    HW135762   2.609   3.156   0.113  0.3602 -1.2391  0.3390
 8101SOL    HW235763   2.730   3.230   0.084  0.6575  0.2392  1.1324
 8102SOL     OW35764   1.315   1.110  16.851  0.0986 -0.7410 -0.3495
 8102SOL    HW135765   1.284   1.086  16.938 -1.1137 -2.2550 -1.2070
 8102SOL    HW235766   1.255   1.064  16.792 -0.6233  0.8877 -0.8765
 8103SOL     OW35767   4.308   3.542   3.908 -0.6732 -0.3544  0.7659
 8103SOL    HW135768   4.279   3.624   3.870  1.3259 -1.0518 -2.2262
 8103SOL    HW235769   4.263   3.485   3.846 -0.4872 -0.2666  0.5490
 8104SOL     OW35770   4.238   2.576   5.968 -0.0161  0.0285  0.2297
 8104SOL    HW135771   4.311   2.613   5.918 -1.6838  1.7703 -0.9093
 8104SOL    HW235772   4.208   2.653   6.016 -0.8691  0.1823 -0.5643
 8105SOL     OW35773   1.267   0.084   2.729 -0.2059  0.5785 -0.2974
 8105SOL    HW135774   1.354   0.045   2.730  0.2963  1.6716 -0.7604
 8105SOL    HW235775   1.281   0.151   2.796  0.4706 -0.2650  0.4026
 8106SOL     OW35776   3.121   1.312   3.055  0.0864 -0.2656  0.1835
 8106SOL    HW135777   3.207   1.275   3.034 -0.2049 -0.9401  0.1835
 8106SOL    HW235778   3.082   1.315   2.968  1.5207 -0.3699 -0.4529
 8107SOL     OW35779   1.858   3.574   8.043  0.4487 -0.1122  0.3884
 8107SOL    HW135780   1.861   3.650   7.985  2.3959 -1.1721 -0.9026
 8107SOL    HW235781   1.919   3.512   8.003 -0.7494 -0.6923 -0.5596
 8108SOL     OW35782   3.855   3.417  11.205  0.1003 -0.0902  0.1216
 8108SOL    HW135783   3.818   3.382  11.286  0.9880  1.4553  1.1991
 8108SOL    HW235784   3.899   3.494  11.241  0.6609 -0.8585  1.0488
 8109SOL     OW35785   1.781   3.778   5.519 -0.3814  0.4947 -0.4500
 8109SOL    HW135786   1.827   3.821   5.591 -1.4079  0.7137  0.0616
 8109SOL    HW235787   1.779   3.855   5.461 -0.5917  0.4080 -0.5556
 8110SOL     OW35788   4.545   0.704   4.287 -0.2504  0.3382 -0.0834
 8110SOL    HW135789   4.568   0.689   4.195 -0.2546 -1.2231  0.1655
 8110SOL    HW235790   4.630   0.681   4.325 -1.2425 -1.4096  1.0670
 8111SOL     OW35791   1.918   1.242   1.266 -0.4159 -0.1493  0.4475
 8111SOL    HW135792   1.900   1.323   1.218  1.2846  0.6787  1.2063
 8111SOL    HW235793   1.975   1.262   1.340  0.9475  3.3000 -1.5159
 8112SOL     OW35794   4.554   2.099  16.858 -0.1007 -0.4591  0.0347
 8112SOL    HW135795   4.521   2.187  16.842  0.7878 -0.4462 -1.6950
 8112SOL    HW235796   4.490   2.041  16.816 -0.8949 -2.5325  4.1897
 8113SOL     OW35797   3.019   0.322  15.362  0.0024 -0.2047 -0.4126
 8113SOL    HW135798   3.031   0.267  15.439  0.0094  1.7338  0.9560
 8113SOL    HW235799   3.058   0.263  15.298  0.6345 -0.2454  0.0089
 8114SOL     OW35800   3.719   2.004   8.931  0.0180 -0.2612  0.1762
 8114SOL    HW135801   3.780   2.048   8.872  0.0531 -0.4764  0.0481
 8114SOL    HW235802   3.666   1.955   8.868  1.3885 -1.7687  0.1759
 8115SOL     OW35803   3.130   1.848   8.156  0.2739  0.4309 -0.8611
 8115SOL    HW135804   3.084   1.923   8.195  0.1711  0.6992 -1.4992
 8115SOL    HW235805   3.054   1.806   8.116  0.2117 -1.8770  1.6954
 8116SOL     OW35806   1.067   4.588   2.826  0.0647 -0.4657  0.1468
 8116SOL    HW135807   1.106   4.674   2.842 -1.2498  0.4937 -1.8060
 8116SOL    HW235808   1.126   4.534   2.879 -0.8579 -1.1731  0.4491
 8117SOL     OW35809   2.297   4.211   4.794  0.3198  0.2896  0.0588
 8117SOL    HW135810   2.280   4.123   4.760 -0.6758  0.6645 -0.4169
 8117SOL    HW235811   2.256   4.218   4.880  1.1232  2.3956  0.2728
 8118SOL     OW35812   1.776   1.234   5.648 -0.0992 -0.0794  0.4436
 8118SOL    HW135813   1.788   1.178   5.571  0.5456 -0.0609  0.5289
 8118SOL    HW235814   1.732   1.177   5.711 -1.2972  0.1301 -0.2174
 8119SOL     OW35815   2.014   2.777  12.269  0.8190 -0.0322 -0.0683
 8119SOL    HW135816   1.967   2.831  12.332  1.9162 -1.2609  1.8143
 8119SOL    HW235817   2.082   2.840  12.246 -1.2281  1.0481 -3.1532
 8120SOL     OW35818   1.200   3.049   7.298 -0.1180  0.6362 -0.1342
 8120SOL    HW135819   1.254   3.128   7.308 -1.5815  1.5485  0.5947
 8120SOL    HW235820   1.128   3.086   7.246 -1.3275  1.0358  1.8012
 8121SOL     OW35821   2.679   3.186   0.440  0.0034  0.3963  0.8039
 8121SOL    HW135822   2.759   3.238   0.450  1.1962 -0.9433 -1.7068
 8121SOL    HW235823   2.669   3.191   0.345  0.5946 -0.0085  0.7158
 8122SOL     OW35824   1.034   0.494   5.267  0.7363  0.0703 -0.6624
 8122SOL    HW135825   0.950   0.491   5.313  0.9217  0.4431 -0.2988
 8122SOL    HW235826   1.049   0.589   5.264 -0.6028  0.2716 -1.1691
 8123SOL     OW35827   1.990   1.845   2.558  0.0872 -0.6077  0.2589
 8123SOL    HW135828   1.928   1.902   2.513 -0.4686 -2.1327 -0.8790
 8123SOL    HW235829   2.075   1.881   2.533 -0.7873  0.6420 -0.9165
 8124SOL     OW35830   3.621   1.768   8.193 -0.2789 -0.2865  0.4457
 8124SOL    HW135831   3.549   1.775   8.255  0.8461  0.0348  1.7213
 8124SOL    HW235832   3.602   1.686   8.147 -1.4521  0.1435  0.1581
 8125SOL     OW35833   4.586   3.617  10.725  0.4122  0.0772  0.1799
 8125SOL    HW135834   4.647   3.552  10.690  1.2074  0.3362  1.0766
 8125SOL    HW235835   4.562   3.660  10.643  2.6937  4.0273  1.5780
 8126SOL     OW35836   0.141   2.779  11.030  0.6178 -0.2335  0.8128
 8126SOL    HW135837   0.106   2.841  10.966 -0.5773 -0.4364  1.2645
 8126SOL    HW235838   0.231   2.769  11.001 -0.2127  0.7654 -2.0619
 8127SOL     OW35839   0.474   2.048   9.213  0.0464 -0.0877 -0.0916
 8127SOL    HW135840   0.422   2.081   9.140  1.2027  0.7315 -0.5498
 8127SOL    HW235841   0.458   1.954   9.212 -1.6692  0.2332 -3.5555
 8128SOL     OW35842   1.771   3.645  16.195 -0.5286  0.1896  0.2538
 8128SOL    HW135843   1.734   3.632  16.108 -2.5214 -0.4590  1.1849
 8128SOL    HW235844   1.770   3.555  16.227 -1.7438 -0.1988 -0.8674
 8129SOL     OW35845   0.768   4.444   2.403  0.0225 -0.3717 -0.1806
 8129SOL    HW135846   0.726   4.419   2.320  2.1798  1.1262 -1.7479
 8129SOL    HW235847   0.863   4.437   2.391  0.0491  0.2980 -0.3207
 8130SOL     OW35848   2.496   1.995   8.294 -0.4528  0.2647 -0.5587
 8130SOL    HW135849   2.467   2.072   8.342 -1.7417 -1.8528  2.0480
 8130SOL    HW235850   2.590   2.013   8.283 -0.2852  0.7784  1.7615
 8131SOL     OW35851   4.441   3.295  13.658 -0.4773 -0.4529  0.5300
 8131SOL    HW135852   4.439   3.318  13.565  1.7340 -0.2459  0.5300
 8131SOL    HW235853   4.512   3.231  13.654 -0.5829 -0.4892 -0.6218
 8132SOL     OW35854   0.653   3.677   5.286 -0.1213  0.4444  0.3874
 8132SOL    HW135855   0.725   3.703   5.343  0.7547 -0.0141 -0.5242
 8132SOL    HW235856   0.626   3.592   5.322 -0.4868  0.0029 -0.9347
 8133SOL     OW35857   2.593   3.670   5.204 -0.1545  0.5982 -0.6347
 8133SOL    HW135858   2.611   3.751   5.155 -0.4217  0.7241 -0.5235
 8133SOL    HW235859   2.514   3.703   5.246  0.1391  2.2817 -1.3872
 8134SOL     OW35860   2.897   4.437   1.713 -0.2530 -0.4505  0.0150
 8134SOL    HW135861   2.803   4.459   1.714  0.3991  2.4129 -0.2988
 8134SOL    HW235862   2.906   4.393   1.628 -1.5885  1.9152 -1.3495
 8135SOL     OW35863   0.269   1.258   6.507  0.8469 -0.5833  0.2473
 8135SOL    HW135864   0.334   1.189   6.492 -0.1317 -1.1163 -1.5161
 8135SOL    HW235865   0.252   1.308   6.427 -0.9517 -1.2062  0.2458
 8136SOL     OW35866   4.227   0.055   6.851  0.3524  0.1240 -0.1704
 8136SOL    HW135867   4.215   0.123   6.918  0.1631  2.0537 -2.1422
 8136SOL    HW235868   4.146   0.060   6.799  1.4829  0.8100 -1.8769
 8137SOL     OW35869   3.625   4.344   8.343 -0.0491  0.3836 -0.8343
 8137SOL    HW135870   3.634   4.359   8.437  0.0791 -3.8088 -0.1518
 8137SOL    HW235871   3.713   4.354   8.306  0.6737  2.3208  1.4529
 8138SOL     OW35872   0.186   2.794   2.364 -0.0434  0.2300 -0.2640
 8138SOL    HW135873   0.091   2.787   2.362 -0.1330  0.7937  2.8973
 8138SOL    HW235874   0.196   2.887   2.347  2.0347  0.3511  1.5914
 8139SOL     OW35875   2.766   1.626   8.767  0.7020  0.0417  0.1006
 8139SOL    HW135876   2.751   1.570   8.691  0.2005  0.2559  0.0403
 8139SOL    HW235877   2.729   1.711   8.742  1.0933 -0.2599 -1.5106
 8140SOL     OW35878   0.214   0.196   8.818 -0.2977  0.3019 -0.0213
 8140SOL    HW135879   0.176   0.282   8.803  0.7874  0.5849 -1.1104
 8140SOL    HW235880   0.195   0.153   8.735 -0.8411 -1.5495  1.0584
 8141SOL     OW35881   1.274   2.980   3.603  0.1124 -0.1862  0.2333
 8141SOL    HW135882   1.273   2.928   3.684 -1.2669 -1.1007 -0.3863
 8141SOL    HW235883   1.180   2.992   3.595  0.1810  0.0595 -0.2063
 8142SOL     OW35884   0.653   3.113   2.588 -0.8155 -0.4768 -0.9354
 8142SOL    HW135885   0.707   3.125   2.509  2.0659 -3.4920  0.5531
 8142SOL    HW235886   0.570   3.087   2.548 -1.4028 -1.2493  0.8151
 8143SOL     OW35887   2.099   2.796   7.216  0.2291 -0.1406 -0.0565
 8143SOL    HW135888   2.142   2.775   7.299 -0.7920 -3.3700 -0.3718
 8143SOL    HW235889   2.057   2.713   7.194 -3.6364  1.7431  0.3535
 8144SOL     OW35890   1.427   3.096   9.084 -0.3028 -0.2575 -0.2946
 8144SOL    HW135891   1.332   3.082   9.092 -0.3120  0.2086  0.4017
 8144SOL    HW235892   1.451   3.006   9.064 -1.0022 -0.2438 -1.2065
 8145SOL     OW35893   2.343   0.373   3.999 -0.1530 -0.4918  0.1051
 8145SOL    HW135894   2.428   0.366   4.041 -0.4411  2.3323  1.0930
 8145SOL    HW235895   2.357   0.403   3.909  2.4066 -1.4393  0.1895
 8146SOL     OW35896   2.053   2.903   4.584  0.4272 -0.1167 -0.2517
 8146SOL    HW135897   2.113   2.873   4.515  1.7892 -0.0915  0.9197
 8146SOL    HW235898   2.123   2.914   4.649  0.6423 -1.5839 -0.2232
 8147SOL     OW35899   2.611   4.095   4.607 -0.2071  0.2609  0.1630
 8147SOL    HW135900   2.529   4.063   4.569  0.7623 -1.8442 -0.1571
 8147SOL    HW235901   2.582   4.161   4.670 -0.1238  2.0186 -1.6277
 8148SOL     OW35902   2.915   2.481   7.727 -0.3121  0.2991  0.5093
 8148SOL    HW135903   2.924   2.574   7.746  0.9277  0.0331  1.2065
 8148SOL    HW235904   2.959   2.440   7.801 -0.2974  0.4471  0.5805
 8149SOL     OW35905   0.060   1.014   7.385 -0.4523 -0.4535 -0.1601
 8149SOL    HW135906   4.721   1.045   7.320  0.4518 -0.0100 -0.8294
 8149SOL    HW235907   0.144   1.019   7.339 -0.7818  4.2860 -0.3007
 8150SOL     OW35908   4.168   2.278  11.606  0.4965  0.5674 -0.0393
 8150SOL    HW135909   4.133   2.191  11.584  4.3624 -0.6379 -1.3011
 8150SOL    HW235910   4.259   2.269  11.579  0.1235 -2.6651 -0.2321
 8151SOL     OW35911   0.375   0.407  16.399  0.8450 -0.3017 -0.0563
 8151SOL    HW135912   0.282   0.409  16.422  1.2322  1.9051  1.3005
 8151SOL    HW235913   0.368   0.434  16.307 -1.5640 -0.1892  0.1676
 8152SOL     OW35914   0.953   4.044  17.691 -0.0831  0.5231  0.3317
 8152SOL    HW135915   1.029   4.050   0.052  0.1754  1.8474 -0.1521
 8152SOL    HW235916   1.003   4.044  17.610 -1.6851 -1.0355 -0.6553
 8153SOL     OW35917   0.751   2.907   1.691  0.1351 -0.3369 -0.4688
 8153SOL    HW135918   0.755   2.956   1.609 -2.1274  0.0289 -0.3508
 8153SOL    HW235919   0.824   2.846   1.685 -0.7974 -1.4581 -0.3316
 8154SOL     OW35920   1.648   3.026   4.060 -0.4157  0.2885  0.4838
 8154SOL    HW135921   1.728   2.977   4.046 -0.3967  0.0905  1.2574
 8154SOL    HW235922   1.629   3.068   3.976  3.2504  0.1327 -0.4002
 8155SOL     OW35923   1.779   3.718   7.036 -0.0202  0.8391 -0.8135
 8155SOL    HW135924   1.782   3.625   7.058  0.7188  1.1286  0.2892
 8155SOL    HW235925   1.684   3.728   7.043  0.0013  1.3147 -1.2377
 8156SOL     OW35926   2.719   3.318   7.476 -0.2918  0.1635  0.3528
 8156SOL    HW135927   2.664   3.384   7.434  0.7835  0.8092 -0.0514
 8156SOL    HW235928   2.691   3.306   7.567  1.1698  1.3046  0.9483
 8157SOL     OW35929   2.950   3.778   5.225  0.2431  0.7669 -0.2005
 8157SOL    HW135930   2.888   3.849   5.211 -0.1002  0.7682  1.3178
 8157SOL    HW235931   2.993   3.767   5.139 -0.6865 -1.0521 -0.4390
 8158SOL     OW35932   0.180   1.787   7.190 -0.5407 -0.2196 -1.1325
 8158SOL    HW135933   0.210   1.878   7.196 -0.6048 -0.1923 -1.2232
 8158SOL    HW235934   0.097   1.789   7.238 -0.4718 -1.9827 -0.9532
 8159SOL     OW35935   0.476   0.956  13.906  0.0643 -0.0717  0.0537
 8159SOL    HW135936   0.490   1.050  13.898 -0.9081 -0.0027 -0.7438
 8159SOL    HW235937   0.470   0.929  13.814  1.1391 -1.8516  0.5046
 8160SOL     OW35938   3.685   4.220  11.853  0.6101  0.1145 -0.0656
 8160SOL    HW135939   3.691   4.125  11.853 -1.5787 -0.0418 -0.4607
 8160SOL    HW235940   3.688   4.241  11.759 -1.4883 -2.4655 -0.7116
 8161SOL     OW35941   4.202   2.169   6.236 -0.4754 -0.0899 -0.0769
 8161SOL    HW135942   4.158   2.196   6.317  2.0205  1.4188  0.7594
 8161SOL    HW235943   4.232   2.082   6.260 -0.5141  0.0393  0.4598
 8162SOL     OW35944   0.720   1.019   5.570  0.1329  0.2428 -0.4105
 8162SOL    HW135945   0.651   1.012   5.504 -0.9931  0.9917  0.6790
 8162SOL    HW235946   0.762   0.935   5.554  0.0470  0.3645 -1.2970
 8163SOL     OW35947   4.329   1.922  12.838  0.2288  0.1025 -0.1009
 8163SOL    HW135948   4.370   1.845  12.799 -2.8955  0.1678 -3.3950
 8163SOL    HW235949   4.269   1.954  12.771 -1.1493 -1.2513  0.4933
 8164SOL     OW35950   2.098   1.220   9.211 -0.1878  0.4774 -0.0161
 8164SOL    HW135951   2.138   1.280   9.147 -0.3919  0.8600  0.2137
 8164SOL    HW235952   2.178   1.186   9.251 -0.0107 -0.1854 -0.9349
 8165SOL     OW35953   1.525   1.322  11.907  0.5682  0.1281  0.2191
 8165SOL    HW135954   1.606   1.362  11.939  0.2063  0.9516  0.1229
 8165SOL    HW235955   1.465   1.397  11.901  0.1033 -0.3963 -1.7454
 8166SOL     OW35956   4.427   2.016  13.097  0.2480 -0.2384 -0.3468
 8166SOL    HW135957   4.474   1.949  13.147 -0.3748 -0.3375  0.1017
 8166SOL    HW235958   4.399   1.966  13.020  0.4637 -0.8849 -0.0069
 8167SOL     OW35959   2.998   1.697   8.914 -0.3774 -0.3860 -0.3955
 8167SOL    HW135960   2.947   1.635   8.862  0.9029 -2.6123  1.0246
 8167SOL    HW235961   3.086   1.695   8.875 -1.2046  1.4267 -2.4066
 8168SOL     OW35962   3.427   1.407   8.318  0.3652 -0.1215  0.4245
 8168SOL    HW135963   3.479   1.442   8.389  0.1529 -1.4147  1.2286
 8168SOL    HW235964   3.348   1.461   8.323  1.0430  0.9368 -0.4458
 8169SOL     OW35965   1.412   2.812   9.055  0.1076 -0.2849  0.2952
 8169SOL    HW135966   1.359   2.761   9.116 -0.6427  1.6518  1.2588
 8169SOL    HW235967   1.473   2.740   9.039  1.1844  0.2388  1.9644
 8170SOL     OW35968   0.756   3.758   2.134  0.8636  0.5203  0.1404
 8170SOL    HW135969   0.800   3.806   2.204 -0.1135  2.7146 -0.7345
 8170SOL    HW235970   0.704   3.830   2.099  0.0234  0.1137  0.5495
 8171SOL     OW35971   1.131   2.838   5.182 -0.2570 -0.0256 -0.5448
 8171SOL    HW135972   1.156   2.755   5.222 -2.8675 -0.9633 -0.8162
 8171SOL    HW235973   1.035   2.840   5.188 -0.2695  4.0738 -1.9028
 8172SOL     OW35974   2.525   1.999   6.873 -0.0528  0.0279  0.5217
 8172SOL    HW135975   2.438   2.038   6.869  0.3157  0.9554  1.5155
 8172SOL    HW235976   2.579   2.069   6.910  1.3776 -0.3283 -0.8939
 8173SOL     OW35977   1.388   1.896   4.778  0.1040 -0.6058  0.1523
 8173SOL    HW135978   1.396   1.929   4.689  0.2151 -2.6806 -0.6147
 8173SOL    HW235979   1.430   1.964   4.831 -0.3691  0.9951 -1.5146
 8174SOL     OW35980   0.994   1.703   9.036  0.2474  0.1521  0.0396
 8174SOL    HW135981   1.035   1.743   9.113 -0.3918  0.7272  0.0797
 8174SOL    HW235982   0.910   1.694   9.081 -0.8250  2.6658 -1.4569
 8175SOL     OW35983   3.976   1.710  12.401  0.5057  0.4075 -0.5774
 8175SOL    HW135984   4.056   1.758  12.379  2.4265 -2.6766 -0.2732
 8175SOL    HW235985   3.923   1.717  12.322  1.9318  1.4034 -1.4406
 8176SOL     OW35986   1.673   3.854   6.345 -0.5489  0.6613 -0.0349
 8176SOL    HW135987   1.669   3.899   6.261 -0.6362  2.5373  0.9959
 8176SOL    HW235988   1.626   3.775   6.318 -1.3055  2.1113 -2.9164
 8177SOL     OW35989   2.864   4.482  11.469  0.1382 -0.3391 -0.4218
 8177SOL    HW135990   2.880   4.576  11.483  0.4220 -0.4981  0.3181
 8177SOL    HW235991   2.912   4.439  11.540 -1.3572 -3.3746 -1.2648
 8178SOL     OW35992   2.969   0.221   2.303  0.1574 -0.2524  0.1835
 8178SOL    HW135993   2.965   0.144   2.360 -0.3190  0.3925  1.0169
 8178SOL    HW235994   2.978   0.289   2.370  1.1956  0.4275 -0.6463
 8179SOL     OW35995   0.012   4.505   6.813 -0.6787 -0.5103 -0.2773
 8179SOL    HW135996   4.689   4.557   6.747  0.5625 -0.5771 -1.2139
 8179SOL    HW235997   0.046   4.574   6.870 -2.7293  0.0286  0.2788
 8180SOL     OW35998   1.099   1.154  17.532 -0.4160 -0.1341  0.1725
 8180SOL    HW135999   1.088   1.096  17.607  1.0151  0.9202  1.1808
 8180SOL    HW236000   1.008   1.145  17.504 -0.5067  0.6370  0.2350
 8181SOL     OW36001   1.861   0.130  16.240  0.1503  0.3779 -0.0614
 8181SOL    HW136002   1.907   0.142  16.157  0.9788 -1.0762  0.1843
 8181SOL    HW236003   1.937   0.130  16.298  2.3303 -1.0086 -2.9165
 8182SOL     OW36004   3.128   2.739   2.772  0.5865  0.2991  0.1598
 8182SOL    HW136005   3.070   2.747   2.696  0.4446 -0.6546  0.1628
 8182SOL    HW236006   3.201   2.799   2.754  0.0320  0.4674 -1.5904
 8183SOL     OW36007   4.000   1.696   3.987 -0.4677  0.1434  0.2430
 8183SOL    HW136008   4.026   1.751   3.913 -1.7578 -0.3651 -0.5815
 8183SOL    HW236009   3.973   1.617   3.940  1.2045  1.7200 -3.3913
 8184SOL     OW36010   0.743   3.511   3.655  0.3989 -0.0219 -0.3451
 8184SOL    HW136011   0.700   3.530   3.739 -0.3801 -3.1652 -0.0297
 8184SOL    HW236012   0.679   3.458   3.608 -0.3935  0.9588 -0.3670
 8185SOL     OW36013   1.878   3.237   3.777  0.3623 -0.0378 -0.4881
 8185SOL    HW136014   1.937   3.291   3.830  1.4157 -1.0468 -0.6371
 8185SOL    HW236015   1.933   3.179   3.724 -0.6591 -1.9525  0.5742
 8186SOL     OW36016   3.349   4.264   9.599 -0.0281  0.2751  0.1171
 8186SOL    HW136017   3.275   4.237   9.654  1.1245 -0.2340  1.4287
 8186SOL    HW236018   3.405   4.291   9.672 -0.3971  1.4050 -0.0269
 8187SOL     OW36019   0.953   2.525  16.055 -0.9212 -0.1320  0.7260
 8187SOL    HW136020   0.970   2.443  16.008 -1.0828 -0.4255  1.1725
 8187SOL    HW236021   0.859   2.510  16.065 -0.4319 -4.1726 -0.6609
 8188SOL     OW36022   0.746   0.213   8.419  0.0907 -0.5932 -0.4433
 8188SOL    HW136023   0.740   0.301   8.455  3.7571 -0.0217 -1.2314
 8188SOL    HW236024   0.661   0.205   8.375 -0.8713 -0.4648  1.3755
 8189SOL     OW36025   2.551   2.326   6.815 -0.7058  0.0069 -0.1286
 8189SOL    HW136026   2.599   2.343   6.897 -1.1602 -2.2087  0.5902
 8189SOL    HW236027   2.463   2.305   6.845 -0.7467 -0.4113 -0.5459
 8190SOL     OW36028   4.276   1.085  11.319  0.4049  0.4410  0.4767
 8190SOL    HW136029   4.182   1.082  11.299  0.2500 -2.6636  1.6601
 8190SOL    HW236030   4.283   1.152  11.387  1.1157  0.5948  0.2548
 8191SOL     OW36031   3.305   3.187   0.839  0.3666 -0.1834 -0.6219
 8191SOL    HW136032   3.269   3.208   0.926 -0.4102  1.3386 -1.3117
 8191SOL    HW236033   3.233   3.149   0.789  2.1573 -2.4151 -1.4577
 8192SOL     OW36034   4.484   0.306   8.274 -0.1976  0.2057 -0.1228
 8192SOL    HW136035   4.559   0.322   8.218  1.0707 -0.9927  1.2149
 8192SOL    HW236036   4.440   0.230   8.235 -0.1060  0.3717 -0.5403
 8193SOL     OW36037   1.551   3.990   2.719 -0.0263 -0.1061 -0.4893
 8193SOL    HW136038   1.631   4.010   2.768  0.1345 -2.2346  0.1546
 8193SOL    HW236039   1.492   4.011   2.792 -0.9121 -2.2757 -0.5851
 8194SOL     OW36040   2.501   3.664   7.599 -0.2372  0.3713 -0.2952
 8194SOL    HW136041   2.489   3.592   7.661 -0.5200  0.7629  0.1082
 8194SOL    HW236042   2.467   3.737   7.652 -1.5891  0.3086 -1.0927
 8195SOL     OW36043   3.179   4.685   7.277  0.3032 -0.1261 -0.6447
 8195SOL    HW136044   3.171   4.643   7.191 -0.5527 -1.9877  0.3421
 8195SOL    HW236045   3.135   4.620   7.332  1.3139  0.3728  0.7615
 8196SOL     OW36046   2.037   0.293  12.516 -0.2620 -0.5220 -0.2124
 8196SOL    HW136047   2.023   0.221  12.577  0.5621  1.3880  2.2313
 8196SOL    HW236048   1.945   0.301  12.493 -0.0466 -1.4395 -1.3993
 8197SOL     OW36049   2.885   2.975   7.929  0.0354  0.1172 -0.0741
 8197SOL    HW136050   2.968   2.930   7.944 -0.0848 -0.1654 -0.2569
 8197SOL    HW236051   2.829   2.942   7.999  0.0017  2.0027  0.7805
 8198SOL     OW36052   4.600   2.714   4.995  0.2893  0.5101 -0.2006
 8198SOL    HW136053   4.523   2.761   5.027  0.9614 -0.1457  2.3944
 8198SOL    HW236054   4.654   2.785   4.960 -1.1278  0.5845 -2.2236
 8199SOL     OW36055   0.386   3.121   1.437  0.2391 -0.4675 -0.0632
 8199SOL    HW136056   0.475   3.096   1.412  0.7175  0.4701  0.6589
 8199SOL    HW236057   0.387   3.215   1.417  0.5195  0.0359  2.2645
 8200SOL     OW36058   2.606   4.377   1.335  0.2257 -0.5048  0.4200
 8200SOL    HW136059   2.674   4.444   1.339 -0.3852  0.0084  2.1879
 8200SOL    HW236060   2.652   4.296   1.356  0.6869 -0.4046 -0.2089
 8201SOL     OW36061   1.901   4.485  14.895  1.0318 -0.1422 -0.3594
 8201SOL    HW136062   1.866   4.509  14.809  1.1636  0.9414 -0.1075
 8201SOL    HW236063   1.931   4.398  14.870  1.8444 -0.4101  1.5723
 8202SOL     OW36064   4.581   0.055  15.355  0.0126 -0.5372 -0.0737
 8202SOL    HW136065   4.641   0.098  15.416  1.9137 -3.4514  0.1051
 8202SOL    HW236066   4.637   0.022  15.284 -0.8039 -3.5139  0.6985
 8203SOL     OW36067   1.066   0.189  16.779  0.5284 -0.0257 -0.2134
 8203SOL    HW136068   1.024   0.213  16.696  2.8645  1.7201 -0.8915
 8203SOL    HW236069   1.015   0.240  16.842 -0.7784 -0.8218 -0.6275
 8204SOL     OW36070   1.621   0.971   5.381  0.2791  0.1330 -0.2293
 8204SOL    HW136071   1.575   1.054   5.365  0.8055  0.0129 -2.3237
 8204SOL    HW236072   1.562   0.910   5.336  1.0715 -0.4620 -0.4633
 8205SOL     OW36073   2.102   1.730   9.087 -0.4364 -0.0261  0.3540
 8205SOL    HW136074   2.151   1.668   9.141 -0.9862 -2.3374 -1.8116
 8205SOL    HW236075   2.154   1.727   9.007  0.2963 -0.8156  0.8585
 8206SOL     OW36076   3.479   2.719   8.256  0.0224 -0.0717 -0.7561
 8206SOL    HW136077   3.480   2.684   8.345  1.3872 -0.9976 -1.1500
 8206SOL    HW236078   3.570   2.747   8.249 -0.3854  0.9963 -1.8636
 8207SOL     OW36079   0.513   1.212   2.675  0.1899 -0.2296 -0.5818
 8207SOL    HW136080   0.544   1.132   2.633  0.0290  0.1721 -1.4499
 8207SOL    HW236081   0.468   1.259   2.606 -1.2373 -2.0091 -0.8679
 8208SOL     OW36082   0.498   2.894   1.683 -0.0052 -0.3385  0.2291
 8208SOL    HW136083   0.593   2.892   1.695  0.3484 -1.9434 -2.9655
 8208SOL    HW236084   0.474   2.967   1.741  0.7845  1.0631 -1.2108
 8209SOL     OW36085   3.057   3.149   4.341 -0.2586  0.2573  0.3647
 8209SOL    HW136086   3.066   3.168   4.248 -0.6481  2.4119  0.7543
 8209SOL    HW236087   3.014   3.064   4.339 -1.0094  0.5892  2.5754
 8210SOL     OW36088   2.034   1.974   5.294 -0.3663 -0.2725  0.1291
 8210SOL    HW136089   2.001   1.965   5.383  0.0349 -1.1187  0.1901
 8210SOL    HW236090   1.960   2.015   5.248 -0.9099 -3.7315 -2.0525
 8211SOL     OW36091   2.924   1.998  16.474 -0.4183 -0.1729  0.2730
 8211SOL    HW136092   2.946   2.047  16.553  0.3462 -1.9769  1.1847
 8211SOL    HW236093   2.940   1.908  16.501 -1.1458 -0.0426  1.1473
 8212SOL     OW36094   0.526   4.436   7.221  0.3362 -0.3637  0.4894
 8212SOL    HW136095   0.528   4.503   7.289 -0.7047 -0.7111  0.8523
 8212SOL    HW236096   0.619   4.420   7.205  0.5338  0.4340  0.8344
 8213SOL     OW36097   1.283   2.221   0.829 -0.0600  0.6199 -0.8065
 8213SOL    HW136098   1.237   2.297   0.867 -0.0936  0.0126  0.3479
 8213SOL    HW236099   1.267   2.154   0.895  0.1244  0.5189 -0.8648
 8214SOL     OW36100   0.323   3.564  14.643 -0.5406 -0.2092 -0.1492
 8214SOL    HW136101   0.355   3.606  14.723  1.6467  0.6461 -1.4634
 8214SOL    HW236102   0.369   3.618  14.579  2.1712  0.9614  2.7465
 8215SOL     OW36103   0.662   4.683   8.825 -0.5306 -0.3541  0.3787
 8215SOL    HW136104   0.680   4.678   8.919 -2.3182 -0.0661  0.7304
 8215SOL    HW236105   0.573   4.650   8.814 -1.4460  1.1189  3.2487
 8216SOL     OW36106   4.233   4.525  11.616  0.2319  0.6774 -0.3881
 8216SOL    HW136107   4.137   4.524  11.617  0.2093 -0.8762 -2.5137
 8216SOL    HW236108   4.257   4.597  11.557 -2.3807  0.8808 -1.2164
 8217SOL     OW36109   2.335   2.046   0.270  0.2048 -0.0063 -0.6943
 8217SOL    HW136110   2.260   2.077   0.320  0.5606 -0.8669  0.3913
 8217SOL    HW236111   2.386   2.121   0.301 -1.1775  0.4655  0.4028
 8218SOL     OW36112   0.998   0.973   6.566  0.3044 -0.5066 -0.2229
 8218SOL    HW136113   1.091   0.979   6.545  0.5808 -0.4616  1.0321
 8218SOL    HW236114   0.987   1.045   6.629 -1.9603 -1.2428  0.2429
 8219SOL     OW36115   2.719   4.681   9.454 -0.2504 -0.0988  0.7762
 8219SOL    HW136116   2.813   4.681   9.472 -0.3371  0.9839  1.1896
 8219SOL    HW236117   2.691   0.041   9.489  1.1039  1.7008 -2.3916
 8220SOL     OW36118   3.794   1.126   4.745  0.3988  0.2418 -0.5322
 8220SOL    HW136119   3.746   1.208   4.755 -0.3548  0.4317 -5.3034
 8220SOL    HW236120   3.744   1.068   4.802 -1.8159  1.0049 -1.7293
 8221SOL     OW36121   0.884   2.368   0.848  0.2305 -0.4371  0.3142
 8221SOL    HW136122   0.932   2.351   0.767  0.0076  1.0947 -0.1354
 8221SOL    HW236123   0.803   2.318   0.837  0.1498 -0.2167 -0.0972
 8222SOL     OW36124   4.673   1.516   7.114 -0.0496 -0.0911 -0.1205
 8222SOL    HW136125   4.620   1.578   7.063  1.4390  0.1161 -1.4489
 8222SOL    HW236126   4.604   1.491   7.174  1.0020  1.1137  1.5896
 8223SOL     OW36127   2.547   3.688  12.593 -0.3295  0.0847 -0.6387
 8223SOL    HW136128   2.495   3.611  12.573  0.2794 -1.1830  2.5777
 8223SOL    HW236129   2.479   3.748  12.625  1.4414  0.6313  2.1595
 8224SOL     OW36130   0.477   3.561   7.306  0.0469 -0.0354 -0.0752
 8224SOL    HW136131   0.468   3.525   7.394 -0.2858  0.3465  0.0430
 8224SOL    HW236132   0.390   3.569   7.268 -1.1512  1.8631  3.0991
 8225SOL     OW36133   0.788   4.363   9.197  0.6529 -0.2330  0.0951
 8225SOL    HW136134   0.715   4.335   9.252  0.2799 -0.9850 -0.7892
 8225SOL    HW236135   0.754   4.434   9.142  1.7448 -0.1850 -0.5132
 8226SOL     OW36136   0.278   3.636   3.671 -0.3562 -0.1783 -0.0915
 8226SOL    HW136137   0.281   3.614   3.764  0.4158 -0.1190 -0.1021
 8226SOL    HW236138   0.188   3.614   3.645 -0.3763  0.9348 -0.9856
 8227SOL     OW36139   1.673   0.517  17.568  0.2973 -0.5924  0.0420
 8227SOL    HW136140   1.691   0.559  17.484 -1.5271 -0.3687 -0.2388
 8227SOL    HW236141   1.593   0.466  17.558 -0.2040  0.9132 -3.7621
 8228SOL     OW36142   0.278   2.474   9.917  0.0374 -0.4902  0.0167
 8228SOL    HW136143   0.189   2.438   9.927 -0.0505  0.7251  3.8416
 8228SOL    HW236144   0.293   2.467   9.823  3.5957 -1.7191  0.6616
 8229SOL     OW36145   1.039   0.375   5.542  0.1439 -0.2502  0.3198
 8229SOL    HW136146   1.062   0.425   5.464 -1.2978  1.7070  1.1198
 8229SOL    HW236147   1.127   0.354   5.572  0.1440  0.6259  0.9559
 8230SOL     OW36148   0.316   1.549   3.228 -0.0303  0.1587 -0.3064
 8230SOL    HW136149   0.294   1.457   3.243  1.3204  0.1125  1.4053
 8230SOL    HW236150   0.258   1.601   3.283  0.0692 -1.4314  1.2792
 8231SOL     OW36151   1.357   0.220   8.486  0.0198 -0.1820 -0.3065
 8231SOL    HW136152   1.316   0.136   8.508 -0.5908  0.1211 -0.2792
 8231SOL    HW236153   1.362   0.209   8.391 -1.0465  0.8197 -0.4778
 8232SOL     OW36154   4.323   3.961  17.386  0.6629  0.3945  0.4319
 8232SOL    HW136155   4.312   4.012  17.466  1.0954  0.4177  0.4748
 8232SOL    HW236156   4.358   4.033  17.334 -1.2676  0.5227 -0.7133
 8233SOL     OW36157   1.967   2.861   9.264 -0.3491 -0.3152  0.0652
 8233SOL    HW136158   1.964   2.913   9.345 -0.3544  1.5196 -1.1302
 8233SOL    HW236159   2.061   2.874   9.248 -0.8006  0.8298 -1.6484
 8234SOL     OW36160   2.554   1.789   3.590  0.8960  0.4862 -0.0327
 8234SOL    HW136161   2.591   1.737   3.662  1.1755 -1.7852 -1.7987
 8234SOL    HW236162   2.552   1.870   3.641 -0.0803  0.2189  0.3542
 8235SOL     OW36163   4.647   1.478   3.286 -0.8640  0.4582 -0.5768
 8235SOL    HW136164   4.656   1.436   3.200  2.6440  1.4871 -0.6891
 8235SOL    HW236165   4.697   1.556   3.261  0.2171 -0.6929 -1.9994
 8236SOL     OW36166   0.163   0.362   7.681  0.3450 -0.1178  0.5144
 8236SOL    HW136167   0.112   0.425   7.630 -0.7784 -1.0384  0.4932
 8236SOL    HW236168   0.091   0.315   7.722  0.4425 -1.5128 -0.9249
 8237SOL     OW36169   1.556   2.602  16.807 -1.0746  0.1425 -0.3885
 8237SOL    HW136170   1.536   2.587  16.899 -1.3374  1.4342 -0.2461
 8237SOL    HW236171   1.482   2.660  16.792 -0.4678  1.3102  1.2848
 8238SOL     OW36172   1.916   4.124   6.140 -0.2248  0.0755 -0.3921
 8238SOL    HW136173   2.009   4.102   6.132  0.4076  2.2306  1.2096
 8238SOL    HW236174   1.896   4.152   6.051 -1.8733  0.5044  0.1162
 8239SOL     OW36175   4.315   1.358   4.781  0.0889 -0.2918  0.1405
 8239SOL    HW136176   4.258   1.282   4.770  0.1592  0.1283 -3.0819
 8239SOL    HW236177   4.332   1.382   4.690 -1.8739 -0.2568 -0.2063
 8240SOL     OW36178   1.321   2.393   8.537  0.1919  0.3428  0.9486
 8240SOL    HW136179   1.227   2.404   8.548 -0.3883 -2.8220 -0.6568
 8240SOL    HW236180   1.333   2.321   8.599  0.3516  0.1778  0.7290
 8241SOL     OW36181   3.348   3.519   7.903 -0.2991  0.2263 -0.1331
 8241SOL    HW136182   3.312   3.532   7.815 -0.6401 -2.7329 -0.4191
 8241SOL    HW236183   3.440   3.507   7.879 -0.6501 -3.0616  0.2840
 8242SOL     OW36184   2.248   2.994   7.077  0.4470  0.0792 -0.0156
 8242SOL    HW136185   2.193   3.070   7.095  0.0600 -0.0628 -0.5933
 8242SOL    HW236186   2.199   2.923   7.117 -3.1775  0.5874 -3.5764
 8243SOL     OW36187   0.187   3.019  10.911  0.2059 -1.7243  0.0214
 8243SOL    HW136188   0.120   3.026  10.842  1.9543  0.3720 -1.4566
 8243SOL    HW236189   0.163   3.084  10.976 -0.0965 -1.0257 -0.7844
 8244SOL     OW36190   4.026   1.776  13.053 -0.0313 -0.3428 -0.6241
 8244SOL    HW136191   4.092   1.711  13.079  0.3254  0.2549 -0.0376
 8244SOL    HW236192   4.002   1.745  12.966 -0.8652 -2.8159  0.4717
 8245SOL     OW36193   4.422   2.192  11.585 -0.6648 -0.5879  0.4420
 8245SOL    HW136194   4.436   2.099  11.597  0.1741 -0.6282 -0.8796
 8245SOL    HW236195   4.481   2.220  11.515 -0.6823 -0.4576  0.4796
 8246SOL     OW36196   1.235   1.040   1.954  0.2136 -0.3932 -0.3728
 8246SOL    HW136197   1.310   0.990   1.922 -0.3520 -1.2144 -0.4247
 8246SOL    HW236198   1.271   1.123   1.987  1.8540 -2.1792  2.3663
 8247SOL     OW36199   1.575   1.052   2.134 -0.0129 -0.1828 -0.0050
 8247SOL    HW136200   1.630   1.000   2.076  1.4453  0.3341  0.9267
 8247SOL    HW236201   1.617   1.071   2.218 -1.3179 -0.5335  0.7289
 8248SOL     OW36202   4.404   3.087   2.560 -0.1618  0.6071 -0.5910
 8248SOL    HW136203   4.346   3.104   2.487 -1.7226 -0.4204  0.4132
 8248SOL    HW236204   4.372   3.005   2.598  1.5654 -0.0717 -0.5739
 8249SOL     OW36205   0.422   0.732  16.235  0.1746 -0.3781 -0.4239
 8249SOL    HW136206   0.419   0.730  16.331  0.7660 -1.9653 -0.4358
 8249SOL    HW236207   0.332   0.706  16.217  0.6702 -2.2795 -0.1183
 8250SOL     OW36208   2.660   0.763   6.838  0.5639 -0.2300 -0.3312
 8250SOL    HW136209   2.565   0.762   6.823 -0.1944  0.0024  4.2254
 8250SOL    HW236210   2.676   0.672   6.860  0.7150 -0.5836 -1.9545
 8251SOL     OW36211   0.744   0.592   2.740  0.0771 -0.5630  0.9464
 8251SOL    HW136212   0.793   0.579   2.822 -0.9352  2.0426  1.9541
 8251SOL    HW236213   0.658   0.595   2.782 -0.6535 -2.8374 -0.4066
 8252SOL     OW36214   4.242   2.526   7.972  0.1222 -0.4240 -0.2274
 8252SOL    HW136215   4.210   2.616   7.984  0.3977 -0.0691 -2.1313
 8252SOL    HW236216   4.191   2.503   7.894 -0.9964  2.5464 -0.3936
 8253SOL     OW36217   1.613   1.912   6.785  0.3020 -0.1440 -0.7962
 8253SOL    HW136218   1.705   1.912   6.811  0.5077  0.4012 -1.5115
 8253SOL    HW236219   1.575   1.959   6.859  0.5732 -0.4514 -0.4646
 8254SOL     OW36220   3.447   0.863  13.809  0.4996 -0.5194  0.5325
 8254SOL    HW136221   3.363   0.908  13.825  0.9496  0.0412  1.3336
 8254SOL    HW236222   3.449   0.872  13.714  1.2126 -1.3864  0.4663
 8255SOL     OW36223   1.774   2.624   2.740  0.1782 -0.7940 -0.2083
 8255SOL    HW136224   1.695   2.659   2.781  0.1771  0.8123 -1.6050
 8255SOL    HW236225   1.817   2.703   2.709 -0.5695 -0.5754 -0.6974
 8256SOL     OW36226   3.184   0.813   3.648  0.1807  0.1381 -0.3800
 8256SOL    HW136227   3.204   0.727   3.610 -2.5175 -1.0659  0.9768
 8256SOL    HW236228   3.107   0.832   3.595 -0.2974 -0.2731  0.1810
 8257SOL     OW36229   4.077   3.954   1.632 -0.0147 -0.8470 -0.4821
 8257SOL    HW136230   4.056   4.006   1.554 -1.6508  1.4012  1.4449
 8257SOL    HW236231   4.115   3.876   1.592  2.2081  0.5865 -1.1074
 8258SOL     OW36232   1.217   4.455  16.008  0.2960 -0.4438 -0.1972
 8258SOL    HW136233   1.158   4.496  16.071  1.8470  1.7499 -0.1627
 8258SOL    HW236234   1.272   4.530  15.989 -1.8946  1.3044  0.4127
 8259SOL     OW36235   1.112   0.644   6.770  0.1586  0.3105  0.3246
 8259SOL    HW136236   1.040   0.636   6.707  0.3700 -0.0391  0.1281
 8259SOL    HW236237   1.054   0.689   6.832 -1.1165 -1.2651  0.2927
 8260SOL     OW36238   4.620   2.912   6.120  0.1987 -0.7386  0.5404
 8260SOL    HW136239   4.528   2.893   6.133 -0.2669  1.3551  0.2321
 8260SOL    HW236240   4.659   2.853   6.185 -2.3525 -2.8217  0.1957
 8261SOL     OW36241   0.958   1.492   5.376  0.1695 -0.1357  0.3620
 8261SOL    HW136242   0.902   1.482   5.299  2.8750 -1.5235 -1.4398
 8261SOL    HW236243   0.930   1.413   5.421 -0.2878  0.7196  1.5780
 8262SOL     OW36244   0.536   2.523   7.185 -0.0663 -0.0763 -0.5902
 8262SOL    HW136245   0.630   2.512   7.192  0.1304  1.7445 -0.2134
 8262SOL    HW236246   0.511   2.435   7.213 -1.7651  0.7625  0.5633
 8263SOL     OW36247   3.692   2.534   3.389 -0.0245 -0.5970 -0.6247
 8263SOL    HW136248   3.761   2.600   3.384 -1.8627  1.2244 -1.3947
 8263SOL    HW236249   3.660   2.512   3.301 -0.6454  0.1539 -0.5763
 8264SOL     OW36250   1.984   3.034   1.803  0.2341 -0.3334 -0.2710
 8264SOL    HW136251   1.923   3.103   1.828  0.4714 -0.2019 -0.0456
 8264SOL    HW236252   2.019   3.077   1.725 -0.8130 -1.8141 -1.5510
 8265SOL     OW36253   1.546   1.459  13.760 -0.9429 -0.0072 -0.9740
 8265SOL    HW136254   1.589   1.541  13.786 -1.9064  0.0824  0.3365
 8265SOL    HW236255   1.489   1.445  13.836  2.8308 -2.2940  1.4567
 8266SOL     OW36256   2.405   1.051   7.691  0.0647  0.1292 -0.0295
 8266SOL    HW136257   2.377   1.009   7.610  0.0470  0.8072 -0.3676
 8266SOL    HW236258   2.438   1.133   7.654 -0.9236  0.3816 -0.3369
 8267SOL     OW36259   4.035   1.536   8.112  0.2735 -0.0517  0.5089
 8267SOL    HW136260   4.095   1.500   8.178  0.7940  0.0285  0.0794
 8267SOL    HW236261   4.074   1.494   8.035 -0.9358  1.8422 -1.1374
 8268SOL     OW36262   3.083   4.437   4.107 -0.1838 -0.2872  0.3044
 8268SOL    HW136263   3.168   4.395   4.094 -1.4170 -2.6584 -0.0229
 8268SOL    HW236264   3.021   4.377   4.066 -0.1204 -0.0478 -0.1412
 8269SOL     OW36265   1.340   2.586   9.186  0.2425  0.1417  0.0702
 8269SOL    HW136266   1.273   2.563   9.251 -0.1939  1.5331  0.1144
 8269SOL    HW236267   1.374   2.496   9.184 -2.6698 -0.9952  0.4225
 8270SOL     OW36268   0.232   2.415  11.343 -0.4231  0.2539  0.0103
 8270SOL    HW136269   0.142   2.421  11.310 -0.4376  4.3027  0.7363
 8270SOL    HW236270   0.275   2.419  11.258 -1.9153  0.4384 -0.7356
 8271SOL     OW36271   0.662   0.675   6.014  0.8051  0.1911  0.3446
 8271SOL    HW136272   0.752   0.683   5.982  0.0754  0.0682 -1.7434
 8271SOL    HW236273   0.668   0.590   6.058  0.6681  0.1699  0.3221
 8272SOL     OW36274   3.015   4.507   7.513  0.0157  0.5733 -0.4745
 8272SOL    HW136275   3.055   4.580   7.561  1.6105 -0.5892 -0.0114
 8272SOL    HW236276   2.931   4.545   7.487 -1.4120 -0.6468  2.3435
 8273SOL     OW36277   0.889   2.107   4.960  0.6135  0.1576  0.1361
 8273SOL    HW136278   0.978   2.111   4.924  0.4876 -1.4542 -0.3575
 8273SOL    HW236279   0.837   2.046   4.907  1.6552  0.6971 -1.4901
 8274SOL     OW36280   2.928   4.254   8.335  0.3346 -0.1376  0.1752
 8274SOL    HW136281   2.995   4.258   8.404 -1.2500 -1.9331  1.8136
 8274SOL    HW236282   2.903   4.162   8.344  1.2468 -0.5089 -1.2004
 8275SOL     OW36283   3.028   2.366  16.479  0.1122  0.1240  0.2329
 8275SOL    HW136284   2.975   2.297  16.440  0.3354 -0.2683  0.6260
 8275SOL    HW236285   3.016   2.438  16.418 -0.4031 -1.2355 -1.2663
 8276SOL     OW36286   3.325   0.781   2.579  0.3700 -0.5465 -0.6455
 8276SOL    HW136287   3.409   0.753   2.616 -0.5670 -0.2645  1.6541
 8276SOL    HW236288   3.346   0.759   2.488  4.4193 -0.7054  0.3136
 8277SOL     OW36289   2.201   0.064   3.784  0.6445 -0.1013 -0.3823
 8277SOL    HW136290   2.146   4.712   3.763  0.6146 -0.2695  0.2992
 8277SOL    HW236291   2.239   0.042   3.869 -0.2433  1.4194  0.4120
 8278SOL     OW36292   1.040   3.971   3.773 -0.1996  0.3743  0.6313
 8278SOL    HW136293   1.109   3.909   3.749  0.1446  1.4446 -1.1468
 8278SOL    HW236294   1.026   3.942   3.863 -2.3876 -0.0042  0.1671
 8279SOL     OW36295   0.998   0.699   7.334 -0.0841 -0.6567 -0.0923
 8279SOL    HW136296   1.013   0.776   7.279 -0.6666 -0.1250  0.4903
 8279SOL    HW236297   1.062   0.712   7.404 -0.0945  1.0874 -0.4188
 8280SOL     OW36298   4.295   0.590   4.284  0.0698 -0.3471 -0.3097
 8280SOL    HW136299   4.269   0.620   4.371  2.8064 -1.2166  0.8182
 8280SOL    HW236300   4.384   0.626   4.287 -0.7709  1.5382  1.8062
 8281SOL     OW36301   2.725   2.058   4.973 -0.6548  0.8759 -0.2684
 8281SOL    HW136302   2.762   2.088   5.055 -1.2283 -1.4639  0.8602
 8281SOL    HW236303   2.667   1.993   5.013  1.1011 -0.0601  0.7747
 8282SOL     OW36304   4.219   3.046   6.689  0.7101  0.3634  0.5136
 8282SOL    HW136305   4.130   3.052   6.725  1.0485  1.3361  1.1918
 8282SOL    HW236306   4.246   2.972   6.743  1.5485  1.8007  2.0452
 8283SOL     OW36307   0.235   4.279   3.201 -0.9493 -0.2621  0.1854
 8283SOL    HW136308   0.148   4.306   3.232 -0.3284  1.1491  0.7507
 8283SOL    HW236309   0.245   4.204   3.260 -1.4596 -0.4598  0.0197
 8284SOL     OW36310   4.709   3.098   3.062  0.1788  0.2995 -0.2326
 8284SOL    HW136311   0.033   3.020   3.034  3.2345  1.6673  1.1151
 8284SOL    HW236312   0.024   3.119   3.147 -0.3553 -3.9633  1.0171
 8285SOL     OW36313   1.649   0.901   8.072  0.6075 -0.3815  0.8653
 8285SOL    HW136314   1.565   0.880   8.114  0.6755 -0.6077  0.8910
 8285SOL    HW236315   1.619   0.892   7.982  2.5544 -0.3220  0.2286
 8286SOL     OW36316   3.240   2.102   9.233 -0.4221 -0.3995  0.2585
 8286SOL    HW136317   3.170   2.094   9.168 -1.5658  0.9329  1.3255
 8286SOL    HW236318   3.309   2.066   9.178  0.2786 -0.1144  0.9529
 8287SOL     OW36319   2.017   3.989   3.294 -0.6942  0.5075 -0.1514
 8287SOL    HW136320   2.106   4.023   3.307 -1.8917  3.0004  1.7191
 8287SOL    HW236321   1.998   4.013   3.204 -0.1644 -1.2667 -0.7340
 8288SOL     OW36322   3.788   0.073   7.231 -0.3799  0.6063  0.4982
 8288SOL    HW136323   3.726   0.142   7.206 -0.6205 -0.9152 -3.2394
 8288SOL    HW236324   3.878   0.100   7.216 -0.3754  1.0100  1.2506
 8289SOL     OW36325   0.718   1.779   1.467 -0.0139 -0.0017 -0.6656
 8289SOL    HW136326   0.693   1.796   1.558  0.5181  0.7459 -0.6578
 8289SOL    HW236327   0.772   1.858   1.461  0.0833 -0.0754 -0.7708
 8290SOL     OW36328   1.404   2.111   9.425  0.5849  0.2098  0.2724
 8290SOL    HW136329   1.339   2.049   9.457  1.3633  0.4568  2.3300
 8290SOL    HW236330   1.488   2.076   9.454  0.5659 -1.1340 -1.2606
 8291SOL     OW36331   2.053   1.438   7.777 -0.0924  0.4754 -0.4417
 8291SOL    HW136332   2.049   1.411   7.869  1.8067 -0.0391 -0.5111
 8291SOL    HW236333   2.115   1.379   7.736  0.1079  0.0990  0.4003
 8292SOL     OW36334   1.696   1.490   3.350 -0.1616  0.5739  0.3651
 8292SOL    HW136335   1.707   1.395   3.350 -3.1333  0.2449 -1.9515
 8292SOL    HW236336   1.770   1.506   3.291 -0.6684 -1.8443 -0.9064
 8293SOL     OW36337   0.494   3.837  16.501 -0.0778 -0.3082 -0.5806
 8293SOL    HW136338   0.399   3.846  16.495 -0.0360  0.4890 -0.1532
 8293SOL    HW236339   0.515   3.830  16.594  1.4200 -3.2149 -1.1318
 8294SOL     OW36340   1.105   4.524  16.928 -0.6675 -0.1957  0.4969
 8294SOL    HW136341   1.037   4.486  16.872  3.3115 -2.0945 -2.9614
 8294SOL    HW236342   1.112   4.450  16.989  0.9685 -0.8546 -0.5145
 8295SOL     OW36343   3.623   0.414   9.367  0.2861 -0.5076  0.4992
 8295SOL    HW136344   3.607   0.320   9.380  0.5585 -0.8500 -1.6501
 8295SOL    HW236345   3.560   0.458   9.424  0.4728  0.3971 -0.0074
 8296SOL     OW36346   4.566   3.932   6.745  0.1058  0.2605 -0.4859
 8296SOL    HW136347   4.646   3.930   6.692  0.6134 -0.5145  0.2986
 8296SOL    HW236348   4.602   3.931   6.834 -2.2567 -0.6965  0.4496
 8297SOL     OW36349   1.648   2.979   1.791 -0.0264  0.0400  0.0091
 8297SOL    HW136350   1.735   2.965   1.752 -0.7223 -0.3317 -1.4076
 8297SOL    HW236351   1.604   2.909   1.743 -1.2146  0.3754  0.6105
 8298SOL     OW36352   4.222   3.875   6.922  0.4004  0.1517  0.0383
 8298SOL    HW136353   4.240   3.897   7.013 -2.9817  1.4976  0.4017
 8298SOL    HW236354   4.224   3.965   6.888 -2.1491  0.5592  1.0000
 8299SOL     OW36355   0.516   4.482   6.944 -0.1679 -0.6928 -0.3767
 8299SOL    HW136356   0.467   4.412   6.901 -0.6574  0.3468 -1.4890
 8299SOL    HW236357   0.517   4.452   7.035 -2.1084  1.0737  0.2271
 8300SOL     OW36358   1.055   0.582  10.876 -0.0522  0.1177 -0.0872
 8300SOL    HW136359   1.150   0.579  10.865 -0.1600  1.1735 -1.2867
 8300SOL    HW236360   1.029   0.642  10.806  1.6763 -0.1679 -0.9806
 8301SOL     OW36361   2.788   3.533  13.086 -0.3003 -0.1214 -0.2924
 8301SOL    HW136362   2.792   3.564  12.995 -1.0729 -0.9588 -0.6222
 8301SOL    HW236363   2.693   3.528  13.093 -0.3282  0.7210 -0.1020
 8302SOL     OW36364   4.721   3.541  11.478  0.3853  0.2036 -0.0029
 8302SOL    HW136365   0.017   3.487  11.555 -1.9300 -1.2057 -0.4201
 8302SOL    HW236366   0.061   3.495  11.425 -0.2352  0.1044 -0.6555
 8303SOL     OW36367   0.539   3.833   5.914 -0.8170  0.0818 -0.1691
 8303SOL    HW136368   0.613   3.779   5.886  0.6568  1.8289  0.4431
 8303SOL    HW236369   0.524   3.792   5.999 -0.2512  0.6364  0.1887
 8304SOL     OW36370   3.840   0.779   4.782  0.3730  0.7647  0.4991
 8304SOL    HW136371   3.914   0.793   4.723 -1.0393  2.0848 -0.9598
 8304SOL    HW236372   3.843   0.685   4.802  1.2691  0.6122 -0.3891
 8305SOL     OW36373   2.976   1.282  12.488 -0.0077 -0.0696 -0.3100
 8305SOL    HW136374   2.939   1.213  12.544  0.8656  0.5871  1.0854
 8305SOL    HW236375   2.934   1.360  12.526 -0.0132 -1.0517  1.7240
 8306SOL     OW36376   1.715   0.149   4.901  0.1169  0.2315 -0.0546
 8306SOL    HW136377   1.808   0.172   4.905  0.0899  0.5503 -1.6288
 8306SOL    HW236378   1.669   0.231   4.885  0.7073  0.9333  1.8130
 8307SOL     OW36379   2.255   3.665   8.833  0.2083  0.0078 -0.6584
 8307SOL    HW136380   2.318   3.714   8.782  1.4200  0.4575  1.2938
 8307SOL    HW236381   2.171   3.711   8.838 -1.0970 -2.4425  0.7409
 8308SOL     OW36382   2.778   1.504   3.289 -0.5801 -0.0150  0.6888
 8308SOL    HW136383   2.812   1.562   3.357 -1.2983  1.7068 -0.4569
 8308SOL    HW236384   2.859   1.467   3.252 -1.1259  0.4689 -1.0003
 8309SOL     OW36385   1.966   3.053  11.796  0.5806 -0.1191  0.0555
 8309SOL    HW136386   1.962   3.126  11.859  0.9840  0.9062 -1.1192
 8309SOL    HW236387   2.046   3.084  11.755 -0.6953  0.7144 -1.7860
 8310SOL     OW36388   2.742   4.253   7.971  0.2791  0.2573 -0.4450
 8310SOL    HW136389   2.760   4.265   8.065 -2.1986  0.6148 -0.0127
 8310SOL    HW236390   2.792   4.325   7.932  1.5559  0.1071  0.9188
 8311SOL     OW36391   3.132   2.047   7.586 -0.5257  0.3181 -0.0428
 8311SOL    HW136392   3.166   2.003   7.664 -0.5692  1.2810  0.5208
 8311SOL    HW236393   3.208   2.071   7.534  0.6676 -1.8678  0.7308
 8312SOL     OW36394   0.519   1.236   7.384  0.3822  0.2476  0.3547
 8312SOL    HW136395   0.553   1.283   7.460  0.7731 -0.5300  0.6611
 8312SOL    HW236396   0.425   1.248   7.400  0.2951 -0.2560  0.2327
 8313SOL     OW36397   0.082   3.734  13.040  0.5167 -0.3565 -0.2513
 8313SOL    HW136398   0.033   3.761  12.962 -1.9072 -1.0823  1.0127
 8313SOL    HW236399   0.149   3.673  13.011  0.7711 -0.3756  0.3870
 8314SOL     OW36400   3.356   2.408  13.226 -0.4597 -0.5826 -0.6952
 8314SOL    HW136401   3.439   2.449  13.248 -1.2353  0.0297  1.1154
 8314SOL    HW236402   3.296   2.477  13.196 -0.8657 -0.2641  0.8366
 8315SOL     OW36403   0.249   1.608   5.618  0.3608 -0.2947 -0.1173
 8315SOL    HW136404   0.197   1.661   5.677 -1.5123 -1.7637 -0.4614
 8315SOL    HW236405   0.320   1.670   5.602 -1.3756  1.2417 -1.8821
 8316SOL     OW36406   3.073   0.837  13.598 -0.1185 -0.0680 -0.0585
 8316SOL    HW136407   3.066   0.931  13.580  0.4783  0.0198  0.1738
 8316SOL    HW236408   2.983   0.815  13.625  0.2830 -2.0946 -0.3778
 8317SOL     OW36409   0.568   4.412   3.489  0.0149  0.0698  0.2047
 8317SOL    HW136410   0.604   4.481   3.545 -0.1902  1.6687 -1.6481
 8317SOL    HW236411   0.636   4.344   3.497  0.3608  0.7962  3.3943
 8318SOL     OW36412   2.052   1.187  10.925  0.0174  0.5997  0.5887
 8318SOL    HW136413   2.033   1.170  10.832 -2.5304  1.9980  0.8755
 8318SOL    HW236414   2.139   1.229  10.923  0.7462 -0.8469  2.3957
 8319SOL     OW36415   3.088   3.962   7.720  0.4169 -0.1420 -0.7594
 8319SOL    HW136416   3.064   4.023   7.650  0.5802 -1.1510 -1.7158
 8319SOL    HW236417   3.156   3.908   7.681 -2.0946 -3.0725 -1.1127
 8320SOL     OW36418   3.045   0.404   4.160  0.4330 -0.0702 -0.3031
 8320SOL    HW136419   3.075   0.495   4.161 -1.0547  0.4235 -0.6967
 8320SOL    HW236420   3.130   0.361   4.163  1.7888  2.5442 -1.4292
 8321SOL     OW36421   3.433   1.724   5.109 -0.0849  0.0247  1.1714
 8321SOL    HW136422   3.409   1.814   5.128  1.8518  1.0258 -1.0975
 8321SOL    HW236423   3.433   1.687   5.197  1.3072  0.4630  1.3593
 8322SOL     OW36424   4.068   2.007   7.935  0.1033  0.2386  0.0512
 8322SOL    HW136425   4.013   1.959   7.873 -0.4548  0.9859 -0.0366
 8322SOL    HW236426   4.032   1.963   8.012 -2.7553  1.0000 -0.8335
 8323SOL     OW36427   4.698   0.068   8.921 -0.2429  0.1314 -0.4611
 8323SOL    HW136428   4.647   0.148   8.910 -2.4886 -1.3467 -0.7906
 8323SOL    HW236429   0.063   0.104   8.914 -0.4064  0.5942 -0.1989
 8324SOL     OW36430   1.454   1.504   3.718 -0.0510  0.0593 -0.0953
 8324SOL    HW136431   1.377   1.533   3.768  2.3805  3.2281  1.8408
 8324SOL    HW236432   1.478   1.420   3.758  0.6881  1.1987  1.9092
 8325SOL     OW36433   0.559   1.711  10.302 -0.7964 -0.1541 -1.0002
 8325SOL    HW136434   0.571   1.637  10.362 -1.5275  0.9304  0.4966
 8325SOL    HW236435   0.627   1.770  10.334 -0.4677 -1.3333  0.5008
 8326SOL     OW36436   3.657   0.935   3.745  0.7905 -0.2409 -0.1858
 8326SOL    HW136437   3.605   0.918   3.666  1.5650 -2.3276 -0.2479
 8326SOL    HW236438   3.725   0.868   3.737 -0.3050 -1.1114 -2.2575
 8327SOL     OW36439   4.009   0.278  10.026  0.0982  0.3617  1.1962
 8327SOL    HW136440   3.947   0.208  10.006  0.4632  0.4570 -0.2211
 8327SOL    HW236441   4.068   0.267   9.952 -1.0210 -0.1193  0.3746
 8328SOL     OW36442   3.436   4.147   8.559 -0.2099  0.0992 -0.5451
 8328SOL    HW136443   3.414   4.106   8.642  0.1241  1.8753  0.4305
 8328SOL    HW236444   3.482   4.224   8.594  0.5090 -0.5723 -0.0257
 8329SOL     OW36445   2.563   0.796   7.227 -0.2885  0.2034 -0.4466
 8329SOL    HW136446   2.545   0.703   7.218 -3.5612  0.5583  2.4017
 8329SOL    HW236447   2.653   0.804   7.262 -0.5306 -1.6861  0.6318
 8330SOL     OW36448   2.629   4.395   2.710  0.2594 -0.0402  0.3868
 8330SOL    HW136449   2.536   4.412   2.699 -0.2693 -2.7650  0.5902
 8330SOL    HW236450   2.633   4.405   2.805 -1.8518 -1.2756  0.5883
 8331SOL     OW36451   0.135   2.735   5.473 -0.1189  0.2741  0.3398
 8331SOL    HW136452   0.103   2.666   5.531  1.4804 -0.0468  0.8492
 8331SOL    HW236453   0.058   2.785   5.447  3.0242  3.4787 -2.6522
 8332SOL     OW36454   4.270   0.224   9.900 -0.2693  0.3054 -0.1465
 8332SOL    HW136455   4.274   0.318   9.915  0.3808  0.0202  1.5421
 8332SOL    HW236456   4.268   0.223   9.805 -0.5002 -1.0136 -0.1367
 8333SOL     OW36457   0.117   4.471   8.351  0.1801 -0.1276 -0.3031
 8333SOL    HW136458   0.065   4.417   8.409 -1.0360  2.2964  0.8843
 8333SOL    HW236459   0.044   4.526   8.322 -0.0965 -0.4530 -0.2153
 8334SOL     OW36460   2.197   2.181   6.198  0.3101 -0.1254  0.3421
 8334SOL    HW136461   2.191   2.228   6.115 -0.7898 -1.8149 -0.5471
 8334SOL    HW236462   2.183   2.090   6.173 -1.4719 -0.0221  0.9704
 8335SOL     OW36463   0.232   1.443   0.449  0.3523  0.5106  0.2987
 8335SOL    HW136464   0.211   1.525   0.494 -2.2994 -0.2885  0.4760
 8335SOL    HW236465   0.212   1.373   0.511 -0.5318 -0.9677 -1.6741
 8336SOL     OW36466   3.586   0.034  14.150 -0.3604 -0.4910  0.2496
 8336SOL    HW136467   3.600   4.710  14.069  1.1081 -1.1592  0.8964
 8336SOL    HW236468   3.494   0.055  14.136 -0.4811 -1.4880 -0.3912
 8337SOL     OW36469   2.869   0.968   2.536 -0.1076  0.3635  0.1005
 8337SOL    HW136470   2.859   1.036   2.470 -2.6493  0.2885  0.4189
 8337SOL    HW236471   2.962   0.955   2.519 -0.8667 -4.7432 -0.1428
 8338SOL     OW36472   0.819   4.145  12.327 -0.0350  0.4040  0.3555
 8338SOL    HW136473   0.796   4.229  12.367 -0.4431 -0.1954  1.3943
 8338SOL    HW236474   0.729   4.122  12.303  0.3254  1.0346 -1.5982
 8339SOL     OW36475   3.296   1.500   7.955 -0.1820 -0.6721  0.0621
 8339SOL    HW136476   3.340   1.541   8.029 -2.1314  3.0698 -0.8955
 8339SOL    HW236477   3.366   1.445   7.919 -0.7055 -0.8234 -0.7517
 8340SOL     OW36478   2.452   2.786   2.986  0.2651  0.1374 -0.3905
 8340SOL    HW136479   2.361   2.814   2.980  0.3083  0.8414  2.1922
 8340SOL    HW236480   2.496   2.846   2.925 -0.2027  1.7457  0.8831
 8341SOL     OW36481   2.912   2.921   0.807  0.1828  0.1942 -0.0068
 8341SOL    HW136482   2.890   2.833   0.775 -0.8481  0.1792  0.7331
 8341SOL    HW236483   2.840   2.972   0.770 -0.6154  0.0936  1.4136
 8342SOL     OW36484   2.605   4.266  10.455 -0.5496  0.3271 -0.0723
 8342SOL    HW136485   2.600   4.171  10.460  2.0626  0.1720 -0.5420
 8342SOL    HW236486   2.592   4.288  10.548  0.6318  1.4885 -0.1878
 8343SOL     OW36487   2.455   4.070   2.465  0.0760  0.2853  0.6212
 8343SOL    HW136488   2.462   4.044   2.557  0.2765 -1.8973 -0.0174
 8343SOL    HW236489   2.367   4.036   2.446 -0.6475  1.4778  1.8185
 8344SOL     OW36490   1.602   3.757  16.817 -0.2194  0.8918 -0.2275
 8344SOL    HW136491   1.552   3.834  16.791  0.8513  1.0599 -1.8287
 8344SOL    HW236492   1.690   3.767  16.781 -0.8814  0.1598 -2.0272
 8345SOL     OW36493   1.053   1.947   5.456 -0.0645 -0.0889 -0.0547
 8345SOL    HW136494   1.060   1.954   5.361  0.1700 -0.3359 -0.0562
 8345SOL    HW236495   0.987   1.877   5.464  1.0508 -1.0460  0.7599
 8346SOL     OW36496   0.180   3.677  11.111 -0.1350  0.4531  0.3773
 8346SOL    HW136497   0.213   3.710  11.195 -0.8943  1.2175  0.3869
 8346SOL    HW236498   0.259   3.664  11.059 -0.0380  1.9292  0.1594
 8347SOL     OW36499   2.484   2.715   7.826 -0.3954  0.1863 -0.0222
 8347SOL    HW136500   2.579   2.714   7.826 -0.3975 -0.2633 -0.4200
 8347SOL    HW236501   2.466   2.774   7.899 -0.8721 -1.0796  0.8634
 8348SOL     OW36502   3.559   0.375   3.106  0.0297  0.8212 -0.3967
 8348SOL    HW136503   3.562   0.381   3.011  0.3811 -0.4124 -0.4680
 8348SOL    HW236504   3.594   0.458   3.137  0.7478  0.1411  0.6283
 8349SOL     OW36505   4.061   1.086   5.511  0.1896  0.2557  0.2398
 8349SOL    HW136506   3.999   1.014   5.526  1.4214 -0.7962  0.2309
 8349SOL    HW236507   4.009   1.152   5.557  1.2563 -0.7731  2.8795
 8350SOL     OW36508   1.196   3.680   3.164  0.3070 -0.2542  0.1874
 8350SOL    HW136509   1.166   3.623   3.234  1.9733  0.1053  1.2050
 8350SOL    HW236510   1.154   3.764   3.182  0.7928  0.6301 -2.7855
 8351SOL     OW36511   2.097   2.517   2.913  0.1582 -0.4465  0.4327
 8351SOL    HW136512   2.128   2.508   3.003 -1.3884  0.1567  1.0300
 8351SOL    HW236513   2.156   2.457   2.867  0.7217  1.1384 -0.9239
 8352SOL     OW36514   0.722   1.847  17.117 -0.4010 -0.0128  0.3695
 8352SOL    HW136515   0.750   1.825  17.029 -1.9238 -1.7481  0.3266
 8352SOL    HW236516   0.803   1.825  17.163 -1.4526 -1.9908  1.3071
 8353SOL     OW36517   2.776   4.056  11.358  0.4037 -0.1135  0.7164
 8353SOL    HW136518   2.807   3.966  11.357 -0.0804 -0.2551 -1.1165
 8353SOL    HW236519   2.730   4.059  11.441  1.6540 -0.9460  1.4383
 8354SOL     OW36520   1.778   2.431   7.331  0.3385  0.3038 -0.2943
 8354SOL    HW136521   1.724   2.395   7.261 -0.6143  0.6684  0.2565
 8354SOL    HW236522   1.721   2.503   7.358 -0.5921  0.7526 -3.5254
 8355SOL     OW36523   0.020   4.216   5.445 -0.5957  0.4590  0.0073
 8355SOL    HW136524   0.045   4.308   5.441 -1.2656  0.5727 -1.6379
 8355SOL    HW236525   0.099   4.178   5.483 -1.1191  1.0901  1.6874
 8356SOL     OW36526   3.257   1.662   2.799  0.8328  0.1931  0.2293
 8356SOL    HW136527   3.289   1.744   2.835  2.0880 -0.1734 -0.0499
 8356SOL    HW236528   3.308   1.654   2.718  1.4066  3.6121  0.2488
 8357SOL     OW36529   4.248   3.347  13.210  0.0059  0.4000 -0.1864
 8357SOL    HW136530   4.162   3.368  13.247 -0.5988  1.5771 -2.2004
 8357SOL    HW236531   4.233   3.377  13.120 -1.2094  1.8742  0.5148
 8358SOL     OW36532   2.747   2.669  13.820 -0.1240 -0.0413  0.0300
 8358SOL    HW136533   2.771   2.621  13.899 -0.7400  2.5892  1.8062
 8358SOL    HW236534   2.656   2.684  13.847  0.2944  0.5388  1.0847
 8359SOL     OW36535   3.747   0.400   1.350 -0.2671  0.2799 -0.5459
 8359SOL    HW136536   3.709   0.361   1.271 -0.3110  1.0540 -0.9046
 8359SOL    HW236537   3.789   0.326   1.394 -0.2811  0.9743  0.6350
 8360SOL     OW36538   2.171   1.803   8.580  0.5424  0.1603 -0.6711
 8360SOL    HW136539   2.123   1.850   8.512 -1.4131  1.2008  1.4465
 8360SOL    HW236540   2.135   1.715   8.577 -0.2200  0.4992 -1.3511
 8361SOL     OW36541   4.612   2.697   8.209  0.3409 -0.1767 -0.0249
 8361SOL    HW136542   4.579   2.639   8.141 -0.0974 -0.8157  0.7292
 8361SOL    HW236543   4.673   2.757   8.165 -0.2019  0.0366 -0.4854
 8362SOL     OW36544   1.756   2.964  13.209  0.0300 -0.5440 -0.8092
 8362SOL    HW136545   1.662   2.983  13.216 -0.1552 -2.2915  1.4581
 8362SOL    HW236546   1.766   2.929  13.121  0.1475 -1.7455 -0.3186
 8363SOL     OW36547   3.565   0.994  13.059 -0.6278 -0.3785 -0.1074
 8363SOL    HW136548   3.476   1.000  13.094  0.4169 -0.1704  2.5123
 8363SOL    HW236549   3.563   0.905  13.023 -2.9750  0.4644 -2.0913
 8364SOL     OW36550   1.404   1.835   3.005 -0.8562 -0.6905  0.3365
 8364SOL    HW136551   1.323   1.879   2.983  0.0118  0.9407  0.4327
 8364SOL    HW236552   1.429   1.881   3.085  1.3367  0.2938 -0.9313
 8365SOL     OW36553   2.279   4.269   0.472  0.3028  0.3602  0.4203
 8365SOL    HW136554   2.196   4.248   0.514  0.5515  1.6210  1.5325
 8365SOL    HW236555   2.245   4.277   0.383  3.8530  1.7842 -0.8313
 8366SOL     OW36556   4.127   1.172   7.614 -0.1103  0.0716  0.1168
 8366SOL    HW136557   4.046   1.218   7.639 -0.6325 -0.0671 -1.3307
 8366SOL    HW236558   4.091   1.084   7.627  1.5742 -0.6013  0.2287
 8367SOL     OW36559   4.154   3.222   6.107  0.2591 -0.0550  0.1087
 8367SOL    HW136560   4.232   3.244   6.159 -0.8156 -1.1672  2.1812
 8367SOL    HW236561   4.185   3.154   6.046  1.4133 -0.5993  1.2913
 8368SOL     OW36562   1.220   2.797  15.969 -0.4539  0.3705 -0.4119
 8368SOL    HW136563   1.277   2.756  15.904 -0.1936 -2.3289  1.4786
 8368SOL    HW236564   1.247   2.888  15.977  0.8801 -0.3075  2.9002
 8369SOL     OW36565   4.190   1.676   1.656 -0.1332 -0.0966 -0.2200
 8369SOL    HW136566   4.205   1.732   1.581 -1.4990 -0.5540 -0.8429
 8369SOL    HW236567   4.273   1.630   1.668  0.8895  1.6232 -0.8503
 8370SOL     OW36568   1.142   0.053   0.624 -0.1990  0.3939  0.2866
 8370SOL    HW136569   1.139   4.687   0.655  1.9799  0.5680  0.9918
 8370SOL    HW236570   1.052   0.078   0.605 -0.7931 -3.3718 -1.6760
 8371SOL     OW36571   3.869   2.788   2.695 -0.2502  0.0767 -0.0965
 8371SOL    HW136572   3.917   2.871   2.687 -1.3135  0.7872  0.8120
 8371SOL    HW236573   3.938   2.732   2.660  2.7994  2.7876  1.5166
 8372SOL     OW36574   3.091   1.760   3.775  0.0167 -0.1662  0.3733
 8372SOL    HW136575   3.077   1.716   3.859  0.3204  0.9516  1.0123
 8372SOL    HW236576   3.185   1.750   3.762 -0.3150 -2.3758 -0.1675
 8373SOL     OW36577   3.520   3.442   5.708  0.2087 -0.4203 -0.5865
 8373SOL    HW136578   3.506   3.536   5.706  0.2565 -0.3743  1.4585
 8373SOL    HW236579   3.512   3.428   5.802 -2.3368 -1.1692 -0.9161
 8374SOL     OW36580   1.188   2.322   3.526 -0.0613  0.1517 -0.2988
 8374SOL    HW136581   1.158   2.323   3.617  2.3501  1.2054  0.4748
 8374SOL    HW236582   1.107   2.293   3.483  0.9928 -1.2419 -1.3783
 8375SOL     OW36583   1.259   0.972   5.465 -0.1467  0.1467  0.1827
 8375SOL    HW136584   1.334   1.022   5.433 -1.2838  0.9490 -1.1873
 8375SOL    HW236585   1.215   1.033   5.524 -0.9311 -0.6345  0.4062
 8376SOL     OW36586   4.506   1.311   4.060 -0.1054  0.5327 -0.3828
 8376SOL    HW136587   4.471   1.223   4.072  0.2540  0.3628 -0.5784
 8376SOL    HW236588   4.595   1.293   4.092 -1.2010 -2.8918  0.7137
 8377SOL     OW36589   1.566   1.560  12.061 -0.6959 -0.6599  0.6102
 8377SOL    HW136590   1.519   1.601  11.988  1.4192  1.4194  0.4049
 8377SOL    HW236591   1.641   1.619  12.074 -1.5610 -0.0664  2.8991
 8378SOL     OW36592   3.391   2.854   2.755 -0.3305 -0.3673 -0.7800
 8378SOL    HW136593   3.392   2.818   2.844 -0.0609  0.1346 -0.5778
 8378SOL    HW236594   3.483   2.878   2.748  0.0528 -1.9448 -1.2141
 8379SOL     OW36595   3.367   1.808   1.463 -0.0352  0.3353  0.3247
 8379SOL    HW136596   3.376   1.893   1.506 -1.2394 -0.5695  2.3933
 8379SOL    HW236597   3.369   1.750   1.539  0.3990 -0.8258 -0.5684
 8380SOL     OW36598   1.179   2.744   2.564  0.0340  0.3938  0.3543
 8380SOL    HW136599   1.197   2.771   2.474 -1.4076 -3.0163 -0.9827
 8380SOL    HW236600   1.087   2.721   2.562 -0.5960  3.2844 -2.5487
 8381SOL     OW36601   2.885   2.248   2.360 -0.1231  0.5314  0.1607
 8381SOL    HW136602   2.830   2.205   2.426 -0.7353  1.2259  0.1040
 8381SOL    HW236603   2.923   2.172   2.318 -1.0416  0.6332 -0.8503
 8382SOL     OW36604   4.568   3.953  12.577  0.0512 -0.2496  0.0312
 8382SOL    HW136605   4.546   3.867  12.542 -0.6839  0.4805 -1.3088
 8382SOL    HW236606   4.553   4.010  12.501 -0.7133 -2.7862 -1.7376
 8383SOL     OW36607   4.135   0.364   2.395  0.7309  0.2363 -0.3046
 8383SOL    HW136608   4.113   0.455   2.374 -0.4994 -0.6070 -2.6285
 8383SOL    HW236609   4.046   0.333   2.381  0.2818  1.7681 -0.7961
 8384SOL     OW36610   1.367   1.633   9.693 -0.5890  0.4157 -0.2924
 8384SOL    HW136611   1.456   1.666   9.683 -0.5963  0.5003 -0.0872
 8384SOL    HW236612   1.345   1.646   9.786  1.4555 -0.2323  0.2691
 8385SOL     OW36613   0.806   1.491   4.791  0.2471  0.1606 -0.0594
 8385SOL    HW136614   0.749   1.443   4.852 -0.3181 -0.4237 -1.0491
 8385SOL    HW236615   0.824   1.559   4.856 -2.1615  0.9961 -0.2705
 8386SOL     OW36616   2.157   3.928  13.443  0.2111 -0.5578 -0.6908
 8386SOL    HW136617   2.090   3.859  13.438 -0.5534  0.1682 -0.4237
 8386SOL    HW236618   2.238   3.879  13.431  1.6321  1.7229 -0.2750
 8387SOL     OW36619   2.686   0.097   9.078  0.3053 -0.2088  0.3914
 8387SOL    HW136620   2.779   0.118   9.082  0.1523  0.4805  0.4334
 8387SOL    HW236621   2.666   0.042   9.153 -3.0929  1.4561  0.7446
 8388SOL     OW36622   4.143   0.150   4.481  0.2797 -0.0716  0.2837
 8388SOL    HW136623   4.091   0.077   4.447  0.9615  0.9794 -2.9913
 8388SOL    HW236624   4.115   0.143   4.572 -2.5098  0.1033 -0.5510
 8389SOL     OW36625   0.289   2.238   0.448 -0.1770 -0.3373  0.3511
 8389SOL    HW136626   0.294   2.329   0.477  0.9447 -0.6325  1.0896
 8389SOL    HW236627   0.302   2.191   0.531  0.1014  2.0384  1.6588
 8390SOL     OW36628   3.312   3.925   5.560  0.1652 -0.6180 -0.2530
 8390SOL    HW136629   3.264   3.973   5.492  2.3863  0.3468 -1.1248
 8390SOL    HW236630   3.403   3.927   5.530  0.0115  0.5328 -0.6712
 8391SOL     OW36631   2.054   4.439   6.044 -0.7098  0.1821  0.4424
 8391SOL    HW136632   2.069   4.434   6.138  3.1392 -1.2160 -0.2294
 8391SOL    HW236633   2.142   4.472   6.024 -1.9401  1.5360 -2.8227
 8392SOL     OW36634   4.352   1.011   9.925  0.4529 -0.2686 -0.5349
 8392SOL    HW136635   4.416   1.020   9.995 -0.5511  1.1781  0.1918
 8392SOL    HW236636   4.283   1.072   9.951  0.3247 -1.8906  2.9292
 8393SOL     OW36637   3.448   3.793   2.160  0.0655  0.3144 -0.0512
 8393SOL    HW136638   3.411   3.710   2.191 -0.0785  1.1790  2.1148
 8393SOL    HW236639   3.394   3.796   2.081 -0.3459  0.2811  0.2258
 8394SOL     OW36640   0.734   3.128   7.500 -0.1169 -0.3003 -0.0746
 8394SOL    HW136641   0.766   3.085   7.579 -3.0016  0.2321  1.3622
 8394SOL    HW236642   0.691   3.052   7.462  0.6907 -0.7029 -0.1941
 8395SOL     OW36643   1.608   1.367   9.122  0.0299  0.1143  0.6727
 8395SOL    HW136644   1.639   1.306   9.055 -1.8395 -0.0235 -0.0457
 8395SOL    HW236645   1.680   1.362   9.185  3.3496  2.7261 -2.8766
 8396SOL     OW36646   0.426   0.332   7.199  0.5695  0.6450  0.5068
 8396SOL    HW136647   0.387   0.246   7.184 -2.2696  2.3367 -1.6863
 8396SOL    HW236648   0.402   0.346   7.291  2.2244  1.4817  0.8136
 8397SOL     OW36649   2.165   1.592   2.112 -0.0933  0.6275  0.2019
 8397SOL    HW136650   2.070   1.591   2.102 -0.0136  0.3964 -0.5854
 8397SOL    HW236651   2.180   1.686   2.113  3.1186  0.1082  0.7303
 8398SOL     OW36652   2.272   4.042   1.711 -0.0409  0.7931 -0.1407
 8398SOL    HW136653   2.356   4.019   1.752 -1.9642 -1.5289  2.4612
 8398SOL    HW236654   2.282   3.986   1.634  1.9747 -0.3807  0.9656
 8399SOL     OW36655   2.144   2.334   3.935  0.3118 -0.1014  0.2810
 8399SOL    HW136656   2.188   2.407   3.980 -0.3282 -0.6777  1.8100
 8399SOL    HW236657   2.057   2.372   3.925  0.8375  0.8836 -0.5548
 8400SOL     OW36658   3.518   4.200   5.903  0.3240 -0.4498  0.0818
 8400SOL    HW136659   3.469   4.271   5.861  1.9460  0.2315 -0.6589
 8400SOL    HW236660   3.525   4.240   5.990 -1.5266 -0.5520  0.2957
 8401SOL     OW36661   3.128   1.704  16.002 -0.2041  0.6398  0.5534
 8401SOL    HW136662   3.101   1.655  16.080  1.0437 -0.5299  0.2497
 8401SOL    HW236663   3.188   1.771  16.033  0.9839  0.2809 -0.9641
 8402SOL     OW36664   2.792   0.131  16.654  0.3387 -0.4739  0.9069
 8402SOL    HW136665   2.875   0.087  16.640 -0.5602 -1.3938 -1.5367
 8402SOL    HW236666   2.776   0.084  16.736 -0.1867 -1.6302  0.1374
 8403SOL     OW36667   0.975   2.716   4.598  0.1671 -0.2673 -0.0691
 8403SOL    HW136668   1.016   2.778   4.658  0.6382 -0.9599  0.3322
 8403SOL    HW236669   0.898   2.701   4.653 -0.4108  1.0776 -0.5095
 8404SOL     OW36670   1.089   1.817   6.950 -0.3494  0.3769  0.3791
 8404SOL    HW136671   1.037   1.848   7.024 -0.5675  0.9329 -0.0075
 8404SOL    HW236672   1.069   1.876   6.878  0.5172  0.3996  0.1547
 8405SOL     OW36673   2.370   1.364   0.721  0.5610 -0.3399  0.4203
 8405SOL    HW136674   2.373   1.459   0.734 -1.3983 -0.2182 -0.1353
 8405SOL    HW236675   2.287   1.344   0.763  0.4981  1.5754  1.2087
 8406SOL     OW36676   2.827   4.083   9.242  0.1542 -0.3602 -0.2402
 8406SOL    HW136677   2.789   4.032   9.170  1.0699  0.9747 -1.6784
 8406SOL    HW236678   2.918   4.092   9.216  0.4017  1.9644  1.4726
 8407SOL     OW36679   2.085   4.182   4.250 -0.0803  0.2271  0.1043
 8407SOL    HW136680   2.093   4.171   4.344 -0.1527  0.2437  0.1130
 8407SOL    HW236681   1.991   4.161   4.241  0.0669 -0.5102  0.2461
 8408SOL     OW36682   2.368   1.687   8.362 -0.0870 -0.1553 -0.1048
 8408SOL    HW136683   2.450   1.674   8.315 -0.6991 -0.8457 -0.9995
 8408SOL    HW236684   2.356   1.782   8.365 -1.0404 -0.3567  2.1111
 8409SOL     OW36685   2.630   0.121   8.068  0.0277 -0.2748  0.4479
 8409SOL    HW136686   2.693   0.058   8.102  0.8839 -0.9774 -2.3781
 8409SOL    HW236687   2.555   0.061   8.074 -0.2963 -0.0564 -1.3334
 8410SOL     OW36688   1.389   0.500  10.174  0.1224  0.0354  0.1742
 8410SOL    HW136689   1.426   0.588  10.168  1.6056 -0.5677  0.3480
 8410SOL    HW236690   1.424   0.446  10.104  0.6851  0.1563  0.3648
 8411SOL     OW36691   2.462   2.917   6.397  0.4152  0.6280  0.2224
 8411SOL    HW136692   2.426   2.833   6.426  0.5150  0.0610 -1.2849
 8411SOL    HW236693   2.467   2.967   6.478  1.7336  0.1825  0.4249
 8412SOL     OW36694   2.943   2.186   3.918 -0.1427 -0.4887 -0.0282
 8412SOL    HW136695   2.945   2.178   3.823  1.9122 -1.3795  0.0956
 8412SOL    HW236696   2.858   2.149   3.942 -0.3395 -0.0734 -0.0807
 8413SOL     OW36697   0.292   2.739   4.416  0.0607  0.4025  0.1018
 8413SOL    HW136698   0.343   2.812   4.451  0.9626 -0.3910  0.4200
 8413SOL    HW236699   0.240   2.718   4.494  2.4706 -1.2949  1.2221
 8414SOL     OW36700   0.061   0.960   0.869 -0.6025  0.3609  0.2544
 8414SOL    HW136701   0.123   1.029   0.893  0.5655 -0.2244 -1.0280
 8414SOL    HW236702   0.008   0.941   0.946 -1.5373  1.9149 -0.0099
 8415SOL     OW36703   4.064   4.203  10.601  0.2748  0.0046 -0.6482
 8415SOL    HW136704   4.056   4.114  10.569  1.5035 -0.4142  0.2220
 8415SOL    HW236705   4.142   4.202  10.656 -0.6380  0.7258  0.6959
 8416SOL     OW36706   1.174   1.047   9.049 -0.6472 -0.2910  0.6330
 8416SOL    HW136707   1.238   1.111   9.078 -1.1995  0.1501  0.8824
 8416SOL    HW236708   1.164   0.991   9.126  0.9772 -1.7657 -0.2348
 8417SOL     OW36709   2.535   0.524   9.392  0.7125  0.0392 -0.7810
 8417SOL    HW136710   2.550   0.615   9.418  0.0446 -0.1272  0.1983
 8417SOL    HW236711   2.588   0.516   9.313  0.8002  0.0753 -0.7257
 8418SOL     OW36712   2.658   0.589   4.144  0.4513  0.3496  0.7601
 8418SOL    HW136713   2.666   0.503   4.104 -4.2350 -0.0567  0.6404
 8418SOL    HW236714   2.582   0.629   4.101  1.3165 -0.2854 -1.3620
 8419SOL     OW36715   4.270   2.521  10.168 -0.1296  0.5608 -0.6871
 8419SOL    HW136716   4.308   2.500  10.253 -3.6609  0.4966  0.8885
 8419SOL    HW236717   4.338   2.570  10.122  0.7377  2.2357  2.3992
 8420SOL     OW36718   3.138   0.522   6.561  0.8199 -0.0766 -0.8261
 8420SOL    HW136719   3.152   0.609   6.524 -0.0666 -0.4604 -2.0688
 8420SOL    HW236720   3.090   0.547   6.640  0.5420  1.8014 -1.5991
 8421SOL     OW36721   0.035   2.231  17.004  0.5534 -0.1874 -0.1021
 8421SOL    HW136722   4.697   2.185  16.947  1.2334  0.8809 -1.7058
 8421SOL    HW236723   0.002   2.205  17.089 -1.8150  1.4952 -0.5111
 8422SOL     OW36724   3.315   0.844   2.971 -0.5261  0.1095  0.5980
 8422SOL    HW136725   3.252   0.772   2.958 -1.7473  1.7865 -2.5778
 8422SOL    HW236726   3.311   0.850   3.066 -2.4164 -0.5696  0.5713
 8423SOL     OW36727   3.030   1.221   7.465 -0.0817  0.4175  0.1331
 8423SOL    HW136728   3.073   1.282   7.525  0.1458  0.3852  0.0004
 8423SOL    HW236729   2.949   1.201   7.512 -1.4986  1.5263 -1.8306
 8424SOL     OW36730   3.616   2.426   7.949  0.0155  0.1683 -1.1146
 8424SOL    HW136731   3.587   2.453   7.862 -0.2473 -0.8615 -1.3478
 8424SOL    HW236732   3.661   2.503   7.981  0.2623  0.0860 -1.2676
 8425SOL     OW36733   3.198   2.040  12.986 -0.0645  0.2895  0.1413
 8425SOL    HW136734   3.162   2.125  12.959 -2.9966 -0.6742  1.0041
 8425SOL    HW236735   3.223   2.012  12.898  0.0672 -0.2650  0.3547
 8426SOL     OW36736   3.862   4.316   9.448  0.1618 -0.2416  0.4052
 8426SOL    HW136737   3.915   4.306   9.527  0.7445 -0.4926 -0.0107
 8426SOL    HW236738   3.810   4.236   9.454  1.3704 -1.1229 -0.8321
 8427SOL     OW36739   2.571   0.808  14.587 -0.5058 -0.4117  0.0273
 8427SOL    HW136740   2.483   0.825  14.554  0.0320 -1.3240 -1.8642
 8427SOL    HW236741   2.625   0.806  14.508  0.0489  1.7185  0.3486
 8428SOL     OW36742   2.707   1.370  10.218  0.4647 -0.1346  0.2549
 8428SOL    HW136743   2.778   1.330  10.167 -0.0086  0.1555 -0.6429
 8428SOL    HW236744   2.683   1.444  10.162 -1.6750 -2.2260 -1.6192
 8429SOL     OW36745   2.969   2.809  15.610  0.1351 -0.1321  0.3106
 8429SOL    HW136746   2.977   2.756  15.689  3.2145 -2.0440 -1.2912
 8429SOL    HW236747   2.900   2.869  15.635  0.9640  0.8957  0.1216
 8430SOL     OW36748   2.534   1.553   2.717 -0.0770  0.5137  0.3334
 8430SOL    HW136749   2.475   1.531   2.790 -0.7313  0.2966 -0.2688
 8430SOL    HW236750   2.466   1.602   2.671  0.8423  2.2038  0.7570
 8431SOL     OW36751   1.560   2.888  17.148  0.0911  0.3506 -0.1528
 8431SOL    HW136752   1.472   2.872  17.183 -1.0619  0.8638 -2.7728
 8431SOL    HW236753   1.544   2.928  17.062 -1.0542 -0.6819 -0.4153
 8432SOL     OW36754   1.143   2.012   2.636  0.3472  0.0331  0.1960
 8432SOL    HW136755   1.149   2.104   2.661 -1.6820  0.5666 -1.2143
 8432SOL    HW236756   1.211   2.006   2.569 -0.5477  0.0554 -0.7146
 8433SOL     OW36757   2.380   2.187   4.951  0.2445 -0.2612 -0.0356
 8433SOL    HW136758   2.349   2.152   5.035  2.6531 -2.0395  0.1085
 8433SOL    HW236759   2.448   2.250   4.972 -1.0089  0.5434  1.6056
 8434SOL     OW36760   4.485   4.703  10.811 -0.3506 -0.8781 -0.1912
 8434SOL    HW136761   4.391   4.708  10.791 -0.1844 -0.8898 -0.9499
 8434SOL    HW236762   4.474   4.675  10.902 -0.4649 -0.7157 -0.1548
 8435SOL     OW36763   0.972   2.434   7.610  0.3201  0.1407 -0.1518
 8435SOL    HW136764   1.008   2.523   7.611 -0.0982  0.3111 -0.7268
 8435SOL    HW236765   1.049   2.378   7.602  0.1690  0.0825 -1.1883
 8436SOL     OW36766   3.569   2.831   4.463 -0.1300  0.2757  0.2957
 8436SOL    HW136767   3.578   2.926   4.467  1.2355  0.0735  2.2203
 8436SOL    HW236768   3.639   2.791   4.515 -0.3871  0.0069  0.4315
 8437SOL     OW36769   0.141   3.058   4.467  0.9791  0.4574 -0.5875
 8437SOL    HW136770   0.163   3.053   4.560 -1.2986  1.1507 -0.0167
 8437SOL    HW236771   0.105   2.969   4.469  1.2744  0.3779  0.9544
 8438SOL     OW36772   3.385   0.474   1.518 -0.4450 -0.4133  0.0080
 8438SOL    HW136773   3.473   0.513   1.516 -0.2417 -0.8534  0.3639
 8438SOL    HW236774   3.381   0.439   1.429  1.9829 -1.2449  0.2058
 8439SOL     OW36775   3.574   1.970  11.394  0.1449 -0.0524  0.2082
 8439SOL    HW136776   3.497   2.012  11.433  0.9700 -0.2123  2.0062
 8439SOL    HW236777   3.620   2.045  11.356  0.9498 -0.6852 -0.0465
 8440SOL     OW36778   4.202   0.901   2.325  0.3950 -0.3137 -0.2574
 8440SOL    HW136779   4.258   0.935   2.256 -0.3015 -3.2932 -2.2934
 8440SOL    HW236780   4.173   0.988   2.350 -0.6227 -0.7367  0.0658
 8441SOL     OW36781   1.581   4.092   7.530 -0.5366  0.2841  0.7578
 8441SOL    HW136782   1.489   4.069   7.537  0.0920 -1.9447  1.8010
 8441SOL    HW236783   1.582   4.185   7.555 -0.3714  0.3972  0.3232
 8442SOL     OW36784   0.267   3.362  10.788  0.6062  0.0611  0.2741
 8442SOL    HW136785   0.341   3.351  10.728  0.2611  1.0410 -0.3165
 8442SOL    HW236786   0.302   3.318  10.866 -0.1602  0.1336  0.6625
 8443SOL     OW36787   4.496   2.502   7.073  0.5191  0.0794  0.3299
 8443SOL    HW136788   4.546   2.428   7.039  1.2858  0.8232 -0.1606
 8443SOL    HW236789   4.566   2.566   7.073  1.3498 -0.8420 -1.3258
 8444SOL     OW36790   2.707   0.616   2.088 -0.5378  0.5542 -0.6418
 8444SOL    HW136791   2.764   0.577   2.022  0.6717 -1.5546  1.6571
 8444SOL    HW236792   2.716   0.707   2.060  0.0405  1.3016  1.9991
 8445SOL     OW36793   4.085   4.407   6.780 -0.4602 -0.6665 -0.1280
 8445SOL    HW136794   4.147   4.334   6.773 -0.8468 -0.8733 -1.3159
 8445SOL    HW236795   3.996   4.377   6.765  0.0261 -2.1647 -0.0198
 8446SOL     OW36796   1.795   0.278   3.668  0.2781  0.4546  0.5665
 8446SOL    HW136797   1.762   0.340   3.733 -1.6188  1.2476 -1.1768
 8446SOL    HW236798   1.741   0.210   3.708  1.6977 -1.6550 -1.0791
 8447SOL     OW36799   4.478   1.595   3.631 -0.5537 -0.3080 -0.7898
 8447SOL    HW136800   4.416   1.557   3.568 -0.4774 -1.2322 -0.3106
 8447SOL    HW236801   4.442   1.563   3.714  0.8102 -0.8028 -0.3924
 8448SOL     OW36802   3.578   0.235   8.303 -0.0731 -0.0702 -0.5197
 8448SOL    HW136803   3.496   0.265   8.265 -0.2543  1.7072  1.3043
 8448SOL    HW236804   3.589   0.296   8.376  0.0030 -0.3355 -0.3096
 8449SOL     OW36805   0.548   0.668  14.013 -0.4879 -0.1836 -0.1242
 8449SOL    HW136806   0.519   0.585  14.050 -1.0808  0.4533  0.8572
 8449SOL    HW236807   0.488   0.738  14.039  0.4904  0.8974 -0.7833
 8450SOL     OW36808   0.692   4.212  13.143  0.2505 -0.2802 -0.0198
 8450SOL    HW136809   0.696   4.264  13.223  3.0209 -2.0353  1.0035
 8450SOL    HW236810   0.760   4.253  13.089 -0.6908  1.5281  0.1718
 8451SOL     OW36811   0.236   0.740   4.159  0.9665  0.0079 -0.1467
 8451SOL    HW136812   0.184   0.690   4.223  0.2779 -0.1172 -0.7962
 8451SOL    HW236813   0.316   0.688   4.168  1.3670  0.6178 -0.2495
 8452SOL     OW36814   3.776   4.424   7.408  0.1813 -0.4264  0.0350
 8452SOL    HW136815   3.856   4.474   7.390 -0.7837  1.0538 -0.1342
 8452SOL    HW236816   3.714   4.484   7.450  1.1566  2.3494 -2.4568
 8453SOL     OW36817   1.075   0.130  13.488  0.3412  0.3636 -0.2295
 8453SOL    HW136818   0.986   0.110  13.457  1.5557 -3.0643 -1.5590
 8453SOL    HW236819   1.088   0.067  13.559 -0.0525  1.5769  0.9084
 8454SOL     OW36820   0.043   3.564   6.587 -0.3380  0.0432 -0.0804
 8454SOL    HW136821   0.003   3.479   6.606 -0.8445  0.6142  1.4109
 8454SOL    HW236822   0.135   3.540   6.597 -0.5699 -1.3728 -1.3246
 8455SOL     OW36823   3.522   4.582   8.090  0.2187 -0.2538  0.5792
 8455SOL    HW136824   3.492   4.558   8.177  0.4056  1.4213  1.0984
 8455SOL    HW236825   3.471   4.511   8.051 -1.5903  0.8678  0.9249
 8456SOL     OW36826   0.726   3.704   0.848 -0.2474  0.0221  0.0363
 8456SOL    HW136827   0.792   3.752   0.798 -2.3740  1.0712 -1.7770
 8456SOL    HW236828   0.644   3.736   0.812 -1.8317 -1.9999  1.8586
 8457SOL     OW36829   2.306   4.003   8.956 -0.1973  0.2691 -0.1271
 8457SOL    HW136830   2.287   4.062   8.883 -0.7622  0.2189 -0.0226
 8457SOL    HW236831   2.218   4.010   8.994 -0.2827  1.7002 -0.5682
 8458SOL     OW36832   4.269   1.676   6.877  0.3085  0.1937  0.4570
 8458SOL    HW136833   4.287   1.768   6.893  0.9724 -0.0980  1.3711
 8458SOL    HW236834   4.257   1.640   6.965  0.6786  1.3473  0.9703
 8459SOL     OW36835   2.519   0.572   6.540 -0.1091 -0.2830 -0.4701
 8459SOL    HW136836   2.469   0.495   6.569 -1.5045  0.8842  0.2644
 8459SOL    HW236837   2.492   0.623   6.616  1.1687 -1.7315  0.9627
 8460SOL     OW36838   0.983   4.646  11.833  0.0841 -0.5823 -0.4727
 8460SOL    HW136839   0.942   4.644  11.747  0.5003  1.6336 -0.7160
 8460SOL    HW236840   0.947   4.570  11.880 -1.1201  0.5819  0.4953
 8461SOL     OW36841   1.385   1.366   3.198 -0.1003  0.6462  0.1138
 8461SOL    HW136842   1.359   1.322   3.278  1.0696  1.6228  1.0257
 8461SOL    HW236843   1.311   1.426   3.183  0.3978  1.1009 -0.5692
 8462SOL     OW36844   2.188   2.892   8.771 -0.1195 -0.0813 -0.2284
 8462SOL    HW136845   2.117   2.920   8.830  0.3495  0.2161  0.1973
 8462SOL    HW236846   2.150   2.906   8.685  0.3685  1.3027 -0.2163
 8463SOL     OW36847   1.882   0.465   8.906 -0.0234 -0.0813 -0.2778
 8463SOL    HW136848   1.905   0.381   8.867  0.4837  0.1815 -0.5413
 8463SOL    HW236849   1.786   0.464   8.912 -0.0730 -0.1669 -1.0922
 8464SOL     OW36850   0.042   1.782  12.369 -0.7428  0.2927  0.4855
 8464SOL    HW136851   0.065   1.697  12.407 -0.4890  0.8013  1.4610
 8464SOL    HW236852   4.699   1.807  12.433 -1.6229 -1.5500  0.2970
 8465SOL     OW36853   1.781   1.203   2.570 -0.0656  0.0269  0.1613
 8465SOL    HW136854   1.712   1.246   2.620  2.4677  0.0010  3.7512
 8465SOL    HW236855   1.807   1.275   2.512  0.2841 -1.8655 -2.0275
 8466SOL     OW36856   0.042   1.984   3.502  0.1028  0.0301 -0.0039
 8466SOL    HW136857   0.038   1.991   3.597  2.5781  1.7081 -0.0140
 8466SOL    HW236858   0.033   1.889   3.493  1.3920  0.0188 -1.2041
 8467SOL     OW36859   3.542   4.200   1.684 -0.0562 -0.4235 -0.0455
 8467SOL    HW136860   3.630   4.192   1.721  0.0230  0.4357 -0.0490
 8467SOL    HW236861   3.554   4.163   1.596  0.8294 -0.1970 -0.0245
 8468SOL     OW36862   0.645   1.955   2.980  0.9596  0.6012  0.4105
 8468SOL    HW136863   0.732   1.983   3.007  0.5016 -0.2015  2.7359
 8468SOL    HW236864   0.615   1.918   3.063  1.0628 -0.9423 -0.2321
 8469SOL     OW36865   4.693   1.810   6.756 -0.5079  1.0488  0.5512
 8469SOL    HW136866   0.044   1.765   6.793 -0.0940 -0.5636 -2.2389
 8469SOL    HW236867   0.019   1.865   6.695  0.7776  0.1080  0.7615
 8470SOL     OW36868   1.547   3.671   6.159  0.2171 -0.3165 -0.1260
 8470SOL    HW136869   1.482   3.741   6.159  0.0806 -0.4492  2.7443
 8470SOL    HW236870   1.482   3.601   6.161 -1.4257  1.3182  1.7905
 8471SOL     OW36871   1.570   1.153   8.689  0.2399 -0.2306 -0.0194
 8471SOL    HW136872   1.566   1.071   8.737 -0.6971  0.8894  1.8228
 8471SOL    HW236873   1.559   1.134   8.596 -0.7586  1.7593 -0.3177
 8472SOL     OW36874   4.615   2.735   8.536 -0.1353  0.7919  0.0059
 8472SOL    HW136875   4.662   2.801   8.485  0.1705 -0.2717 -1.0535
 8472SOL    HW236876   4.672   2.699   8.604 -2.2143 -0.1485  1.2708
 8473SOL     OW36877   4.468   3.322  10.854  0.0686  0.9367 -0.3775
 8473SOL    HW136878   4.556   3.315  10.892  0.3681 -0.9957 -1.4293
 8473SOL    HW236879   4.481   3.278  10.770  0.9895  1.0016 -0.2712
 8474SOL     OW36880   1.841   3.287  13.598  0.1798  0.2613  0.3888
 8474SOL    HW136881   1.782   3.341  13.651 -0.9934  0.5923 -1.2505
 8474SOL    HW236882   1.782   3.242  13.537  1.4425  1.4581 -1.7245
 8475SOL     OW36883   2.627   2.147   4.137  0.2701  0.1280 -0.5506
 8475SOL    HW136884   2.599   2.056   4.126  0.7411  0.0165 -0.8528
 8475SOL    HW236885   2.556   2.198   4.099  0.2888 -1.5010 -2.7517
 8476SOL     OW36886   0.374   2.519   4.291  0.2499 -0.3052  0.0999
 8476SOL    HW136887   0.461   2.560   4.296  0.4462 -0.5197 -1.3079
 8476SOL    HW236888   0.323   2.595   4.319 -1.2540 -1.1701 -0.3162
 8477SOL     OW36889   2.207   2.922  17.683 -0.0193  0.6511 -0.1694
 8477SOL    HW136890   2.205   3.016   0.005  0.7468  0.9325 -1.4980
 8477SOL    HW236891   2.199   2.927  17.588  1.2813 -0.8950 -0.3516
 8478SOL     OW36892   2.870   2.042   6.942 -0.6518  0.0666  0.0625
 8478SOL    HW136893   2.949   2.063   6.991 -0.8755  2.0514 -0.4326
 8478SOL    HW236894   2.804   2.100   6.980 -0.1564  0.8456 -0.2684
 8479SOL     OW36895   1.756   3.913  16.648 -0.5533  0.0854  0.1135
 8479SOL    HW136896   1.760   3.892  16.555 -0.9680  2.1825 -0.3818
 8479SOL    HW236897   1.740   4.007  16.636 -1.2000 -0.1324 -0.7550
 8480SOL     OW36898   2.449   2.234   8.920 -0.3618 -0.4861  0.1177
 8480SOL    HW136899   2.466   2.291   8.995 -1.8216  0.0824  0.0032
 8480SOL    HW236900   2.407   2.301   8.866 -2.9040 -0.9255  1.5347
 8481SOL     OW36901   3.850   4.351   2.378  0.0741  0.5406  0.0775
 8481SOL    HW136902   3.919   4.321   2.438  2.2933  1.9088 -1.7668
 8481SOL    HW236903   3.874   4.306   2.297  0.1485 -2.4206  1.7533
 8482SOL     OW36904   3.564   3.731   7.726 -0.3955 -0.4394  0.5778
 8482SOL    HW136905   3.620   3.655   7.742  0.5388  0.1868  0.3008
 8482SOL    HW236906   3.588   3.755   7.636 -2.4766  0.8982  0.3842
 8483SOL     OW36907   0.992   0.904   6.309  0.1590  0.3502 -0.4528
 8483SOL    HW136908   0.975   0.929   6.400 -1.9243 -0.3671 -0.6475
 8483SOL    HW236909   0.927   0.835   6.297 -0.4105  0.8643 -0.3348
 8484SOL     OW36910   3.860   2.876  10.950  0.0502  0.6705 -0.0215
 8484SOL    HW136911   3.941   2.826  10.957 -2.7795 -4.0721 -0.9284
 8484SOL    HW236912   3.837   2.874  11.043  0.2462 -1.5048  0.0012
 8485SOL     OW36913   1.437   4.290   5.978 -0.4776  0.1325  0.4584
 8485SOL    HW136914   1.411   4.329   5.895  1.6610 -0.1024 -0.3144
 8485SOL    HW236915   1.518   4.241   5.962  0.2173  1.0608  1.0979
 8486SOL     OW36916   2.221   3.819   7.369  0.0433  0.8032 -0.0365
 8486SOL    HW136917   2.149   3.790   7.426 -0.1495  0.9146 -0.2244
 8486SOL    HW236918   2.221   3.746   7.307 -2.1653 -0.8799  1.9231
 8487SOL     OW36919   3.205   2.647   5.306 -0.2631 -0.3799  0.2564
 8487SOL    HW136920   3.290   2.626   5.345 -1.4913 -2.3707  1.8884
 8487SOL    HW236921   3.215   2.604   5.221  4.1203  0.8947  0.1233
 8488SOL     OW36922   0.159   2.805   1.959  0.1166  0.2612 -0.2900
 8488SOL    HW136923   0.101   2.799   2.035  0.7102 -0.0097  0.1457
 8488SOL    HW236924   0.118   2.877   1.911  1.1245  0.1808 -1.2567
 8489SOL     OW36925   0.158   3.757   2.846  0.2596  0.0651  0.4959
 8489SOL    HW136926   0.251   3.746   2.864 -0.1217 -3.0857  0.5307
 8489SOL    HW236927   0.124   3.668   2.845  2.2200 -0.6630 -0.1315
 8490SOL     OW36928   3.158   2.262   3.314  1.0333 -0.3229  0.4668
 8490SOL    HW136929   3.139   2.210   3.392 -0.3338 -1.5679 -0.6860
 8490SOL    HW236930   3.238   2.216   3.287 -0.2612 -1.9340 -0.6579
 8491SOL     OW36931   1.744   4.666   4.587  0.0331  0.1770  0.3185
 8491SOL    HW136932   1.817   4.703   4.636 -0.4090 -1.7273  2.4347
 8491SOL    HW236933   1.668   4.695   4.637 -1.4384 -0.8349 -1.2999
 8492SOL     OW36934   0.783   0.633  11.116 -0.2483 -0.1768  0.4411
 8492SOL    HW136935   0.852   0.695  11.093  0.4961 -0.9142  0.6546
 8492SOL    HW236936   0.719   0.672  11.056 -0.8810  0.7973  1.7517
 8493SOL     OW36937   0.914   1.237  16.883  0.5354  0.1788 -0.0193
 8493SOL    HW136938   0.868   1.264  16.962  0.5383  0.7590 -0.2191
 8493SOL    HW236939   0.890   1.300  16.815 -0.4869  1.6690  1.7469
 8494SOL     OW36940   2.680   4.409   2.961 -0.1217 -0.9513 -0.3963
 8494SOL    HW136941   2.711   4.359   3.037 -1.2275 -0.0119  0.6913
 8494SOL    HW236942   2.668   4.500   2.991 -2.5289 -1.2299 -0.5015
 8495SOL     OW36943   3.872   4.719   7.557 -0.0851 -0.5196 -0.1013
 8495SOL    HW136944   3.834   0.019   7.641 -1.7375  2.0783 -1.5541
 8495SOL    HW236945   3.819   0.051   7.499  1.3129  0.3220 -0.5684
 8496SOL     OW36946   4.523   3.422  15.816 -0.1061  0.1664 -0.0061
 8496SOL    HW136947   4.441   3.451  15.856  1.0624  3.5847 -0.1312
 8496SOL    HW236948   4.512   3.437  15.722 -0.1966  2.7495  0.4062
 8497SOL     OW36949   1.741   0.076   7.807  0.2380 -0.3558 -0.0036
 8497SOL    HW136950   1.831   0.100   7.831  0.9780 -1.2013 -1.8817
 8497SOL    HW236951   1.724   0.144   7.741  1.4779 -0.0050  0.0378
 8498SOL     OW36952   2.667   0.176   7.787  0.6156 -0.0191  0.4745
 8498SOL    HW136953   2.607   0.251   7.781 -0.5009 -1.0686 -1.4634
 8498SOL    HW236954   2.645   0.134   7.871  1.9735  0.1996  0.9348
 8499SOL     OW36955   2.029   4.488   4.642  0.3158  0.0303  0.0774
 8499SOL    HW136956   2.084   4.539   4.583  3.4498 -2.5500  0.7636
 8499SOL    HW236957   2.075   4.489   4.726 -1.9814  1.7290  1.2931
 8500SOL     OW36958   2.999   4.660   0.344 -0.0124  0.0370 -0.6990
 8500SOL    HW136959   2.960   4.574   0.365 -0.2265 -0.2617 -2.3050
 8500SOL    HW236960   3.019   4.694   0.431 -0.0240  1.4359 -1.2558
 8501SOL     OW36961   2.771   4.366   1.036 -0.4183 -0.1404 -0.1713
 8501SOL    HW136962   2.848   4.386   0.983  0.0629  0.2747  0.6779
 8501SOL    HW236963   2.809   4.287   1.076 -2.6849 -1.9124 -1.5139
 8502SOL     OW36964   3.830   1.870   5.508  0.2871  0.0262  0.5317
 8502SOL    HW136965   3.784   1.788   5.524 -1.1698  1.3868  3.3293
 8502SOL    HW236966   3.878   1.859   5.426 -0.9004 -0.2175 -0.1340
 8503SOL     OW36967   2.239   3.190   0.072  0.7929 -0.2078  0.0457
 8503SOL    HW136968   2.154   3.215   0.110  1.5541  1.0183  0.9564
 8503SOL    HW236969   2.292   3.260   0.111  1.4476 -1.2862  1.0606
 8504SOL     OW36970   2.709   4.034  15.585  1.1360 -0.1106 -0.0753
 8504SOL    HW136971   2.659   4.091  15.643  0.4609 -0.9464  0.1609
 8504SOL    HW236972   2.671   4.049  15.499  1.6372 -0.4216 -0.3537
 8505SOL     OW36973   3.642   0.778   4.213 -0.4708 -0.5471 -0.5394
 8505SOL    HW136974   3.659   0.828   4.133 -1.1557  1.3368  0.4752
 8505SOL    HW236975   3.563   0.823   4.244  0.0059 -0.3983  0.4461
 8506SOL     OW36976   0.073   3.369  13.952 -0.0469 -0.2566 -0.2753
 8506SOL    HW136977   0.166   3.388  13.962 -0.0480  0.0993 -0.9433
 8506SOL    HW236978   0.073   3.280  13.915 -1.6017 -0.6954  0.7939
 8507SOL     OW36979   1.680   4.679  16.595  0.0877  0.1457  0.0691
 8507SOL    HW136980   1.762   4.656  16.639  0.4446 -0.6847 -1.0356
 8507SOL    HW236981   1.670   0.040  16.638 -2.4730 -0.9095  1.5616
 8508SOL     OW36982   2.506   1.592   8.607 -0.0096  0.2460  0.4001
 8508SOL    HW136983   2.569   1.664   8.600 -0.1011  0.4802  1.9742
 8508SOL    HW236984   2.444   1.608   8.535  0.8989  3.4281  0.3310
 8509SOL     OW36985   3.512   3.367   7.141  0.5624 -0.4168 -0.0907
 8509SOL    HW136986   3.528   3.416   7.061  1.4479  2.1331  1.6690
 8509SOL    HW236987   3.473   3.293   7.095 -1.4553 -0.2197  1.3041
 8510SOL     OW36988   3.411   2.555   6.365  0.5879  0.5566 -0.0863
 8510SOL    HW136989   3.422   2.627   6.303 -3.8557 -0.3995 -1.9754
 8510SOL    HW236990   3.335   2.507   6.333 -1.1496  2.0809  1.6880
 8511SOL     OW36991   1.472   2.822   5.161  0.1220 -0.7119  0.3810
 8511SOL    HW136992   1.508   2.847   5.246  1.3103 -1.6107  0.1479
 8511SOL    HW236993   1.439   2.736   5.186 -2.0805 -0.1893 -0.6960
 8512SOL     OW36994   3.236   1.323   9.757 -0.3569 -0.2283 -0.0132
 8512SOL    HW136995   3.246   1.232   9.728 -1.3022 -0.2292 -0.3681
 8512SOL    HW236996   3.327   1.351   9.759 -0.9231  1.6875 -1.1504
 8513SOL     OW36997   0.912   0.693   5.954 -0.0443 -0.3339 -0.2377
 8513SOL    HW136998   0.961   0.615   5.979  1.2673  0.2940 -0.7838
 8513SOL    HW236999   0.958   0.723   5.875 -0.8339 -0.2012 -0.6503
 8514SOL     OW37000   3.598   4.072  14.350 -0.1398  0.0996  0.2673
 8514SOL    HW137001   3.602   4.121  14.433  0.1111 -2.0069  1.4940
 8514SOL    HW237002   3.673   4.102  14.299  0.0525  2.0184  1.6790
 8515SOL     OW37003   3.905   1.988   2.110 -1.0080 -0.0047  0.2190
 8515SOL    HW137004   3.877   2.064   2.059 -0.4667  0.9690  1.3674
 8515SOL    HW237005   3.924   1.924   2.042  0.3238 -0.0359  0.6243
 8516SOL     OW37006   0.463   4.232  12.962 -0.4341  0.3919  0.2298
 8516SOL    HW137007   0.526   4.198  13.025 -1.5036  1.2253  1.7557
 8516SOL    HW237008   0.375   4.226  13.000 -1.0061  0.7515 -1.0344
 8517SOL     OW37009   3.400   1.735   3.040  0.0032  0.9336  0.0846
 8517SOL    HW137010   3.353   1.703   3.117  1.2957 -0.8867  0.1033
 8517SOL    HW237011   3.441   1.654   3.012  1.0494  1.9737 -1.3727
 8518SOL     OW37012   1.429   3.922   1.870  0.3268 -0.1446 -0.0092
 8518SOL    HW137013   1.523   3.903   1.875  0.0401 -0.7078  3.4269
 8518SOL    HW237014   1.402   3.832   1.850 -0.4113 -0.2021  1.2837
 8519SOL     OW37015   2.268   2.881   4.749  0.1420  0.1480 -0.0015
 8519SOL    HW137016   2.356   2.906   4.778  0.0395 -1.3304  1.6056
 8519SOL    HW237017   2.240   2.819   4.816 -3.1787 -2.5755 -3.9666
 8520SOL     OW37018   4.070   3.783  14.419  0.0402 -0.2772 -0.2123
 8520SOL    HW137019   4.142   3.746  14.471 -1.6251 -2.1059  0.8217
 8520SOL    HW237020   4.107   3.869  14.400 -2.1778  1.0717  1.4984
 8521SOL     OW37021   1.111   0.132   5.302 -0.0121  0.3499  0.7286
 8521SOL    HW137022   1.084   0.055   5.252  1.7516  1.2262 -1.5591
 8521SOL    HW237023   1.175   0.101   5.367  0.5602 -1.0458 -0.4912
 8522SOL     OW37024   1.401   0.611  14.074 -0.1013  0.1675  0.3671
 8522SOL    HW137025   1.453   0.626  13.995  0.3086 -4.0733 -0.2008
 8522SOL    HW237026   1.319   0.585  14.034  1.1850 -0.2278 -2.0102
 8523SOL     OW37027   2.400   3.591   9.298  0.8954  0.2876 -0.1185
 8523SOL    HW137028   2.391   3.638   9.215  1.0127  0.2218 -0.1682
 8523SOL    HW237029   2.489   3.558   9.287  1.1247  1.0160 -0.4237
 8524SOL     OW37030   0.930   4.253  17.128  0.2694  0.5769  0.0611
 8524SOL    HW137031   1.005   4.309  17.149  0.9241 -0.5489  0.7195
 8524SOL    HW237032   0.890   4.298  17.053 -1.5472 -3.1258 -1.2021
 8525SOL     OW37033   3.300   4.032   9.452  0.2152  0.0518  0.0093
 8525SOL    HW137034   3.377   3.996   9.410 -1.9979 -3.7243 -0.7701
 8525SOL    HW237035   3.342   4.107   9.494  0.1762 -0.2249  0.5498
 8526SOL     OW37036   1.002   1.522  12.237  0.4013  0.3017  0.0954
 8526SOL    HW137037   0.953   1.471  12.302 -2.1290  0.4947 -1.6585
 8526SOL    HW237038   0.942   1.590  12.206 -0.6161 -0.7354 -0.1931
 8527SOL     OW37039   2.874   0.246   3.999 -0.5787  0.1481  0.0777
 8527SOL    HW137040   2.946   0.276   4.055 -1.4805  1.3861  0.5605
 8527SOL    HW237041   2.916   0.193   3.931 -0.2339 -0.1926  0.5486
 8528SOL     OW37042   0.605   0.061   5.279  0.0967  0.7919  0.1224
 8528SOL    HW137043   0.643   0.001   5.215 -2.0673  0.5977 -1.0051
 8528SOL    HW237044   0.665   0.134   5.270 -0.7055  1.1852 -2.1068
 8529SOL     OW37045   4.528   2.560  13.348  0.6565  0.1293  0.7893
 8529SOL    HW137046   4.611   2.521  13.377 -0.7613 -2.7471  0.9825
 8529SOL    HW237047   4.524   2.514  13.264  1.4112  1.8968 -0.2122
 8530SOL     OW37048   0.249   0.015   3.596 -0.3243 -0.0250  0.1905
 8530SOL    HW137049   0.269   4.689   3.676 -0.2632 -0.5442 -0.1439
 8530SOL    HW237050   0.178   4.692   3.553  1.1614 -1.2488 -0.9413
 8531SOL     OW37051   0.864   0.682   4.458  0.4426 -0.1547  0.1977
 8531SOL    HW137052   0.914   0.759   4.429  1.3503 -0.8366 -0.0586
 8531SOL    HW237053   0.930   0.616   4.437  0.5702  0.8959 -2.7126
 8532SOL     OW37054   4.618   1.483   2.148 -0.2214 -0.4270 -0.1032
 8532SOL    HW137055   4.677   1.407   2.142 -0.5654 -0.7802  0.9693
 8532SOL    HW237056   4.580   1.469   2.235 -0.9264 -1.0057 -0.5042
 8533SOL     OW37057   2.170   1.550   6.416 -0.3083 -0.5218 -0.3527
 8533SOL    HW137058   2.133   1.602   6.488  0.8095 -1.0452  0.6063
 8533SOL    HW237059   2.127   1.464   6.417 -0.0636 -0.6441 -0.4525
 8534SOL     OW37060   1.164   4.705   1.087 -0.1694 -0.8973 -0.2637
 8534SOL    HW137061   1.114   4.665   1.158 -0.2568 -2.9530 -1.4633
 8534SOL    HW237062   1.248   4.659   1.096 -1.0058 -2.8704 -2.2710
 8535SOL     OW37063   4.122   1.758   9.105  0.4331  0.2854 -0.1882
 8535SOL    HW137064   4.118   1.675   9.153  0.2195 -1.3068 -2.9567
 8535SOL    HW237065   4.036   1.745   9.066  0.9103 -0.2319 -1.0638
 8536SOL     OW37066   0.112   3.302   5.707  0.5813 -0.1666  0.3576
 8536SOL    HW137067   0.137   3.348   5.627 -0.1308 -1.1517 -0.4454
 8536SOL    HW237068   0.025   3.277   5.673  0.5106  0.0828  0.3600
 8537SOL     OW37069   2.629   4.214   8.361 -0.1199 -0.3200 -0.4424
 8537SOL    HW137070   2.673   4.287   8.319  0.8179 -0.4570  0.3027
 8537SOL    HW237071   2.677   4.209   8.444 -1.6339 -2.8625  0.3042
 8538SOL     OW37072   4.014   1.604   2.852 -0.2048  0.1597 -0.4615
 8538SOL    HW137073   3.937   1.556   2.821 -1.7865  1.6970  1.0804
 8538SOL    HW237074   4.085   1.560   2.806 -0.6638  0.4575 -1.4539
 8539SOL     OW37075   1.121   3.638   8.889  0.2176 -0.3594 -0.0262
 8539SOL    HW137076   1.157   3.578   8.953 -1.8815 -0.4611  1.0656
 8539SOL    HW237077   1.037   3.670   8.923  0.6590 -1.9751  2.5306
 8540SOL     OW37078   2.639   4.035  16.012 -0.5059  0.4585  0.8650
 8540SOL    HW137079   2.717   4.090  16.014  0.5655 -1.0065 -0.7740
 8540SOL    HW237080   2.683   3.958  15.975 -0.2262  0.3389  1.4433
 8541SOL     OW37081   1.086   1.442  11.536 -0.4452 -0.4974  0.2634
 8541SOL    HW137082   1.076   1.478  11.624 -3.3162 -0.6842  0.0064
 8541SOL    HW237083   1.180   1.427  11.547 -0.4268  0.2939  1.1567
 8542SOL     OW37084   1.670   1.827   9.970  0.0217  0.8312  0.3166
 8542SOL    HW137085   1.745   1.837  10.028 -0.7392  0.1165  1.4264
 8542SOL    HW237086   1.635   1.915   9.985 -0.6490  0.7305 -0.6498
 8543SOL     OW37087   1.674   0.899   4.229 -0.4460 -0.2881 -0.3609
 8543SOL    HW137088   1.623   0.913   4.150  1.2717 -1.9197 -1.7743
 8543SOL    HW237089   1.761   0.930   4.205 -0.1497 -1.7994 -1.2382
 8544SOL     OW37090   3.092   0.034   6.251  0.1265 -0.5192 -0.3793
 8544SOL    HW137091   3.151   0.058   6.322 -1.2815  0.5915  0.4155
 8544SOL    HW237092   3.056   4.673   6.278 -1.4377 -0.1649 -1.3209
 8545SOL     OW37093   3.641   4.053   2.943 -0.0920 -0.1561  0.2995
 8545SOL    HW137094   3.726   4.063   2.901  0.0747  2.3528  1.2472
 8545SOL    HW237095   3.592   4.011   2.873 -0.0895 -0.0413  0.2291
 8546SOL     OW37096   1.303   0.486   5.022 -0.6796 -0.3870 -0.7020
 8546SOL    HW137097   1.346   0.427   4.961 -0.1229  0.4998 -1.1759
 8546SOL    HW237098   1.327   0.450   5.108  1.1302  0.7633 -0.7253
 8547SOL     OW37099   1.894   0.634   6.467 -0.0793  0.0842 -0.0530
 8547SOL    HW137100   1.911   0.669   6.555  1.4796  0.0100 -0.3383
 8547SOL    HW237101   1.949   0.558   6.481 -0.0477  0.9197  4.6088
 8548SOL     OW37102   1.550   3.000   6.805  0.5222 -0.5742  0.0552
 8548SOL    HW137103   1.585   2.917   6.837 -0.4054 -0.6046  0.9703
 8548SOL    HW237104   1.593   3.010   6.720 -0.7966 -0.8968 -0.6444
 8549SOL     OW37105   4.698   2.043   5.083  0.9358  0.1599  0.6613
 8549SOL    HW137106   4.699   1.951   5.109  0.1408  0.6735  2.5453
 8549SOL    HW237107   0.024   2.073   5.158 -0.6930  2.5705  0.7613
 8550SOL     OW37108   2.875   1.269  10.022 -0.3686  0.6354 -0.1150
 8550SOL    HW137109   2.874   1.173  10.019 -0.2412  0.6627 -1.2379
 8550SOL    HW237110   2.965   1.298  10.008 -0.1587  0.2423  0.4094
 8551SOL     OW37111   3.578   2.807   7.773 -0.1347  0.7307 -0.3088
 8551SOL    HW137112   3.516   2.781   7.841  0.0629  1.2380  0.0654
 8551SOL    HW237113   3.644   2.841   7.834  1.2952 -1.8018 -0.4280
 8552SOL     OW37114   1.634   1.618  16.557 -0.0707 -0.2094 -0.1338
 8552SOL    HW137115   1.541   1.599  16.570  0.0205 -1.1631 -0.8653
 8552SOL    HW237116   1.630   1.701  16.509 -1.4682  0.4332  1.1117
 8553SOL     OW37117   1.436   4.163   8.634 -0.0465 -0.4430 -0.0069
 8553SOL    HW137118   1.531   4.152   8.638  0.0587  0.3864 -0.2877
 8553SOL    HW237119   1.421   4.144   8.541  1.0541  2.2779 -0.7242
 8554SOL     OW37120   4.152   0.232   1.084  0.2199  0.6357 -0.3671
 8554SOL    HW137121   4.176   0.153   1.035  0.5757  1.4470 -1.5113
 8554SOL    HW237122   4.076   0.206   1.135  0.5357 -0.1560 -0.3096
 8555SOL     OW37123   0.241   4.279  13.232  0.3466 -0.1056  0.3483
 8555SOL    HW137124   0.196   4.244  13.155 -1.2219 -1.6014  1.9514
 8555SOL    HW237125   0.215   4.208  13.290  1.7158 -0.5935  0.3547
 8556SOL     OW37126   4.535   3.677   7.536 -0.7516 -0.0806  0.5043
 8556SOL    HW137127   4.624   3.712   7.544 -1.0206  0.7218 -0.0563
 8556SOL    HW237128   4.496   3.702   7.620 -0.9771  0.4766  0.2299
 8557SOL     OW37129   4.098   1.825   2.517  0.2369  0.1826 -0.2501
 8557SOL    HW137130   4.106   1.855   2.608  0.0529  0.5761 -0.3614
 8557SOL    HW237131   4.058   1.901   2.475  0.2253  0.4043  0.1583
 8558SOL     OW37132   1.869   2.600   9.286 -0.2812  0.2256  0.1285
 8558SOL    HW137133   1.919   2.682   9.281  0.5683 -0.3279 -0.3426
 8558SOL    HW237134   1.783   2.641   9.286 -0.7437 -0.7488  1.0032
 8559SOL     OW37135   0.976   0.346   2.765 -0.7394  0.2092 -0.1090
 8559SOL    HW137136   1.065   0.326   2.793 -0.9889  0.0865  0.5899
 8559SOL    HW237137   0.947   0.428   2.805  1.1248  1.0884 -0.5656
 8560SOL     OW37138   0.770   1.781   6.873  0.2498  0.6626 -0.1565
 8560SOL    HW137139   0.762   1.714   6.941 -1.8710  0.5663 -0.4897
 8560SOL    HW237140   0.682   1.779   6.834  1.1748  0.7010 -2.2165
 8561SOL     OW37141   3.300   2.695  12.888  0.2618  0.2611 -0.1874
 8561SOL    HW137142   3.377   2.752  12.892 -0.2885  0.9000  1.0524
 8561SOL    HW237143   3.240   2.768  12.879 -3.1518 -2.4105  1.0196
 8562SOL     OW37144   0.645   1.734   7.615 -0.1458 -0.1024  0.2853
 8562SOL    HW137145   0.561   1.750   7.659  0.3189  3.6198 -0.1976
 8562SOL    HW237146   0.613   1.659   7.565 -3.2410  0.9007  0.7391
 8563SOL     OW37147   3.896   3.107  15.174 -0.2582  0.5974  0.4331
 8563SOL    HW137148   3.923   3.047  15.105 -1.6090  0.0568  0.3764
 8563SOL    HW237149   3.897   3.194  15.134  0.2174  0.6301  0.5202
 8564SOL     OW37150   4.305   2.817   5.699 -0.3030 -0.1094  0.7464
 8564SOL    HW137151   4.322   2.754   5.629  1.9192 -0.0188  1.2250
 8564SOL    HW237152   4.292   2.892   5.641  1.2929 -0.3075  0.1513
 8565SOL     OW37153   3.093   2.958  17.439  0.3505 -0.2463 -0.4594
 8565SOL    HW137154   3.089   2.940  17.533 -0.7289 -1.8027 -0.7934
 8565SOL    HW237155   3.006   2.998  17.432 -0.3298 -1.6758 -0.3744
 8566SOL     OW37156   3.320   1.826   3.509  0.1519 -0.3631  0.3337
 8566SOL    HW137157   3.401   1.850   3.464 -0.6929 -0.5249 -1.2828
 8566SOL    HW237158   3.356   1.790   3.590  3.5413 -0.3160 -1.1807
 8567SOL     OW37159   2.960   4.691   3.114 -0.2262 -0.1899  0.1121
 8567SOL    HW137160   3.053   4.683   3.094 -0.6629 -1.1173 -1.5930
 8567SOL    HW237161   2.923   4.645   3.038  0.8931  0.4149 -0.7929
 8568SOL     OW37162   2.094   3.219   2.168  0.6363 -1.1203  0.3754
 8568SOL    HW137163   2.148   3.297   2.154  0.2204 -0.8535  0.2386
 8568SOL    HW237164   2.078   3.207   2.261  0.8268  1.1021  0.6875
 8569SOL     OW37165   2.356   3.526   0.782  0.5853  0.1156  0.2048
 8569SOL    HW137166   2.362   3.511   0.687  1.7181 -1.4807  0.5302
 8569SOL    HW237167   2.332   3.438   0.813  1.6256  0.9875  3.4221
 8570SOL     OW37168   2.449   3.556   6.138  0.1106 -0.3317  0.5865
 8570SOL    HW137169   2.399   3.481   6.170  0.0108 -0.3856  0.2992
 8570SOL    HW237170   2.539   3.524   6.134  0.1544 -0.0381 -0.6594
 8571SOL     OW37171   1.105   3.231  10.131  0.5136 -0.2998  0.4525
 8571SOL    HW137172   1.029   3.248  10.185 -2.0421  2.0253 -3.8198
 8571SOL    HW237173   1.104   3.302  10.066 -0.0989  0.3015  1.1134
 8572SOL     OW37174   1.163   4.339   7.769  0.0757 -0.1498  0.2683
 8572SOL    HW137175   1.118   4.423   7.779  0.1853  0.0787 -1.1819
 8572SOL    HW237176   1.204   4.358   7.684 -1.8799 -0.3710 -0.7285
 8573SOL     OW37177   2.530   0.825   3.332  0.3658 -0.2698  0.1301
 8573SOL    HW137178   2.517   0.792   3.243 -1.9483 -0.3059  0.4880
 8573SOL    HW237179   2.552   0.749   3.385 -0.6857 -0.2837  0.5349
 8574SOL     OW37180   3.275   2.343  16.383 -0.4094 -0.1908  0.1878
 8574SOL    HW137181   3.358   2.355  16.428  0.4272  0.7233 -1.5733
 8574SOL    HW237182   3.213   2.389  16.440  1.1406 -1.1270  2.5877
 8575SOL     OW37183   0.403   3.176  11.983  0.1508 -0.2521 -0.1865
 8575SOL    HW137184   0.418   3.132  12.067 -0.7338  0.3879  0.3031
 8575SOL    HW237185   0.359   3.257  12.008  1.8031  0.6429 -0.1710
 8576SOL     OW37186   3.060   0.005  16.590 -0.1668 -0.6641 -0.2396
 8576SOL    HW137187   3.074   4.700  16.499  2.1380  0.0960 -0.1210
 8576SOL    HW237188   3.096   0.094  16.593  0.7386 -0.9191 -3.1017
 8577SOL     OW37189   2.357   4.212  10.627  0.0548  0.0596  0.2564
 8577SOL    HW137190   2.286   4.207  10.692 -0.9907  1.2884 -0.7942
 8577SOL    HW237191   2.418   4.248  10.691 -1.6142 -0.3971  2.1110
 8578SOL     OW37192   4.408   3.204   3.502  0.4922  0.2075  0.3467
 8578SOL    HW137193   4.462   3.182   3.578 -3.0320 -0.4255  2.6560
 8578SOL    HW237194   4.456   3.271   3.454  1.8697  0.4925  2.1145
 8579SOL     OW37195   3.014   2.755   2.510  0.0670 -0.1300  0.1161
 8579SOL    HW137196   3.054   2.670   2.493 -0.9326 -0.4125 -0.8963
 8579SOL    HW237197   2.984   2.779   2.422 -0.3577 -0.4358  0.1757
 8580SOL     OW37198   1.508   3.320   2.326  0.2201  0.1577  0.2823
 8580SOL    HW137199   1.461   3.369   2.258  2.4596  0.5702 -0.9564
 8580SOL    HW237200   1.468   3.335   2.411 -0.8332 -0.3598 -0.1154
 8581SOL     OW37201   0.243   3.942  16.552 -0.5214 -0.1878  0.0110
 8581SOL    HW137202   0.222   4.031  16.524 -1.9088 -0.2305  0.8711
 8581SOL    HW237203   0.222   3.948  16.645  0.7670  0.8588  0.2229
 8582SOL     OW37204   1.245   2.963   0.913  0.6316  0.0184  1.1814
 8582SOL    HW137205   1.152   2.975   0.930  1.0191  1.0600  2.5564
 8582SOL    HW237206   1.269   2.940   1.003  1.2211 -3.2771  0.1776
 8583SOL     OW37207   2.073   0.471  14.064 -0.0593 -0.7125 -0.9782
 8583SOL    HW137208   2.092   0.474  13.970  0.7960 -1.3618 -0.8215
 8583SOL    HW237209   2.159   0.484  14.104 -0.1180 -0.0894 -1.0433
 8584SOL     OW37210   2.417   3.428   2.681  0.3305 -0.6330 -0.0163
 8584SOL    HW137211   2.503   3.391   2.661  0.1837 -0.4811 -0.8971
 8584SOL    HW237212   2.381   3.345   2.712  2.8296 -1.0271  1.8746
 8585SOL     OW37213   4.677   2.252   6.296 -0.6202 -0.4806 -0.2599
 8585SOL    HW137214   4.683   2.159   6.276  3.3693 -0.8913  2.7022
 8585SOL    HW237215   4.614   2.276   6.228  2.4095  0.5148 -2.6951
 8586SOL     OW37216   1.023   2.312   3.754 -1.0619 -0.1032  0.1928
 8586SOL    HW137217   0.960   2.273   3.813 -1.7998 -1.0663 -1.2350
 8586SOL    HW237218   0.958   2.347   3.693 -1.4254  0.4422  0.8980
 8587SOL     OW37219   4.609   1.033   0.562  0.1832  0.4873  0.1816
 8587SOL    HW137220   4.596   1.026   0.468  0.6815  0.2596  0.1269
 8587SOL    HW237221   4.572   1.117   0.591 -0.2667  0.2327  0.3344
 8588SOL     OW37222   0.556   0.366   4.872  0.3897  0.3679 -0.1130
 8588SOL    HW137223   0.469   0.360   4.833  1.5169  0.1006 -2.5424
 8588SOL    HW237224   0.621   0.359   4.802  0.5984 -2.4317  0.3642
 8589SOL     OW37225   1.457   3.112   7.102 -0.8181 -0.1484  0.2185
 8589SOL    HW137226   1.447   3.207   7.113  0.5467  0.0144  0.0527
 8589SOL    HW237227   1.421   3.092   7.016  1.3422  0.9353 -0.9220
 8590SOL     OW37228   1.482   0.637   8.711  0.5818  0.5695 -0.0917
 8590SOL    HW137229   1.395   0.675   8.720  0.9927  1.7731 -1.2553
 8590SOL    HW237230   1.509   0.662   8.799  1.6432 -3.7041  0.8170
 8591SOL     OW37231   1.669   4.449  14.313  0.4492 -0.6136 -0.7152
 8591SOL    HW137232   1.741   4.386  14.323  0.3432 -0.8197 -1.2732
 8591SOL    HW237233   1.601   4.391  14.346 -0.5550  0.9247 -0.0747
 8592SOL     OW37234   2.543   4.503   2.238  0.1559 -0.3437 -0.4297
 8592SOL    HW137235   2.449   4.488   2.242  0.1122 -0.4685 -1.8405
 8592SOL    HW237236   2.578   4.422   2.274 -0.9632  0.2139  1.8709
 8593SOL     OW37237   3.806   1.033  13.625 -0.0101 -0.8100  0.0055
 8593SOL    HW137238   3.764   0.983  13.555  1.3379 -0.1643 -1.2560
 8593SOL    HW237239   3.853   1.102  13.579 -0.5040 -0.7049 -0.3400
 8594SOL     OW37240   2.353   1.825   1.890 -0.0186 -0.0555  0.5499
 8594SOL    HW137241   2.269   1.779   1.886  0.7028 -1.3552  0.3703
 8594SOL    HW237242   2.326   1.905   1.845 -0.3099 -2.1436 -2.9741
 8595SOL     OW37243   3.613   4.039   4.343 -0.0413 -0.1345 -0.3649
 8595SOL    HW137244   3.616   4.121   4.293  0.2871 -1.4227 -2.4493
 8595SOL    HW237245   3.703   4.013   4.361 -0.1127 -0.4620 -0.4887
 8596SOL     OW37246   1.664   2.971   2.117 -0.2992  0.4262  0.5416
 8596SOL    HW137247   1.635   2.913   2.047  2.7980 -2.5140  1.7188
 8596SOL    HW237248   1.667   3.046   2.057  1.4500  0.2893  0.4690
 8597SOL     OW37249   2.538   1.895   5.101 -0.3866  0.5850  0.0245
 8597SOL    HW137250   2.462   1.941   5.137 -0.4892 -0.5505  1.2717
 8597SOL    HW237251   2.505   1.817   5.055 -4.0393  1.2507  1.5410
 8598SOL     OW37252   3.894   4.264  12.372  0.1524 -0.1212  0.7026
 8598SOL    HW137253   3.935   4.207  12.306 -1.1999 -0.9782  0.6084
 8598SOL    HW237254   3.861   4.198  12.433  0.8696  0.0767  1.2991
 8599SOL     OW37255   2.382   3.806  11.788  0.5653  0.3884  0.3595
 8599SOL    HW137256   2.408   3.878  11.845  1.2358  1.7934 -1.7314
 8599SOL    HW237257   2.447   3.801  11.718  1.4514  1.7323  1.1027
 8600SOL     OW37258   3.139   2.579   8.423 -0.1431 -0.0565 -0.2447
 8600SOL    HW137259   3.231   2.554   8.429  0.1948  1.5275  0.8144
 8600SOL    HW237260   3.104   2.494   8.393 -1.3577  0.6174 -0.7505
 8601SOL     OW37261   1.353   1.986   4.508 -0.1140 -0.1499  0.2617
 8601SOL    HW137262   1.313   2.071   4.493  0.1892 -0.0554 -0.0269
 8601SOL    HW237263   1.300   1.932   4.449 -2.2241  1.8094  0.3725
 8602SOL     OW37264   1.269   3.757   8.216 -0.0802  0.4907 -0.1981
 8602SOL    HW137265   1.234   3.801   8.139  2.5464 -1.6129 -2.6047
 8602SOL    HW237266   1.236   3.669   8.197 -0.9712  0.7229  0.3121
 8603SOL     OW37267   1.652   0.570   2.274 -0.0191  0.1224 -0.2030
 8603SOL    HW137268   1.739   0.571   2.234 -0.0799  0.6660 -0.3271
 8603SOL    HW237269   1.607   0.594   2.193  0.0805 -0.9676 -0.5750
 8604SOL     OW37270   3.295   2.213   6.338  0.6237  0.7943 -0.0179
 8604SOL    HW137271   3.206   2.216   6.371  0.0567 -0.6733 -1.4239
 8604SOL    HW237272   3.282   2.178   6.250  1.5577 -0.9610  0.5378
 8605SOL     OW37273   2.387   1.748  17.451  0.0412 -0.2729 -0.0602
 8605SOL    HW137274   2.481   1.734  17.455  0.0940  0.3341  0.9829
 8605SOL    HW237275   2.397   1.839  17.426 -0.7535 -0.4610 -1.0390
 8606SOL     OW37276   0.372   1.884   3.481 -0.0106 -0.0018 -0.6543
 8606SOL    HW137277   0.422   1.957   3.446  1.3628 -0.4052  0.4609
 8606SOL    HW237278   0.443   1.820   3.484 -0.7429 -0.7236  2.0328
 8607SOL     OW37279   2.702   2.410   0.183 -0.5420 -0.1765  0.6253
 8607SOL    HW137280   2.765   2.440   0.248 -2.5892  0.4785  2.3172
 8607SOL    HW237281   2.708   2.479   0.116 -1.2984 -1.6280 -0.9540
 8608SOL     OW37282   0.455   2.005   6.958  0.0494  0.1558 -0.2610
 8608SOL    HW137283   0.462   2.083   6.903  0.1584  0.9824  0.9148
 8608SOL    HW237284   0.413   2.019   7.043  0.5643  0.5473 -0.0677
 8609SOL     OW37285   0.807   1.474   5.109 -0.4708  0.7377 -0.2024
 8609SOL    HW137286   0.741   1.543   5.099 -2.1582 -0.9706 -0.7780
 8609SOL    HW237287   0.744   1.404   5.093  2.4627 -1.5739 -1.8183
 8610SOL     OW37288   2.915   2.380  15.865  0.3028  0.1400 -0.0414
 8610SOL    HW137289   3.004   2.365  15.831  0.3853  1.0288 -0.2144
 8610SOL    HW237290   2.930   2.369  15.959 -0.3446  1.4021  0.2011
 8611SOL     OW37291   3.008   0.523   6.139  0.1160 -0.0724 -0.5310
 8611SOL    HW137292   2.996   0.597   6.079  1.7011  0.4047 -0.2525
 8611SOL    HW237293   3.103   0.522   6.138  0.0921 -2.4683 -0.7442
 8612SOL     OW37294   1.943   3.181   9.198 -0.4792  0.3575 -0.1595
 8612SOL    HW137295   1.848   3.173   9.191 -0.7498 -0.0032  3.6195
 8612SOL    HW237296   1.950   3.117   9.269 -1.8218  1.0720  0.6167
 8613SOL     OW37297   0.775   1.838   6.010  0.2903  0.0155  0.1570
 8613SOL    HW137298   0.730   1.760   6.039 -0.3511  0.8806  1.4804
 8613SOL    HW237299   0.705   1.875   5.956 -1.8348 -1.7082  1.7577
 8614SOL     OW37300   2.821   3.998   8.028  0.9533  0.3622 -0.4611
 8614SOL    HW137301   2.736   3.962   8.055  0.0817  2.3845 -0.5192
 8614SOL    HW237302   2.792   4.078   7.985  0.1577  1.4683  2.1492
 8615SOL     OW37303   0.701   1.840   1.728 -0.0034 -0.0420 -0.0809
 8615SOL    HW137304   0.790   1.850   1.762 -0.0704  0.1604  0.0381
 8615SOL    HW237305   0.653   1.885   1.798  1.0365  0.8485  0.0559
 8616SOL     OW37306   4.677   1.732   3.167  0.0648 -0.1579 -0.0430
 8616SOL    HW137307   4.620   1.774   3.232 -1.2662 -0.2802 -1.1301
 8616SOL    HW237308   0.033   1.743   3.218 -0.7247 -0.2951  1.2360
 8617SOL     OW37309   2.793   1.508   8.522  0.1228 -0.3024  0.0320
 8617SOL    HW137310   2.865   1.535   8.465 -1.2019 -0.5473 -1.7499
 8617SOL    HW237311   2.716   1.528   8.469  0.3817 -1.3035 -0.7135
 8618SOL     OW37312   3.216   3.952   4.397  0.3268  0.0629  0.2669
 8618SOL    HW137313   3.196   3.870   4.351 -0.4332 -0.5361  1.6667
 8618SOL    HW237314   3.221   4.019   4.329  1.2125 -2.1429 -1.8598
 8619SOL     OW37315   1.834   1.124   9.182  0.0440 -0.3841  0.0403
 8619SOL    HW137316   1.806   1.121   9.090  1.3313  2.0820 -0.4416
 8619SOL    HW237317   1.921   1.163   9.173 -0.3527  0.4442 -0.2850
 8620SOL     OW37318   0.739   1.627  17.553  0.1150  0.8758  0.0017
 8620SOL    HW137319   0.678   1.625  17.479  3.7691 -1.6816 -3.0058
 8620SOL    HW237320   0.735   1.538  17.589  0.1138  0.0645 -1.9769
 8621SOL     OW37321   3.789   2.445   6.561 -0.4424  0.0335  0.1659
 8621SOL    HW137322   3.813   2.450   6.653 -0.7163  0.9950  0.1809
 8621SOL    HW237323   3.702   2.485   6.568 -1.5875 -2.8853  2.3470
 8622SOL     OW37324   3.500   1.828  11.655  0.2915  0.3604  0.0326
 8622SOL    HW137325   3.406   1.824  11.669 -0.0111 -2.1307 -2.7353
 8622SOL    HW237326   3.524   1.759  11.593  1.9213  0.5295  0.4574
 8623SOL     OW37327   0.904   0.501  14.359 -0.4743  0.4028  0.3636
 8623SOL    HW137328   0.870   0.413  14.376 -0.6465  0.3158 -0.4187
 8623SOL    HW237329   0.846   0.530  14.289  0.8196  0.9948 -0.4748
 8624SOL     OW37330   0.370   0.500   4.224 -0.0624 -0.4856  0.5929
 8624SOL    HW137331   0.424   0.460   4.156  0.5510 -2.1167  2.0554
 8624SOL    HW237332   0.290   0.447   4.233 -2.3528  2.9350  0.3018
 8625SOL     OW37333   2.991   1.176   8.944  0.0196  0.2880 -0.2709
 8625SOL    HW137334   2.987   1.137   9.031 -0.2328 -0.0164 -0.4197
 8625SOL    HW237335   3.013   1.262   8.980  0.2113  0.5338 -0.9749
 8626SOL     OW37336   1.722   3.935   2.994 -0.2369  0.0873  0.1083
 8626SOL    HW137337   1.694   3.891   3.075  1.9591  0.5062  1.1077
 8626SOL    HW237338   1.781   3.872   2.952  0.4814  2.2135 -2.0600
 8627SOL     OW37339   3.225   1.245  12.837 -0.0406  0.9533 -0.0584
 8627SOL    HW137340   3.208   1.151  12.830  0.5522  0.8235  0.1890
 8627SOL    HW237341   3.147   1.286  12.800 -0.1122 -0.2510 -1.2535
 8628SOL     OW37342   4.632   3.281   2.645 -0.4037 -0.2730  0.3878
 8628SOL    HW137343   4.554   3.231   2.618  1.0120 -2.0537 -0.3939
 8628SOL    HW237344   4.697   3.266   2.577 -0.8357 -1.7520  0.2940
 8629SOL     OW37345   0.389   3.497  16.045 -0.0486  0.5172 -0.1722
 8629SOL    HW137346   0.371   3.588  16.021 -1.5112  0.9367  2.4301
 8629SOL    HW237347   0.443   3.483  15.967  0.8071  2.4495  0.0747
 8630SOL     OW37348   0.130   0.018   6.588  0.0060  0.5284  0.1125
 8630SOL    HW137349   0.042   0.055   6.580 -0.6572 -1.2541 -0.8656
 8630SOL    HW237350   0.113   4.658   6.544  1.8201  1.0561 -1.6208
 8631SOL     OW37351   0.672   2.548  10.681  0.0470 -0.2212 -0.4160
 8631SOL    HW137352   0.687   2.603  10.758 -0.0396 -0.2226 -0.3979
 8631SOL    HW237353   0.581   2.523  10.697 -0.5963  0.9668 -2.2054
 8632SOL     OW37354   2.081   2.170   4.913  0.2629 -0.1301  0.4570
 8632SOL    HW137355   2.137   2.193   4.987  0.0869  0.0078  0.5470
 8632SOL    HW237356   2.098   2.076   4.912 -0.5765 -0.2590 -0.6857
 8633SOL     OW37357   0.078   1.999   8.600  0.4270 -0.0672 -0.2027
 8633SOL    HW137358   0.168   2.028   8.615  0.3442 -0.6054  1.3591
 8633SOL    HW237359   0.059   1.995   8.694  3.4124 -0.1229  0.4002
 8634SOL     OW37360   4.718   0.975   3.639  0.0305  0.2753 -0.6485
 8634SOL    HW137361   4.687   1.046   3.583  2.1062  1.4487 -0.3208
 8634SOL    HW237362   0.043   0.917   3.581 -1.4605 -0.0335 -1.5938
 8635SOL     OW37363   1.611   1.988   3.504 -0.2930  0.0664 -0.1056
 8635SOL    HW137364   1.542   2.052   3.487  0.2563  0.8415  0.5932
 8635SOL    HW237365   1.692   2.037   3.487 -0.4685  0.1818 -0.6105
 8636SOL     OW37366   4.076   2.051   3.638 -0.1609 -0.0078 -0.0295
 8636SOL    HW137367   4.159   2.076   3.599  0.5939 -3.8794 -0.9200
 8636SOL    HW237368   4.010   2.073   3.572  1.5054  2.3527 -0.8791
 8637SOL     OW37369   3.937   4.296   5.565 -0.1437 -0.2076  0.0288
 8637SOL    HW137370   3.882   4.291   5.642 -1.6120  1.8280 -0.8823
 8637SOL    HW237371   3.878   4.347   5.509 -0.0425  1.2979  1.2895
 8638SOL     OW37372   3.637   2.673  12.675 -0.9499  0.0167  0.1227
 8638SOL    HW137373   3.617   2.728  12.599 -0.5023 -1.6470 -1.2048
 8638SOL    HW237374   3.599   2.733  12.739  0.7224  0.6937  0.4746
 8639SOL     OW37375   2.452   2.279  16.230 -0.3853 -0.5240  0.1547
 8639SOL    HW137376   2.390   2.264  16.302 -0.7146  0.8154  0.1577
 8639SOL    HW237377   2.532   2.314  16.269 -1.7625  1.6624  1.0254
 8640SOL     OW37378   3.443   4.603  10.688 -0.4226 -0.0687  0.3301
 8640SOL    HW137379   3.514   4.584  10.749 -0.6843  1.1544  1.0129
 8640SOL    HW237380   3.483   4.626  10.604  0.7361  3.2646  1.7746
 8641SOL     OW37381   1.564   4.115   0.436  0.1594  0.1557 -0.4635
 8641SOL    HW137382   1.586   4.190   0.490  1.2297  0.1112 -0.8340
 8641SOL    HW237383   1.626   4.051   0.472 -0.1371 -0.4861 -1.0773
 8642SOL     OW37384   2.098   1.195   8.669 -0.1565 -0.3012 -0.0835
 8642SOL    HW137385   2.160   1.150   8.726 -0.3291 -0.6691 -0.1845
 8642SOL    HW237386   2.065   1.259   8.733  1.5330  0.5241 -0.0320
 8643SOL     OW37387   0.274   2.322  11.579 -0.1635  0.1816 -0.2514
 8643SOL    HW137388   0.275   2.349  11.487 -0.9070 -1.2139 -0.6704
 8643SOL    HW237389   0.213   2.250  11.563 -0.4185 -0.0929  2.0163
 8644SOL     OW37390   3.128   2.451  15.436  0.1088  0.3949 -0.3363
 8644SOL    HW137391   3.210   2.461  15.485 -0.1507  0.7934  0.0180
 8644SOL    HW237392   3.098   2.366  15.467  0.8569 -0.0761 -0.8990
 8645SOL     OW37393   0.502   3.827   2.410 -0.0700  0.6223 -0.2688
 8645SOL    HW137394   0.439   3.889   2.446 -0.6367 -0.3713  0.4412
 8645SOL    HW237395   0.467   3.837   2.322  0.0949 -0.3437 -0.4450
 8646SOL     OW37396   0.645   0.288   8.684 -0.3032  0.6522 -0.0831
 8646SOL    HW137397   0.639   0.338   8.765  0.7522 -2.3967  1.8817
 8646SOL    HW237398   0.563   0.311   8.641  1.5011  3.2466 -2.1226
 8647SOL     OW37399   3.725   1.025   4.448  0.8199  0.1207 -0.3870
 8647SOL    HW137400   3.741   1.073   4.529 -0.3987  0.1677 -0.1773
 8647SOL    HW237401   3.652   1.075   4.411 -0.5191 -1.5395  0.0174
 8648SOL     OW37402   2.868   0.752   2.743  0.6593 -0.1566  0.2108
 8648SOL    HW137403   2.880   0.828   2.686 -0.5439  0.0137  0.1844
 8648SOL    HW237404   2.782   0.769   2.781  0.9624  1.0912  0.3698
 8649SOL     OW37405   1.726   1.595  15.570  0.4591 -0.3882 -0.1166
 8649SOL    HW137406   1.813   1.587  15.531  0.3845  0.9374 -0.5536
 8649SOL    HW237407   1.734   1.675  15.623  0.5208  1.2923 -2.6155
 8650SOL     OW37408   1.526   3.843  11.804  0.5540 -0.2916 -0.2421
 8650SOL    HW137409   1.505   3.760  11.846  1.8375  0.0776  1.1300
 8650SOL    HW237410   1.567   3.891  11.876  2.2417  1.1353 -2.1082
 8651SOL     OW37411   4.068   4.071  15.515 -0.2961  0.4219 -0.1367
 8651SOL    HW137412   4.150   4.108  15.483 -0.3643 -1.0180 -1.9850
 8651SOL    HW237413   4.024   4.150  15.547 -1.1436 -0.1108  0.0162
 8652SOL     OW37414   3.011   3.587   6.339  0.4619 -0.2958 -0.6804
 8652SOL    HW137415   3.019   3.491   6.337  0.9377 -0.2535 -0.5473
 8652SOL    HW237416   3.012   3.614   6.247  0.6576  0.4299 -0.4570
 8653SOL     OW37417   0.536   0.542   6.650 -0.0593 -0.0484 -0.6535
 8653SOL    HW137418   0.465   0.578   6.704  0.0938 -1.2678  0.3695
 8653SOL    HW237419   0.615   0.581   6.685  0.6769  0.8446 -3.3702
 8654SOL     OW37420   2.564   0.712   2.397  0.2155  0.3674  0.1826
 8654SOL    HW137421   2.488   0.719   2.454 -0.6316  1.9391 -1.1191
 8654SOL    HW237422   2.632   0.677   2.455 -1.4727 -2.5156  0.4445
 8655SOL     OW37423   2.671   2.224   7.086  0.0272 -0.0713 -0.2872
 8655SOL    HW137424   2.637   2.161   7.151  3.1700  1.5745  2.9406
 8655SOL    HW237425   2.613   2.297   7.106  2.4358  1.8894 -0.5931
 8656SOL     OW37426   1.658   2.838   4.370  0.6399 -0.3116 -0.4571
 8656SOL    HW137427   1.737   2.787   4.384  0.6474 -0.2492 -0.2741
 8656SOL    HW237428   1.663   2.824   4.275  1.8679  1.9767 -0.7474
 8657SOL     OW37429   1.994   4.353   5.802  0.2019 -0.0129 -0.2960
 8657SOL    HW137430   2.059   4.401   5.751 -0.0974 -0.1533 -0.8075
 8657SOL    HW237431   2.023   4.375   5.891  1.5605 -1.9232 -0.2818
 8658SOL     OW37432   0.553   4.294  13.881 -0.0128  0.1667  0.0265
 8658SOL    HW137433   0.606   4.220  13.852  3.2788  1.1125  3.5595
 8658SOL    HW237434   0.557   4.265  13.973 -0.3410 -0.5131 -0.1759
 8659SOL     OW37435   4.101   3.483   4.156  0.5901  0.3312  0.4331
 8659SOL    HW137436   4.126   3.514   4.070  1.2145  2.8302  1.5395
 8659SOL    HW237437   4.008   3.469   4.136  0.8146 -0.1184 -0.2949
 8660SOL     OW37438   3.862   3.472  13.771 -0.1794 -0.3570  0.1389
 8660SOL    HW137439   3.941   3.448  13.820  1.5708  3.3263 -0.8388
 8660SOL    HW237440   3.869   3.568  13.776 -1.5583 -0.1394 -2.1062
 8661SOL     OW37441   2.271   0.460   2.254  0.4219 -0.4337  0.7843
 8661SOL    HW137442   2.352   0.416   2.281  0.8866  0.8661  1.5450
 8661SOL    HW237443   2.236   0.416   2.177  0.7780 -0.1447  0.4576
 8662SOL     OW37444   4.147   1.623  16.536  0.1389 -0.2475  0.2681
 8662SOL    HW137445   4.084   1.617  16.607 -1.0317 -0.0508 -0.7470
 8662SOL    HW237446   4.167   1.530  16.526  0.7235 -0.1711  0.7359
 8663SOL     OW37447   2.475   4.279   3.406  0.2903 -0.3833 -0.0454
 8663SOL    HW137448   2.407   4.312   3.348  0.3955 -0.4009 -0.1800
 8663SOL    HW237449   2.444   4.288   3.496 -2.3574 -0.3422 -0.9833
 8664SOL     OW37450   0.155   4.337   8.034 -0.3004  0.4633 -0.3952
 8664SOL    HW137451   0.160   4.423   7.993 -1.5301  0.8631  0.2838
 8664SOL    HW237452   0.180   4.356   8.125  0.2071 -1.1886 -0.1882
 8665SOL     OW37453   0.635   0.884   0.023 -0.2207  0.1020  0.6005
 8665SOL    HW137454   0.609   0.901   0.114 -1.1250  0.5089  0.2627
 8665SOL    HW237455   0.593   0.798   0.020  0.7141 -0.2793 -1.2365
 8666SOL     OW37456   2.178   1.861  16.741 -0.0880 -0.2774 -0.5427
 8666SOL    HW137457   2.213   1.848  16.829  0.1185 -1.7617 -0.8443
 8666SOL    HW237458   2.086   1.837  16.752 -0.0839  0.0368  0.1670
 8667SOL     OW37459   1.809   4.285  11.294  0.3609  0.1801  0.0718
 8667SOL    HW137460   1.763   4.357  11.252 -1.7861 -0.8526  0.6376
 8667SOL    HW237461   1.841   4.223  11.228 -0.4010 -0.1614  0.0325
 8668SOL     OW37462   1.268   2.743  13.657  0.0489 -0.4087  0.2614
 8668SOL    HW137463   1.353   2.701  13.660  0.7190  0.9338 -0.0065
 8668SOL    HW237464   1.226   2.698  13.730  0.4468 -3.3054 -1.2951
 8669SOL     OW37465   1.571   3.275   5.535 -0.6152 -0.3893 -0.3590
 8669SOL    HW137466   1.619   3.263   5.453 -0.3514 -2.1553  0.0517
 8669SOL    HW237467   1.513   3.349   5.517  0.8750  0.7922 -0.3769
 8670SOL     OW37468   1.960   4.014   0.305 -0.1735  0.6814 -0.3633
 8670SOL    HW137469   1.980   4.048   0.391  0.6108  1.0320 -0.6882
 8670SOL    HW237470   1.918   3.930   0.326  0.6356  0.1693 -0.7665
 8671SOL     OW37471   4.362   0.159   6.480  0.4970  0.0750  0.2222
 8671SOL    HW137472   4.335   0.171   6.389  0.7752 -3.1114 -0.2687
 8671SOL    HW237473   4.291   0.199   6.530 -1.8256 -1.8742 -1.5385
 8672SOL     OW37474   1.819   3.353   3.537 -0.4228  0.0391 -0.2740
 8672SOL    HW137475   1.865   3.328   3.616 -2.9399 -1.4526  0.7299
 8672SOL    HW237476   1.877   3.330   3.464  0.0714 -1.2252  0.5245
 8673SOL     OW37477   2.449   1.730   1.507  0.5301  0.3467  0.2669
 8673SOL    HW137478   2.449   1.822   1.481 -0.3728 -0.3785 -2.2761
 8673SOL    HW237479   2.356   1.710   1.521  0.8248 -1.6303 -0.6565
 8674SOL     OW37480   2.688   1.381   2.232  0.1592  0.1186  0.1303
 8674SOL    HW137481   2.698   1.357   2.140 -0.9560 -1.9779  0.5553
 8674SOL    HW237482   2.618   1.445   2.224  0.7601  0.7488 -0.0904
 8675SOL     OW37483   4.313   1.329   6.349  0.1956  0.6989  0.2049
 8675SOL    HW137484   4.361   1.410   6.366 -1.6961  1.6024  1.2995
 8675SOL    HW237485   4.382   1.285   6.299 -1.6764  0.1725 -1.9081
 8676SOL     OW37486   1.555   2.924   7.518 -0.5074 -0.0456 -0.9185
 8676SOL    HW137487   1.560   2.945   7.425 -0.8680  0.5727 -0.8030
 8676SOL    HW237488   1.562   3.010   7.560 -0.7360 -1.5981  2.2652
 8677SOL     OW37489   2.513   2.121   7.281  0.0523 -0.1574 -0.2850
 8677SOL    HW137490   2.450   2.192   7.264 -1.8988 -1.1673  2.7034
 8677SOL    HW237491   2.479   2.092   7.366 -1.2265  0.4206 -0.5885
 8678SOL     OW37492   0.936   2.370   6.250 -0.1082 -0.3473 -0.1691
 8678SOL    HW137493   1.016   2.322   6.272 -0.7621 -1.7791 -0.8933
 8678SOL    HW237494   0.961   2.462   6.255  0.2823 -0.4791  0.3247
 8679SOL     OW37495   3.896   1.003   9.491  0.3257  0.3679 -0.5208
 8679SOL    HW137496   3.881   0.908   9.490 -0.4689  0.4628  1.5679
 8679SOL    HW237497   3.815   1.045   9.519  0.2069 -0.6417  0.6869
 8680SOL     OW37498   1.352   2.955  13.426 -0.0858 -0.3200  0.2911
 8680SOL    HW137499   1.293   2.896  13.472  0.9456 -3.3691 -2.3385
 8680SOL    HW237500   1.435   2.941  13.471 -0.1741  2.2265  1.2534
 8681SOL     OW37501   2.259   1.108   1.543 -0.0177  0.1624 -0.0159
 8681SOL    HW137502   2.326   1.058   1.496  0.3405  1.5618 -0.9919
 8681SOL    HW237503   2.292   1.100   1.632  1.0104  2.3006 -0.1922
 8682SOL     OW37504   1.105   0.488   3.713 -0.4396 -0.0602 -0.1064
 8682SOL    HW137505   1.061   0.406   3.690 -0.9195  0.8237 -2.3947
 8682SOL    HW237506   1.173   0.464   3.775 -0.3014 -2.0777 -1.0587
 8683SOL     OW37507   0.359   0.832   8.922 -0.0624  0.3288  0.1375
 8683SOL    HW137508   0.300   0.758   8.920 -1.6149  1.4995  3.5286
 8683SOL    HW237509   0.332   0.885   8.997 -1.8288 -1.6088  0.8364
 8684SOL     OW37510   0.671   0.800   9.623  0.4109  1.2435 -0.2870
 8684SOL    HW137511   0.717   0.863   9.679 -1.7502  0.3322  2.5220
 8684SOL    HW237512   0.740   0.741   9.594 -0.7881 -1.2781  1.9890
 8685SOL     OW37513   1.001   3.485   7.684  0.2601 -0.0293  0.2476
 8685SOL    HW137514   0.970   3.569   7.650  0.2211 -0.8371 -1.6847
 8685SOL    HW237515   0.977   3.422   7.616 -0.2967 -0.5595  0.9385
 8686SOL     OW37516   2.677   3.107   7.281  0.2061 -0.0114 -0.0722
 8686SOL    HW137517   2.625   3.142   7.354 -1.5376 -0.1674 -1.2412
 8686SOL    HW237518   2.633   3.151   7.208 -1.3989 -0.4829  0.6122
 8687SOL     OW37519   1.312   1.655   4.668  0.5949  0.0384  0.0648
 8687SOL    HW137520   1.404   1.665   4.693  0.1073 -0.5254  2.0430
 8687SOL    HW237521   1.272   1.729   4.714  1.4095  1.2425 -1.1639
 8688SOL     OW37522   2.770   1.167   7.548  0.1603  0.2792  0.5606
 8688SOL    HW137523   2.710   1.186   7.476 -1.3326  1.4118  2.0927
 8688SOL    HW237524   2.716   1.124   7.615  0.0155 -0.8183 -0.2822
 8689SOL     OW37525   3.382   0.622   3.490  0.2571 -0.1102  0.2004
 8689SOL    HW137526   3.404   0.560   3.560  0.4672  0.1153  0.3322
 8689SOL    HW237527   3.291   0.602   3.469  0.2472 -0.6211  0.7295
 8690SOL     OW37528   2.458   4.634   5.718  0.4069  1.0096  0.2873
 8690SOL    HW137529   2.461   4.649   5.812 -2.6019  1.1737  0.3360
 8690SOL    HW237530   2.552   4.623   5.700 -0.0010  0.4398 -1.4629
 8691SOL     OW37531   0.432   1.767   9.526 -0.0158 -0.7479 -0.1654
 8691SOL    HW137532   0.439   1.744   9.619  1.6309  0.6759  0.0459
 8691SOL    HW237533   0.468   1.855   9.528 -1.1593 -0.3331  2.2039
 8692SOL     OW37534   4.222   2.321   9.220  0.1840  0.1275  0.2304
 8692SOL    HW137535   4.284   2.348   9.152  1.3413  1.6452  1.8938
 8692SOL    HW237536   4.268   2.249   9.264 -0.7159 -1.3376 -1.2197
 8693SOL     OW37537   0.318   0.026   2.719 -0.0562 -0.3153  0.0264
 8693SOL    HW137538   0.325   4.716   2.808  0.8214  0.8418  0.3911
 8693SOL    HW237539   0.389   4.693   2.690 -0.2624 -0.5764  0.0308
 8694SOL     OW37540   0.637   4.155   0.880  0.9582 -0.2067 -0.2615
 8694SOL    HW137541   0.551   4.196   0.888  0.7721 -0.7869  0.7748
 8694SOL    HW237542   0.659   4.170   0.788 -0.2613  0.5542 -0.4300
 8695SOL     OW37543   0.792   0.607   5.693 -0.3575 -0.5245  0.0580
 8695SOL    HW137544   0.880   0.641   5.707 -0.5065 -0.0521 -0.1718
 8695SOL    HW237545   0.803   0.529   5.748 -0.5389 -0.2239  0.5167
 8696SOL     OW37546   4.660   1.882   1.727 -0.0703  0.5885 -0.1144
 8696SOL    HW137547   4.571   1.917   1.718 -0.1241  0.3321 -0.5988
 8696SOL    HW237548   4.680   1.851   1.639  0.9899  1.0314 -0.0270
 8697SOL     OW37549   3.014   2.096   1.285  0.0827 -0.3341 -0.2313
 8697SOL    HW137550   3.059   2.015   1.308 -1.5695 -1.0190  0.5760
 8697SOL    HW237551   2.925   2.085   1.319 -0.0188  1.4090  0.0775
 8698SOL     OW37552   3.339   0.765   8.514 -0.1510 -1.1195 -0.6323
 8698SOL    HW137553   3.362   0.690   8.460  1.3355 -0.3742 -1.0262
 8698SOL    HW237554   3.243   0.770   8.506 -0.0553 -0.7320 -1.5610
 8699SOL     OW37555   0.744   1.824   3.341  0.8612 -0.0985 -0.0534
 8699SOL    HW137556   0.838   1.841   3.334  0.7077 -0.4203 -2.7474
 8699SOL    HW237557   0.710   1.893   3.398 -0.7909 -1.1893  0.2829
 8700SOL     OW37558   4.603   0.016   7.555 -0.2683 -0.0966 -0.1540
 8700SOL    HW137559   4.615   0.081   7.486 -1.1682 -0.5890 -0.7701
 8700SOL    HW237560   4.684   0.026   7.604 -0.4832  0.9882 -0.0238
 8701SOL     OW37561   0.863   0.524   7.183 -0.3785 -0.1089  0.1790
 8701SOL    HW137562   0.802   0.572   7.127 -1.0036  0.5578  1.4333
 8701SOL    HW237563   0.896   0.597   7.235 -0.3124 -0.1208  0.1546
 8702SOL     OW37564   0.652   1.961   4.263  0.1022 -0.5774  0.2030
 8702SOL    HW137565   0.724   1.906   4.231  0.2526  0.1077 -0.6325
 8702SOL    HW237566   0.587   1.893   4.281 -2.4925  1.3750 -1.7519
 8703SOL     OW37567   2.689   4.552  17.637 -0.3971  0.0878  0.2420
 8703SOL    HW137568   2.760   4.588  17.689 -1.4004  2.7000 -0.2215
 8703SOL    HW237569   2.641   4.631  17.614 -1.4611 -1.1141 -1.7232
 8704SOL     OW37570   0.510   1.603   4.799 -0.3341  0.2238 -0.4067
 8704SOL    HW137571   0.467   1.517   4.799 -1.7279  0.9182  0.4214
 8704SOL    HW237572   0.441   1.648   4.848  0.6988  1.7044 -0.3208
 8705SOL     OW37573   4.570   0.902  13.943 -0.0706  0.0604  0.5337
 8705SOL    HW137574   4.633   0.918  14.014  0.7510  0.4638 -0.2942
 8705SOL    HW237575   4.596   0.965  13.876  0.7327 -0.1850  0.6166
 8706SOL     OW37576   1.374   2.012   7.558 -0.0277 -0.3416  0.4303
 8706SOL    HW137577   1.467   1.987   7.554  0.0194  0.0596 -1.1886
 8706SOL    HW237578   1.355   2.029   7.465  1.3416 -0.9806  0.0289
 8707SOL     OW37579   2.359   1.173   2.470 -0.1633 -0.5654  0.1966
 8707SOL    HW137580   2.302   1.183   2.546  0.2102  1.4504  0.1933
 8707SOL    HW237581   2.432   1.228   2.497 -1.3543  1.0308  0.1575
 8708SOL     OW37582   3.209   0.535   2.671 -0.1369 -0.2131 -0.5052
 8708SOL    HW137583   3.234   0.624   2.647 -0.2593  0.3117  1.3096
 8708SOL    HW237584   3.288   0.483   2.678  0.7273  1.5393  2.5791
 8709SOL     OW37585   2.954   1.712  16.860  0.7292  0.1127 -0.0826
 8709SOL    HW137586   2.975   1.645  16.926 -0.7124  0.9986  1.2544
 8709SOL    HW237587   2.998   1.788  16.899  0.7674  0.1985 -0.2939
 8710SOL     OW37588   1.332   0.612   5.403 -0.0618 -0.0198 -0.1836
 8710SOL    HW137589   1.246   0.654   5.398  0.1086  0.1119 -1.9530
 8710SOL    HW237590   1.315   0.524   5.369 -1.1645 -0.3136  1.0810
 8711SOL     OW37591   3.866   3.876   2.788  0.1334  0.2421  0.7308
 8711SOL    HW137592   3.810   3.847   2.716 -0.6134  0.6648  1.1433
 8711SOL    HW237593   3.951   3.838   2.765  1.0733  2.6007  0.3638
 8712SOL     OW37594   3.291   0.304   6.711  0.0881 -0.2340  0.0289
 8712SOL    HW137595   3.250   0.354   6.782  1.7757 -2.7725  2.7726
 8712SOL    HW237596   3.269   0.354   6.632  0.6962  1.1279  0.7139
 8713SOL     OW37597   0.258   0.038   1.367  0.0018  0.5865 -0.2222
 8713SOL    HW137598   0.288   4.671   1.375  0.4231  0.7054 -0.4471
 8713SOL    HW237599   0.225   0.027   1.277  0.5976 -0.1257 -0.3510
 8714SOL     OW37600   1.740   1.253   5.288  0.5438  0.2872 -0.0403
 8714SOL    HW137601   1.816   1.274   5.234  1.2772  0.0095  0.8966
 8714SOL    HW237602   1.671   1.263   5.223 -1.1609 -1.1964  1.5400
 8715SOL     OW37603   1.010   2.234  16.278  0.7135  0.3159  0.2684
 8715SOL    HW137604   0.915   2.236  16.294  0.6232 -0.4823 -0.1631
 8715SOL    HW237605   1.041   2.168  16.340 -2.6019 -0.8538  0.7369
 8716SOL     OW37606   0.730   2.189   6.170 -0.3000  0.2982  0.5944
 8716SOL    HW137607   0.747   2.111   6.223  0.6853  1.5029  2.0597
 8716SOL    HW237608   0.787   2.254   6.212  0.8813  0.8759 -1.9399
 8717SOL     OW37609   0.555   4.712  15.206  0.1748 -0.1263  0.2571
 8717SOL    HW137610   0.465   4.681  15.204 -0.0772  0.6379 -0.2837
 8717SOL    HW237611   0.589   4.661  15.132  0.5196 -1.2583  1.1987
 8718SOL     OW37612   2.513   3.535   8.992  0.4215 -0.8641 -0.2250
 8718SOL    HW137613   2.459   3.613   9.007  1.0915 -0.5236  0.4352
 8718SOL    HW237614   2.600   3.575   8.998 -0.2222  0.7916 -2.0683
 8719SOL     OW37615   0.050   2.820   7.812  0.0204 -0.6319  0.4046
 8719SOL    HW137616   0.027   2.727   7.807 -0.0061 -0.5402 -1.1692
 8719SOL    HW237617   0.057   2.843   7.719  0.6710 -0.5484  0.4729
 8720SOL     OW37618   3.637   1.825   7.146  0.6320 -0.2526  0.1591
 8720SOL    HW137619   3.675   1.743   7.116  2.6201  0.9101 -0.5174
 8720SOL    HW237620   3.559   1.830   7.090  1.4116  1.3749 -0.7936
 8721SOL     OW37621   3.882   4.297   3.917 -0.2412  0.1540  0.3513
 8721SOL    HW137622   3.928   4.381   3.926 -1.3502  0.7207  0.7780
 8721SOL    HW237623   3.942   4.239   3.871  1.3132  0.4904  1.9639
 8722SOL     OW37624   0.235   2.298   4.394  0.0323  0.1999 -0.4491
 8722SOL    HW137625   0.167   2.302   4.326  1.2699  0.6489 -1.6524
 8722SOL    HW237626   0.283   2.379   4.377 -2.3353  1.7001  0.0547
 8723SOL     OW37627   1.591   3.498   8.031  0.0603 -0.1393  0.5797
 8723SOL    HW137628   1.554   3.519   8.117 -1.4192 -3.5403  0.7615
 8723SOL    HW237629   1.684   3.513   8.046 -0.6214  3.4034  1.4365
 8724SOL     OW37630   4.274   3.956   3.709 -0.0260  0.3190 -0.8661
 8724SOL    HW137631   4.286   3.899   3.634  2.1942  0.7256 -0.8073
 8724SOL    HW237632   4.325   3.909   3.774 -0.1554 -2.6014 -2.8878
 8725SOL     OW37633   3.473   1.118  12.253 -0.0756 -0.5510 -0.4782
 8725SOL    HW137634   3.458   1.065  12.332  0.0117  0.6272  0.3313
 8725SOL    HW237635   3.468   1.208  12.286  0.1629 -0.8044  0.2422
 8726SOL     OW37636   2.424   2.005  17.379 -0.4564 -0.3583  0.2690
 8726SOL    HW137637   2.513   2.015  17.412  0.1742 -0.3479 -1.4189
 8726SOL    HW237638   2.388   2.081  17.425 -1.2170 -1.0866  0.8760
 8727SOL     OW37639   1.930   2.272  16.303 -0.2811 -0.6894  0.1414
 8727SOL    HW137640   1.902   2.207  16.367  1.7659  1.3302  3.1025
 8727SOL    HW237641   1.862   2.262  16.237  0.2196  1.9299 -0.7998
 8728SOL     OW37642   0.726   1.376   6.492 -0.0746 -0.8010 -0.3005
 8728SOL    HW137643   0.803   1.352   6.544 -0.1909  1.0659  0.7406
 8728SOL    HW237644   0.683   1.292   6.475 -1.7615 -0.0228  0.1119
 8729SOL     OW37645   1.224   1.372  14.516 -0.4198 -0.2567 -0.2547
 8729SOL    HW137646   1.186   1.344  14.599  1.1188 -0.2528  0.4457
 8729SOL    HW237647   1.153   1.351  14.455 -0.4035  1.2554 -0.8007
 8730SOL     OW37648   2.150   4.333   0.876  0.5766 -0.2269  0.8875
 8730SOL    HW137649   2.095   4.393   0.927 -0.7097  0.9365 -1.9094
 8730SOL    HW237650   2.097   4.254   0.882  0.1327 -0.1596 -2.4650
 8731SOL     OW37651   0.592   4.397   9.580 -0.0604 -0.0639 -0.3313
 8731SOL    HW137652   0.619   4.474   9.629  1.0929  0.0429 -1.1523
 8731SOL    HW237653   0.656   4.333   9.611 -0.1071  0.6463  1.2112
 8732SOL     OW37654   0.162   0.529   7.309 -0.7355  0.4974 -0.0061
 8732SOL    HW137655   0.096   0.590   7.344  1.8315  0.7402  4.4850
 8732SOL    HW237656   0.197   0.568   7.229 -2.0049  1.1711 -0.2518
 8733SOL     OW37657   1.931   1.261   5.052  0.0323  0.4323  0.1202
 8733SOL    HW137658   2.002   1.316   5.084 -1.6717  0.7996  3.3459
 8733SOL    HW237659   1.975   1.207   4.987 -0.1303  0.2623  0.1486
 8734SOL     OW37660   1.880   0.464   3.469  0.0342 -0.2084 -0.0262
 8734SOL    HW137661   1.843   0.384   3.506  1.5038 -1.6366 -1.6651
 8734SOL    HW237662   1.861   0.464   3.375 -0.7665  1.7973  0.1203
 8735SOL     OW37663   2.244   3.614   7.172 -0.8354 -0.2416 -0.3579
 8735SOL    HW137664   2.332   3.610   7.134  0.1126  2.0768  1.5966
 8735SOL    HW237665   2.182   3.652   7.109  0.5175  2.5344 -0.0007
 8736SOL     OW37666   4.102   1.103   4.379 -0.4865 -0.4577 -0.5697
 8736SOL    HW137667   4.063   1.188   4.395  3.7943  0.9673  2.3763
 8736SOL    HW237668   4.050   1.065   4.308 -1.2548  1.1905 -0.8891
 8737SOL     OW37669   0.577   2.625   2.195 -0.0152  0.2887  0.0874
 8737SOL    HW137670   0.665   2.631   2.233 -0.6086 -1.8614  1.8705
 8737SOL    HW237671   0.589   2.660   2.107  2.1775 -0.1267  0.2108
 8738SOL     OW37672   3.074   2.689  15.914 -0.1045  0.1279  0.6249
 8738SOL    HW137673   3.088   2.604  15.956 -0.8255  0.5688  1.7501
 8738SOL    HW237674   2.979   2.689  15.924 -0.0781 -0.8348  0.8785
 8739SOL     OW37675   1.995   2.720   0.905  0.2486 -0.3466  0.1668
 8739SOL    HW137676   2.030   2.652   0.963  1.3024  0.1172  0.0618
 8739SOL    HW237677   2.065   2.784   0.909  0.4008 -0.5277  0.4040
 8740SOL     OW37678   3.934   0.339   8.358  0.2356  0.3644  0.4225
 8740SOL    HW137679   3.845   0.357   8.388  0.2132  1.5122 -0.3275
 8740SOL    HW237680   3.900   0.301   8.277  0.4795  1.7640 -0.3522
 8741SOL     OW37681   4.459   0.078   7.758  0.0791 -0.1912  0.8242
 8741SOL    HW137682   4.425   0.156   7.714  1.4003  0.9259  1.8106
 8741SOL    HW237683   4.519   0.058   7.686  0.0062 -0.0785  0.7330
 8742SOL     OW37684   4.212   0.483   6.130 -0.0512  0.5522 -0.6398
 8742SOL    HW137685   4.132   0.431   6.122 -0.9586  1.4345  2.9635
 8742SOL    HW237686   4.196   0.533   6.210 -0.5023 -2.6399  1.2528
 8743SOL     OW37687   2.531   1.182   5.394 -0.0064 -0.0544  0.0982
 8743SOL    HW137688   2.445   1.177   5.435  0.0670 -1.7595  0.0645
 8743SOL    HW237689   2.580   1.207   5.473 -0.5971  2.7529 -0.4243
 8744SOL     OW37690   2.241   2.178   2.287  0.3090 -0.0353 -0.4127
 8744SOL    HW137691   2.161   2.177   2.339 -0.1625 -2.5611 -1.1915
 8744SOL    HW237692   2.213   2.231   2.212  1.6819  1.2043 -0.0453
 8745SOL     OW37693   0.739   2.225   5.903 -0.5159  0.4510 -0.1682
 8745SOL    HW137694   0.816   2.168   5.893  0.7006  1.4710  3.1812
 8745SOL    HW237695   0.720   2.201   5.994 -1.1431 -0.8792 -0.6528
 8746SOL     OW37696   3.257   3.799   7.545 -0.0085 -0.1371  0.2121
 8746SOL    HW137697   3.213   3.737   7.604 -1.1769  2.3124  1.9715
 8746SOL    HW237698   3.305   3.731   7.498  2.1486 -0.6270  3.0967
 8747SOL     OW37699   3.062   2.791   3.077 -0.2213 -0.5443 -0.0339
 8747SOL    HW137700   3.114   2.868   3.102  0.5814 -0.8650 -0.7191
 8747SOL    HW237701   3.127   2.734   3.036  0.2765  0.6061 -0.8234
 8748SOL     OW37702   1.426   2.144   2.503 -0.6714  0.3021  0.4779
 8748SOL    HW137703   1.515   2.130   2.536 -1.1130 -2.1507  0.6040
 8748SOL    HW237704   1.400   2.235   2.514 -0.3232  0.0227  3.4569
 8749SOL     OW37705   0.117   2.190  14.060 -0.2515 -0.1147 -0.0402
 8749SOL    HW137706   0.075   2.104  14.062  0.3904 -0.4379 -0.2763
 8749SOL    HW237707   0.066   2.226  13.987  1.0153  0.2731 -0.7305
 8750SOL     OW37708   1.548   0.701   1.692 -0.1007  0.3064 -0.4179
 8750SOL    HW137709   1.589   0.727   1.610  0.9433 -0.8128 -0.2465
 8750SOL    HW237710   1.529   0.608   1.675  0.1864  0.4303 -1.3443
 8751SOL     OW37711   3.353   4.552   7.756 -0.1290 -0.1333  0.1320
 8751SOL    HW137712   3.280   4.589   7.805  0.0717 -0.3525  0.5957
 8751SOL    HW237713   3.381   4.489   7.822  1.4366 -1.7103 -2.0154
 8752SOL     OW37714   0.304   3.061   3.077 -0.1963 -0.3346 -0.3335
 8752SOL    HW137715   0.327   3.134   3.018  0.6717 -0.7719 -0.5434
 8752SOL    HW237716   0.324   3.103   3.161 -0.7692 -0.4558 -0.1386
 8753SOL     OW37717   1.875   0.102   2.963 -0.1560  0.0158  0.2812
 8753SOL    HW137718   1.883   0.069   2.873  2.6575  0.8498  0.2041
 8753SOL    HW237719   1.791   0.068   2.992  0.7449 -0.7532  2.0046
 8754SOL     OW37720   4.142   2.344   8.566 -0.9263 -0.0151 -0.1599
 8754SOL    HW137721   4.074   2.324   8.502 -0.6303  0.0687 -0.4984
 8754SOL    HW237722   4.202   2.402   8.520 -0.6339  0.7377  1.1509
 8755SOL     OW37723   1.141   2.238   8.179  0.0050  0.7117 -0.3711
 8755SOL    HW137724   1.086   2.293   8.124 -0.7617  1.8925  1.5575
 8755SOL    HW237725   1.083   2.223   8.254  1.1063  2.9650  0.9352
 8756SOL     OW37726   1.698   3.844   1.826 -0.5490 -0.0651  0.0931
 8756SOL    HW137727   1.744   3.821   1.745 -1.3427  0.3354 -0.4761
 8756SOL    HW237728   1.705   3.764   1.878  0.2339  0.4748  0.8162
 8757SOL     OW37729   1.799   4.096  10.213 -0.7070  0.0875  0.9452
 8757SOL    HW137730   1.705   4.104  10.194 -0.7084  1.0919  1.3871
 8757SOL    HW237731   1.839   4.157  10.151 -2.3469  0.3073  0.0998
 8758SOL     OW37732   2.758   1.264  11.681  0.1250  0.6340  0.2156
 8758SOL    HW137733   2.686   1.207  11.657  0.1960  0.1613  1.1335
 8758SOL    HW237734   2.743   1.338  11.621  0.5745  0.1587 -0.4854
 8759SOL     OW37735   2.843   2.344  15.548  0.1820 -0.7368  0.1655
 8759SOL    HW137736   2.805   2.361  15.634 -0.2950  2.1975 -0.6138
 8759SOL    HW237737   2.923   2.295  15.565 -1.0216 -2.6456  0.3123
 8760SOL     OW37738   2.358   3.682   4.167 -0.0937  0.1638  0.1213
 8760SOL    HW137739   2.308   3.764   4.159  0.2755  0.1951 -1.9827
 8760SOL    HW237740   2.350   3.654   4.258 -1.5918 -0.6401 -0.2497
 8761SOL     OW37741   1.081   3.738   7.356  0.5126  0.6475 -0.1862
 8761SOL    HW137742   0.990   3.739   7.387  0.1406  1.4103 -1.2673
 8761SOL    HW237743   1.119   3.743   7.443  2.8704  2.8446 -1.3554
 8762SOL     OW37744   4.577   2.472   3.718  0.0185  0.2482 -0.2591
 8762SOL    HW137745   4.619   2.389   3.741  0.6417 -0.2473 -3.2615
 8762SOL    HW237746   4.646   2.496   3.657 -0.1841  1.6587  0.0682
 8763SOL     OW37747   1.973   1.403  12.640  0.0245 -0.0326  0.5328
 8763SOL    HW137748   1.939   1.333  12.696 -0.8568 -0.3973 -0.4547
 8763SOL    HW237749   2.054   1.432  12.682  1.6653  0.2877 -2.8333
 8764SOL     OW37750   2.614   3.064   1.245  0.3513 -0.1353 -0.2188
 8764SOL    HW137751   2.640   3.072   1.153  1.1246 -0.0087  0.0089
 8764SOL    HW237752   2.522   3.090   1.255 -0.0577  0.3990 -5.0758
 8765SOL     OW37753   2.363   3.608   4.779  0.2839 -0.1446  0.2245
 8765SOL    HW137754   2.406   3.556   4.847  1.0817  1.9765  1.3553
 8765SOL    HW237755   2.435   3.631   4.719  1.0490  1.3323  1.7025
 8766SOL     OW37756   3.609   1.763   0.963 -0.2388  0.1242 -0.5105
 8766SOL    HW137757   3.540   1.811   0.917  0.6917  1.0772 -0.9011
 8766SOL    HW237758   3.569   1.759   1.050 -0.2770 -0.8255 -0.5673
 8767SOL     OW37759   2.196   2.784   2.929  0.2462  0.3267 -0.3635
 8767SOL    HW137760   2.130   2.845   2.897 -0.5127 -1.5162 -2.3523
 8767SOL    HW237761   2.145   2.703   2.927 -2.9401  2.3389 -1.2701
 8768SOL     OW37762   0.530   3.703  10.315 -0.6846  0.3578 -0.0863
 8768SOL    HW137763   0.576   3.625  10.345 -0.8470  1.3482  2.7630
 8768SOL    HW237764   0.446   3.661  10.300 -0.5357 -0.2948  0.8629
 8769SOL     OW37765   3.050   0.906   6.944 -0.2726 -1.1528  0.4722
 8769SOL    HW137766   2.967   0.878   6.984 -1.6555 -0.3204 -1.8124
 8769SOL    HW237767   3.096   0.823   6.950  0.2311 -0.7542  2.1889
 8770SOL     OW37768   3.578   3.685   7.015 -0.1239 -0.4273  0.2554
 8770SOL    HW137769   3.568   3.761   7.072  0.8723  1.5359 -2.2322
 8770SOL    HW237770   3.671   3.662   7.023  0.0656 -0.5078 -2.3705
 8771SOL     OW37771   2.565   3.203  16.463  0.3552 -0.1393  0.0382
 8771SOL    HW137772   2.550   3.268  16.532  1.5696 -1.8545  1.8988
 8771SOL    HW237773   2.490   3.223  16.406  0.2321 -0.2716  0.1552
 8772SOL     OW37774   1.664   0.528  14.097  0.0867  0.7952  0.2715
 8772SOL    HW137775   1.578   0.534  14.140  0.1952  1.3003  0.4155
 8772SOL    HW237776   1.642   0.558  14.009 -1.3367  0.2388  0.4292
 8773SOL     OW37777   3.396   2.128   7.354 -0.4440  0.3503  0.1702
 8773SOL    HW137778   3.354   2.042   7.347 -0.2315  0.2436  0.1966
 8773SOL    HW237779   3.447   2.120   7.434  1.2009 -1.6957 -1.0841
 8774SOL     OW37780   0.386   3.316  10.204  0.3262 -0.3946  0.6918
 8774SOL    HW137781   0.362   3.399  10.244 -0.3028 -0.5908  0.7197
 8774SOL    HW237782   0.298   3.280  10.192 -0.0262 -0.0606  2.2413
 8775SOL     OW37783   1.397   3.881   3.837  0.1127  0.3981 -0.0813
 8775SOL    HW137784   1.386   3.940   3.762 -2.2563 -0.1730 -0.2072
 8775SOL    HW237785   1.445   3.934   3.900 -1.0645  1.3586  0.0201
 8776SOL     OW37786   4.361   0.062  16.976  0.6497  0.0685 -0.2062
 8776SOL    HW137787   4.421   0.126  16.937  1.2497 -0.6603 -0.4784
 8776SOL    HW237788   4.276   0.086  16.940  1.1113 -0.0616 -1.3856
 8777SOL     OW37789   1.765   3.929   4.407 -0.5489  0.2128 -0.5042
 8777SOL    HW137790   1.806   3.878   4.477  0.1035  0.6248 -0.5928
 8777SOL    HW237791   1.705   3.983   4.460 -1.1824 -3.7117  2.7860
 8778SOL     OW37792   0.355   2.537   1.419 -0.0408  0.1026  0.0142
 8778SOL    HW137793   0.380   2.630   1.413 -0.6069  0.3349  1.2593
 8778SOL    HW237794   0.331   2.512   1.330  1.8279  0.2665 -0.5518
 8779SOL     OW37795   1.027   2.857  13.867  0.1127 -0.2324  0.1834
 8779SOL    HW137796   1.004   2.814  13.950 -0.6423  0.1794  0.1916
 8779SOL    HW237797   0.938   2.883  13.842  0.6771 -0.9589 -2.5179
 8780SOL     OW37798   4.150   1.258   0.633 -0.9362 -0.7296 -0.1802
 8780SOL    HW137799   4.119   1.348   0.642  2.8564 -0.0304  5.5686
 8780SOL    HW237800   4.236   1.273   0.595 -0.7847 -0.1782  0.3883
 8781SOL     OW37801   0.071   2.919   3.340 -0.3011 -0.4228 -0.0691
 8781SOL    HW137802   0.137   2.988   3.352 -0.8527  0.1950 -0.6015
 8781SOL    HW237803   0.096   2.843   3.392 -0.7627  0.5056  1.5146
 8782SOL     OW37804   0.584   0.979   2.497 -0.4499  0.1110 -0.4894
 8782SOL    HW137805   0.675   0.960   2.476 -0.3012 -1.4743  1.5701
 8782SOL    HW237806   0.535   0.960   2.417 -0.8530  0.3084 -0.2873
 8783SOL     OW37807   4.340   2.680   8.636  0.5306  0.2876 -0.4039
 8783SOL    HW137808   4.320   2.595   8.597  0.3993 -0.4724  1.3121
 8783SOL    HW237809   4.436   2.682   8.637  0.5028  2.1438 -1.0773
 8784SOL     OW37810   1.128   1.728   7.677 -0.0185  0.1667  0.0224
 8784SOL    HW137811   1.040   1.698   7.698  0.1890 -1.5056 -1.5574
 8784SOL    HW237812   1.186   1.653   7.682  0.7235  0.6858 -0.8486
 8785SOL     OW37813   0.407   3.912  14.713 -0.2501  0.2133  0.5298
 8785SOL    HW137814   0.411   3.958  14.797  3.6804  1.5439 -0.3752
 8785SOL    HW237815   0.414   3.822  14.745 -2.7471 -0.5064 -0.9700
 8786SOL     OW37816   1.511   0.503   5.652 -0.1627  0.0266 -0.1960
 8786SOL    HW137817   1.573   0.537   5.587 -2.5470 -0.5976 -2.8073
 8786SOL    HW237818   1.563   0.444   5.707  1.6000 -0.2043 -2.0990
 8787SOL     OW37819   3.105   3.845   5.732  0.0984 -0.4054 -0.1303
 8787SOL    HW137820   3.168   3.862   5.662 -0.5162  1.9123 -0.1206
 8787SOL    HW237821   3.140   3.891   5.808 -1.9248 -1.3815  1.4241
 8788SOL     OW37822   1.375   3.642   4.135  0.1445 -0.0163  0.0429
 8788SOL    HW137823   1.317   3.707   4.096  1.9313  1.0497 -0.8335
 8788SOL    HW237824   1.422   3.697   4.198  1.2587 -1.9697  0.9357
 8789SOL     OW37825   4.314   2.242   4.007 -0.0871  0.4811  0.4430
 8789SOL    HW137826   4.339   2.326   3.969  1.5930 -0.0635  0.3658
 8789SOL    HW237827   4.325   2.243   4.102 -0.5937  0.4075  0.5016
 8790SOL     OW37828   1.132   1.976   6.164  0.4062 -0.4376 -0.3979
 8790SOL    HW137829   1.164   2.019   6.084 -1.0102  2.0141  0.3578
 8790SOL    HW237830   1.109   1.895   6.119 -2.2452 -0.1786  0.5117
 8791SOL     OW37831   4.553   3.436   3.981  0.1490 -0.0130  0.1670
 8791SOL    HW137832   4.592   3.522   3.998  2.3045 -0.6126 -1.8659
 8791SOL    HW237833   4.469   3.460   3.942  0.2432  1.3280  0.7813
 8792SOL     OW37834   3.593   2.565   6.853  0.4961  0.2491 -0.3909
 8792SOL    HW137835   3.664   2.502   6.846 -0.4960 -0.9962  0.9856
 8792SOL    HW237836   3.579   2.578   6.759 -1.8421  1.3320  0.1059
 8793SOL     OW37837   0.243   3.450   3.371  0.4476 -0.0162 -0.0122
 8793SOL    HW137838   0.338   3.445   3.385  0.6621  3.5187 -0.1060
 8793SOL    HW237839   0.244   3.521   3.307  0.4097  0.3359  0.3800
 8794SOL     OW37840   2.138   1.833   4.057  0.2143 -0.6280 -0.2276
 8794SOL    HW137841   2.164   1.901   3.995 -0.6906 -0.7769 -0.7774
 8794SOL    HW237842   2.058   1.788   4.029 -0.1741 -1.3158  2.0271
 8795SOL     OW37843   3.620   2.027   1.482 -0.1083 -0.3194  0.2170
 8795SOL    HW137844   3.575   2.069   1.408 -0.3371 -0.2766  0.3792
 8795SOL    HW237845   3.546   2.000   1.537 -0.0252 -0.2167  0.3785
 8796SOL     OW37846   2.948   1.272   7.947  0.3794 -0.3109  0.1591
 8796SOL    HW137847   2.881   1.333   7.916  1.1584  0.1709 -0.5551
 8796SOL    HW237848   2.973   1.302   8.035  0.6173 -0.7540  0.2433
 8797SOL     OW37849   0.595   3.980   2.787  0.4412  0.7428  0.6143
 8797SOL    HW137850   0.583   3.906   2.729  2.0089 -1.0731  2.6177
 8797SOL    HW237851   0.611   3.941   2.873  0.4993 -0.4494  0.0573
 8798SOL     OW37852   1.028   0.345   8.458  0.3466 -0.2289 -0.0676
 8798SOL    HW137853   1.060   0.361   8.370  0.5072 -0.2767 -0.0180
 8798SOL    HW237854   0.940   0.311   8.441  0.4054 -0.5929  0.3381
 8799SOL     OW37855   3.464   0.430   9.602 -0.4213 -0.2545  0.6469
 8799SOL    HW137856   3.414   0.351   9.583 -0.9288 -0.4709  2.9388
 8799SOL    HW237857   3.395   0.493   9.624  0.0663  0.8722 -1.0107
 8800SOL     OW37858   1.550   0.396   5.896 -0.4822 -0.0832  0.8809
 8800SOL    HW137859   1.628   0.431   5.939  0.7081 -1.3766 -0.2277
 8800SOL    HW237860   1.533   0.319   5.950 -1.3711 -1.1140 -0.8350
 8801SOL     OW37861   1.599   1.930   7.406  1.1349 -0.5679 -0.7291
 8801SOL    HW137862   1.674   1.889   7.449  1.0974 -0.7096 -0.7965
 8801SOL    HW237863   1.628   2.021   7.408  2.5032 -1.0032 -0.7551
 8802SOL     OW37864   0.131   1.570   4.870  0.4182  0.0927  0.0234
 8802SOL    HW137865   0.187   1.523   4.808 -0.7914  2.0665 -2.5604
 8802SOL    HW237866   0.083   1.496   4.908  0.6565 -0.1513 -0.1487
 8803SOL     OW37867   2.151   0.539   6.814  0.3517 -0.0615  0.4138
 8803SOL    HW137868   2.161   0.494   6.731  2.5186  2.0859 -0.4738
 8803SOL    HW237869   2.160   0.463   6.872 -0.1581  1.0557  1.9619
 8804SOL     OW37870   2.548   1.531   7.336  0.1700 -0.1210  0.1847
 8804SOL    HW137871   2.603   1.608   7.324  1.9260 -1.4825 -0.6069
 8804SOL    HW237872   2.459   1.566   7.342 -0.3197 -1.3742  0.4678
 8805SOL     OW37873   4.205   2.243   5.961 -0.3150 -0.0300  0.2060
 8805SOL    HW137874   4.119   2.282   5.978 -0.2685  0.0058  0.3605
 8805SOL    HW237875   4.244   2.260   6.046  0.8528 -0.3205 -0.2728
 8806SOL     OW37876   3.702   3.015   9.612  0.2413 -0.4022 -0.0920
 8806SOL    HW137877   3.750   2.935   9.590 -1.5278 -1.3410 -0.5362
 8806SOL    HW237878   3.620   2.990   9.570  0.3241 -1.3886  0.3491
 8807SOL     OW37879   0.763   1.373  12.141 -0.4358 -0.0303  0.5394
 8807SOL    HW137880   0.813   1.379  12.223 -1.4042  2.9607  0.9182
 8807SOL    HW237881   0.751   1.467  12.127 -1.4745 -0.1331  0.7305
 8808SOL     OW37882   2.302   0.370  14.174 -0.4723 -0.3754  0.4456
 8808SOL    HW137883   2.362   0.444  14.173  0.7045 -1.3246  1.0830
 8808SOL    HW237884   2.335   0.314  14.244  2.1123 -0.6084 -0.9773
 8809SOL     OW37885   1.911   1.598   2.017  0.6873 -0.2511  0.1607
 8809SOL    HW137886   1.882   1.508   2.000 -0.9518  0.0840  1.1248
 8809SOL    HW237887   1.832   1.640   2.052 -0.7832 -3.0238  0.2523
 8810SOL     OW37888   1.229   1.532   8.663 -0.5107  0.3122 -0.1477
 8810SOL    HW137889   1.156   1.472   8.682  0.2513 -0.7770 -0.7296
 8810SOL    HW237890   1.293   1.476   8.706 -0.3014  0.4597 -0.2727
 8811SOL     OW37891   2.749   0.008   5.847 -0.5628  0.3380 -0.0405
 8811SOL    HW137892   2.785   0.033   5.762 -4.3569  1.8118 -1.2178
 8811SOL    HW237893   2.824   0.039   5.899 -0.0330 -0.4855 -0.3242
 8812SOL     OW37894   0.424   1.322   9.302  0.3100 -0.0601 -0.7344
 8812SOL    HW137895   0.423   1.231   9.331 -1.0950  0.3825  0.5990
 8812SOL    HW237896   0.358   1.369   9.352  0.3680 -1.3860  0.5620
 8813SOL     OW37897   1.971   4.489   2.784 -0.1763  0.0657 -0.1872
 8813SOL    HW137898   2.039   4.522   2.843 -0.6127 -0.4179  0.5886
 8813SOL    HW237899   1.943   4.576   2.754  3.9244  1.0260 -1.1686
 8814SOL     OW37900   2.423   2.268  14.911 -0.4667 -0.0375 -0.1860
 8814SOL    HW137901   2.474   2.197  14.951 -0.2317 -1.2475 -2.6086
 8814SOL    HW237902   2.430   2.329  14.985 -0.4196 -0.2220 -0.0369
 8815SOL     OW37903   4.625   4.169  12.893 -0.7378 -0.0867  0.3120
 8815SOL    HW137904   4.563   4.142  12.961 -1.9458  1.4464 -0.1805
 8815SOL    HW237905   4.559   4.190  12.828  0.3853  0.1951 -0.7311
 8816SOL     OW37906   4.367   4.106  12.774  0.3701  0.3566  0.3521
 8816SOL    HW137907   4.367   4.065  12.688 -1.0572  1.5346 -0.2116
 8816SOL    HW237908   4.337   4.033  12.828  1.4138 -0.2760  0.0676
 8817SOL     OW37909   1.542   4.186  10.108 -0.1995 -0.5049 -0.1923
 8817SOL    HW137910   1.489   4.197  10.187 -0.0549 -0.7463 -0.0624
 8817SOL    HW237911   1.494   4.128  10.050  1.2601 -0.8783 -1.0294
 8818SOL     OW37912   2.074   0.247   6.166  0.1372 -0.2102  0.4448
 8818SOL    HW137913   2.163   0.213   6.157  0.1326 -0.4430  1.2030
 8818SOL    HW237914   2.075   0.342   6.154 -1.5253 -0.2398  0.1188
 8819SOL     OW37915   0.062   4.397  15.127 -0.1682 -0.1064 -0.3757
 8819SOL    HW137916   0.075   4.336  15.199  0.8318  0.7494  0.1672
 8819SOL    HW237917   4.690   4.407  15.123  0.0217  1.6071 -0.8242
 8820SOL     OW37918   0.098   2.801   5.887  0.4137  0.8772 -0.1731
 8820SOL    HW137919   0.150   2.852   5.950  2.2403 -1.5656  0.2862
 8820SOL    HW237920   0.009   2.805   5.924  0.1631  0.6052 -0.7563
 8821SOL     OW37921   0.884   2.430  12.036  1.0919  0.2047 -0.3099
 8821SOL    HW137922   0.813   2.406  11.977  0.5530 -0.6083  0.6922
 8821SOL    HW237923   0.961   2.395  11.991  1.4928  0.5085  0.1403
 8822SOL     OW37924   2.039   3.303   5.782 -0.0599 -0.1707 -0.1972
 8822SOL    HW137925   1.945   3.321   5.772  0.6252  2.7940 -1.1231
 8822SOL    HW237926   2.061   3.263   5.698  0.1198 -0.6936  0.0999
 8823SOL     OW37927   2.625   2.289   8.523  0.0426 -0.0711  0.2829
 8823SOL    HW137928   2.536   2.290   8.490 -1.0345  0.6593  3.2553
 8823SOL    HW237929   2.615   2.224   8.593 -0.6843 -1.0625 -0.7506
 8824SOL     OW37930   0.554   3.038   6.058 -0.6001  0.1591  0.0351
 8824SOL    HW137931   0.530   3.072   5.971  0.6662 -0.4698 -0.5526
 8824SOL    HW237932   0.485   3.078   6.111 -1.0161 -0.8366  0.2412
 8825SOL     OW37933   0.398   1.337  11.253  0.2538 -0.8501 -0.5265
 8825SOL    HW137934   0.491   1.315  11.249  1.0166  2.3305 -0.1306
 8825SOL    HW237935   0.405   1.387  11.334  1.9823 -1.8892 -0.0417
 8826SOL     OW37936   1.534   0.113   1.675 -0.2462 -0.1181 -0.1495
 8826SOL    HW137937   1.455   0.088   1.723 -1.4261  0.8886 -1.5750
 8826SOL    HW237938   1.573   0.026   1.688 -0.5278  0.0637  1.8949
 8827SOL     OW37939   0.637   3.991   1.211  0.0880 -0.0452  0.1292
 8827SOL    HW137940   0.577   4.066   1.212  1.0376  0.7124 -0.4135
 8827SOL    HW237941   0.662   3.991   1.119 -2.2733  0.6730 -0.5077
 8828SOL     OW37942   4.349   2.772   3.208  0.4719  0.2977  0.2589
 8828SOL    HW137943   4.438   2.805   3.192 -0.0317  0.8129 -1.3904
 8828SOL    HW237944   4.368   2.746   3.299  2.2361 -2.0273 -0.7639
 8829SOL     OW37945   2.132   4.622  14.465  0.0959  0.8629  0.3441
 8829SOL    HW137946   2.217   4.628  14.422 -1.5763 -3.3085 -3.5252
 8829SOL    HW237947   2.146   4.561  14.538  1.7673  1.8473  0.8416
 8830SOL     OW37948   2.850   0.547   7.585  0.2507  0.7953  0.0124
 8830SOL    HW137949   2.805   0.625   7.618 -1.0224  0.0369  0.0839
 8830SOL    HW237950   2.880   0.502   7.664 -0.4873  0.1070 -0.1014
 8831SOL     OW37951   4.510   4.098   9.310  0.2286 -0.0987 -0.2104
 8831SOL    HW137952   4.551   4.012   9.301  2.1071  0.4848  2.6344
 8831SOL    HW237953   4.484   4.116   9.220  3.3939  1.8607 -0.7130
 8832SOL     OW37954   0.842   3.771   7.792  0.6690 -0.3526  0.1077
 8832SOL    HW137955   0.856   3.804   7.881 -0.8867  1.3222 -0.2654
 8832SOL    HW237956   0.890   3.688   7.791 -1.7893 -1.7691  0.9427
 8833SOL     OW37957   1.219   2.643   6.656 -0.5197  0.1846 -0.1837
 8833SOL    HW137958   1.284   2.626   6.724  0.4117 -1.7955 -1.5815
 8833SOL    HW237959   1.257   2.602   6.579 -0.4180  0.2314 -0.1579
 8834SOL     OW37960   3.262   4.654   3.724  0.6443  0.4553  0.0734
 8834SOL    HW137961   3.357   4.659   3.717  0.8061 -1.9864  0.4853
 8834SOL    HW237962   3.246   0.007   3.669 -2.2514  0.0803  0.3819
 8835SOL     OW37963   3.020   0.486  11.840  0.1614  0.1467 -0.3413
 8835SOL    HW137964   3.098   0.481  11.784  0.8093  1.9052  0.4007
 8835SOL    HW237965   3.025   0.400  11.881  0.8123  0.5038  0.3358
 8836SOL     OW37966   4.534   0.873   1.279  0.2641 -0.0352  0.0164
 8836SOL    HW137967   4.439   0.863   1.271  0.1872  1.1044 -0.5026
 8836SOL    HW237968   4.557   0.845   1.367 -0.3616  1.3428  0.6215
 8837SOL     OW37969   3.903   4.098   3.288 -0.3797 -0.0421 -0.2178
 8837SOL    HW137970   3.913   4.016   3.240 -1.6402 -0.6296  0.5022
 8837SOL    HW237971   3.962   4.067   3.356 -0.3597 -0.0984 -0.2614
 8838SOL     OW37972   1.229   3.648   3.833 -0.2729  0.4237  0.5273
 8838SOL    HW137973   1.274   3.564   3.843 -0.8678  0.1796  1.2011
 8838SOL    HW237974   1.292   3.718   3.850 -0.2906  0.6149 -0.1886
 8839SOL     OW37975   3.680   0.020   1.509 -0.7141  0.2361  0.1383
 8839SOL    HW137976   3.772   0.035   1.531 -0.7703  1.1230 -0.2359
 8839SOL    HW237977   3.673   4.649   1.499  1.5002  0.0782  0.0374
 8840SOL     OW37978   1.489   2.712   2.017 -0.1591  0.0892  0.3493
 8840SOL    HW137979   1.438   2.784   1.982  1.5773 -1.0000 -4.4169
 8840SOL    HW237980   1.520   2.670   1.937 -3.2552  1.8578 -1.7982
 8841SOL     OW37981   3.263   4.146   7.847  0.0253  0.3201 -0.1674
 8841SOL    HW137982   3.209   4.084   7.799  1.0402  0.5201 -1.5613
 8841SOL    HW237983   3.311   4.079   7.896  0.7894  0.5080 -0.6590
 8842SOL     OW37984   2.261   1.929   5.507  0.0431 -0.2203  0.0380
 8842SOL    HW137985   2.351   1.955   5.525 -0.0955 -1.0141  1.8523
 8842SOL    HW237986   2.218   2.007   5.472 -0.9607 -0.6280  0.3537
 8843SOL     OW37987   1.086   4.030   6.717 -0.2126  0.1374  0.2502
 8843SOL    HW137988   1.122   4.112   6.683 -1.8754  1.2025  1.0955
 8843SOL    HW237989   1.063   3.982   6.637 -0.6359 -1.6278  1.4172
 8844SOL     OW37990   0.562   4.629   5.661 -0.0132 -0.2454  0.4706
 8844SOL    HW137991   0.546   4.708   5.608  2.1328 -0.9547 -1.2252
 8844SOL    HW237992   0.521   4.556   5.615  0.9807  0.2989 -1.3235
 8845SOL     OW37993   1.365   4.027   2.921 -0.5023 -0.4218  0.0469
 8845SOL    HW137994   1.387   3.961   2.987  0.9473  0.2487  0.2291
 8845SOL    HW237995   1.308   4.094   2.959  1.3089  0.4594  1.1774
 8846SOL     OW37996   2.072   4.427   6.624  0.7306  0.4990  0.0777
 8846SOL    HW137997   2.058   4.332   6.622 -0.5433  0.7142 -0.9254
 8846SOL    HW237998   2.024   4.451   6.703 -0.1541  1.9615 -0.8980
 8847SOL     OW37999   3.652   3.345   0.507  0.7440 -0.7515  0.1839
 8847SOL    HW138000   3.621   3.310   0.591 -0.7070  1.0762  0.4127
 8847SOL    HW238001   3.622   3.273   0.452  0.7173 -2.0936  1.9358
 8848SOL     OW38002   3.164   2.423  14.964 -0.3733 -0.1061 -0.2796
 8848SOL    HW138003   3.164   2.494  15.029  0.9981 -1.3832  1.1385
 8848SOL    HW238004   3.071   2.428  14.942 -0.6171  2.5221  1.3359
 8849SOL     OW38005   4.421   2.792   9.745  0.1026 -0.7044 -0.7692
 8849SOL    HW138006   4.382   2.874   9.773  1.2174  0.2805 -2.1117
 8849SOL    HW238007   4.511   2.823   9.738  1.0433 -3.2667 -0.1397
 8850SOL     OW38008   2.913   1.357  13.560  0.0039 -0.0230 -0.7401
 8850SOL    HW138009   2.882   1.370  13.650  0.3498 -0.8363 -0.5044
 8850SOL    HW238010   2.840   1.386  13.505 -0.3307 -0.0918 -0.3364
 8851SOL     OW38011   0.726   4.394   5.088 -0.0350  0.0484  0.0534
 8851SOL    HW138012   0.680   4.362   5.011  0.6397  0.7086 -0.6201
 8851SOL    HW238013   0.816   4.372   5.063 -0.2915 -0.4019 -0.4743
 8852SOL     OW38014   0.756   0.773   2.974 -0.0197 -0.4070  0.5106
 8852SOL    HW138015   0.717   0.807   2.894 -1.0961 -1.2913  0.6455
 8852SOL    HW238016   0.719   0.832   3.040 -1.2093  0.9609 -1.3637
 8853SOL     OW38017   0.333   1.607   5.119 -0.7469 -0.5093 -0.5749
 8853SOL    HW138018   0.249   1.585   5.160 -1.4705  2.1101 -0.6549
 8853SOL    HW238019   0.311   1.691   5.078 -1.0380 -0.3524 -0.1030
 8854SOL     OW38020   4.380   1.513   0.741  0.1374  0.4391 -0.3119
 8854SOL    HW138021   4.325   1.540   0.814  0.2935 -1.7249  0.6301
 8854SOL    HW238022   4.459   1.527   0.794  0.2285  1.9128 -0.8489
 8855SOL     OW38023   1.504   1.705  14.081  0.2602  0.1508 -0.3020
 8855SOL    HW138024   1.560   1.662  14.017 -0.1474 -0.9550  0.0822
 8855SOL    HW238025   1.555   1.781  14.109  1.1628 -0.4915 -0.2027
 8856SOL     OW38026   1.364   1.495   1.565 -1.1998  0.4623 -0.6160
 8856SOL    HW138027   1.410   1.511   1.483  0.1082 -1.9266 -0.3659
 8856SOL    HW238028   1.431   1.457   1.623 -0.6533  2.2508 -0.0834
 8857SOL     OW38029   2.241   0.410   4.238 -0.0373  0.0667  0.1374
 8857SOL    HW138030   2.267   0.388   4.148 -0.1557  1.5483 -0.2585
 8857SOL    HW238031   2.248   0.505   4.248  0.2722 -0.0165  0.7022
 8858SOL     OW38032   1.988   4.225   5.349  0.6334 -0.8195  0.0770
 8858SOL    HW138033   1.931   4.296   5.378  0.0547  0.0465 -3.1563
 8858SOL    HW238034   2.068   4.274   5.327  2.0851 -3.2762 -0.1527
 8859SOL     OW38035   1.704   0.679   3.005  0.2554  0.5898  0.1140
 8859SOL    HW138036   1.713   0.616   2.933 -0.2221  0.3618  0.2552
 8859SOL    HW238037   1.760   0.756   2.996  0.3327  0.5417  0.1841
 8860SOL     OW38038   2.476   1.291   8.321 -0.2603  0.2145 -0.2721
 8860SOL    HW138039   2.447   1.297   8.411  0.6157 -1.8743  0.1599
 8860SOL    HW238040   2.393   1.289   8.274  1.1289  0.9418 -2.8250
 8861SOL     OW38041   1.628   3.961  12.115  0.1110  0.4001  0.0411
 8861SOL    HW138042   1.535   3.974  12.136 -0.0358 -0.9144  0.2686
 8861SOL    HW238043   1.644   3.869  12.139 -0.4262  0.0155 -1.0758
 8862SOL     OW38044   1.342   2.833   8.290  0.1993  0.4676  0.7548
 8862SOL    HW138045   1.291   2.771   8.238  2.0483  0.5112 -1.1353
 8862SOL    HW238046   1.284   2.884   8.346 -0.5034  0.5702 -0.0575
 8863SOL     OW38047   1.428   0.719  12.026 -0.0930  0.3240 -0.0881
 8863SOL    HW138048   1.409   0.804  12.065 -1.1782  1.0574 -2.1803
 8863SOL    HW238049   1.438   0.668  12.106 -0.9823  0.4888  0.1198
 8864SOL     OW38050   2.641   1.338   6.500 -0.1530 -0.1360  0.0824
 8864SOL    HW138051   2.598   1.336   6.415 -0.3885 -0.6920  0.2182
 8864SOL    HW238052   2.571   1.304   6.556 -1.4542 -0.8756 -2.0270
 8865SOL     OW38053   4.190   1.932   5.314 -0.5032 -0.2904  0.6954
 8865SOL    HW138054   4.248   1.871   5.359 -0.0781  0.1947  0.7961
 8865SOL    HW238055   4.249   1.977   5.253  1.8196 -2.1865  1.5503
 8866SOL     OW38056   0.398   4.537   1.349 -0.2759  0.1963  0.1119
 8866SOL    HW138057   0.354   4.458   1.317  2.9870 -2.1059  1.2649
 8866SOL    HW238058   0.438   4.577   1.271  0.2570 -2.4212 -0.9605
 8867SOL     OW38059   1.962   3.890   2.581  0.0882 -0.1214 -0.0184
 8867SOL    HW138060   1.881   3.881   2.531 -0.0008  0.7890 -0.0360
 8867SOL    HW238061   1.931   3.960   2.639 -2.3340  0.2439 -1.7716
 8868SOL     OW38062   2.975   3.948   7.229 -0.3081 -0.0614  0.4058
 8868SOL    HW138063   2.902   3.913   7.178 -0.4248 -0.6409  0.9620
 8868SOL    HW238064   3.035   3.877   7.208  0.2733 -0.1779  2.4631
 8869SOL     OW38065   3.666   0.606   7.021  0.2320  0.0085 -0.0117
 8869SOL    HW138066   3.641   0.580   6.932 -0.0286  1.4296 -0.3596
 8869SOL    HW238067   3.636   0.697   7.023 -0.9448 -0.2681 -4.7023
 8870SOL     OW38068   3.433   0.896   6.329  0.0172  0.2929 -0.0211
 8870SOL    HW138069   3.411   0.849   6.248 -0.4950  0.5134 -0.0130
 8870SOL    HW238070   3.442   0.983   6.289  0.7325 -0.1440 -0.8230
 8871SOL     OW38071   3.124   0.689   5.013 -0.4448  0.0522  0.1323
 8871SOL    HW138072   3.115   0.594   5.001 -1.4447  0.4046 -1.9221
 8871SOL    HW238073   3.213   0.692   5.048 -0.0283  0.3989 -0.9648
 8872SOL     OW38074   0.365   3.837   0.329  0.1351 -0.0589  0.3302
 8872SOL    HW138075   0.324   3.907   0.381  1.4722  0.3271  0.8460
 8872SOL    HW238076   0.323   3.831   0.243 -1.2723  1.2790  0.9119
 8873SOL     OW38077   3.483   0.042  12.997  0.1490  0.1498  0.1801
 8873SOL    HW138078   3.516   4.703  13.061 -3.2403 -0.6451  1.1535
 8873SOL    HW238079   3.485   0.003  12.910  1.9316  0.0766  0.2624
 8874SOL     OW38080   4.013   3.535   7.490 -0.1296  0.0045 -0.2383
 8874SOL    HW138081   3.923   3.526   7.523  0.0018  0.8170  0.3581
 8874SOL    HW238082   4.004   3.604   7.423 -1.1503  1.7162  1.6456
 8875SOL     OW38083   3.330   1.511   4.223 -0.1642 -0.1413 -0.0736
 8875SOL    HW138084   3.418   1.474   4.216 -0.8622 -1.4227 -2.1940
 8875SOL    HW238085   3.301   1.495   4.133 -0.2217 -0.1346 -0.0562
 8876SOL     OW38086   3.492   3.739   5.682 -0.1546  0.0993  0.6615
 8876SOL    HW138087   3.506   3.794   5.760  2.5162  1.1734 -0.5551
 8876SOL    HW238088   3.403   3.763   5.657  0.0128  1.3908  1.3040
 8877SOL     OW38089   3.003   1.912   6.732  0.3655  0.0519  0.3726
 8877SOL    HW138090   2.932   1.974   6.749 -0.8520 -1.5795  1.1780
 8877SOL    HW238091   3.055   1.917   6.812  1.9445 -1.6305 -0.5441
 8878SOL     OW38092   4.458   4.546  15.683  0.4958 -0.0341 -0.5314
 8878SOL    HW138093   4.364   4.554  15.668  0.2332 -0.2161  0.9772
 8878SOL    HW238094   4.477   4.466  15.634  0.9544 -0.5287  0.4565
 8879SOL     OW38095   0.752   2.013   0.112 -0.0153 -0.9847 -0.0537
 8879SOL    HW138096   0.757   2.109   0.103 -0.5959 -1.1926 -2.6301
 8879SOL    HW238097   0.712   1.997   0.197  1.6954  0.1829  0.9591
 8880SOL     OW38098   3.408   2.503  16.018  0.2879 -0.2072  0.2590
 8880SOL    HW138099   3.456   2.583  16.039  2.5615 -0.5740 -3.5770
 8880SOL    HW238100   3.484   2.445  16.007  0.0245 -0.7085  1.0467
 8881SOL     OW38101   2.378   4.035   5.903 -0.3392  0.0416 -0.2215
 8881SOL    HW138102   2.395   4.052   5.810 -1.4153  0.2342 -0.3881
 8881SOL    HW238103   2.424   3.951   5.909 -0.6422 -0.0761  0.4065
 8882SOL     OW38104   1.232   4.236  17.051 -0.7023  0.1377 -0.4613
 8882SOL    HW138105   1.301   4.272  17.108 -1.3187 -0.1370  0.4515
 8882SOL    HW238106   1.285   4.166  17.012 -0.5963 -0.3353  0.5290
 8883SOL     OW38107   0.249   3.931  16.885  0.2981 -0.0169 -0.0534
 8883SOL    HW138108   0.343   3.950  16.884  0.2474  0.3005  1.1972
 8883SOL    HW238109   0.212   4.018  16.872  1.8659  0.9180  1.7262
 8884SOL     OW38110   0.554   3.330   2.921 -0.1731 -0.5218  0.7964
 8884SOL    HW138111   0.625   3.381   2.880 -1.3727 -0.1368 -0.7682
 8884SOL    HW238112   0.588   3.241   2.921  1.3150  0.0362 -2.8556
 8885SOL     OW38113   3.173   4.030   5.339 -0.2382  0.2603  0.6039
 8885SOL    HW138114   3.165   4.078   5.256 -0.7172 -2.4892 -0.9376
 8885SOL    HW238115   3.142   3.947   5.302  0.3233  0.5914 -0.6358
 8886SOL     OW38116   0.085   0.303  10.870  0.4313  0.1780  0.0895
 8886SOL    HW138117   0.127   0.264  10.794 -0.5296  0.5865 -0.6547
 8886SOL    HW238118   0.012   0.353  10.831  0.3436 -1.5623 -1.9874
 8887SOL     OW38119   0.470   0.893   1.446 -0.5819 -0.3350 -0.4900
 8887SOL    HW138120   0.546   0.874   1.501 -1.6432  0.2933  1.1949
 8887SOL    HW238121   0.499   0.889   1.355  0.2976 -2.6115 -0.1170
 8888SOL     OW38122   0.501   0.324  13.715 -0.2160 -0.1429  0.0079
 8888SOL    HW138123   0.409   0.301  13.728 -0.9233  2.8404  0.2947
 8888SOL    HW238124   0.487   0.403  13.661 -0.6434 -0.8554 -0.9154
 8889SOL     OW38125   3.340   3.802   1.905 -0.1144  0.1452  0.1250
 8889SOL    HW138126   3.331   3.751   1.824 -1.3514  0.8368 -0.1818
 8889SOL    HW238127   3.425   3.841   1.883  0.9072 -1.8466  0.5429
 8890SOL     OW38128   3.971   1.677   0.129 -0.1593  0.2888 -0.2906
 8890SOL    HW138129   4.042   1.729   0.167 -0.4241 -0.1995  0.8649
 8890SOL    HW238130   3.919   1.741   0.080  1.7068  0.9295 -1.4429
 8891SOL     OW38131   2.806   3.997   3.601  0.0366  0.2774  0.1542
 8891SOL    HW138132   2.854   3.932   3.652 -0.3303  1.0999  1.5446
 8891SOL    HW238133   2.718   4.009   3.635  0.6325  2.0743  1.0722
 8892SOL     OW38134   2.252   4.122   2.810 -0.2935  0.1279 -0.2044
 8892SOL    HW138135   2.214   4.034   2.804  3.2389 -1.4627  0.4745
 8892SOL    HW238136   2.210   4.159   2.733  0.2797 -0.9003 -1.0106
 8893SOL     OW38137   3.086   0.681   2.874  0.2115  0.4667  0.2114
 8893SOL    HW138138   3.130   0.611   2.826 -0.4590  0.0411  0.2195
 8893SOL    HW238139   2.998   0.695   2.839 -0.1261 -0.0468  0.8539
 8894SOL     OW38140   1.356   1.257   7.196  0.8777 -0.4602  0.6936
 8894SOL    HW138141   1.346   1.321   7.266 -1.2443  2.2969 -2.1228
 8894SOL    HW238142   1.262   1.241   7.188  0.0696  4.4644  0.1876
 8895SOL     OW38143   0.185   2.415   5.334 -0.1308 -0.3461  0.1048
 8895SOL    HW138144   0.106   2.443   5.287 -0.2334 -0.0872  0.4332
 8895SOL    HW238145   0.163   2.458   5.416 -1.4551 -4.2852  1.8596
 8896SOL     OW38146   0.719   4.343   8.656  0.4570 -1.1583  0.2499
 8896SOL    HW138147   0.664   4.374   8.728  2.6521  1.7775  0.6265
 8896SOL    HW238148   0.654   4.299   8.601 -0.3123  1.8356 -1.1791
 8897SOL     OW38149   1.627   4.002   7.801 -0.1793  0.8977  0.0935
 8897SOL    HW138150   1.574   3.932   7.838 -0.9493  0.8376 -1.0966
 8897SOL    HW238151   1.635   3.969   7.711  2.9549  1.9756 -0.0076
 8898SOL     OW38152   2.443   0.061  10.548 -0.4155  0.7156  0.2520
 8898SOL    HW138153   2.533   0.095  10.551 -0.7875  1.6597  0.8469
 8898SOL    HW238154   2.461   4.696  10.577  0.5734  0.9036  0.2297
 8899SOL     OW38155   2.720   3.247  16.898 -0.1835 -0.2349 -0.1123
 8899SOL    HW138156   2.704   3.317  16.961 -0.1592  1.3146 -1.8331
 8899SOL    HW238157   2.638   3.198  16.906  0.0561 -0.8886 -1.7211
 8900SOL     OW38158   0.028   4.559  17.030  0.1883  0.1071 -0.1105
 8900SOL    HW138159   4.724   4.622  17.097 -0.4422 -0.2341 -0.0527
 8900SOL    HW238160   4.674   4.546  16.976 -1.3370 -0.3677  2.1688
 8901SOL     OW38161   2.831   2.856   6.730 -0.0243 -0.3451  0.1122
 8901SOL    HW138162   2.797   2.943   6.712 -1.1391 -0.5509  1.1966
 8901SOL    HW238163   2.751   2.803   6.727  0.2540 -0.7044 -0.9735
 8902SOL     OW38164   4.081   3.673  13.099  0.6054  0.0038 -0.0226
 8902SOL    HW138165   4.064   3.645  13.189  0.5955 -0.6976 -0.2391
 8902SOL    HW238166   4.099   3.597  13.043 -0.7152 -1.2307  1.2261
 8903SOL     OW38167   1.400   2.555  11.499  0.7003  0.6728  0.2575
 8903SOL    HW138168   1.473   2.520  11.550  0.9886  0.1770 -0.4855
 8903SOL    HW238169   1.343   2.479  11.489  0.6158  0.8127 -0.3240
 8904SOL     OW38170   4.528   3.186   5.830  0.2039 -0.5614 -0.2300
 8904SOL    HW138171   4.501   3.247   5.761 -0.9348 -1.8243 -0.9053
 8904SOL    HW238172   4.621   3.192   5.809  0.4067 -1.2013  0.5166
 8905SOL     OW38173   3.208   4.200   5.132 -0.2225 -0.4317 -0.1309
 8905SOL    HW138174   3.156   4.255   5.074  1.6663 -2.1066 -3.4067
 8905SOL    HW238175   3.273   4.158   5.076  1.1455  0.4517  0.7910
 8906SOL     OW38176   4.609   1.294  16.360 -0.3894  0.0614  0.5675
 8906SOL    HW138177   4.589   1.307  16.452 -0.2179  1.1367  0.4466
 8906SOL    HW238178   4.667   1.217  16.364  0.3119  0.5101 -0.7559
 8907SOL     OW38179   4.244   0.734  11.830  0.2999 -0.0855  0.5246
 8907SOL    HW138180   4.263   0.728  11.736 -0.0382  2.3426  0.3065
 8907SOL    HW238181   4.223   0.645  11.858 -0.4215  0.1706  0.7802
 8908SOL     OW38182   3.666   3.854   9.532 -0.8349  0.0658  0.0888
 8908SOL    HW138183   3.707   3.936   9.560  0.0242 -0.0672 -0.7704
 8908SOL    HW238184   3.742   3.802   9.561 -0.5116  0.4792 -0.0101
 8909SOL     OW38185   4.321   3.842   2.129 -0.2303  0.0002 -0.0354
 8909SOL    HW138186   4.337   3.852   2.035  0.7498  3.5649  0.4996
 8909SOL    HW238187   4.226   3.838   2.122 -0.2979  0.5776  0.5780
 8910SOL     OW38188   3.181   2.745   4.982  0.5216  0.8707  0.5082
 8910SOL    HW138189   3.167   2.743   4.887 -3.7703 -0.8312  1.1816
 8910SOL    HW238190   3.276   2.755   4.980  0.5657  0.1393 -2.3712
 8911SOL     OW38191   0.156   0.702   7.063  0.3327  0.3403 -0.1541
 8911SOL    HW138192   0.234   0.653   7.040  2.3569  4.2882 -1.7752
 8911SOL    HW238193   0.092   0.721   6.994  0.1386 -1.0270 -0.3379
 8912SOL     OW38194   4.125   3.310  11.129  0.2954 -0.2707  0.2958
 8912SOL    HW138195   4.034   3.340  11.137  0.2787 -0.8450  2.2759
 8912SOL    HW238196   4.147   3.312  11.036 -2.2886 -1.6160 -0.3631
 8913SOL     OW38197   4.485   3.832   5.979 -0.2992  0.2385  0.4144
 8913SOL    HW138198   4.494   3.864   6.069  0.1091  2.5545 -0.4273
 8913SOL    HW238199   4.488   3.739   5.998  0.9220  0.4340  1.1939
 8914SOL     OW38200   0.751   0.476  11.511  0.1628  0.1344  0.0276
 8914SOL    HW138201   0.818   0.429  11.561  0.4470 -0.9450 -1.3652
 8914SOL    HW238202   0.697   0.401  11.487  1.9234 -0.7919 -1.0665
 8915SOL     OW38203   2.398   1.510   4.734 -0.1957  0.1521  0.0255
 8915SOL    HW138204   2.370   1.602   4.729 -0.6104  0.0085 -0.2693
 8915SOL    HW238205   2.475   1.522   4.791  0.8162  0.1881 -1.3573
 8916SOL     OW38206   1.656   2.441   6.384  0.1542 -0.1368 -0.2052
 8916SOL    HW138207   1.652   2.475   6.295  1.4721  0.1143 -0.1654
 8916SOL    HW238208   1.747   2.467   6.398 -0.7575  2.6138  0.5259
 8917SOL     OW38209   3.699   3.468   2.679 -0.4177 -0.3687 -0.2490
 8917SOL    HW138210   3.785   3.457   2.639  0.8036 -0.0939  2.2719
 8917SOL    HW238211   3.715   3.501   2.767 -0.0763 -2.7640  0.5956
 8918SOL     OW38212   4.161   4.524   4.500 -0.1255 -0.2395  0.4062
 8918SOL    HW138213   4.157   4.585   4.574  0.1449  0.9597 -0.5744
 8918SOL    HW238214   4.255   4.534   4.484 -0.5649  0.3839 -1.8006
 8919SOL     OW38215   2.963   2.569  16.307 -0.5082  0.5939 -0.0593
 8919SOL    HW138216   2.870   2.547  16.298 -0.3602 -0.2622  0.5368
 8919SOL    HW238217   2.956   2.664  16.323  1.0101  1.0307 -1.9814
 8920SOL     OW38218   3.956   1.628   4.797 -0.1982  0.2171  0.1388
 8920SOL    HW138219   3.983   1.672   4.716  1.2790 -2.3648 -0.7858
 8920SOL    HW238220   3.924   1.706   4.841 -0.8253 -0.8496  1.5664
 8921SOL     OW38221   4.373   2.658   5.472  0.3557  0.2492  0.5833
 8921SOL    HW138222   4.414   2.590   5.419  2.1917  0.1817  2.0906
 8921SOL    HW238223   4.280   2.644   5.457  1.1974 -4.0907 -0.5591
 8922SOL     OW38224   1.536   3.768   8.376  0.1431 -0.0134  0.4957
 8922SOL    HW138225   1.458   3.775   8.322  1.4615 -0.4213 -1.4493
 8922SOL    HW238226   1.548   3.673   8.379 -0.5212 -0.1102 -0.1417
 8923SOL     OW38227   3.066   2.828   6.915 -0.3226 -0.2570  0.0353
 8923SOL    HW138228   2.984   2.824   6.865 -0.4609 -0.7416  0.3010
 8923SOL    HW238229   3.062   2.919   6.944  1.8643 -0.0286 -0.4017
 8924SOL     OW38230   1.866   2.778  12.006  0.4556  0.0846 -0.1381
 8924SOL    HW138231   1.852   2.702  12.062 -1.4369 -0.1317 -0.9144
 8924SOL    HW238232   1.954   2.810  12.025  0.4661 -0.5294  0.8177
 8925SOL     OW38233   4.153   4.527  12.645 -0.0005  0.0912 -0.2293
 8925SOL    HW138234   4.208   4.471  12.699 -0.4221 -2.9826 -2.9735
 8925SOL    HW238235   4.172   4.616  12.676 -0.8027  0.7169 -1.5407
 8926SOL     OW38236   3.766   1.473   3.638 -0.0851  0.1149  0.1903
 8926SOL    HW138237   3.821   1.492   3.562 -0.8760  2.6186  0.2418
 8926SOL    HW238238   3.761   1.377   3.641  0.6531  0.0706 -0.0089
 8927SOL     OW38239   1.784   2.775   6.464  0.0103 -0.2836 -0.4456
 8927SOL    HW138240   1.721   2.836   6.503  0.6657  0.7084 -0.9640
 8927SOL    HW238241   1.759   2.783   6.372  0.3842  0.6931 -0.4629
 8928SOL     OW38242   0.593   3.556   8.487 -0.5849 -0.2015  0.0754
 8928SOL    HW138243   0.566   3.496   8.557 -0.0249 -1.3356 -0.6917
 8928SOL    HW238244   0.575   3.635   8.539  0.1832  0.2985 -0.4277
 8929SOL     OW38245   1.057   3.137   3.309  0.2194  0.4863 -0.2806
 8929SOL    HW138246   1.075   3.166   3.398  2.0563  1.6244 -1.0203
 8929SOL    HW238247   1.115   3.191   3.255  1.0835  0.4505  0.6122
 8930SOL     OW38248   3.169   1.486   8.882  0.0252  0.1348  0.4616
 8930SOL    HW138249   3.125   1.464   8.963  0.7878  2.3918  1.4932
 8930SOL    HW238250   3.115   1.445   8.814 -1.0164 -0.2288  1.5240
 8931SOL     OW38251   3.266   1.441   6.775 -0.1307  0.1475  0.7828
 8931SOL    HW138252   3.350   1.463   6.734  0.8246 -1.5928  1.8176
 8931SOL    HW238253   3.232   1.381   6.708 -0.8475 -0.4107  1.6618
 8932SOL     OW38254   2.493   3.843   5.617 -0.0413  0.1334  0.2316
 8932SOL    HW138255   2.457   3.807   5.536 -0.1394 -2.0145  1.2428
 8932SOL    HW238256   2.498   3.939   5.609 -4.3515  0.5329  2.0500
 8933SOL     OW38257   1.769   2.893   2.625  0.1586  0.2755 -0.1534
 8933SOL    HW138258   1.783   2.903   2.531  1.1524 -0.2932 -0.0678
 8933SOL    HW238259   1.686   2.940   2.623 -0.0019  0.0949  2.0331
 8934SOL     OW38260   2.345   0.202  14.942  0.4417  0.4479  0.2007
 8934SOL    HW138261   2.410   0.247  14.888 -0.0585  2.4185  1.2394
 8934SOL    HW238262   2.341   0.114  14.905 -1.4873  0.9460 -0.7406
 8935SOL     OW38263   3.367   2.593  17.624 -0.5582  0.5145  0.5101
 8935SOL    HW138264   3.402   2.556   0.009 -1.1154  0.3721  0.6812
 8935SOL    HW238265   3.411   2.540  17.559 -2.8209 -0.4191 -0.2468
 8936SOL     OW38266   4.523   0.054   8.089  0.6464  0.1957 -0.6382
 8936SOL    HW138267   4.555   4.704   8.140  1.0767  1.6577  1.2259
 8936SOL    HW238268   4.455   0.006   8.042  0.2849 -0.4109  0.5024
 8937SOL     OW38269   2.712   3.382  17.117 -0.2226  0.0124 -0.2467
 8937SOL    HW138270   2.651   3.432  17.170 -1.3419  0.4736 -1.9653
 8937SOL    HW238271   2.693   3.294  17.151 -0.1534 -0.1766 -0.6881
 8938SOL     OW38272   2.267   1.263   6.132  0.1695  0.1299  0.3554
 8938SOL    HW138273   2.318   1.190   6.096 -1.0465 -0.0419 -0.9761
 8938SOL    HW238274   2.200   1.260   6.065  1.5470  0.9459 -1.0600
 8939SOL     OW38275   0.282   1.995  11.388 -0.0686  0.0217 -0.4042
 8939SOL    HW138276   0.222   2.011  11.461  1.0329  0.9788  0.2793
 8939SOL    HW238277   0.229   2.035  11.318  0.7160  1.4609 -0.1784
 8940SOL     OW38278   2.229   0.310   7.835 -0.1622  0.3206 -0.2024
 8940SOL    HW138279   2.306   0.332   7.782  0.5510  1.2856  1.2365
 8940SOL    HW238280   2.208   0.395   7.873  0.9112  0.4839  0.0305
 8941SOL     OW38281   1.939   1.059   7.506 -0.0813  0.0981  0.2816
 8941SOL    HW138282   1.928   1.045   7.412  0.5472  2.8131 -0.1988
 8941SOL    HW238283   1.851   1.087   7.527  0.5756  2.7289 -0.5346
 8942SOL     OW38284   3.479   0.605   8.876 -0.3050  0.1818 -0.2287
 8942SOL    HW138285   3.555   0.639   8.923 -0.6634  0.0433  0.4632
 8942SOL    HW238286   3.476   0.520   8.921 -3.0376 -0.2249 -1.1929
 8943SOL     OW38287   4.567   1.820  13.736  0.2465  0.0861  0.4498
 8943SOL    HW138288   4.623   1.757  13.691 -0.7064 -0.3999 -0.0443
 8943SOL    HW238289   4.604   1.900  13.701  1.3616 -0.6963 -0.1653
 8944SOL     OW38290   2.536   2.570   1.656 -0.2257  0.1207  0.2940
 8944SOL    HW138291   2.540   2.549   1.750  1.0490  0.8782  0.4121
 8944SOL    HW238292   2.624   2.604   1.641  0.2233 -2.2542 -2.2715
 8945SOL     OW38293   2.042   0.108   8.428 -0.0397 -0.4007  0.1692
 8945SOL    HW138294   1.991   0.171   8.480  0.5860 -0.0365  0.3467
 8945SOL    HW238295   2.034   0.028   8.479  3.0335  0.1713  1.5604
 8946SOL     OW38296   3.999   1.074   7.957 -0.3651  0.0418  0.5055
 8946SOL    HW138297   3.918   1.025   7.943  0.5047 -1.1177 -0.3845
 8946SOL    HW238298   4.058   0.999   7.954 -0.7227 -0.2499  0.7288
 8947SOL     OW38299   2.816   3.529   5.300 -0.1228 -0.2307  0.5185
 8947SOL    HW138300   2.731   3.571   5.293  0.1175  0.4062  1.4484
 8947SOL    HW238301   2.870   3.601   5.269  0.8782 -0.2980  2.0927
 8948SOL     OW38302   3.698   0.121   2.279  0.4048  0.1489 -0.8137
 8948SOL    HW138303   3.632   0.188   2.260 -0.6006 -1.0426 -1.4673
 8948SOL    HW238304   3.666   0.088   2.363 -1.2329  0.4273 -1.3371
 8949SOL     OW38305   2.497   3.781   7.348  0.2486  0.4563  0.8238
 8949SOL    HW138306   2.534   3.757   7.433 -0.1580  0.8595  1.1116
 8949SOL    HW238307   2.410   3.767   7.384  0.0969 -1.5759 -0.2887
 8950SOL     OW38308   2.843   0.805   7.312  0.1075  0.3684  0.1105
 8950SOL    HW138309   2.879   0.768   7.231  1.0676  1.9640 -0.1917
 8950SOL    HW238310   2.918   0.839   7.361  1.8986  0.1643 -2.4763
 8951SOL     OW38311   1.116   2.073   4.068  0.7216 -0.2146  0.1828
 8951SOL    HW138312   1.132   2.122   3.988  2.3107 -0.7746  0.1623
 8951SOL    HW238313   1.069   1.995   4.037  1.1954  0.3772 -2.0135
 8952SOL     OW38314   1.767   1.362   1.974 -0.4290  0.2123  0.0478
 8952SOL    HW138315   1.675   1.350   1.949 -0.8723  1.7073  0.8968
 8952SOL    HW238316   1.803   1.292   1.921 -2.1526 -0.7897  0.1863
 8953SOL     OW38317   2.336   0.716   2.553  0.4493 -0.1986 -0.2403
 8953SOL    HW138318   2.313   0.641   2.607  0.5045  1.3900  2.0035
 8953SOL    HW238319   2.292   0.790   2.596  0.6375 -0.4393  0.3625
 8954SOL     OW38320   0.189   3.081   1.647  0.5713  0.1201 -0.5560
 8954SOL    HW138321   0.259   3.105   1.586 -0.0751  2.5264 -0.3659
 8954SOL    HW238322   0.180   2.986   1.635  1.7319 -0.6733  4.6808
 8955SOL     OW38323   2.601   1.184  12.341 -0.2296  0.7507 -0.0175
 8955SOL    HW138324   2.522   1.217  12.299 -0.9491 -1.4300 -0.3531
 8955SOL    HW238325   2.604   1.097  12.303 -0.2001 -0.2553  2.3273
 8956SOL     OW38326   2.504   4.029   1.839 -0.1903 -0.4528  0.0063
 8956SOL    HW138327   2.529   4.010   1.929  1.6416 -2.5902 -0.9193
 8956SOL    HW238328   2.547   3.951   1.802 -0.8421 -1.3794  1.1867
 8957SOL     OW38329   1.851   4.552   9.262  0.1751 -0.3861 -0.2385
 8957SOL    HW138330   1.783   4.503   9.215  0.6382 -2.2116  1.0094
 8957SOL    HW238331   1.864   4.496   9.339 -1.3409  0.4220  0.6047
 8958SOL     OW38332   0.420   2.955  14.479 -0.0334  0.1089 -0.7726
 8958SOL    HW138333   0.355   2.929  14.544 -0.1315  0.2357 -0.8198
 8958SOL    HW238334   0.413   3.050  14.473 -0.1852  0.1340 -0.2250
 8959SOL     OW38335   2.251   1.258   5.168  0.0561 -0.3095  0.2331
 8959SOL    HW138336   2.326   1.299   5.126 -1.2779  1.5893 -0.2725
 8959SOL    HW238337   2.261   1.172   5.126  1.3678  0.0048 -0.0874
 8960SOL     OW38338   3.672   2.953   3.456  0.3837 -0.0425  0.0519
 8960SOL    HW138339   3.751   3.004   3.437  0.2977  0.2243  0.4191
 8960SOL    HW238340   3.714   2.871   3.484  0.0266 -0.3137 -0.2021
 8961SOL     OW38341   0.462   2.244   6.166  0.1383  0.1019 -0.1083
 8961SOL    HW138342   0.547   2.211   6.196  0.0053  0.0230  0.1907
 8961SOL    HW238343   0.484   2.336   6.154 -0.2117  0.8170  4.7371
 8962SOL     OW38344   1.598   3.645   2.928 -0.6978  0.6156 -0.2370
 8962SOL    HW138345   1.636   3.615   2.845 -0.5024  0.8131 -0.2192
 8962SOL    HW238346   1.609   3.740   2.918  0.2091  0.8288  2.9138
 8963SOL     OW38347   0.220   2.294   4.993  0.2326  0.5198 -0.5721
 8963SOL    HW138348   0.231   2.226   5.059  1.1850 -0.9311 -2.2499
 8963SOL    HW238349   0.154   2.261   4.933  0.5965 -1.5867  0.2104
 8964SOL     OW38350   4.327   0.839   7.468 -0.6465  1.2159 -0.1876
 8964SOL    HW138351   4.289   0.864   7.384 -0.0271 -1.1428 -1.1584
 8964SOL    HW238352   4.385   0.912   7.487  1.8988 -1.1539  1.1491
 8965SOL     OW38353   1.763   3.583   2.734  0.1408  0.4943 -0.0344
 8965SOL    HW138354   1.772   3.533   2.653  1.7383 -0.0681  0.4826
 8965SOL    HW238355   1.814   3.528   2.794  1.3997  0.9263 -0.6955
 8966SOL     OW38356   1.238   2.062  15.886 -0.4519 -0.2058  0.0925
 8966SOL    HW138357   1.208   1.991  15.829 -0.2462  0.1371 -0.4398
 8966SOL    HW238358   1.229   2.021  15.972  2.8101 -0.6118  0.2748
 8967SOL     OW38359   1.073   1.911   4.628  0.0774  0.6867 -0.1806
 8967SOL    HW138360   1.003   1.878   4.571 -0.8866  2.9362 -0.2868
 8967SOL    HW238361   1.146   1.927   4.568  0.4054 -0.6229 -0.1285
 8968SOL     OW38362   0.904   0.634   3.808 -0.4261  0.2291  0.1476
 8968SOL    HW138363   0.888   0.634   3.903 -3.2859  1.1908 -0.3234
 8968SOL    HW238364   0.976   0.573   3.795 -0.1466  0.4107  0.8042
 8969SOL     OW38365   1.784   2.706   4.630  0.0994  0.4434 -0.2489
 8969SOL    HW138366   1.794   2.799   4.650  1.5363  0.4662 -1.1385
 8969SOL    HW238367   1.688   2.705   4.637  0.2574 -1.5173  1.5343
 8970SOL     OW38368   3.839   2.052  12.200  0.0996 -0.2525  0.0909
 8970SOL    HW138369   3.762   2.088  12.242 -1.0402 -1.2700 -1.1241
 8970SOL    HW238370   3.885   2.028  12.281  0.4501  0.2705  0.0441
 8971SOL     OW38371   1.260   4.575   5.919 -0.2444  0.4877  0.5823
 8971SOL    HW138372   1.340   4.604   5.962  0.9449 -1.7296 -0.0925
 8971SOL    HW238373   1.198   4.625   5.972 -0.9120  0.1851  0.0836
 8972SOL     OW38374   4.029   4.636   3.009  0.2125  0.4508 -0.0505
 8972SOL    HW138375   4.109   4.585   3.018 -0.6864 -0.2871  3.7708
 8972SOL    HW238376   4.065   4.704   2.952 -0.5692  0.4641 -0.5364
 8973SOL     OW38377   1.893   0.205   8.799 -0.1870 -0.0549  0.2347
 8973SOL    HW138378   1.823   0.148   8.766 -0.5956  0.3245  0.4539
 8973SOL    HW238379   1.896   0.185   8.892 -2.1661  1.9571  0.7180
 8974SOL     OW38380   0.278   4.463   1.791  0.1629  0.2591 -0.6607
 8974SOL    HW138381   0.184   4.480   1.801 -0.1674 -2.7399  1.0632
 8974SOL    HW238382   0.322   4.533   1.840  0.6832  0.5963 -1.6011
 8975SOL     OW38383   1.243   3.658  12.178 -0.1626 -0.4927  0.0412
 8975SOL    HW138384   1.188   3.582  12.158 -1.6907  1.0908 -1.7752
 8975SOL    HW238385   1.177   3.725  12.195 -1.7455 -2.3026  1.1438
 8976SOL     OW38386   4.384   4.707   4.761 -0.4648  0.5128 -0.3393
 8976SOL    HW138387   4.410   4.627   4.808 -1.9136  0.6332  0.6978
 8976SOL    HW238388   4.377   0.040   4.837  1.5789  1.1743 -0.6565
 8977SOL     OW38389   0.090   1.491  12.986 -0.4401  0.0124  0.0280
 8977SOL    HW138390   0.155   1.467  12.920  0.6534  0.0149  1.0867
 8977SOL    HW238391   0.061   1.412  13.032 -1.3220 -0.0450 -0.6336
 8978SOL     OW38392   2.057   3.405   1.143 -0.4199 -0.6340  0.5949
 8978SOL    HW138393   2.133   3.353   1.119 -0.2193  0.5980 -1.4242
 8978SOL    HW238394   1.981   3.375   1.094  0.5920 -1.3455 -0.5444
 8979SOL     OW38395   3.947   3.029   5.249 -0.5657 -0.3760 -0.0353
 8979SOL    HW138396   3.926   3.040   5.156 -0.7599  3.4793  0.4605
 8979SOL    HW238397   3.891   2.959   5.282  2.2161 -3.2977 -1.4701
 8980SOL     OW38398   3.875   2.887   4.797 -0.3674  0.3697 -0.7059
 8980SOL    HW138399   3.946   2.858   4.854  0.0222  2.5084 -0.0922
 8980SOL    HW238400   3.913   2.937   4.724  0.4381  1.4654  0.4575
 8981SOL     OW38401   3.304   0.185   9.576 -0.8501 -0.2797  0.0021
 8981SOL    HW138402   3.294   0.104   9.527  0.7119  0.0298 -0.8538
 8981SOL    HW238403   3.254   0.158   9.653  0.1270 -2.4860 -0.1528
 8982SOL     OW38404   2.747   1.738   5.552  0.1739 -0.1047  0.1283
 8982SOL    HW138405   2.704   1.784   5.624  0.2636 -3.5064  2.3565
 8982SOL    HW238406   2.745   1.803   5.482 -2.7656  0.7480  0.9868
 8983SOL     OW38407   3.664   4.323   6.918  0.2769 -0.3168 -0.0080
 8983SOL    HW138408   3.732   4.356   6.977 -1.1604 -0.5516  1.7524
 8983SOL    HW238409   3.672   4.369   6.834  0.5373 -1.6844 -0.7269
 8984SOL     OW38410   1.379   3.466   2.101 -0.1737 -0.3491 -0.1839
 8984SOL    HW138411   1.316   3.537   2.111  0.0244 -0.0398 -1.2175
 8984SOL    HW238412   1.336   3.401   2.045  0.7806 -2.5422  1.6261
 8985SOL     OW38413   4.147   0.189   8.273  0.4506  0.4299  0.0426
 8985SOL    HW138414   4.081   0.244   8.315 -0.8978 -1.8033  0.7943
 8985SOL    HW238415   4.205   0.247   8.224 -1.5692  0.5702 -2.1517
 8986SOL     OW38416   1.982   4.458   4.992  0.5803  0.0437 -0.6533
 8986SOL    HW138417   2.058   4.516   4.992  0.7918 -0.2286 -0.2674
 8986SOL    HW238418   2.011   4.368   4.976  2.1023  0.3611  0.2696
 8987SOL     OW38419   3.789   4.416   9.781 -0.3249  0.1705 -0.4841
 8987SOL    HW138420   3.819   4.465   9.704 -1.1563  0.4148 -0.6524
 8987SOL    HW238421   3.728   4.478   9.822  1.4278  0.7838  1.2131
 8988SOL     OW38422   1.164   2.570   0.026  0.0420 -0.2501 -0.2029
 8988SOL    HW138423   1.099   2.573   0.097 -0.2045  0.6841 -0.4742
 8988SOL    HW238424   1.239   2.621   0.056 -0.4340  1.2732 -1.6293
 8989SOL     OW38425   0.998   2.293  16.870 -0.0018  0.4171  0.0786
 8989SOL    HW138426   0.912   2.319  16.904 -0.3752  1.2449 -1.4576
 8989SOL    HW238427   1.038   2.240  16.939 -2.5003 -0.4458  0.8629
 8990SOL     OW38428   2.901   2.627  15.425 -0.3380 -0.8027  0.0106
 8990SOL    HW138429   2.939   2.555  15.475 -1.4150 -0.7902  0.8517
 8990SOL    HW238430   2.942   2.702  15.468 -1.1756  0.1343 -0.8242
 8991SOL     OW38431   4.321   2.362   2.176 -0.1986 -0.1281  0.0644
 8991SOL    HW138432   4.246   2.314   2.209 -1.4504  1.2637 -0.7362
 8991SOL    HW238433   4.329   2.430   2.243  2.4435  1.3001 -1.6855
 8992SOL     OW38434   3.484   2.412  12.202 -0.2808  0.3755 -0.0060
 8992SOL    HW138435   3.450   2.499  12.183 -0.2088  0.0870 -1.4610
 8992SOL    HW238436   3.452   2.345  12.141 -1.3380 -0.9925  2.0723
 8993SOL     OW38437   2.937   2.960  15.928 -0.0484  0.1726 -0.2648
 8993SOL    HW138438   2.862   2.906  15.903  0.3049 -0.4607  0.0294
 8993SOL    HW238439   2.960   3.002  15.846 -0.3774  0.7750 -0.0542
 8994SOL     OW38440   0.826   4.682  15.771  0.5070  0.1673  0.3633
 8994SOL    HW138441   0.879   4.616  15.816  0.3965 -0.9307 -1.1128
 8994SOL    HW238442   0.790   0.014  15.840  1.8774 -1.2630  2.2375
 8995SOL     OW38443   3.416   1.042   3.331  0.2605  0.2145 -0.3322
 8995SOL    HW138444   3.482   1.065   3.397  0.4363 -1.2605  0.0064
 8995SOL    HW238445   3.416   1.104   3.259  2.1171 -0.3173 -0.7834
 8996SOL     OW38446   4.208   0.401   8.099  0.2746 -0.4358  0.1265
 8996SOL    HW138447   4.266   0.430   8.028  0.7988 -2.7555 -0.3950
 8996SOL    HW238448   4.136   0.368   8.046 -0.1508  1.4422 -0.4669
 8997SOL     OW38449   0.670   4.456   7.673  0.6528 -0.2562 -0.0108
 8997SOL    HW138450   0.759   4.480   7.648 -0.3412  1.4722 -1.8168
 8997SOL    HW238451   0.686   4.377   7.725  0.3238  0.5399  1.3040
 8998SOL     OW38452   4.274   1.703   7.462  0.2177 -0.5315 -0.6093
 8998SOL    HW138453   4.209   1.641   7.495  1.2191 -1.6675 -0.7209
 8998SOL    HW238454   4.356   1.668   7.497  0.4991 -0.1365 -0.8755
 8999SOL     OW38455   3.968   1.131   9.801  0.2330 -0.8110  0.2130
 8999SOL    HW138456   3.944   1.040   9.782 -0.8995 -0.5380  0.3718
 8999SOL    HW238457   4.040   1.142   9.863 -2.0934  1.1780  2.5705
 9000SOL     OW38458   4.436   0.595   8.938 -0.4752 -0.3213  0.4765
 9000SOL    HW138459   4.515   0.609   8.886  0.5607 -2.9888  1.3230
 9000SOL    HW238460   4.478   0.595   9.023  1.3041 -1.1881 -0.3981
 9001SOL     OW38461   0.485   0.955   9.289  0.0810 -0.6048 -0.2002
 9001SOL    HW138462   0.429   0.888   9.327  1.0525 -0.4690  1.4291
 9001SOL    HW238463   0.424   0.994   9.226 -1.1469  0.2224  1.5330
 9002SOL     OW38464   0.130   2.167   7.359  0.1667 -0.0767 -0.1361
 9002SOL    HW138465   0.109   2.120   7.440  0.4104  2.3438  1.3450
 9002SOL    HW238466   0.049   2.208   7.330  1.5959  0.8818 -2.7248
 9003SOL     OW38467   0.586   2.629  10.191  0.2891  0.4056  0.4095
 9003SOL    HW138468   0.529   2.587  10.128  0.4732  0.2565  0.3431
 9003SOL    HW238469   0.599   2.711  10.143  0.9235  1.0304  1.6380
 9004SOL     OW38470   1.391   1.945   2.087 -0.2523 -0.0014 -0.0732
 9004SOL    HW138471   1.312   1.996   2.108  0.5595  1.7953 -1.4192
 9004SOL    HW238472   1.354   1.890   2.018  0.2766 -0.3928 -0.0418
 9005SOL     OW38473   0.659   3.185   7.151  0.2906  0.3052 -0.0577
 9005SOL    HW138474   0.582   3.158   7.200  0.2964  1.9431  0.8730
 9005SOL    HW238475   0.609   3.229   7.082  1.6180  0.9384 -0.6242
 9006SOL     OW38476   0.543   1.314   5.362  0.0376  0.7309 -0.2014
 9006SOL    HW138477   0.454   1.283   5.381 -1.0963  2.5975 -2.4901
 9006SOL    HW238478   0.552   1.382   5.428 -1.9231  2.1719 -1.3950
 9007SOL     OW38479   4.335   3.504   6.499 -0.0051  0.0552  0.2512
 9007SOL    HW138480   4.373   3.483   6.414  0.3668  0.3142  0.3539
 9007SOL    HW238481   4.351   3.422   6.545 -1.7869 -0.1404  0.5508
 9008SOL     OW38482   0.385   0.255   3.565 -0.7713  0.4321 -0.4762
 9008SOL    HW138483   0.333   0.178   3.591 -0.9050  0.8151  0.4005
 9008SOL    HW238484   0.334   0.280   3.488 -2.4000  0.1926  0.5200
 9009SOL     OW38485   0.907   4.082   7.534  0.2935 -0.3849  0.8752
 9009SOL    HW138486   0.816   4.063   7.554  0.4694 -0.8980  1.1945
 9009SOL    HW238487   0.955   4.062   7.614 -1.5053  1.0437  2.3044
 9010SOL     OW38488   4.059   2.399   6.744  0.1722 -0.3924  0.7541
 9010SOL    HW138489   3.970   2.374   6.769  0.3026 -1.3029  0.3091
 9010SOL    HW238490   4.101   2.314   6.750 -0.9406 -0.9054  1.2940
 9011SOL     OW38491   3.749   0.845  14.036  0.4937 -0.1103 -0.1906
 9011SOL    HW138492   3.717   0.800  14.114  1.0748  0.0830  0.1640
 9011SOL    HW238493   3.832   0.885  14.063  0.0306 -0.5091  1.7899
 9012SOL     OW38494   2.390   2.120  15.809  0.2374  0.5411 -0.2061
 9012SOL    HW138495   2.453   2.048  15.803 -0.2365  0.2016 -1.2526
 9012SOL    HW238496   2.360   2.113  15.718  0.6652 -0.8220 -0.2379
 9013SOL     OW38497   2.516   2.361  15.151 -0.7408 -0.1597  0.1385
 9013SOL    HW138498   2.534   2.453  15.135 -2.5522 -0.1569 -1.9793
 9013SOL    HW238499   2.604   2.340  15.182 -0.7460  1.2106  1.0929
 9014SOL     OW38500   3.194   4.317  12.004 -0.2203 -0.0667 -0.1305
 9014SOL    HW138501   3.287   4.295  12.001 -0.5045 -1.0657 -1.3054
 9014SOL    HW238502   3.173   4.362  11.922 -0.1830 -3.1729 -1.8285
 9015SOL     OW38503   2.592   0.655  16.203  1.1123 -0.0589 -0.4135
 9015SOL    HW138504   2.564   0.712  16.274 -2.7291 -3.3773  0.7764
 9015SOL    HW238505   2.568   0.576  16.252 -2.0545  1.4692  0.5080
 9016SOL     OW38506   4.327   4.466  13.071 -0.2068  0.2927 -0.3242
 9016SOL    HW138507   4.278   4.541  13.035 -2.8071 -1.9356 -1.4102
 9016SOL    HW238508   4.320   4.471  13.167  0.2049  0.4630 -0.3014
 9017SOL     OW38509   0.405   4.284   2.945 -0.3754  0.1851 -0.0453
 9017SOL    HW138510   0.433   4.375   2.951 -0.7015  0.1543  2.0438
 9017SOL    HW238511   0.403   4.262   3.038  0.9934 -1.9540 -0.5132
 9018SOL     OW38512   4.675   2.028  13.600 -0.4830 -0.4770  0.4795
 9018SOL    HW138513   0.007   2.065  13.668  0.6179 -2.1932  0.5276
 9018SOL    HW238514   4.679   2.107  13.547 -1.8329 -1.9669 -1.8259
 9019SOL     OW38515   0.153   1.732   3.359  0.2080 -0.4915 -0.1415
 9019SOL    HW138516   0.206   1.804   3.394 -0.2456 -0.6835  0.9359
 9019SOL    HW238517   0.103   1.720   3.440 -0.1141 -0.8617 -0.3980
 9020SOL     OW38518   0.252   2.563   0.916 -0.1883 -0.1335  0.4227
 9020SOL    HW138519   0.264   2.475   0.880 -0.0398 -0.0717  0.3217
 9020SOL    HW238520   0.208   2.606   0.842  2.2995  1.9828  0.2005
 9021SOL     OW38521   2.001   1.409   8.107 -0.0752  0.0088  0.0403
 9021SOL    HW138522   2.069   1.448   8.161  2.0931 -1.8560 -1.3417
 9021SOL    HW238523   1.986   1.323   8.146 -0.2852  1.1933  2.5330
 9022SOL     OW38524   2.609   4.532   0.386  0.4047  0.2009 -0.0692
 9022SOL    HW138525   2.572   4.571   0.466  0.9918 -2.3081  1.4131
 9022SOL    HW238526   2.625   4.611   0.335 -0.1200 -0.6779 -1.6011
 9023SOL     OW38527   0.489   1.277  15.526 -0.0192 -0.3133 -0.0984
 9023SOL    HW138528   0.395   1.266  15.539 -0.4959  2.2862 -1.2353
 9023SOL    HW238529   0.505   1.233  15.443  1.1561  0.7497 -0.4399
 9024SOL     OW38530   4.320   3.106   4.957 -0.2056  0.3814 -0.2537
 9024SOL    HW138531   4.291   3.145   5.039 -0.6532 -0.4402 -0.0119
 9024SOL    HW238532   4.267   3.159   4.898  0.8179  0.2257 -1.3077
 9025SOL     OW38533   0.920   2.462   5.336 -0.1532  0.1185 -0.4179
 9025SOL    HW138534   0.908   2.395   5.403  1.3664  1.9923  1.7213
 9025SOL    HW238535   0.879   2.537   5.380 -1.5724 -0.4908 -0.7109
 9026SOL     OW38536   0.514   4.150  16.635  0.0215 -0.4570  0.2262
 9026SOL    HW138537   0.490   4.076  16.692 -1.1538 -0.3365 -0.1067
 9026SOL    HW238538   0.430   4.179  16.600 -1.6880 -4.3168  1.1369
 9027SOL     OW38539   3.227   0.946  15.177  0.5732 -0.1168 -0.2966
 9027SOL    HW138540   3.149   0.942  15.233 -0.2123 -3.4912 -1.6508
 9027SOL    HW238541   3.198   0.981  15.093  1.5533  0.2423 -0.4833
 9028SOL     OW38542   0.019   0.038   0.298 -0.3376 -0.8105  0.0049
 9028SOL    HW138543   4.649   0.053   0.288 -0.0306  0.8331 -0.3771
 9028SOL    HW238544   0.014   4.692   0.363 -0.5170 -0.3057  0.5255
 9029SOL     OW38545   0.054   2.030   0.728  0.1821 -0.2145  0.5748
 9029SOL    HW138546   0.031   2.113   0.686  2.2320 -0.6904 -1.5001
 9029SOL    HW238547   0.149   2.037   0.720  0.2234  1.3392  2.5740
 9030SOL     OW38548   1.131   4.683   4.466 -0.1244  0.0738  0.0587
 9030SOL    HW138549   1.201   4.636   4.513  0.5366 -0.0554 -1.0593
 9030SOL    HW238550   1.088   4.716   4.545 -0.2612 -0.1963  0.0994
 9031SOL     OW38551   0.462   2.179   3.796  0.1595 -0.0843  0.6300
 9031SOL    HW138552   0.521   2.148   3.865 -1.8831 -0.3222  2.2929
 9031SOL    HW238553   0.387   2.187   3.854 -3.0571 -3.7870 -2.9796
 9032SOL     OW38554   4.619   2.340   2.226 -0.5069 -0.0899  0.0907
 9032SOL    HW138555   4.543   2.320   2.280 -1.5284  0.5805 -1.0779
 9032SOL    HW238556   4.571   2.408   2.178 -0.4430  0.6631  1.0973
 9033SOL     OW38557   2.125   2.562   3.620 -0.1138  0.1298 -0.0328
 9033SOL    HW138558   2.089   2.649   3.638 -0.1176  0.0969  0.1247
 9033SOL    HW238559   2.210   2.558   3.663  0.1123  3.0516 -0.2501
 9034SOL     OW38560   3.778   0.776  14.957 -0.2655  0.0640  0.3415
 9034SOL    HW138561   3.854   0.756  14.901 -0.6534  0.1999 -0.2390
 9034SOL    HW238562   3.799   0.717  15.030  0.2024 -0.6323 -0.3452
 9035SOL     OW38563   2.940   1.727   7.001 -0.5632 -0.1334  0.2539
 9035SOL    HW138564   2.973   1.668   6.934 -0.2727 -0.4078  0.6344
 9035SOL    HW238565   2.937   1.816   6.964  0.1083 -0.3027 -0.2150
 9036SOL     OW38566   3.341   1.303  11.989 -0.3808 -0.0291 -0.1978
 9036SOL    HW138567   3.417   1.337  12.034 -0.7181 -0.1508  0.4593
 9036SOL    HW238568   3.268   1.314  12.050  0.5242  1.0757  0.6916
 9037SOL     OW38569   2.685   3.625   5.627 -0.0974  0.2251  0.4934
 9037SOL    HW138570   2.748   3.698   5.630 -0.0088  0.2541 -2.5149
 9037SOL    HW238571   2.598   3.664   5.618 -0.5815 -1.1465 -0.6686
 9038SOL     OW38572   1.245   1.285  14.051  0.2936  0.7411  0.0946
 9038SOL    HW138573   1.295   1.350  14.001 -1.5532  0.8522 -1.5685
 9038SOL    HW238574   1.228   1.224  13.980 -0.3170  0.8732  0.1318
 9039SOL     OW38575   4.670   0.713   8.451 -0.3714 -0.2023  0.8942
 9039SOL    HW138576   4.688   0.782   8.388  2.3700 -1.0508  0.7445
 9039SOL    HW238577   4.592   0.673   8.414 -1.4767  1.7981  1.0835
 9040SOL     OW38578   4.706   0.903  13.030  0.0872 -0.4365 -0.6326
 9040SOL    HW138579   4.709   0.966  13.103  0.1786  0.4458 -1.3983
 9040SOL    HW238580   4.633   0.845  13.052  0.1788  0.0951  1.0488
 9041SOL     OW38581   2.194   2.046   7.848  0.3786 -0.1555  0.0931
 9041SOL    HW138582   2.215   2.139   7.854 -0.0659  0.0700 -1.8808
 9041SOL    HW238583   2.248   2.034   7.770  1.1869 -1.9560  0.9372
 9042SOL     OW38584   4.332   3.403   4.609 -0.2982  0.6015 -0.5485
 9042SOL    HW138585   4.347   3.324   4.557 -1.8271  1.0823 -1.7391
 9042SOL    HW238586   4.359   3.467   4.542  1.4274  0.6136  0.1567
 9043SOL     OW38587   1.818   1.703  15.129 -0.4081 -0.4107 -0.1312
 9043SOL    HW138588   1.779   1.618  15.110 -2.9373  0.5745  0.7082
 9043SOL    HW238589   1.829   1.698  15.224 -2.2580  0.2742  0.1128
 9044SOL     OW38590   0.119   3.501   0.447 -0.4571  0.2806 -0.0118
 9044SOL    HW138591   0.120   3.420   0.498 -1.4624  0.5079  0.3730
 9044SOL    HW238592   0.200   3.490   0.398 -1.3293 -0.4538 -1.2980
 9045SOL     OW38593   0.130   0.458   8.819 -0.2227 -0.3927 -0.0947
 9045SOL    HW138594   0.047   0.502   8.798 -0.1523 -0.4044 -0.3893
 9045SOL    HW238595   0.109   0.409   8.899  1.8329 -2.0725 -0.6057
 9046SOL     OW38596   4.348   3.600   4.174  0.6127  0.5977 -0.3848
 9046SOL    HW138597   4.349   3.590   4.079 -0.7276 -0.8525 -0.2305
 9046SOL    HW238598   4.264   3.555   4.182  2.0211 -1.5599  2.0151
 9047SOL     OW38599   1.766   0.383   4.179  0.1764 -0.9214 -0.0604
 9047SOL    HW138600   1.742   0.373   4.271  0.4049  1.0457  0.2127
 9047SOL    HW238601   1.852   0.342   4.169  1.3253  1.0899  1.6519
 9048SOL     OW38602   3.748   0.884  14.639 -0.1984 -0.3859  0.3548
 9048SOL    HW138603   3.748   0.932  14.557  2.2653 -2.2606 -0.7539
 9048SOL    HW238604   3.788   0.948  14.698 -0.7682  0.4993 -0.2168
 9049SOL     OW38605   4.011   2.824  11.596  0.0479  0.2225 -0.0355
 9049SOL    HW138606   3.956   2.745  11.597 -0.3122  0.4694 -0.5125
 9049SOL    HW238607   4.085   2.812  11.655  0.7676 -0.4978 -1.0861
 9050SOL     OW38608   3.741   1.993   6.524  0.1641 -0.7201 -0.8477
 9050SOL    HW138609   3.815   2.019   6.469  2.0591 -0.0806  2.0604
 9050SOL    HW238610   3.668   2.030   6.473  1.5579  1.5956 -1.1586
 9051SOL     OW38611   1.832   1.793   7.476 -0.0701 -0.0400  0.3288
 9051SOL    HW138612   1.893   1.806   7.549  1.4454  0.1881 -0.9752
 9051SOL    HW238613   1.839   1.699   7.458  0.2101  0.0825 -0.1929
 9052SOL     OW38614   4.400   1.920   4.885  0.4006  0.2679 -0.4877
 9052SOL    HW138615   4.349   1.897   4.807 -0.5114 -1.0735  0.4939
 9052SOL    HW238616   4.478   1.957   4.845  1.4860 -2.0255 -0.4614
 9053SOL     OW38617   4.620   3.378   5.332  0.0244 -0.2617  0.2022
 9053SOL    HW138618   4.600   3.471   5.322 -0.6330 -0.4690 -0.3426
 9053SOL    HW238619   4.694   3.389   5.272  0.5780  1.7619  1.2242
 9054SOL     OW38620   1.644   3.822  10.563  0.3148 -0.0207  0.3616
 9054SOL    HW138621   1.723   3.865  10.531  0.3349 -0.4727 -0.1956
 9054SOL    HW238622   1.634   3.737  10.521 -3.2549  0.4299  0.2754
 9055SOL     OW38623   0.114   1.401  15.156 -0.8012 -0.4586 -0.8277
 9055SOL    HW138624   0.197   1.395  15.203 -1.2227  1.3938  0.1146
 9055SOL    HW238625   0.064   1.341  15.212 -1.7248  1.7894  0.7259
 9056SOL     OW38626   4.693   1.983   9.346  0.5678  0.4730  0.1195
 9056SOL    HW138627   4.661   1.990   9.436 -3.9914 -0.7404 -1.4030
 9056SOL    HW238628   0.054   1.949   9.375 -1.4287 -3.1869  1.6924
 9057SOL     OW38629   0.435   4.562   2.942  0.1523  0.2724 -0.5619
 9057SOL    HW138630   0.526   4.592   2.950 -0.0800  0.8147  0.1162
 9057SOL    HW238631   0.398   4.579   3.029 -1.4533  2.0731 -1.5924
 9058SOL     OW38632   0.181   1.377   7.162  0.3417 -0.6880  0.0313
 9058SOL    HW138633   0.120   1.442   7.127  0.9204 -1.0675 -1.6559
 9058SOL    HW238634   0.193   1.329   7.081  2.8520 -0.5954  0.3485
 9059SOL     OW38635   0.008   2.911   2.745 -0.3702  0.3461 -0.1717
 9059SOL    HW138636   0.058   2.888   2.824 -0.7331  3.3476  0.9454
 9059SOL    HW238637   4.647   2.940   2.779 -1.1022 -0.0834 -1.6334
 9060SOL     OW38638   4.297   2.617   8.922 -0.5736  0.2171 -0.0567
 9060SOL    HW138639   4.300   2.662   8.838 -2.6016  0.1432 -0.1785
 9060SOL    HW238640   4.221   2.666   8.956 -0.7291  1.3732 -2.0753
 9061SOL     OW38641   3.829   3.594   5.225 -0.7952  0.0859 -0.0414
 9061SOL    HW138642   3.773   3.642   5.287 -0.3235  0.8286 -0.1910
 9061SOL    HW238643   3.790   3.604   5.139 -0.7328  1.1820  0.0501
 9062SOL     OW38644   0.005   0.576   3.778  0.5874  0.1040  0.2690
 9062SOL    HW138645   4.693   0.502   3.826  2.1089 -0.5785  0.3653
 9062SOL    HW238646   0.002   0.549   3.686  3.6791  3.4687 -0.8246
 9063SOL     OW38647   3.443   2.959   7.133 -0.5043 -0.6401 -0.1758
 9063SOL    HW138648   3.412   2.903   7.203 -1.6479  1.4690  1.0137
 9063SOL    HW238649   3.486   2.889   7.084 -1.3019  0.3984 -2.3771
 9064SOL     OW38650   3.493   3.888   7.155 -0.3776 -0.5565  0.4182
 9064SOL    HW138651   3.555   3.960   7.168 -0.4556 -0.7706  1.9906
 9064SOL    HW238652   3.442   3.894   7.236 -0.7347 -0.3357  0.1762
 9065SOL     OW38653   3.443   1.161   9.016  0.1602  0.4647  0.2099
 9065SOL    HW138654   3.413   1.186   9.104 -1.0957  0.8427 -0.3196
 9065SOL    HW238655   3.490   1.079   9.026 -1.3502  0.0299  4.1335
 9066SOL     OW38656   0.393   3.298  16.783  0.0362 -0.3644 -0.2396
 9066SOL    HW138657   0.483   3.322  16.806  0.3521 -0.2272 -1.6342
 9066SOL    HW238658   0.394   3.207  16.813  0.8358  0.0331  0.9458
 9067SOL     OW38659   3.425   2.677   0.243 -0.4205  0.4017 -0.0044
 9067SOL    HW138660   3.514   2.711   0.253 -0.5306  0.7265 -0.1182
 9067SOL    HW238661   3.376   2.749   0.202  1.5714  0.7637 -1.7266
 9068SOL     OW38662   0.168   2.183   2.541 -0.0802 -0.0460 -0.7185
 9068SOL    HW138663   0.083   2.146   2.517  0.8447 -3.2633  1.0175
 9068SOL    HW238664   0.179   2.238   2.464 -0.8043 -0.6288 -1.2493
 9069SOL     OW38665   2.125   0.304   0.560  0.0050  0.4834 -0.6648
 9069SOL    HW138666   2.119   0.292   0.466 -0.7220 -0.1780 -0.5303
 9069SOL    HW238667   2.115   0.214   0.589  0.9209  0.9195  1.0033
 9070SOL     OW38668   1.777   4.311  10.031 -0.2955  0.1561  0.1097
 9070SOL    HW138669   1.690   4.272  10.035 -1.4073  2.4185 -2.1642
 9070SOL    HW238670   1.767   4.400  10.065 -1.3660 -0.1933  0.7063
 9071SOL     OW38671   3.906   0.966   8.787 -0.0249  0.0483  0.4222
 9071SOL    HW138672   3.879   1.014   8.866 -0.2395  1.2697 -0.3891
 9071SOL    HW238673   4.001   0.973   8.782 -0.1813  1.2559 -0.9386
 9072SOL     OW38674   1.891   0.971   3.477  0.0135  0.1773 -0.1165
 9072SOL    HW138675   1.951   0.929   3.539  0.0774 -0.1702 -0.4147
 9072SOL    HW238676   1.879   0.914   3.401 -0.0758 -1.8508  1.4407
 9073SOL     OW38677   2.091   2.206   3.017  0.3916 -0.6652 -0.3846
 9073SOL    HW138678   2.143   2.250   2.950  1.0614  1.2398  1.3977
 9073SOL    HW238679   2.004   2.192   2.978  0.1920 -1.1295  0.2291
 9074SOL     OW38680   4.083   2.130   3.068  0.0244  0.0537  0.3664
 9074SOL    HW138681   3.998   2.169   3.088  0.3127  0.7018  0.3324
 9074SOL    HW238682   4.094   2.178   2.985  1.0561 -1.5992 -0.4432
 9075SOL     OW38683   1.745   0.592   8.643  0.1995 -0.1503 -0.0860
 9075SOL    HW138684   1.753   0.556   8.732  0.0135  0.7363  0.2847
 9075SOL    HW238685   1.650   0.601   8.653  0.4530  0.4275  1.7730
 9076SOL     OW38686   0.753   0.773   8.796 -0.5328  0.5480  0.0029
 9076SOL    HW138687   0.693   0.815   8.857 -2.0274  0.8963 -1.7000
 9076SOL    HW238688   0.828   0.767   8.855  0.1205  1.9443 -0.6936
 9077SOL     OW38689   3.690   3.934  11.024 -0.0968  0.8466  0.3639
 9077SOL    HW138690   3.605   3.966  10.994  0.2193  0.3407 -1.0690
 9077SOL    HW238691   3.745   3.949  10.947  0.7358  2.3342  1.2316
 9078SOL     OW38692   1.944   3.591   2.362 -0.2334  0.2722  0.0290
 9078SOL    HW138693   2.020   3.644   2.387 -0.0762 -0.7716  1.7144
 9078SOL    HW238694   1.946   3.587   2.266 -0.9421 -3.4674  0.1715
 9079SOL     OW38695   4.616   0.697  12.638 -0.0535 -0.4859  0.3495
 9079SOL    HW138696   4.658   0.659  12.561 -0.8379 -1.0654  0.2019
 9079SOL    HW238697   4.580   0.778  12.601  3.3200 -0.0622 -1.9390
 9080SOL     OW38698   1.086   3.766  16.385 -0.1262  0.1537 -0.7001
 9080SOL    HW138699   1.063   3.788  16.295 -2.1873 -2.3501 -0.7918
 9080SOL    HW238700   1.062   3.673  16.382 -0.6640  0.2858 -0.5645
 9081SOL     OW38701   2.253   1.669   6.724  0.1182  0.5585 -0.0473
 9081SOL    HW138702   2.195   1.698   6.654 -0.6926 -2.2424 -0.5456
 9081SOL    HW238703   2.343   1.701   6.717  0.4118 -0.2361  0.0878
 9082SOL     OW38704   2.168   4.241  14.958 -0.3080 -0.4129  0.0265
 9082SOL    HW138705   2.175   4.332  14.927 -0.9487 -0.9654 -1.7832
 9082SOL    HW238706   2.076   4.216  14.944  0.7951 -3.3823 -1.9523
 9083SOL     OW38707   3.762   1.581   5.119  0.1670  0.2896 -0.2285
 9083SOL    HW138708   3.685   1.529   5.094 -0.8376  2.2909 -1.2571
 9083SOL    HW238709   3.821   1.508   5.139 -1.5239 -0.1309  3.2777
 9084SOL     OW38710   4.302   2.434   2.743  0.0090 -0.1195  0.3991
 9084SOL    HW138711   4.283   2.477   2.827  1.6754  0.0504  0.6843
 9084SOL    HW238712   4.268   2.501   2.683 -0.0766 -0.0271  0.5489
 9085SOL     OW38713   3.633   1.781   8.735 -0.5800 -0.0369 -0.4295
 9085SOL    HW138714   3.635   1.782   8.640  2.1750 -2.3959 -0.4016
 9085SOL    HW238715   3.549   1.740   8.755 -0.5390  0.1096  0.0528
 9086SOL     OW38716   2.605   1.971  15.719 -0.5262 -0.8681  0.5649
 9086SOL    HW138717   2.656   1.916  15.659 -2.1367  1.1711 -2.6707
 9086SOL    HW238718   2.646   1.961  15.805 -0.4215  2.4121  0.9002
 9087SOL     OW38719   1.490   4.705   0.953 -0.3988  0.0239  0.2908
 9087SOL    HW138720   1.506   4.612   0.938  0.8080  0.3571 -0.4742
 9087SOL    HW238721   1.459   4.705   1.044  0.2162 -0.5337  0.4980
 9088SOL     OW38722   0.812   1.929   7.522  0.2858  0.4224  0.1333
 9088SOL    HW138723   0.771   2.015   7.530  1.0015  1.0562 -3.0152
 9088SOL    HW238724   0.753   1.876   7.576  2.5498 -1.7289  0.5031
 9089SOL     OW38725   4.643   3.761   8.159  0.5438 -0.7161 -0.0163
 9089SOL    HW138726   4.719   3.722   8.201 -0.1075 -0.7979  1.0800
 9089SOL    HW238727   4.642   3.708   8.079 -1.2455 -2.0372  0.8829
 9090SOL     OW38728   1.771   0.803   3.839 -0.4948  0.0949  0.6631
 9090SOL    HW138729   1.710   0.733   3.865 -0.1700 -0.6262 -0.4977
 9090SOL    HW238730   1.830   0.756   3.780  0.3246  0.7764  0.9450
 9091SOL     OW38731   1.647   3.705   5.812  0.5551  0.2555  0.4786
 9091SOL    HW138732   1.600   3.742   5.738  1.2636  0.3999  0.1024
 9091SOL    HW238733   1.728   3.755   5.805  2.2812 -2.2020  2.5234
 9092SOL     OW38734   1.253   0.123   4.736  0.7315  0.1182  0.3191
 9092SOL    HW138735   1.229   0.095   4.824  2.3492  0.3173  0.8095
 9092SOL    HW238736   1.290   0.040   4.707  0.5588  0.0526  0.2873
 9093SOL     OW38737   2.081   1.093   7.006  0.3184  0.3791  0.6148
 9093SOL    HW138738   1.994   1.133   7.016  0.9169  1.8989 -0.2231
 9093SOL    HW238739   2.119   1.101   7.094 -2.3518  1.6028  1.6811
 9094SOL     OW38740   0.904   0.663   3.225 -0.0814 -1.1360 -0.0768
 9094SOL    HW138741   0.976   0.722   3.248 -4.5946  4.4269 -0.2718
 9094SOL    HW238742   0.919   0.583   3.276  0.0679 -0.0397  1.6000
 9095SOL     OW38743   4.162   0.883   8.392  0.0296 -0.1761  0.1593
 9095SOL    HW138744   4.094   0.951   8.386  0.4790  0.1850 -0.9637
 9095SOL    HW238745   4.148   0.839   8.475  0.1965 -0.4560  0.0388
 9096SOL     OW38746   4.503   2.362   4.398  0.4322  0.6781  0.1429
 9096SOL    HW138747   4.592   2.368   4.363  0.3322  0.2840 -0.1870
 9096SOL    HW238748   4.466   2.437   4.352 -1.1373 -1.0505 -1.4652
 9097SOL     OW38749   3.330   4.386   5.810 -0.2056  0.3849  0.2065
 9097SOL    HW138750   3.257   4.446   5.825 -0.3327  0.4194 -0.5259
 9097SOL    HW238751   3.398   4.433   5.762 -0.6818  0.2238 -0.6207
 9098SOL     OW38752   3.388   2.489   0.849  0.1076  0.1296 -0.4687
 9098SOL    HW138753   3.443   2.540   0.790 -0.1252  0.3041 -0.5372
 9098SOL    HW238754   3.456   2.450   0.903 -1.0548 -1.8052 -0.4206
 9099SOL     OW38755   1.570   1.462   5.123  0.6613 -0.1468 -0.1689
 9099SOL    HW138756   1.489   1.412   5.114 -0.5125  1.4110  1.7364
 9099SOL    HW238757   1.543   1.550   5.098  1.1795 -0.2782 -1.1938
 9100SOL     OW38758   0.592   0.785  10.401 -0.3540 -0.2420  0.3979
 9100SOL    HW138759   0.648   0.820  10.471  1.5246 -0.3703 -1.0532
 9100SOL    HW238760   0.586   0.867  10.352 -0.7537 -0.8993 -0.6567
 9101SOL     OW38761   4.684   4.094   2.491 -0.3928 -0.1768 -0.3109
 9101SOL    HW138762   4.717   4.024   2.548  0.2313  0.2246 -0.1837
 9101SOL    HW238763   4.626   4.054   2.426 -1.2592 -1.2770  1.1408
 9102SOL     OW38764   4.470   0.647   1.970  0.5030 -0.0020 -0.1452
 9102SOL    HW138765   4.497   0.558   1.951  0.0493  0.1837 -1.7091
 9102SOL    HW238766   4.552   0.693   1.951 -0.2896  0.8259 -1.5664
 9103SOL     OW38767   0.938   2.815   2.290 -0.1428 -0.3160 -0.1047
 9103SOL    HW138768   0.900   2.740   2.336 -2.3133  0.1276 -1.1686
 9103SOL    HW238769   0.866   2.875   2.306  0.8401  0.7618  0.2595
 9104SOL     OW38770   3.708   4.707   3.042 -0.5109 -0.1272 -0.1008
 9104SOL    HW138771   3.668   4.682   3.126 -1.7853 -0.3892 -0.7736
 9104SOL    HW238772   3.796   0.004   3.072  1.1176 -2.5313 -3.2254
 9105SOL     OW38773   3.973   1.977  14.270  0.3711  0.2104  0.1788
 9105SOL    HW138774   4.062   1.973  14.306  0.3999 -1.3294 -0.0868
 9105SOL    HW238775   4.000   1.984  14.178  1.8709 -0.7818  0.5544
 9106SOL     OW38776   4.529   3.544   2.650 -0.7142 -0.1809  0.1167
 9106SOL    HW138777   4.563   3.622   2.607  1.4929 -2.1350 -1.6998
 9106SOL    HW238778   4.590   3.472   2.633  0.0744  0.5120  0.0097
 9107SOL     OW38779   3.610   0.678   8.226 -0.3163  0.0704 -0.2690
 9107SOL    HW138780   3.579   0.763   8.193 -0.8413 -0.8866 -2.2300
 9107SOL    HW238781   3.608   0.683   8.321  1.6866 -0.9082 -0.1799
 9108SOL     OW38782   4.229   1.065   5.050  0.1767 -1.2958 -0.2024
 9108SOL    HW138783   4.314   1.108   5.059 -1.7720  2.1884  1.6463
 9108SOL    HW238784   4.182   1.125   4.993 -0.5445 -2.3998 -0.7853
 9109SOL     OW38785   1.239   4.323  14.589  0.4146  0.3002  0.4737
 9109SOL    HW138786   1.268   4.396  14.535  0.8213  1.0649  1.7173
 9109SOL    HW238787   1.300   4.336  14.662  1.1189  0.4930 -0.1500
 9110SOL     OW38788   4.341   0.604  11.582  0.2751 -0.9914  0.5254
 9110SOL    HW138789   4.431   0.576  11.600 -0.0291 -1.2593  1.6478
 9110SOL    HW238790   4.359   0.685  11.534 -0.8404 -0.6879  0.6234
 9111SOL     OW38791   0.691   0.109   7.545  0.5639 -0.1646  0.3715
 9111SOL    HW138792   0.608   0.067   7.567  1.2591 -1.4510  0.5327
 9111SOL    HW238793   0.675   0.121   7.452  1.1568  1.3498  0.4643
 9112SOL     OW38794   3.160   2.062  10.311 -0.0394  0.2383  0.6977
 9112SOL    HW138795   3.229   1.997  10.298 -1.3085 -0.6105 -1.6940
 9112SOL    HW238796   3.133   2.049  10.401 -0.1195 -0.3191  0.5902
 9113SOL     OW38797   0.840   3.075  17.473 -0.5084  0.0451 -0.2329
 9113SOL    HW138798   0.830   3.081  17.568 -0.2019  0.6212 -0.2360
 9113SOL    HW238799   0.836   2.981  17.459 -0.4675 -0.2287  1.7388
 9114SOL     OW38800   0.868   4.097   9.275  0.2343  0.1589  0.1245
 9114SOL    HW138801   0.964   4.087   9.277  0.2464  0.1592 -0.4531
 9114SOL    HW238802   0.856   4.184   9.237  1.1594  1.3573  2.5908
 9115SOL     OW38803   2.479   1.873  14.447 -0.1902  0.4384 -0.0647
 9115SOL    HW138804   2.562   1.826  14.455 -0.1856  0.5037  0.2556
 9115SOL    HW238805   2.457   1.846  14.357  2.2321 -0.8996 -0.2545
 9116SOL     OW38806   3.446   0.377   6.362 -0.6135  0.8671  0.2051
 9116SOL    HW138807   3.503   0.422   6.299 -0.5053  0.5048  0.0448
 9116SOL    HW238808   3.449   0.444   6.431  0.1493 -1.6943  2.6271
 9117SOL     OW38809   4.210   1.564  13.085  0.2284 -0.6510  0.0300
 9117SOL    HW138810   4.225   1.548  12.991  1.1466 -0.5553  0.1615
 9117SOL    HW238811   4.196   1.476  13.121 -1.9500 -0.6288 -0.7683
 9118SOL     OW38812   3.899   2.565  14.787  0.6187  0.4243  0.1349
 9118SOL    HW138813   3.856   2.639  14.832  0.8373  1.1231 -0.8054
 9118SOL    HW238814   3.911   2.506  14.861  1.2388 -1.3699 -1.3835
 9119SOL     OW38815   3.187   4.130   3.680 -0.3597 -0.6332  0.4503
 9119SOL    HW138816   3.156   4.209   3.723 -0.7223 -1.5981  1.9406
 9119SOL    HW238817   3.182   4.175   3.595  1.5030  0.4464  0.9278
 9120SOL     OW38818   1.397   3.677   6.476 -0.6294  0.0798 -0.2450
 9120SOL    HW138819   1.336   3.633   6.416  1.5047 -0.0115 -2.3442
 9120SOL    HW238820   1.384   3.764   6.438 -1.7082  0.2752  0.5743
 9121SOL     OW38821   2.889   4.187   7.349  0.5551  0.3875 -0.3585
 9121SOL    HW138822   2.910   4.119   7.285 -0.5437  0.7287 -1.0814
 9121SOL    HW238823   2.799   4.176   7.380 -0.1882  1.7970 -1.9595
 9122SOL     OW38824   1.006   1.427   3.311  0.4341 -0.2446 -0.2718
 9122SOL    HW138825   1.002   1.508   3.361  1.7367  0.9601 -2.1400
 9122SOL    HW238826   1.028   1.369   3.384  0.6684 -0.9362 -0.8878
 9123SOL     OW38827   3.940   2.291   7.279  0.4729 -0.5715  0.3014
 9123SOL    HW138828   3.849   2.319   7.277  0.1959 -1.5840 -1.5879
 9123SOL    HW238829   3.937   2.207   7.324  1.6737 -0.6695  0.1967
 9124SOL     OW38830   2.675   1.235  16.142  0.0555 -0.5760 -0.3511
 9124SOL    HW138831   2.666   1.275  16.056 -1.6913  0.2617  0.2296
 9124SOL    HW238832   2.730   1.293  16.195 -0.8766 -1.9984  2.2185
 9125SOL     OW38833   0.076   2.209  10.633  0.4739  0.7450  0.0859
 9125SOL    HW138834   0.068   2.160  10.551  0.5027 -0.3543  0.7355
 9125SOL    HW238835   4.707   2.209  10.656 -0.1288  1.1691 -2.3821
 9126SOL     OW38836   2.955   0.828   3.940  0.5237  0.4294  0.3866
 9126SOL    HW138837   3.043   0.864   3.955  0.8083  0.7011 -1.8932
 9126SOL    HW238838   2.911   0.913   3.946 -0.8047 -0.1989 -0.3861
 9127SOL     OW38839   3.522   0.410  13.476 -0.2799  0.3200 -0.4752
 9127SOL    HW138840   3.589   0.477  13.486 -1.7069  1.4459  1.7541
 9127SOL    HW238841   3.484   0.413  13.564 -2.2781  1.4721 -1.3687
 9128SOL     OW38842   0.660   3.589   6.962 -0.6807 -0.2182 -0.1992
 9128SOL    HW138843   0.694   3.602   7.051  0.4296  2.4103 -1.0091
 9128SOL    HW238844   0.729   3.638   6.917  1.8231 -3.7138 -0.1767
 9129SOL     OW38845   2.024   0.038  12.655  0.3120 -0.0344 -0.4549
 9129SOL    HW138846   1.974   0.078  12.727  0.5612 -0.3050 -0.1296
 9129SOL    HW238847   2.075   4.702  12.710 -1.1662  0.2355  1.2124
 9130SOL     OW38848   2.197   4.548  10.585  0.4548  0.0108 -0.3167
 9130SOL    HW138849   2.278   4.572  10.630 -0.5624 -0.9295  2.0431
 9130SOL    HW238850   2.128   4.565  10.649  1.5038  2.0090  0.2889
 9131SOL     OW38851   3.911   1.450   6.863 -0.2357 -0.1509 -0.5671
 9131SOL    HW138852   4.005   1.450   6.880 -0.7795  0.8162  2.4857
 9131SOL    HW238853   3.892   1.390   6.935 -0.3915  1.6578  0.9030
 9132SOL     OW38854   2.375   0.107   1.005 -0.2038  0.2217  0.0607
 9132SOL    HW138855   2.302   0.170   1.007 -0.8287 -0.5462  1.7519
 9132SOL    HW238856   2.435   0.141   0.939  0.4816 -0.3034  0.4151
 9133SOL     OW38857   0.705   1.071   2.834  0.2649  0.6029 -0.2491
 9133SOL    HW138858   0.677   1.154   2.795 -0.9858 -0.5240 -1.7278
 9133SOL    HW238859   0.779   1.040   2.782  0.4601  0.4828  0.1002
 9134SOL     OW38860   0.807   0.693  11.385  0.5919  0.4885 -0.0114
 9134SOL    HW138861   0.803   0.662  11.295  4.0485  1.6922 -0.5516
 9134SOL    HW238862   0.802   0.614  11.439 -3.4606 -0.4601 -1.7744
 9135SOL     OW38863   4.380   4.342   3.961  0.3087  0.2831 -0.7071
 9135SOL    HW138864   4.339   4.419   4.000  1.3703 -1.2794  3.4713
 9135SOL    HW238865   4.298   4.294   3.976  0.3705 -0.3550 -2.4094
 9136SOL     OW38866   0.364   3.024   4.205  0.1936 -0.0927  0.2820
 9136SOL    HW138867   0.364   3.085   4.131  1.8518  2.5785  2.4563
 9136SOL    HW238868   0.347   2.939   4.165 -1.8329  1.0858 -1.3675
 9137SOL     OW38869   0.915   3.471   8.145 -0.2733 -0.6187 -0.4217
 9137SOL    HW138870   0.839   3.526   8.122  0.0556 -0.0899 -0.2395
 9137SOL    HW238871   0.913   3.490   8.238 -0.0121 -1.3996 -0.2619
 9138SOL     OW38872   3.587   2.218   3.155 -0.2472 -0.4780  0.0762
 9138SOL    HW138873   3.536   2.262   3.088  1.1546 -1.0247 -1.3336
 9138SOL    HW238874   3.677   2.216   3.124 -0.7176  0.0884 -1.2904
 9139SOL     OW38875   0.946   2.818   0.103 -0.4607 -0.3173  0.4690
 9139SOL    HW138876   1.023   2.858   0.062 -0.6023 -0.9883 -0.4772
 9139SOL    HW238877   0.986   2.779   0.181  0.8297 -0.1802 -0.1320
 9140SOL     OW38878   3.637   4.713   4.245  0.3492  0.0075 -0.1904
 9140SOL    HW138879   3.544   4.692   4.240  0.8928 -2.4598  0.4482
 9140SOL    HW238880   3.691   4.636   4.231  1.8796  1.0170  0.2320
 9141SOL     OW38881   2.516   2.025   0.061 -0.0833  0.2007 -0.6533
 9141SOL    HW138882   2.461   2.069  17.693 -0.3246 -0.6882 -1.0505
 9141SOL    HW238883   2.455   2.013   0.134  1.2126 -3.8345 -0.2313
 9142SOL     OW38884   4.698   3.557   4.368 -0.3847  0.2521 -0.3126
 9142SOL    HW138885   4.697   3.468   4.402  0.9788  0.2832 -0.2224
 9142SOL    HW238886   4.612   3.595   4.389 -0.5117  0.5232 -1.2996
 9143SOL     OW38887   1.238   1.941   8.714  0.0379 -0.1253  0.1542
 9143SOL    HW138888   1.198   1.855   8.706 -2.2017  1.1562 -2.0198
 9143SOL    HW238889   1.233   1.937   8.810 -0.8077 -2.0332  0.0088
 9144SOL     OW38890   4.127   2.615  15.283  0.8945 -0.0027 -0.7396
 9144SOL    HW138891   4.220   2.633  15.271  1.0829 -0.8838 -0.5977
 9144SOL    HW238892   4.118   2.526  15.250 -0.5439  0.7970 -2.4903
 9145SOL     OW38893   3.764   4.261   6.298 -0.2531  0.6999 -0.2615
 9145SOL    HW138894   3.762   4.168   6.276 -0.3983 -0.3142  3.9361
 9145SOL    HW238895   3.725   4.252   6.385  0.7403 -0.1757  0.0913
 9146SOL     OW38896   1.997   1.227  12.929  0.0886 -0.3346  0.3677
 9146SOL    HW138897   1.947   1.215  13.010  2.4898  1.5828  2.1211
 9146SOL    HW238898   2.075   1.171  12.934  1.2642  1.2111 -0.7887
 9147SOL     OW38899   1.253   3.226   7.964 -0.2749  0.1061 -0.5064
 9147SOL    HW138900   1.195   3.178   8.022 -1.1980 -1.0434 -2.3915
 9147SOL    HW238901   1.274   3.156   7.901 -0.0707  0.2780 -0.6299
 9148SOL     OW38902   0.741   2.885  11.549  0.1645 -0.4583  0.3774
 9148SOL    HW138903   0.809   2.864  11.613  1.2228  2.1284  0.0808
 9148SOL    HW238904   0.724   2.978  11.558 -0.2556 -0.5826  0.8635
 9149SOL     OW38905   3.275   1.429   3.953  0.0157  0.1777  0.0812
 9149SOL    HW138906   3.240   1.357   3.901  0.5139  0.8113 -1.1317
 9149SOL    HW238907   3.363   1.439   3.917 -0.4134  3.6635 -0.0382
 9150SOL     OW38908   3.791   0.642  16.357 -0.4148 -0.4844  0.1161
 9150SOL    HW138909   3.772   0.588  16.434  3.1289  0.0397  1.3487
 9150SOL    HW238910   3.785   0.734  16.384  0.5526 -0.0297 -1.2117
 9151SOL     OW38911   1.443   3.631  10.709 -0.3615 -0.0001 -0.2676
 9151SOL    HW138912   1.474   3.564  10.648  0.9130  1.0729 -0.7945
 9151SOL    HW238913   1.481   3.701  10.656  0.3737 -0.9715 -1.0251
 9152SOL     OW38914   2.678   4.482   6.112 -0.4175  0.0018  0.1946
 9152SOL    HW138915   2.691   4.568   6.152  0.4934 -1.0770  2.2191
 9152SOL    HW238916   2.620   4.435   6.172 -1.5100  0.8159 -0.2339
 9153SOL     OW38917   4.293   0.006  11.444  0.0296 -0.0739 -0.2967
 9153SOL    HW138918   4.339   0.083  11.410 -1.3909  0.3091 -1.3599
 9153SOL    HW238919   4.266   4.687  11.363 -0.4765 -0.7075  0.2058
 9154SOL     OW38920   1.189   4.072   7.346  0.5779 -0.2312  0.5366
 9154SOL    HW138921   1.256   4.008   7.321  0.3856 -1.0237  2.0238
 9154SOL    HW238922   1.199   4.066   7.441 -0.4503 -1.1639  0.5929
 9155SOL     OW38923   3.418   2.748   1.120  0.2746 -0.6100 -0.3069
 9155SOL    HW138924   3.405   2.654   1.135  0.1318 -1.4205 -5.3828
 9155SOL    HW238925   3.435   2.784   1.207 -0.1740  0.1766 -0.5452
 9156SOL     OW38926   2.708   2.126   7.568  0.0078  0.3948 -0.3574
 9156SOL    HW138927   2.618   2.097   7.552  0.4687 -2.0028  1.5349
 9156SOL    HW238928   2.702   2.198   7.631  0.0419  1.2311 -1.3182
 9157SOL     OW38929   0.780   0.508   5.353 -0.2432  0.0719  0.0761
 9157SOL    HW138930   0.734   0.505   5.438 -0.1287 -1.1463  0.1019
 9157SOL    HW238931   0.750   0.427   5.312 -2.6064  1.3925 -0.8098
 9158SOL     OW38932   4.437   2.474   9.521  0.8257  0.3264 -0.5043
 9158SOL    HW138933   4.445   2.399   9.581  1.6620  0.5975 -0.2782
 9158SOL    HW238934   4.529   2.494   9.505  1.1353 -0.3625  0.4013
 9159SOL     OW38935   3.042   2.859  16.156  0.6196  0.4696  0.3041
 9159SOL    HW138936   3.010   2.914  16.084 -0.6348 -1.4656 -0.6293
 9159SOL    HW238937   3.077   2.787  16.103  1.4290  1.0051  0.1261
 9160SOL     OW38938   2.597   0.037  13.677 -0.1223  0.4205 -0.4551
 9160SOL    HW138939   2.666   0.103  13.672  2.0835 -2.2556 -4.4741
 9160SOL    HW238940   2.519   0.078  13.715 -2.0217 -2.2936 -1.4734
 9161SOL     OW38941   0.876   2.681   8.061  0.4376  0.1103  0.4322
 9161SOL    HW138942   0.821   2.645   8.131  0.6899  0.2774  0.7122
 9161SOL    HW238943   0.834   2.767   8.069  0.7809  0.0047  3.1603
 9162SOL     OW38944   3.148   2.101   5.755 -0.4989 -0.3507  0.3899
 9162SOL    HW138945   3.202   2.147   5.818 -1.9780  1.0810  0.6063
 9162SOL    HW238946   3.063   2.143   5.738 -0.5465  0.6541  3.1897
 9163SOL     OW38947   1.758   0.635   1.872  0.1623  0.1534 -0.0632
 9163SOL    HW138948   1.703   0.657   1.797  1.5575  0.2417 -1.0606
 9163SOL    HW238949   1.763   0.722   1.912 -2.2062 -0.8928  2.5354
 9164SOL     OW38950   2.461   2.396   7.144 -0.2294  0.7277 -0.2572
 9164SOL    HW138951   2.366   2.388   7.136 -0.0796 -1.6184  0.4144
 9164SOL    HW238952   2.470   2.483   7.183  2.4228  0.7611 -0.9824
 9165SOL     OW38953   1.535   2.449   0.858 -0.6501 -0.0210  0.0403
 9165SOL    HW138954   1.571   2.455   0.947 -0.5709  1.1446 -0.0756
 9165SOL    HW238955   1.557   2.533   0.818 -0.9270  0.5195  1.0259
 9166SOL     OW38956   2.046   4.327   7.961  0.2675  0.7708 -0.2548
 9166SOL    HW138957   2.044   4.268   8.037  1.9355  1.3402  0.2346
 9166SOL    HW238958   2.027   4.274   7.884  0.4319 -1.4686  1.2326
 9167SOL     OW38959   0.157   0.018   3.058 -0.0698 -0.4929  0.1132
 9167SOL    HW138960   0.105   4.694   2.993 -1.3619 -0.0366  0.8155
 9167SOL    HW238961   0.206   4.677   3.108  2.0734  0.2553 -1.0132
 9168SOL     OW38962   0.769   0.104   4.158  0.4232 -0.5195  0.1400
 9168SOL    HW138963   0.732   0.069   4.239  0.9720  1.7371  1.3574
 9168SOL    HW238964   0.779   0.021   4.112 -0.6662 -0.8893  0.5490
 9169SOL     OW38965   1.632   3.182   3.816 -0.6596 -0.3401  0.1432
 9169SOL    HW138966   1.719   3.216   3.795  0.0112 -1.3976  1.1972
 9169SOL    HW238967   1.573   3.218   3.750  0.8250 -0.0340 -1.0102
 9170SOL     OW38968   3.447   4.273  11.993  0.6623  0.0749  0.0934
 9170SOL    HW138969   3.506   4.290  12.067  1.4434 -4.5742  0.5492
 9170SOL    HW238970   3.514   4.272  11.925 -1.4635 -0.8178 -1.9833
 9171SOL     OW38971   1.200   0.286  11.980 -0.2485  0.1236 -0.0252
 9171SOL    HW138972   1.194   0.223  11.908  1.2127 -1.8498  1.5985
 9171SOL    HW238973   1.112   0.325  11.975 -0.2987 -0.2360 -2.1755
 9172SOL     OW38974   1.856   4.091   4.701 -0.0563  0.5567  0.2079
 9172SOL    HW138975   1.827   4.007   4.666  2.6778 -0.0269 -0.5963
 9172SOL    HW238976   1.850   4.081   4.796 -3.1357 -0.1234 -0.0476
 9173SOL     OW38977   1.246   3.332   1.921  0.1476 -0.0791 -0.1006
 9173SOL    HW138978   1.154   3.329   1.897  0.8865 -0.3889 -2.8911
 9173SOL    HW238979   1.266   3.246   1.884  1.6241 -0.1102  0.7474
 9174SOL     OW38980   3.232   3.589  10.324 -0.0131 -0.3098 -0.1928
 9174SOL    HW138981   3.139   3.578  10.304  0.2974 -0.9203 -1.3209
 9174SOL    HW238982   3.234   3.560  10.415 -1.4689  0.7248  0.1672
 9175SOL     OW38983   1.434   1.464  14.007 -0.8117  0.1437  0.0817
 9175SOL    HW138984   1.468   1.420  14.085 -1.0773 -0.1675  0.0180
 9175SOL    HW238985   1.414   1.547  14.051  2.1414  0.2375  1.2811
 9176SOL     OW38986   1.355   3.101  11.731  0.1206 -0.7657  0.1115
 9176SOL    HW138987   1.279   3.047  11.709  2.6654 -3.0736 -2.8147
 9176SOL    HW238988   1.427   3.075  11.674  0.7368  0.1071  0.4902
 9177SOL     OW38989   1.197   1.003  14.483 -0.1318  0.7929  0.7814
 9177SOL    HW138990   1.223   0.950  14.408 -0.5860  0.8821  0.5562
 9177SOL    HW238991   1.103   1.017  14.469  0.0785 -0.7855 -2.2081
 9178SOL     OW38992   0.016   0.407  13.492  0.0427  0.3788  0.3362
 9178SOL    HW138993   0.055   0.342  13.434 -0.1071 -0.2708  0.9562
 9178SOL    HW238994   4.701   0.354  13.561  0.1427 -1.0157 -0.6933
 9179SOL     OW38995   1.543   4.552   8.083 -0.0551 -0.2461  0.4934
 9179SOL    HW138996   1.637   4.537   8.091 -0.1777 -0.6481  1.1776
 9179SOL    HW238997   1.520   4.474   8.033 -1.5529 -0.4873  1.5547
 9180SOL     OW38998   1.951   0.901   4.452 -0.4091  0.3463  0.0647
 9180SOL    HW138999   1.915   0.829   4.505 -1.7037  0.7118 -0.3249
 9180SOL    HW239000   1.929   0.867   4.365  0.3164  0.4132 -0.1458
 9181SOL     OW39001   3.624   2.529  10.293 -0.2636  0.1175 -0.5052
 9181SOL    HW139002   3.611   2.615  10.333  2.8483 -0.4288  1.6135
 9181SOL    HW239003   3.563   2.473  10.342 -1.3759  0.9306 -0.9647
 9182SOL     OW39004   1.679   0.840  12.687 -0.5517  0.5777  0.0536
 9182SOL    HW139005   1.638   0.875  12.607  0.2135  0.9401 -0.1812
 9182SOL    HW239006   1.752   0.902  12.696 -0.7849  0.5186  2.3541
 9183SOL     OW39007   1.445   2.102   6.188 -0.5092 -0.1088  0.0198
 9183SOL    HW139008   1.411   2.143   6.268 -0.2084 -1.3742  0.8066
 9183SOL    HW239009   1.514   2.165   6.166 -0.3602 -0.6858 -1.1648
 9184SOL     OW39010   2.714   3.109   4.249 -0.1336  0.3039  0.1394
 9184SOL    HW139011   2.692   3.034   4.304  1.5750  0.0924  0.5310
 9184SOL    HW239012   2.722   3.184   4.308  0.5905 -0.1527  0.6165
 9185SOL     OW39013   4.673   2.561   7.848  0.4034  0.1161 -0.1753
 9185SOL    HW139014   0.009   2.493   7.881  0.0823  0.2524  0.6835
 9185SOL    HW239015   4.604   2.565   7.914 -3.0423 -2.2281 -3.6288
 9186SOL     OW39016   0.758   3.084   4.756  0.2478 -0.0128  0.7103
 9186SOL    HW139017   0.761   3.107   4.664  0.2017  0.9105  0.9439
 9186SOL    HW239018   0.819   3.010   4.759  1.7855  1.2480  0.3096
 9187SOL     OW39019   2.226   0.593   8.837 -0.4939 -0.1249 -0.1594
 9187SOL    HW139020   2.301   0.581   8.778  0.5590  3.4038  0.4588
 9187SOL    HW239021   2.209   0.503   8.866 -1.6681  0.4290  0.8615
 9188SOL     OW39022   1.604   2.640   8.996  0.3839  0.1039  0.0746
 9188SOL    HW139023   1.577   2.553   8.969  1.2533 -0.2927  0.4863
 9188SOL    HW239024   1.680   2.647   8.938  0.3066  0.2601 -0.0088
 9189SOL     OW39025   4.699   4.720  14.273 -0.3539 -0.4021  0.1825
 9189SOL    HW139026   0.051   4.700  14.327 -1.1809 -0.7802  1.2014
 9189SOL    HW239027   4.631   4.667  14.316 -1.2287  0.8998  0.4035
 9190SOL     OW39028   1.644   3.023   7.889  0.1979 -0.4922 -0.2221
 9190SOL    HW139029   1.594   3.101   7.915  1.1126 -0.8816  2.7147
 9190SOL    HW239030   1.588   2.955   7.926 -0.8409  1.1179  1.1878
 9191SOL     OW39031   4.603   1.633  17.449  0.0137 -0.1667 -0.0658
 9191SOL    HW139032   4.562   1.605  17.531  0.5801 -0.7791  0.0031
 9191SOL    HW239033   4.621   1.722  17.478  2.0479 -0.2402 -1.1648
 9192SOL     OW39034   0.560   3.469   5.436 -0.3420 -0.2790  0.0189
 9192SOL    HW139035   0.544   3.463   5.530  1.5058 -0.5718  0.3184
 9192SOL    HW239036   0.482   3.434   5.392 -1.9626  1.6503  1.3702
 9193SOL     OW39037   0.385   1.964  10.398  0.4093  0.1949 -0.1814
 9193SOL    HW139038   0.334   1.888  10.427  0.0446 -0.1628 -1.7976
 9193SOL    HW239039   0.473   1.928  10.392  0.1357 -0.6879  0.9504
 9194SOL     OW39040   3.851   2.514  10.126 -0.1599  0.0055 -0.4918
 9194SOL    HW139041   3.814   2.474  10.047 -1.0032  3.7401 -1.9905
 9194SOL    HW239042   3.792   2.473  10.189 -1.1098  2.2245  0.0676
 9195SOL     OW39043   2.194   4.561   5.757  0.7584 -0.0789  0.2003
 9195SOL    HW139044   2.264   4.597   5.704 -0.5510 -1.8478 -2.6859
 9195SOL    HW239045   2.245   4.534   5.834 -0.2087 -1.4760  0.3503
 9196SOL     OW39046   2.366   0.117   8.732  0.4246  0.1913 -0.2175
 9196SOL    HW139047   2.298   0.062   8.693  0.4984  0.0618 -0.1640
 9196SOL    HW239048   2.312   0.182   8.777  0.0550 -2.0274  2.5070
 9197SOL     OW39049   0.197   3.321  12.503 -0.5870  0.0377  0.0680
 9197SOL    HW139050   0.288   3.315  12.474 -1.0657  0.6057 -1.5387
 9197SOL    HW239051   0.170   3.231  12.484  1.4386 -0.4269 -0.5766
 9198SOL     OW39052   0.060   1.254   6.694  0.2533  0.3511 -0.5081
 9198SOL    HW139053   4.710   1.214   6.648 -1.6376  3.1533  0.0982
 9198SOL    HW239054   0.124   1.263   6.624 -0.5595 -0.0564 -1.3092
 9199SOL     OW39055   3.687   3.091   6.885 -0.1849  0.3729 -0.4547
 9199SOL    HW139056   3.737   3.130   6.814  0.1857  0.0813 -0.3529
 9199SOL    HW239057   3.719   3.002   6.897  0.7593  0.7462 -0.2282
 9200SOL     OW39058   2.273   0.424  17.378  0.2162  0.0547 -0.0298
 9200SOL    HW139059   2.256   0.455  17.289  0.0712 -1.3572 -0.5023
 9200SOL    HW239060   2.228   0.340  17.366 -1.0724  0.4776  1.8767
 9201SOL     OW39061   1.217   2.906  14.804 -0.0327  0.4373  0.0909
 9201SOL    HW139062   1.129   2.891  14.840  0.0396 -2.5680 -0.9620
 9201SOL    HW239063   1.188   2.901  14.713  0.4017  0.1541 -0.0296
 9202SOL     OW39064   0.050   3.215   5.011  0.1765 -0.0093  0.7057
 9202SOL    HW139065   4.700   3.155   5.003 -0.9172  1.1327  2.2210
 9202SOL    HW239066   0.118   3.148   5.002 -0.7345 -0.9039  0.5056
 9203SOL     OW39067   1.633   2.648   7.388  0.3239  0.2623  0.1005
 9203SOL    HW139068   1.610   2.709   7.458  0.4413 -2.9178  2.8707
 9203SOL    HW239069   1.589   2.676   7.307 -0.2307 -1.0432 -0.0457
 9204SOL     OW39070   0.320   2.373  13.575 -0.1204 -0.1134 -0.5182
 9204SOL    HW139071   0.374   2.332  13.507  1.8777  1.2427  0.2315
 9204SOL    HW239072   0.251   2.418  13.526 -0.2492 -0.5781 -0.7565
 9205SOL     OW39073   3.670   1.844   7.633  0.4641 -0.3093 -0.3741
 9205SOL    HW139074   3.646   1.875   7.546  0.9966  1.4705  0.0975
 9205SOL    HW239075   3.736   1.906   7.664 -0.9664  1.2896 -0.5188
 9206SOL     OW39076   1.710   2.398  12.304 -0.5238 -0.0335 -0.0615
 9206SOL    HW139077   1.619   2.414  12.277 -0.3593  0.1862 -0.4844
 9206SOL    HW239078   1.706   2.412  12.398 -0.2103  1.3935 -0.2600
 9207SOL     OW39079   3.376   0.912   7.520 -0.0123 -0.3948 -0.0023
 9207SOL    HW139080   3.320   0.884   7.448  1.8684  0.2286 -1.7190
 9207SOL    HW239081   3.431   0.967   7.463  0.4503 -0.8307  0.0284
 9208SOL     OW39082   0.227   4.496  13.066  0.3757  0.5330 -0.2249
 9208SOL    HW139083   0.229   4.433  13.138 -2.3003 -1.0721 -1.5575
 9208SOL    HW239084   0.137   4.484  13.038 -0.0427 -1.3504  1.9390
 9209SOL     OW39085   0.554   1.217  13.862 -0.2026  0.1206 -0.0368
 9209SOL    HW139086   0.634   1.203  13.811 -0.7782 -0.5613 -0.7561
 9209SOL    HW239087   0.507   1.283  13.811  3.9234  2.4555 -0.7594
 9210SOL     OW39088   1.103   3.521   5.446 -0.5219  0.2928 -0.4706
 9210SOL    HW139089   1.181   3.576   5.448 -1.6970  1.8634  1.2946
 9210SOL    HW239090   1.078   3.522   5.538  0.3981 -2.4677 -0.1857
 9211SOL     OW39091   0.686   3.787  12.788  0.1200 -0.1316  0.2555
 9211SOL    HW139092   0.616   3.851  12.770 -1.8096 -2.5075 -0.6193
 9211SOL    HW239093   0.730   3.829  12.862  1.1682 -2.1729  0.7812
 9212SOL     OW39094   2.599   3.291   3.917 -0.4231  0.1210 -0.2017
 9212SOL    HW139095   2.535   3.353   3.881  1.0013  1.0283 -1.1672
 9212SOL    HW239096   2.613   3.345   3.995 -0.6515  1.9145 -1.4048
 9213SOL     OW39097   2.951   0.367   8.145  0.5494 -0.4428 -0.1005
 9213SOL    HW139098   3.007   0.435   8.108 -2.1183  2.0225  0.3769
 9213SOL    HW239099   2.994   0.286   8.118 -1.4182 -1.4199 -0.2826
 9214SOL     OW39100   4.592   4.676   5.317  0.1308 -0.3907 -0.3081
 9214SOL    HW139101   4.514   4.720   5.352 -0.3017  1.8445 -4.1311
 9214SOL    HW239102   4.560   4.598   5.272  0.1096  0.2892 -1.4521
 9215SOL     OW39103   1.300   0.613   3.220  0.1227  0.3006  0.3131
 9215SOL    HW139104   1.329   0.602   3.130  2.2685  1.7636  0.8131
 9215SOL    HW239105   1.387   0.642   3.247  0.1234  0.7657 -0.1764
 9216SOL     OW39106   1.449   0.904   9.108 -0.1805 -0.2446 -0.0690
 9216SOL    HW139107   1.367   0.883   9.152 -0.2975  1.3287  0.4256
 9216SOL    HW239108   1.483   0.968   9.170 -1.5413 -0.0576  0.4737
 9217SOL     OW39109   0.834   0.184  12.105  0.0068 -0.3620  0.0884
 9217SOL    HW139110   0.749   0.146  12.083  0.2097 -0.1437 -1.0840
 9217SOL    HW239111   0.822   0.224  12.191  0.2819  0.5351 -0.2838
 9218SOL     OW39112   1.158   1.389  11.212 -0.3797 -0.2126  0.0330
 9218SOL    HW139113   1.238   1.433  11.183 -1.1669  0.7810 -0.6403
 9218SOL    HW239114   1.214   1.328  11.261 -0.6543 -0.2446  0.3026
 9219SOL     OW39115   0.358   3.044   8.254 -0.0637 -0.4871  0.0839
 9219SOL    HW139116   0.447   3.010   8.256  0.4367  0.8458  0.9047
 9219SOL    HW239117   0.363   3.115   8.318 -0.2232 -2.1587  1.9666
 9220SOL     OW39118   1.203   1.717   2.771 -0.0869 -0.3711  0.5452
 9220SOL    HW139119   1.120   1.721   2.723  0.2430  1.0415  0.0910
 9220SOL    HW239120   1.195   1.802   2.814  0.4252 -1.7092  3.3056
 9221SOL     OW39121   4.236   2.660   7.599  0.0912 -0.5881  0.0106
 9221SOL    HW139122   4.216   2.753   7.592  0.5902 -0.4080  0.9966
 9221SOL    HW239123   4.326   2.651   7.569 -0.4465  1.2336 -2.1718
 9222SOL     OW39124   1.750   1.213   8.926 -0.1643 -0.2138  0.1738
 9222SOL    HW139125   1.828   1.266   8.907  0.9677 -2.0038 -0.1520
 9222SOL    HW239126   1.701   1.210   8.844 -2.3708 -0.3575  1.4896
 9223SOL     OW39127   1.477   0.101   5.761 -0.6884 -0.2978  0.1721
 9223SOL    HW139128   1.555   0.057   5.796 -1.0706 -1.7657 -0.8182
 9223SOL    HW239129   1.530   0.142   5.693  2.1582 -0.6797  2.1191
 9224SOL     OW39130   2.198   2.453   8.459 -0.1182  0.0798  0.5072
 9224SOL    HW139131   2.125   2.396   8.483 -0.7727  0.3825 -0.7447
 9224SOL    HW239132   2.148   2.523   8.416  0.7445  0.8313  0.7462
 9225SOL     OW39133   3.476   1.026   5.279  0.1182 -0.1221 -0.3699
 9225SOL    HW139134   3.446   1.094   5.219 -2.3506 -0.4372  0.5138
 9225SOL    HW239135   3.431   1.050   5.360  1.2062 -2.0982  0.8271
 9226SOL     OW39136   0.252   4.293  10.103 -0.1093  0.0219  0.6833
 9226SOL    HW139137   0.203   4.319  10.181  0.8638  2.4850  0.4582
 9226SOL    HW239138   0.333   4.343  10.110 -1.1558  1.7854  0.1435
 9227SOL     OW39139   1.551   2.677  13.640  0.3943  0.1531  0.3208
 9227SOL    HW139140   1.546   2.749  13.703  0.6371 -0.5140  1.1194
 9227SOL    HW239141   1.626   2.627  13.674  0.6717 -0.7574 -1.6520
 9228SOL     OW39142   4.197   0.218   5.816 -0.1290 -0.3931 -0.2375
 9228SOL    HW139143   4.291   0.234   5.823  0.1805 -1.9104 -1.0436
 9228SOL    HW239144   4.190   0.167   5.896  1.2199 -1.7675 -0.9977
 9229SOL     OW39145   0.185   1.225   6.922  0.3509 -0.0849  0.5773
 9229SOL    HW139146   0.130   1.231   6.844 -0.1127  1.8483  1.0472
 9229SOL    HW239147   0.277   1.240   6.901  0.5095  1.1576  2.0789
 9230SOL     OW39148   0.483   0.006   3.398  0.6765 -0.1945 -0.0092
 9230SOL    HW139149   0.453   0.055   3.474 -2.8425 -0.4635 -1.2192
 9230SOL    HW239150   0.493   0.079   3.336 -0.6439 -0.4025 -0.4814
 9231SOL     OW39151   4.277   4.223   3.208 -0.4286 -0.3973  0.1723
 9231SOL    HW139152   4.226   4.204   3.286  2.3565 -2.4967  1.4536
 9231SOL    HW239153   4.230   4.174   3.140 -2.3588 -0.8001  1.8016
 9232SOL     OW39154   2.965   1.442  11.188  0.3140  0.1551 -0.1542
 9232SOL    HW139155   2.927   1.434  11.100  0.8782 -2.3715 -0.1620
 9232SOL    HW239156   2.939   1.531  11.210 -0.3182 -0.4873  1.6923
 9233SOL     OW39157   3.891   4.330   1.031  0.2715 -0.8628  0.4830
 9233SOL    HW139158   3.878   4.409   0.977  2.0935 -0.0961  1.1502
 9233SOL    HW239159   3.915   4.366   1.117  2.1050 -1.2420  0.1101
 9234SOL     OW39160   0.989   2.844   2.743 -0.4374  0.2997  0.8517
 9234SOL    HW139161   0.899   2.866   2.768  0.0323  1.2010  1.7487
 9234SOL    HW239162   1.017   2.844   2.835  1.9872 -0.1759  0.1183
 9235SOL     OW39163   0.415   2.628   3.811 -0.3084 -0.1566  0.2719
 9235SOL    HW139164   0.447   2.600   3.897 -2.1840 -0.9324  0.7175
 9235SOL    HW239165   0.469   2.579   3.749 -0.1872 -0.0078  0.2602
 9236SOL     OW39166   0.006   1.341  11.487 -0.2321  0.5429  0.3718
 9236SOL    HW139167   4.717   1.256  11.446  0.2485  0.4365  0.4459
 9236SOL    HW239168   0.036   1.395  11.414  0.8486 -1.8444 -0.9507
 9237SOL     OW39169   4.345   3.949   9.546  0.5734  0.1758  0.1632
 9237SOL    HW139170   4.355   4.031   9.498  0.0353  0.8520  1.1862
 9237SOL    HW239171   4.281   3.907   9.490 -0.3251  0.3005  1.0837
 9238SOL     OW39172   2.781   3.831   2.565  0.5915 -0.2355 -0.1518
 9238SOL    HW139173   2.704   3.828   2.620  1.9596 -2.6511  1.6123
 9238SOL    HW239174   2.734   3.847   2.483 -0.9389  0.8684  0.9544
 9239SOL     OW39175   2.752   0.338  15.447  0.4348 -0.0421  0.3898
 9239SOL    HW139176   2.717   0.257  15.485  0.9065  0.8947  2.7744
 9239SOL    HW239177   2.847   0.325  15.439  0.3985  1.0775 -1.9006
 9240SOL     OW39178   4.564   3.701   2.227  0.6596 -0.3980  0.0933
 9240SOL    HW139179   4.494   3.731   2.169  1.3594  0.9367 -0.0616
 9240SOL    HW239180   4.640   3.722   2.173  2.2245  0.3689  2.5980
 9241SOL     OW39181   1.376   2.689   0.497  0.2155 -0.0624 -0.0471
 9241SOL    HW139182   1.373   2.769   0.550 -0.6775  0.7531 -1.3117
 9241SOL    HW239183   1.417   2.724   0.418  1.9760 -0.7456  0.5768
 9242SOL     OW39184   2.169   1.548   8.280 -0.1629 -0.5002  0.5227
 9242SOL    HW139185   2.161   1.496   8.360  0.3346  1.8256  2.1123
 9242SOL    HW239186   2.215   1.628   8.306  0.3570 -0.7352  0.3153
 9243SOL     OW39187   0.870   2.795  17.435  0.3417 -0.3274 -0.4517
 9243SOL    HW139188   0.812   2.723  17.461 -1.3225  1.2142  0.0732
 9243SOL    HW239189   0.959   2.765  17.455 -0.4258 -1.0141  1.9213
 9244SOL     OW39190   3.698   3.262   8.378 -0.1593 -0.1405 -0.0182
 9244SOL    HW139191   3.680   3.200   8.450  1.4389  0.5039  0.9375
 9244SOL    HW239192   3.704   3.337   8.437 -1.8266  0.1612 -0.2417
 9245SOL     OW39193   3.478   3.694  11.075 -0.0480  0.6100  0.0568
 9245SOL    HW139194   3.511   3.666  10.989  1.5114  2.0185  0.1793
 9245SOL    HW239195   3.506   3.623  11.132  0.3958 -0.3916 -1.4056
 9246SOL     OW39196   2.165   2.667   0.674 -0.0721  0.0480  0.4975
 9246SOL    HW139197   2.092   2.616   0.709  0.9376 -1.7523 -0.0201
 9246SOL    HW239198   2.221   2.685   0.751  1.1022 -0.2742 -0.2800
 9247SOL     OW39199   0.234   2.319  13.819  0.1253 -0.2454 -0.1025
 9247SOL    HW139200   0.299   2.343  13.885 -1.5880  0.6859  1.2532
 9247SOL    HW239201   0.280   2.321  13.735 -0.7671 -0.3275 -0.5975
 9248SOL     OW39202   0.001   4.337   1.462 -0.3323 -0.1263 -0.1012
 9248SOL    HW139203   4.642   4.309   1.502  0.8020 -1.5965  1.2213
 9248SOL    HW239204   0.067   4.321   1.529  0.3678 -0.0680 -0.7848
 9249SOL     OW39205   4.394   2.062  15.260 -0.1425  0.0673 -0.6270
 9249SOL    HW139206   4.322   2.066  15.197 -0.0565 -0.3154 -0.7500
 9249SOL    HW239207   4.418   2.154  15.257 -0.8282  0.3424  2.5107
 9250SOL     OW39208   3.978   3.385   3.531 -0.0371  0.8610  0.0624
 9250SOL    HW139209   3.922   3.437   3.472  0.9184 -0.0519 -1.6602
 9250SOL    HW239210   4.042   3.355   3.467  0.1113 -0.2147  0.7106
 9251SOL     OW39211   3.264   0.835   3.256  0.0696  0.3146 -0.0870
 9251SOL    HW139212   3.322   0.903   3.292 -1.5647  1.9339 -0.5081
 9251SOL    HW239213   3.185   0.888   3.267  1.1192  1.8722 -0.0523
 9252SOL     OW39214   1.957   0.883   7.213  0.0517  0.4162 -0.0008
 9252SOL    HW139215   2.043   0.923   7.220  0.0285 -0.0647  3.1143
 9252SOL    HW239216   1.961   0.845   7.126  1.2797  0.3964  0.0755
 9253SOL     OW39217   2.763   2.748   1.579 -0.4762  0.6384 -0.1633
 9253SOL    HW139218   2.788   2.700   1.499  1.5803 -1.2212  1.5900
 9253SOL    HW239219   2.764   2.837   1.543  1.3070  1.5507  2.1636
 9254SOL     OW39220   1.029   2.302   5.960 -0.5077  0.4991 -0.0811
 9254SOL    HW139221   1.011   2.209   5.949 -0.3747  0.5023 -0.3357
 9254SOL    HW239222   1.001   2.313   6.051 -0.9364  1.7158 -0.3579
 9255SOL     OW39223   0.589   0.117   6.701  0.0058  0.3322 -0.8761
 9255SOL    HW139224   0.630   0.097   6.785 -0.5194 -0.6808 -0.8679
 9255SOL    HW239225   0.539   0.036   6.689  2.1219 -0.7897 -1.9696
 9256SOL     OW39226   1.018   2.130   8.566  0.3968 -0.2734 -0.0455
 9256SOL    HW139227   0.967   2.070   8.620  0.7125 -1.1273 -0.6930
 9256SOL    HW239228   1.103   2.086   8.562 -1.2707 -3.5150  0.3090
 9257SOL     OW39229   2.707   2.638   2.943 -0.2641  0.2852 -0.1325
 9257SOL    HW139230   2.697   2.653   2.849 -0.0469 -2.1755 -0.5533
 9257SOL    HW239231   2.646   2.702   2.980 -1.7492 -0.9511 -0.4500
 9258SOL     OW39232   3.749   3.525   6.692 -0.1708  0.3261  0.4990
 9258SOL    HW139233   3.758   3.620   6.689 -0.1528  0.3401  0.9553
 9258SOL    HW239234   3.681   3.516   6.759 -1.1306  0.4337 -0.4658
 9259SOL     OW39235   2.157   3.968   5.421 -0.2962 -0.3154  0.2073
 9259SOL    HW139236   2.092   4.038   5.416  0.4027  0.2952 -0.1857
 9259SOL    HW239237   2.177   3.974   5.515 -1.4314  0.4546  0.4024
 9260SOL     OW39238   4.191   2.265   8.828  0.0481 -0.2278 -0.1558
 9260SOL    HW139239   4.127   2.243   8.895 -0.7392  2.8190  0.0754
 9260SOL    HW239240   4.139   2.283   8.750  2.2525  0.1768 -1.5456
 9261SOL     OW39241   0.517   0.144  14.820  0.0875  0.1017  0.2966
 9261SOL    HW139242   0.551   0.056  14.804  1.5063  0.8149 -0.6431
 9261SOL    HW239243   0.423   0.126  14.823  0.4605 -2.4212 -2.2199
 9262SOL     OW39244   3.762   3.471   7.425 -0.3568 -0.2066  0.2096
 9262SOL    HW139245   3.795   3.417   7.353  1.1880  1.2230 -0.1573
 9262SOL    HW239246   3.673   3.437   7.434 -0.2593 -0.3121  0.7570
 9263SOL     OW39247   0.023   3.446   4.788  0.5888  0.9853  0.4336
 9263SOL    HW139248   4.676   3.450   4.853  2.3415  2.5860  2.2208
 9263SOL    HW239249   0.070   3.370   4.822 -0.0765  0.4063  0.0729
 9264SOL     OW39250   1.878   4.550  11.057  0.3066  0.5529  0.0682
 9264SOL    HW139251   1.850   4.574  10.969 -1.5405  0.7444  0.7059
 9264SOL    HW239252   1.867   4.631  11.108 -1.5012  0.0084  0.5683
 9265SOL     OW39253   3.686   4.038   6.852 -0.1068 -0.5053  0.3154
 9265SOL    HW139254   3.687   4.125   6.813  4.0312 -0.6712  0.0639
 9265SOL    HW239255   3.738   4.059   6.930 -0.2273 -0.3385  0.3495
 9266SOL     OW39256   0.199   3.035  17.175 -0.2830 -0.4794 -0.0092
 9266SOL    HW139257   0.136   3.018  17.105 -1.3719 -2.4320  1.4707
 9266SOL    HW239258   0.273   3.068  17.124  1.2084 -0.0310  2.4508
 9267SOL     OW39259   3.653   3.165  16.151  0.1229 -0.4413 -0.4120
 9267SOL    HW139260   3.717   3.169  16.223  0.7993  0.0818 -1.0362
 9267SOL    HW239261   3.587   3.104  16.183  0.2896  0.3314  1.4148
 9268SOL     OW39262   1.956   3.728  12.218 -0.3857 -0.5141 -0.0353
 9268SOL    HW139263   1.949   3.697  12.308  3.1701 -0.2022  0.3745
 9268SOL    HW239264   1.864   3.720  12.194 -0.6192  0.6903  0.4734
 9269SOL     OW39265   1.722   4.116   7.131  0.2216 -0.0279 -0.2010
 9269SOL    HW139266   1.807   4.083   7.100  0.2765  0.6983 -0.8415
 9269SOL    HW239267   1.672   4.036   7.143 -0.1810  0.0301 -1.5623
 9270SOL     OW39268   1.758   2.730   3.186  0.1183 -0.0839 -0.3016
 9270SOL    HW139269   1.701   2.662   3.151 -0.4336  0.8565 -1.2299
 9270SOL    HW239270   1.810   2.670   3.239 -1.7567 -1.9759 -0.6333
 9271SOL     OW39271   1.626   1.757   9.699  0.1699 -0.4429 -0.6280
 9271SOL    HW139272   1.642   1.805   9.618  2.7875  0.9827  0.7551
 9271SOL    HW239273   1.631   1.821   9.770 -2.5041 -3.5330  2.3335
 9272SOL     OW39274   2.255   2.080   3.973 -0.4683  0.6538  0.1555
 9272SOL    HW139275   2.265   2.048   3.883  2.3564  1.5878  0.1123
 9272SOL    HW239276   2.214   2.164   3.952 -0.3297 -0.1624 -3.4306
 9273SOL     OW39277   3.032   3.643   6.765 -0.6891 -0.1792  0.3284
 9273SOL    HW139278   3.086   3.717   6.792 -0.3219 -0.1611 -0.4426
 9273SOL    HW239279   3.099   3.579   6.742  2.3021  2.5850  1.4266
 9274SOL     OW39280   3.692   2.405   6.283  0.0241  0.6606 -0.4402
 9274SOL    HW139281   3.740   2.400   6.365 -2.0454 -0.8101  0.6840
 9274SOL    HW239282   3.712   2.494   6.251 -0.4694  0.6275 -0.8445
 9275SOL     OW39283   4.222   3.248   2.742  0.8518  0.3794  0.4868
 9275SOL    HW139284   4.311   3.248   2.708 -0.3628 -0.9395 -2.8046
 9275SOL    HW239285   4.190   3.325   2.695 -0.9850 -1.4052 -1.1821
 9276SOL     OW39286   0.391   3.384   5.233  0.4327 -0.2912 -0.8749
 9276SOL    HW139287   0.366   3.440   5.159  0.5844 -0.9881 -1.4480
 9276SOL    HW239288   0.442   3.311   5.199  2.0609  0.0820  0.8394
 9277SOL     OW39289   4.160   1.427   7.063  0.2289  0.5322 -0.4337
 9277SOL    HW139290   4.093   1.477   7.110 -0.0558  0.0577 -0.3364
 9277SOL    HW239291   4.231   1.479   7.099 -0.9311  0.4024  1.9970
 9278SOL     OW39292   2.814   4.594   7.967  0.5774 -0.0056 -0.9994
 9278SOL    HW139293   2.872   4.544   7.910  0.6085 -1.0696 -0.0416
 9278SOL    HW239294   2.735   4.604   7.915  1.3701 -2.7726 -2.7236
 9279SOL     OW39295   2.503   3.760   4.526 -0.2099  0.2543  0.8056
 9279SOL    HW139296   2.490   3.849   4.494  2.0418  0.6465  1.0114
 9279SOL    HW239297   2.537   3.775   4.614 -2.9606 -3.2041  2.4544
 9280SOL     OW39298   3.728   3.581   4.975  0.7159  0.0166  0.6802
 9280SOL    HW139299   3.812   3.537   4.959 -0.2290 -1.1532 -1.1128
 9280SOL    HW239300   3.666   3.510   4.957 -1.2279  1.6586  0.8331
 9281SOL     OW39301   2.387   4.589   3.504  0.5875  0.7090 -0.1330
 9281SOL    HW139302   2.326   4.542   3.562  0.5987  0.4689 -0.3140
 9281SOL    HW239303   2.347   4.675   3.497 -0.4620  0.4311  2.4357
 9282SOL     OW39304   3.776   0.382   7.348  0.5012  0.0736  0.1555
 9282SOL    HW139305   3.713   0.319   7.383 -1.5788  2.0100 -0.1263
 9282SOL    HW239306   3.719   0.459   7.341  0.6369  0.2264  0.7928
 9283SOL     OW39307   4.369   1.297   6.678  0.4600 -0.4650  0.0510
 9283SOL    HW139308   4.420   1.377   6.692  0.5095 -0.3652 -0.7133
 9283SOL    HW239309   4.378   1.273   6.586 -0.3920 -0.2113 -0.1024
 9284SOL     OW39310   2.635   4.037   2.216  0.3399 -0.0060  0.2051
 9284SOL    HW139311   2.556   4.020   2.268  0.3750 -0.9045 -0.0404
 9284SOL    HW239312   2.620   3.980   2.140 -1.9645  1.6778 -0.6275
 9285SOL     OW39313   0.304   3.512  16.920 -0.3945  0.3651  0.0395
 9285SOL    HW139314   0.312   3.433  16.867  2.1696 -1.5000  3.1728
 9285SOL    HW239315   0.209   3.520  16.920 -0.1479  3.1047  1.1190
 9286SOL     OW39316   2.541   2.731   1.270 -0.1112  0.0060 -0.3904
 9286SOL    HW139317   2.489   2.729   1.350  2.4603  0.4952  1.3049
 9286SOL    HW239318   2.600   2.804   1.290 -1.7102  1.7228 -1.8566
 9287SOL     OW39319   0.723   2.536   0.067  0.1767  0.4761 -0.4173
 9287SOL    HW139320   0.669   2.464   0.100  2.5775 -1.4103 -0.6429
 9287SOL    HW239321   0.784   2.546   0.140  0.4680  1.0542 -0.7422
 9288SOL     OW39322   0.945   1.451   4.503 -0.3071  0.1687 -0.5322
 9288SOL    HW139323   0.915   1.387   4.439 -1.2054  0.1689 -0.1016
 9288SOL    HW239324   0.941   1.395   4.580 -0.5962  0.7692 -0.1102
 9289SOL     OW39325   0.906   0.644   4.096  0.5826 -0.6087  0.0568
 9289SOL    HW139326   0.832   0.689   4.136  0.3196  0.1145 -1.2696
 9289SOL    HW239327   0.889   0.552   4.117 -2.9854 -0.1655 -0.8970
 9290SOL     OW39328   1.415   0.326   2.007 -0.4072  0.7284  0.0077
 9290SOL    HW139329   1.505   0.347   2.033  0.8535 -0.7137 -3.1861
 9290SOL    HW239330   1.396   0.382   1.932 -2.5395  0.2433  0.1874
 9291SOL     OW39331   2.105   1.645  17.215 -0.4330  0.6015  0.1866
 9291SOL    HW139332   2.155   1.679  17.290 -1.0868  1.2762  0.3198
 9291SOL    HW239333   2.063   1.571  17.258 -0.0725  1.0476  1.3055
 9292SOL     OW39334   0.121   2.294   0.923  0.1222  0.0109  0.5809
 9292SOL    HW139335   0.051   2.229   0.921  1.5105 -1.5255  1.9133
 9292SOL    HW239336   0.079   2.371   0.960 -0.4980  1.1983 -2.6048
 9293SOL     OW39337   3.382   4.367   2.963 -0.4714 -0.6881 -0.3215
 9293SOL    HW139338   3.355   4.458   2.973 -2.6089 -1.6004  2.0579
 9293SOL    HW239339   3.475   4.375   2.986 -0.5710 -0.7670  0.1004
 9294SOL     OW39340   3.666   0.812   6.469 -0.2571  0.2351 -0.0050
 9294SOL    HW139341   3.591   0.847   6.422 -0.4505 -0.2954 -0.0917
 9294SOL    HW239342   3.631   0.738   6.519  1.2163 -0.7791 -0.4615
 9295SOL     OW39343   4.198   2.671   6.957  0.1002 -0.1512 -0.2224
 9295SOL    HW139344   4.148   2.690   7.036  0.5884  0.3570 -0.0387
 9295SOL    HW239345   4.206   2.577   6.976 -0.0360  0.2086  1.6448
 9296SOL     OW39346   2.323   0.315   5.177 -0.1825  0.0229 -0.5098
 9296SOL    HW139347   2.312   0.406   5.150  0.5625 -0.3448 -2.0705
 9296SOL    HW239348   2.415   0.323   5.206 -0.8902  0.5519  1.6159
 9297SOL     OW39349   2.843   3.659   7.372 -0.3891 -0.2073 -0.0804
 9297SOL    HW139350   2.920   3.664   7.316 -1.3415  1.8319 -1.1962
 9297SOL    HW239351   2.785   3.715   7.320  0.4719  0.6929 -0.0704
 9298SOL     OW39352   3.757   4.057  13.289 -0.3036  0.1422 -0.1284
 9298SOL    HW139353   3.687   3.998  13.262 -1.6485  1.6021  0.1926
 9298SOL    HW239354   3.829   4.015  13.242 -0.9558 -0.5762 -0.4729
 9299SOL     OW39355   3.658   2.497   3.098 -0.1479 -0.4758  0.2412
 9299SOL    HW139356   3.681   2.431   3.033 -1.1743  0.3003 -0.9283
 9299SOL    HW239357   3.699   2.577   3.065  0.3786 -0.2762  1.4024
 9300SOL     OW39358   1.930   3.148   4.442 -0.4870 -0.4141 -0.2212
 9300SOL    HW139359   1.976   3.135   4.360  1.6747  1.5330  0.6668
 9300SOL    HW239360   1.927   3.056   4.468  2.0020 -0.0117  1.5416
 9301SOL     OW39361   2.151   2.275  14.516  0.5369  1.0626 -0.1870
 9301SOL    HW139362   2.079   2.326  14.554 -0.9450 -0.0189 -1.5104
 9301SOL    HW239363   2.142   2.295  14.423 -0.5677  0.0266 -0.3068
 9302SOL     OW39364   0.076   4.265  13.647  0.6471  0.0506  0.4877
 9302SOL    HW139365   0.062   4.305  13.733  1.3484  0.8737  0.2171
 9302SOL    HW239366   0.170   4.284  13.642  1.5890 -4.2126  1.7369
 9303SOL     OW39367   4.236   1.877   4.662 -0.1493  0.2854 -0.2318
 9303SOL    HW139368   4.163   1.859   4.604  0.4765 -0.1568 -0.8857
 9303SOL    HW239369   4.303   1.896   4.596 -0.2800  0.6706 -0.2538
 9304SOL     OW39370   2.429   3.175  14.828 -0.5893 -0.1600 -0.0569
 9304SOL    HW139371   2.495   3.110  14.851  1.1564  1.9032  0.8224
 9304SOL    HW239372   2.471   3.239  14.886 -2.7248  1.1819  0.0093
 9305SOL     OW39373   2.388   2.978   4.262 -0.0110 -0.0443 -0.3152
 9305SOL    HW139374   2.446   2.993   4.188  0.0735  0.8877 -0.0521
 9305SOL    HW239375   2.358   3.068   4.274 -0.2154 -0.2208  0.5108
 9306SOL     OW39376   2.886   4.504  13.382  0.0903 -0.5473  0.1146
 9306SOL    HW139377   2.914   4.508  13.474  2.4858  0.9239 -0.6797
 9306SOL    HW239378   2.909   4.414  13.357  0.2678 -0.6236  0.5440
 9307SOL     OW39379   1.197   0.711   3.580 -0.1062 -0.6527  0.5694
 9307SOL    HW139380   1.147   0.635   3.609 -0.5227 -0.5405  0.1360
 9307SOL    HW239381   1.285   0.686   3.609 -0.2976  1.3102  2.8319
 9308SOL     OW39382   3.247   0.722   8.141  0.6094  0.1333 -0.0238
 9308SOL    HW139383   3.257   0.784   8.069 -1.7845  0.4278 -0.1157
 9308SOL    HW239384   3.249   0.788   8.210  1.3860  0.7097 -0.5918
 9309SOL     OW39385   4.305   3.454  14.382  0.3704 -0.1924  0.5612
 9309SOL    HW139386   4.390   3.492  14.406 -0.3830  0.8710  1.5326
 9309SOL    HW239387   4.319   3.364  14.412  1.9381  0.1182  0.7665
 9310SOL     OW39388   2.582   3.995  10.534 -0.5738  0.1372 -0.2211
 9310SOL    HW139389   2.593   3.962  10.623  0.3400  0.9292 -0.0391
 9310SOL    HW239390   2.489   3.972  10.531 -1.0121  1.7140  0.8831
 9311SOL     OW39391   1.631   2.532   2.168  0.1262  0.1979 -0.4430
 9311SOL    HW139392   1.576   2.598   2.124 -1.8543 -0.6543  0.7828
 9311SOL    HW239393   1.702   2.531   2.103  0.0325  0.3662 -0.5516
 9312SOL     OW39394   1.297   0.050   1.771  0.1165 -0.3490 -0.0904
 9312SOL    HW139395   1.225   0.112   1.773  0.9608  0.5680  1.6667
 9312SOL    HW239396   1.254   4.695   1.806 -0.1339  0.1762  0.7880
 9313SOL     OW39397   0.805   4.586  12.695 -0.1196 -0.4642  0.5319
 9313SOL    HW139398   0.808   4.623  12.783  2.6144  0.0038  0.2513
 9313SOL    HW239399   0.719   4.625  12.681  0.4485  0.6437  0.1020
 9314SOL     OW39400   3.469   2.774   5.006 -0.8040  0.0169  0.2000
 9314SOL    HW139401   3.515   2.808   4.930 -0.6208 -1.7105 -0.4684
 9314SOL    HW239402   3.490   2.681   5.013 -2.8139 -0.5068 -0.7873
 9315SOL     OW39403   3.644   3.297   2.313 -0.1616 -0.1315 -0.4741
 9315SOL    HW139404   3.702   3.370   2.333 -2.1926  1.5566 -0.8277
 9315SOL    HW239405   3.696   3.247   2.249 -0.0063 -2.7350  1.6791
 9316SOL     OW39406   2.713   1.165   9.784 -0.0869 -0.3041  0.2671
 9316SOL    HW139407   2.648   1.235   9.782 -0.7702 -0.8336  3.7015
 9316SOL    HW239408   2.775   1.200   9.848 -1.1485 -0.3588  1.3321
 9317SOL     OW39409   1.065   2.483   1.546 -0.5779 -0.3737 -0.0424
 9317SOL    HW139410   1.083   2.430   1.623 -0.9400 -0.8032 -0.2550
 9317SOL    HW239411   1.140   2.441   1.503 -0.1274  1.1911 -0.8013
 9318SOL     OW39412   3.007   2.362   4.698 -0.1522 -0.0264 -0.2540
 9318SOL    HW139413   2.931   2.324   4.654  0.8850 -1.3096 -0.9430
 9318SOL    HW239414   3.078   2.356   4.635 -1.2419 -0.4950 -1.4566
 9319SOL     OW39415   3.397   0.056   6.642  0.3989  0.3281 -0.2485
 9319SOL    HW139416   3.367   0.137   6.682  0.0073 -0.1039  0.3277
 9319SOL    HW239417   3.490   0.077   6.629  0.4589  1.7019  2.4118
 9320SOL     OW39418   0.427   1.122   8.480 -0.0747 -0.1456 -0.3323
 9320SOL    HW139419   0.521   1.106   8.465  0.1702  2.5981 -1.8377
 9320SOL    HW239420   0.404   1.035   8.511  0.1542  0.1086  0.5357
 9321SOL     OW39421   0.163   4.657  16.793 -0.4055 -0.7174 -0.1839
 9321SOL    HW139422   0.151   4.601  16.870 -1.7891 -0.4871 -0.2271
 9321SOL    HW239423   0.071   4.664  16.765 -0.1431 -0.3582 -0.9666
 9322SOL     OW39424   3.327   1.074   7.739  0.5380  1.1696  0.1634
 9322SOL    HW139425   3.333   1.007   7.672 -0.1808  0.4656  0.7981
 9322SOL    HW239426   3.242   1.052   7.777  0.3415 -0.9863 -1.5204
 9323SOL     OW39427   1.290   3.072   5.297 -0.2115 -0.3762 -0.1539
 9323SOL    HW139428   1.254   3.002   5.243 -0.4345 -1.5676  1.5218
 9323SOL    HW239429   1.349   3.114   5.236  1.3344  0.8914  2.2030
 9324SOL     OW39430   4.444   2.362  12.956 -0.0148  0.5324 -0.2778
 9324SOL    HW139431   4.501   2.393  13.025  0.0833  1.0761 -0.6019
 9324SOL    HW239432   4.380   2.308  13.002 -1.8084  0.0461 -3.3421
 9325SOL     OW39433   0.755   1.241   4.616 -0.8527 -0.7536  0.3274
 9325SOL    HW139434   0.765   1.329   4.654  1.8330 -0.8681 -0.0647
 9325SOL    HW239435   0.769   1.182   4.690  0.6393 -1.6291 -0.6533
 9326SOL     OW39436   0.533   1.947  17.636 -0.2460 -0.1286  0.2673
 9326SOL    HW139437   0.560   1.985   0.022  0.6845 -0.5756  0.1662
 9326SOL    HW239438   0.552   2.011  17.567  1.6815 -0.0047  0.9313
 9327SOL     OW39439   0.815   1.209   8.603  0.2638  0.5231  0.3854
 9327SOL    HW139440   0.799   1.115   8.601  1.7407  0.2820 -0.3113
 9327SOL    HW239441   0.728   1.245   8.621  0.0611 -0.3182  1.0766
 9328SOL     OW39442   3.522   1.677  11.436 -0.8023  0.1307  0.0413
 9328SOL    HW139443   3.538   1.769  11.411 -1.2020  0.9350  2.7048
 9328SOL    HW239444   3.427   1.669  11.430 -0.6298 -0.3824 -2.1805
 9329SOL     OW39445   1.658   3.954   6.099  0.0030 -0.0829  0.0669
 9329SOL    HW139446   1.593   3.914   6.040 -2.2617  3.0469  0.4624
 9329SOL    HW239447   1.688   4.034   6.055  0.7765 -1.3484 -1.7410
 9330SOL     OW39448   2.327   2.163  12.992  0.0721 -0.2732  0.2859
 9330SOL    HW139449   2.416   2.128  12.993  0.6408  1.1717 -1.1523
 9330SOL    HW239450   2.287   2.127  13.072  2.2552 -1.8811  0.6478
 9331SOL     OW39451   3.498   3.009   0.774 -0.5696  0.3260 -0.0641
 9331SOL    HW139452   3.438   3.081   0.795 -0.1020  0.3385  1.2080
 9331SOL    HW239453   3.440   2.950   0.724 -0.6037 -0.8984  1.4025
 9332SOL     OW39454   3.596   3.187   3.788 -0.1519 -0.4370 -0.0294
 9332SOL    HW139455   3.584   3.092   3.783  0.3271 -0.5601  1.1051
 9332SOL    HW239456   3.678   3.203   3.742 -0.1658  0.1607  0.1509
 9333SOL     OW39457   4.168   3.265   5.739 -0.4142 -0.2193 -0.1463
 9333SOL    HW139458   4.229   3.338   5.749  2.6518 -2.4322 -2.6301
 9333SOL    HW239459   4.084   3.312   5.746 -0.1453  0.1693  0.4190
 9334SOL     OW39460   3.183   0.234  17.296 -0.0080  0.3345  0.8724
 9334SOL    HW139461   3.163   0.153  17.251 -1.0559  1.4774 -0.7091
 9334SOL    HW239462   3.098   0.278  17.289  0.3754  1.0711  0.7401
 9335SOL     OW39463   2.232   3.188   3.425 -0.5643  0.4468  0.3940
 9335SOL    HW139464   2.290   3.261   3.448 -0.1976 -0.0978  1.1682
 9335SOL    HW239465   2.302   3.152   3.372 -0.4441  0.5241  0.5001
 9336SOL     OW39466   2.415   1.146   7.179  0.5273 -0.0409 -0.2320
 9336SOL    HW139467   2.471   1.188   7.244 -1.3011 -1.0308  1.9847
 9336SOL    HW239468   2.440   1.196   7.101 -1.6144  2.7105  0.8537
 9337SOL     OW39469   1.346   2.795   4.500  0.0387 -0.9355  0.1500
 9337SOL    HW139470   1.427   2.798   4.449 -1.6439 -0.0546 -2.4433
 9337SOL    HW239471   1.281   2.747   4.448 -0.0077  1.4061 -1.9302
 9338SOL     OW39472   3.469   2.510   5.305  0.5735 -0.9113  0.2794
 9338SOL    HW139473   3.481   2.508   5.210  0.3039 -1.1479  0.2485
 9338SOL    HW239474   3.558   2.527   5.335  0.0138  1.9223  0.3214
 9339SOL     OW39475   2.679   1.804  13.895 -0.1775  0.5528  0.0916
 9339SOL    HW139476   2.622   1.880  13.910  0.2460  1.2347 -1.6816
 9339SOL    HW239477   2.758   1.844  13.933  0.4051  0.0947 -0.6410
 9340SOL     OW39478   0.192   0.517   0.685  0.2550 -0.0882  0.3077
 9340SOL    HW139479   0.151   0.569   0.616 -0.2235 -1.0939 -0.1582
 9340SOL    HW239480   0.159   0.559   0.765  0.4300  0.6420  0.0018
 9341SOL     OW39481   4.193   4.046   6.092 -0.3933 -0.5713 -0.5526
 9341SOL    HW139482   4.136   3.970   6.102  0.3658 -1.0934 -0.2116
 9341SOL    HW239483   4.172   4.096   6.171 -0.2468  0.7660 -1.3530
 9342SOL     OW39484   1.024   2.257   0.161 -0.9505  0.0413  0.6181
 9342SOL    HW139485   1.035   2.177   0.212 -1.5779 -0.0327  0.6451
 9342SOL    HW239486   1.036   2.327   0.225 -0.3551  0.5481 -0.0423
 9343SOL     OW39487   1.016   3.766   8.081 -0.0323  0.3104  0.0120
 9343SOL    HW139488   0.943   3.744   8.138 -0.0691 -0.6136 -0.3981
 9343SOL    HW239489   0.997   3.858   8.061  2.9262  0.7943 -0.5769
 9344SOL     OW39490   2.170   4.449   7.315  0.3119  0.5214  0.3574
 9344SOL    HW139491   2.077   4.464   7.331  0.2575 -0.3046  0.8029
 9344SOL    HW239492   2.199   4.409   7.397 -1.8784 -1.2338  0.2833
 9345SOL     OW39493   0.740   0.369  12.781 -0.2593 -0.0676  0.2529
 9345SOL    HW139494   0.776   0.456  12.766  0.1156 -0.3908 -0.7158
 9345SOL    HW239495   0.812   0.326  12.827 -0.7543  0.3458  1.4090
 9346SOL     OW39496   1.878   3.544   4.909 -0.0148  0.3272 -0.7725
 9346SOL    HW139497   1.957   3.503   4.874  0.8012  0.9765  0.3119
 9346SOL    HW239498   1.902   3.635   4.890 -1.7821  0.8670 -0.4388
 9347SOL     OW39499   3.067   1.032   2.847  0.8085 -0.2736 -0.0229
 9347SOL    HW139500   3.028   1.115   2.875 -0.4005 -0.4490 -1.1641
 9347SOL    HW239501   3.007   0.962   2.876  0.2370 -0.4781 -1.6989
 9348SOL     OW39502   4.011   4.575  15.147  0.3592 -0.6253 -0.7625
 9348SOL    HW139503   4.027   4.542  15.059  0.2080  2.0140 -1.7881
 9348SOL    HW239504   4.044   4.502  15.200 -0.5634 -0.5690 -0.0965
 9349SOL     OW39505   1.045   0.853   4.376 -0.2948  0.3398 -0.3108
 9349SOL    HW139506   1.133   0.841   4.340  0.5183  0.1341  1.7505
 9349SOL    HW239507   1.026   0.943   4.349  0.5825 -0.1803 -2.6602
 9350SOL     OW39508   0.825   4.306   5.462 -0.1661 -1.0322 -0.7906
 9350SOL    HW139509   0.737   4.338   5.443 -0.8011 -1.5560  1.2549
 9350SOL    HW239510   0.833   4.236   5.397  0.5972 -0.1453 -1.6392
 9351SOL     OW39511   4.522   3.900  11.453  0.7144 -0.6858  0.5171
 9351SOL    HW139512   4.478   3.954  11.519 -0.1069 -1.4648  0.6173
 9351SOL    HW239513   4.525   3.818  11.502  0.3248 -2.4514 -2.4097
 9352SOL     OW39514   1.669   1.823   0.748  0.4609 -0.2288 -0.0429
 9352SOL    HW139515   1.618   1.743   0.758  0.0459  0.1179  0.6573
 9352SOL    HW239516   1.754   1.794   0.713  0.7947 -0.5143  1.0128
 9353SOL     OW39517   0.558   2.086   8.845  0.5539  0.1071 -0.2142
 9353SOL    HW139518   0.632   2.041   8.885  0.0463 -0.5607 -0.0270
 9353SOL    HW239519   0.563   2.037   8.762 -1.0225  0.4730 -0.5245
 9354SOL     OW39520   0.258   3.099   3.383  0.5971  0.1282  0.0725
 9354SOL    HW139521   0.277   3.061   3.469  1.4011  3.5637  1.4161
 9354SOL    HW239522   0.317   3.174   3.385  0.2572  0.3869  0.1681
 9355SOL     OW39523   4.105   2.448   3.427 -0.1974  0.1066 -1.0396
 9355SOL    HW139524   4.184   2.419   3.472 -0.1884 -0.2528 -1.2859
 9355SOL    HW239525   4.100   2.541   3.447  0.4929  0.0894 -0.7742
 9356SOL     OW39526   2.296   4.293   4.513  0.3628 -0.0273 -0.9434
 9356SOL    HW139527   2.228   4.230   4.487 -0.1810  0.2255 -0.1329
 9356SOL    HW239528   2.309   4.268   4.605 -1.7383 -0.2236 -0.6999
 9357SOL     OW39529   4.522   1.357   9.618  0.0663 -0.2376 -0.3326
 9357SOL    HW139530   4.604   1.365   9.570  1.1512  0.9576  1.7152
 9357SOL    HW239531   4.476   1.290   9.567  1.9673 -1.5352 -0.3559
 9358SOL     OW39532   2.191   0.181  14.000 -0.7090  0.6282  0.3581
 9358SOL    HW139533   2.217   0.271  14.021 -0.1634  1.0317 -1.9885
 9358SOL    HW239534   2.139   0.151  14.074 -4.1304  0.0045 -2.3259
 9359SOL     OW39535   1.332   2.762  16.752  0.4264  0.2649  0.2050
 9359SOL    HW139536   1.317   2.825  16.682 -1.4583  0.2888  0.6198
 9359SOL    HW239537   1.272   2.787  16.823  0.3754 -1.4271  0.7597
 9360SOL     OW39538   3.276   3.944  12.807 -0.0641  0.3168 -0.2564
 9360SOL    HW139539   3.219   3.885  12.856  0.5915  1.3137  1.7123
 9360SOL    HW239540   3.211   4.003  12.769 -1.1004 -0.3525  0.4822
 9361SOL     OW39541   3.304   3.601   6.705  0.6433 -0.0540 -0.1967
 9361SOL    HW139542   3.289   3.524   6.649 -0.4822 -0.0162  0.0670
 9361SOL    HW239543   3.382   3.635   6.660  2.1804 -2.7437  0.4151
 9362SOL     OW39544   0.871   3.978  11.524 -0.0399 -0.1392 -0.5246
 9362SOL    HW139545   0.954   3.997  11.566  1.3187 -2.8165 -1.9963
 9362SOL    HW239546   0.849   4.052  11.467  0.6412 -0.6046 -1.3887
 9363SOL     OW39547   2.757   2.504   3.470  0.1402  0.0540 -0.3330
 9363SOL    HW139548   2.793   2.417   3.451 -0.6108 -0.6480  1.4864
 9363SOL    HW239549   2.714   2.523   3.386 -0.7511 -1.7168 -0.2771
 9364SOL     OW39550   3.476   4.522   8.811 -0.7480  0.0216 -0.5830
 9364SOL    HW139551   3.405   4.545   8.871  0.9849 -1.6343  2.1381
 9364SOL    HW239552   3.532   4.489   8.882  0.2578 -1.6091 -2.1184
 9365SOL     OW39553   1.232   1.649  16.199  0.1820  0.5396 -0.5863
 9365SOL    HW139554   1.189   1.564  16.197 -1.9681  1.6302 -0.0410
 9365SOL    HW239555   1.185   1.697  16.267  2.9749  3.2706 -0.5970
 9366SOL     OW39556   4.343   2.143   7.092 -0.6962  0.0645 -0.2045
 9366SOL    HW139557   4.436   2.119   7.087 -0.9799 -0.9288 -0.8179
 9366SOL    HW239558   4.329   2.109   7.180  0.2422  0.9740  0.2843
 9367SOL     OW39559   2.002   3.625   1.460  0.4724 -0.3652  0.4300
 9367SOL    HW139560   2.041   3.545   1.497 -0.4105 -0.9750  0.0326
 9367SOL    HW239561   2.052   3.635   1.379  0.0126  1.8996  0.4218
 9368SOL     OW39562   4.126   2.879   8.252 -0.5554 -0.2424 -0.3430
 9368SOL    HW139563   4.220   2.875   8.267 -0.8974 -0.7641  1.6001
 9368SOL    HW239564   4.090   2.895   8.339 -1.9930 -3.8417 -0.2620
 9369SOL     OW39565   3.619   0.968   5.959  0.5243  0.3723 -0.1287
 9369SOL    HW139566   3.624   1.018   5.877 -1.2155 -0.2868 -0.6533
 9369SOL    HW239567   3.708   0.932   5.958 -0.1639 -1.3262 -1.5992
 9370SOL     OW39568   2.784   3.383  16.675  0.6057 -0.1777  0.1143
 9370SOL    HW139569   2.695   3.388  16.641  0.6798 -2.6224 -0.4392
 9370SOL    HW239570   2.759   3.332  16.753 -0.1735  0.8305  0.5186
 9371SOL     OW39571   0.324   0.427  16.143 -0.5164  0.6117 -0.5231
 9371SOL    HW139572   0.234   0.444  16.117  0.2790  1.6746 -2.5783
 9371SOL    HW239573   0.342   0.344  16.098 -1.0937 -0.2765  0.8996
 9372SOL     OW39574   1.334   0.993   3.463 -0.4668  0.0193  0.0601
 9372SOL    HW139575   1.326   0.987   3.367  1.6353 -0.3812 -0.0757
 9372SOL    HW239576   1.413   1.045   3.472  0.5747 -1.7957  1.3483
 9373SOL     OW39577   4.424   2.123   0.590  0.3039 -0.4537  0.6027
 9373SOL    HW139578   4.404   2.054   0.526 -0.3430  1.8838 -1.6944
 9373SOL    HW239579   4.456   2.193   0.534 -0.4338 -2.2381 -2.0499
 9374SOL     OW39580   3.905   0.224   3.545  0.1214 -0.0004  0.0556
 9374SOL    HW139581   3.874   0.247   3.458 -1.0350 -1.2173  0.1458
 9374SOL    HW239582   3.969   0.155   3.527 -1.2379 -0.6345 -2.2409
 9375SOL     OW39583   1.341   0.185   8.165  0.2294  0.0445 -0.0167
 9375SOL    HW139584   1.299   0.102   8.187  2.3712 -0.1585  3.2382
 9375SOL    HW239585   1.404   0.148   8.103  1.5129  0.1044  1.2497
 9376SOL     OW39586   1.506   3.382   7.035  0.3487 -0.2370 -0.2223
 9376SOL    HW139587   1.530   3.412   6.947 -1.7865  1.2129 -0.3039
 9376SOL    HW239588   1.572   3.428   7.087  0.9564  0.7188 -1.8224
 9377SOL     OW39589   2.119   4.383   3.888 -0.2796  0.5620  0.2500
 9377SOL    HW139590   2.192   4.417   3.941 -0.5095 -0.8524  1.4887
 9377SOL    HW239591   2.072   4.349   3.964  0.1831 -2.9697 -1.0606
 9378SOL     OW39592   4.471   0.315   8.566  0.2425 -0.4005 -0.6245
 9378SOL    HW139593   4.487   0.336   8.474  0.3953 -1.6593 -0.8740
 9378SOL    HW239594   4.376   0.326   8.565  0.2375 -0.1605  1.4229
 9379SOL     OW39595   4.314   1.190   1.371 -0.2194  0.6345  0.2495
 9379SOL    HW139596   4.326   1.215   1.279  2.3508 -1.2493  0.0952
 9379SOL    HW239597   4.403   1.160   1.384 -0.0752  0.4351 -1.2129
 9380SOL     OW39598   2.821   1.312  12.188  0.5359 -0.0997 -0.2670
 9380SOL    HW139599   2.749   1.280  12.241 -0.1869  1.7634 -0.1038
 9380SOL    HW239600   2.899   1.302  12.243 -0.2449 -1.2329  0.6388
 9381SOL     OW39601   4.685   1.898   2.774 -0.0799  0.3595  0.6342
 9381SOL    HW139602   4.633   1.958   2.720  1.9979  1.7344  0.1584
 9381SOL    HW239603   0.012   1.851   2.708  0.3333 -1.7017  2.4169
 9382SOL     OW39604   1.072   1.413  16.177  0.1525  0.4731 -0.7341
 9382SOL    HW139605   0.983   1.439  16.153 -1.1644 -2.2924  1.0714
 9382SOL    HW239606   1.092   1.348  16.110  1.7651 -1.3916  1.5741
 9383SOL     OW39607   0.699   4.374   3.065  0.0265  0.0576 -0.3598
 9383SOL    HW139608   0.694   4.435   3.139  1.1052 -0.0522 -0.1882
 9383SOL    HW239609   0.677   4.299   3.120  2.7024 -1.6112 -1.5599
 9384SOL     OW39610   1.498   3.051   8.215  0.1206  0.4307  0.6251
 9384SOL    HW139611   1.468   2.974   8.264 -3.1288  0.4080 -1.3935
 9384SOL    HW239612   1.469   3.016   8.131  0.1053  0.6023  0.5581
 9385SOL     OW39613   0.877   4.706  10.550 -0.3630  0.2148  0.0062
 9385SOL    HW139614   0.838   4.674  10.632 -0.2008 -0.1197 -0.0450
 9385SOL    HW239615   0.853   0.073  10.569  0.6446  0.5641 -0.3675
 9386SOL     OW39616   3.789   4.006  13.820  0.0428 -0.1787 -0.5633
 9386SOL    HW139617   3.819   3.916  13.835 -0.5558 -0.1463  0.7903
 9386SOL    HW239618   3.707   4.001  13.771  0.2100 -1.1264 -0.7483
 9387SOL     OW39619   0.028   0.346   9.051 -0.1638  0.2916  0.2313
 9387SOL    HW139620   0.052   0.402   9.125  3.0965  1.9756 -2.1109
 9387SOL    HW239621   4.700   0.280   9.098  0.5082 -1.1091 -1.0244
 9388SOL     OW39622   3.369   0.821   0.259 -0.0349  0.0879 -0.0366
 9388SOL    HW139623   3.347   0.901   0.307  0.9999  0.5141 -0.2619
 9388SOL    HW239624   3.285   0.801   0.220  0.6066 -1.2798 -0.7013
 9389SOL     OW39625   4.047   2.529   1.192 -0.1439  0.1571  0.1903
 9389SOL    HW139626   4.095   2.523   1.110 -0.9498  1.1754 -0.3611
 9389SOL    HW239627   4.054   2.624   1.202 -1.3230  0.2366  0.2425
 9390SOL     OW39628   1.711   3.266   7.348  0.6579  0.4848 -0.4076
 9390SOL    HW139629   1.732   3.329   7.279 -0.0907  1.3668  0.1755
 9390SOL    HW239630   1.618   3.277   7.367  0.6221  1.0912 -0.9434
 9391SOL     OW39631   3.616   1.038   4.943 -0.2082  0.1277 -0.0547
 9391SOL    HW139632   3.649   1.000   5.025 -0.8384  1.1749  0.6929
 9391SOL    HW239633   3.536   0.985   4.946  0.5009 -0.8794  0.9212
 9392SOL     OW39634   3.206   2.326   4.262  0.1203 -0.2848 -0.2660
 9392SOL    HW139635   3.299   2.311   4.277 -0.7281 -3.4537  1.8380
 9392SOL    HW239636   3.186   2.267   4.190  1.3775  0.2558 -1.0539
 9393SOL     OW39637   3.070   0.005   2.732 -0.0927  0.3266  0.0933
 9393SOL    HW139638   3.028   0.091   2.725  1.5132  0.9521 -1.9994
 9393SOL    HW239639   3.146   0.035   2.782  1.2176 -1.9225 -0.5550
 9394SOL     OW39640   0.667   1.988   7.215  0.3175 -0.2276 -0.2250
 9394SOL    HW139641   0.633   1.973   7.303  0.9387  0.6688  0.1543
 9394SOL    HW239642   0.747   1.936   7.213  1.4664  1.5644  0.2190
 9395SOL     OW39643   3.172   4.429   2.551  0.0150  0.2617 -0.3475
 9395SOL    HW139644   3.258   4.455   2.584  0.2412  0.2884 -0.9624
 9395SOL    HW239645   3.208   4.361   2.494 -3.7624 -1.8200 -0.3115
 9396SOL     OW39646   0.732   0.003   4.445  0.2502 -0.1474  0.1642
 9396SOL    HW139647   0.709   0.004   4.538  0.0326 -0.7040  0.1165
 9396SOL    HW239648   0.649   4.705   4.403 -0.1919 -0.1301  1.0343
 9397SOL     OW39649   0.453   0.616   2.809  0.2061 -0.5683  0.1258
 9397SOL    HW139650   0.478   0.701   2.773 -0.4011 -1.1908 -1.7584
 9397SOL    HW239651   0.467   0.643   2.900  1.1642 -0.0935 -0.1643
 9398SOL     OW39652   2.018   1.041   8.439  0.6334 -0.2036  0.1461
 9398SOL    HW139653   1.962   0.979   8.486 -0.5336  1.2406  0.6756
 9398SOL    HW239654   2.067   1.070   8.516  1.7078 -1.7410  0.0190
 9399SOL     OW39655   3.597   4.366   8.613 -0.4945  0.1517  0.1144
 9399SOL    HW139656   3.566   4.414   8.690 -1.4353 -0.1807 -0.0499
 9399SOL    HW239657   3.687   4.350   8.641 -0.7124  0.3138  0.8982
 9400SOL     OW39658   4.154   3.587   8.602  0.4117 -0.3429  0.0073
 9400SOL    HW139659   4.212   3.547   8.667  2.7226  0.9135 -1.2865
 9400SOL    HW239660   4.069   3.583   8.646  0.0968 -0.8849 -0.6424
 9401SOL     OW39661   1.974   0.522   4.918 -0.0444  0.3105 -0.1697
 9401SOL    HW139662   2.059   0.481   4.904  0.8423  1.9394  0.5162
 9401SOL    HW239663   1.967   0.575   4.839 -0.5131  0.6146  0.0699
 9402SOL     OW39664   1.301   2.847   3.851  0.8213  0.5196 -0.0832
 9402SOL    HW139665   1.254   2.765   3.864  2.1414 -0.2195 -0.0079
 9402SOL    HW239666   1.337   2.865   3.938 -2.9003  2.9990  0.9581
 9403SOL     OW39667   1.499   3.785  15.980 -0.4644 -0.7959  0.3756
 9403SOL    HW139668   1.537   3.705  16.016  0.0114 -0.2372  1.1086
 9403SOL    HW239669   1.501   3.754  15.889 -1.1800  1.6806 -0.5003
 9404SOL     OW39670   4.536   3.304  17.632 -0.0615  0.5653 -0.1215
 9404SOL    HW139671   4.478   3.228  17.628  0.7410 -0.0227 -0.4749
 9404SOL    HW239672   4.539   3.324  17.538  1.8001 -0.9322 -0.3740
 9405SOL     OW39673   3.456   4.673   8.576  0.1800 -0.3312  0.5544
 9405SOL    HW139674   3.493   4.628   8.652 -0.6339 -1.2055  0.4288
 9405SOL    HW239675   3.462   0.038   8.612 -0.0450 -1.2529  2.8420
 9406SOL     OW39676   4.127   0.150   2.580 -0.4639  0.0776 -0.0781
 9406SOL    HW139677   4.110   0.231   2.532  0.5246  0.1431 -0.3133
 9406SOL    HW239678   4.038   0.114   2.573 -1.1604  1.7504  0.1481
 9407SOL     OW39679   4.548   4.176   9.046 -0.0154 -0.0874  0.5509
 9407SOL    HW139680   4.561   4.125   8.965 -0.9330 -1.1836  1.0986
 9407SOL    HW239681   4.642   4.180   9.063  0.2682  1.4150 -1.3417
 9408SOL     OW39682   2.069   1.903   6.233 -0.2030  0.0829  0.1319
 9408SOL    HW139683   2.159   1.885   6.259 -0.6634  0.1595  1.8209
 9408SOL    HW239684   2.073   1.865   6.146  0.9247  2.7536 -0.9768
 9409SOL     OW39685   4.538   0.972   4.135 -0.4469  0.6202 -0.0500
 9409SOL    HW139686   4.514   0.921   4.213 -0.5652 -0.7656 -1.0023
 9409SOL    HW239687   4.628   0.997   4.155 -1.1062  1.3186  2.0524
 9410SOL     OW39688   3.630   1.365  13.477  0.0314 -0.0798 -0.1711
 9410SOL    HW139689   3.616   1.315  13.557  1.0511 -1.3626 -0.8019
 9410SOL    HW239690   3.642   1.298  13.409  0.5313  1.0043 -1.1603
 9411SOL     OW39691   3.530   2.405   7.558 -0.3914 -0.0361  0.1747
 9411SOL    HW139692   3.563   2.456   7.484  1.0150 -1.3706 -0.1022
 9411SOL    HW239693   3.564   2.319   7.535 -1.5168  0.2041 -2.4186
 9412SOL     OW39694   0.416   2.475   5.934  0.3690  0.1549 -0.6954
 9412SOL    HW139695   0.418   2.543   6.002 -0.5507  0.2968 -0.8126
 9412SOL    HW239696   0.412   2.531   5.856  0.9897  1.5811  0.2915
 9413SOL     OW39697   1.720   2.234   4.938 -0.5551  0.1240 -0.1066
 9413SOL    HW139698   1.772   2.238   4.857 -0.0441  0.4481  0.2402
 9413SOL    HW239699   1.774   2.171   4.987 -1.6877 -0.4223  0.4256
 9414SOL     OW39700   3.822   3.500   3.346  0.1436 -0.7652 -0.6025
 9414SOL    HW139701   3.742   3.552   3.350  0.6435 -0.0302 -0.0428
 9414SOL    HW239702   3.872   3.553   3.283  0.1416 -1.0600 -0.8548
 9415SOL     OW39703   4.508   1.726   0.995 -0.1629  0.7926 -0.1030
 9415SOL    HW139704   4.559   1.786   1.049 -0.0022 -0.6167  1.3122
 9415SOL    HW239705   4.429   1.779   0.987 -0.6058  0.1176 -0.2546
 9416SOL     OW39706   4.105   1.562  15.074  0.0531 -0.0296 -0.1871
 9416SOL    HW139707   4.039   1.622  15.107  0.5063 -0.0866  0.8375
 9416SOL    HW239708   4.166   1.625  15.037 -0.4554  0.8300  0.4468
 9417SOL     OW39709   4.024   2.258   2.823  0.2870 -0.1737 -0.3203
 9417SOL    HW139710   4.001   2.350   2.814 -1.9116 -0.6389  0.4543
 9417SOL    HW239711   4.001   2.227   2.735 -0.6361 -1.0952  0.2297
 9418SOL     OW39712   3.147   0.584  16.596 -0.4313  0.1593 -0.1235
 9418SOL    HW139713   3.057   0.552  16.597  0.0688 -1.2733 -3.3197
 9418SOL    HW239714   3.190   0.500  16.579 -0.7818 -0.3007  1.2262
 9419SOL     OW39715   4.494   2.244   2.754  0.4056  0.1252  0.2530
 9419SOL    HW139716   4.427   2.311   2.765  0.1220 -0.3559  1.4018
 9419SOL    HW239717   4.512   2.235   2.660  0.0114  0.8861  0.1056
 9420SOL     OW39718   1.952   3.764  17.300 -0.0292 -0.2688 -0.1488
 9420SOL    HW139719   2.007   3.783  17.224  1.2515 -1.5574  0.4665
 9420SOL    HW239720   2.019   3.766  17.367  1.0974  1.3194 -1.3359
 9421SOL     OW39721   2.660   1.137   7.886 -0.2652  0.2853  0.0449
 9421SOL    HW139722   2.602   1.148   7.962  0.1633  0.8472  0.2849
 9421SOL    HW239723   2.683   1.229   7.874 -2.1368  1.0210  2.0544
 9422SOL     OW39724   0.014   4.712  15.146 -0.3436  0.0550  0.3195
 9422SOL    HW139725   0.103   4.678  15.140 -0.5183 -0.3482  0.0261
 9422SOL    HW239726   4.712   4.712  15.054  0.2157 -0.2835  0.1668
 9423SOL     OW39727   3.849   4.080  17.543 -0.1707  0.7888 -0.0495
 9423SOL    HW139728   3.771   4.047  17.499 -1.4534 -1.0790  3.6941
 9423SOL    HW239729   3.866   4.165  17.501 -0.3023  2.2435  2.8437
 9424SOL     OW39730   3.193   4.547   7.035 -0.5200  0.3630 -0.1953
 9424SOL    HW139731   3.110   4.517   6.998  1.1365 -2.8148 -1.3979
 9424SOL    HW239732   3.247   4.550   6.956 -2.7028  2.6249 -1.5835
 9425SOL     OW39733   0.439   3.612  11.027  0.9997 -0.1191 -0.3586
 9425SOL    HW139734   0.499   3.537  11.025  0.1202 -0.9073  3.0133
 9425SOL    HW239735   0.504   3.682  11.037  1.1610 -0.4493  0.9740
 9426SOL     OW39736   3.659   1.600   3.224  0.0598 -0.3661  0.4870
 9426SOL    HW139737   3.620   1.590   3.137  1.8423 -0.1123 -0.3385
 9426SOL    HW239738   3.752   1.616   3.208 -0.0063 -2.1366 -1.6682
 9427SOL     OW39739   3.616   2.732  16.104  0.4143 -0.1843 -0.0093
 9427SOL    HW139740   3.685   2.798  16.104 -0.8238  1.1035  0.8150
 9427SOL    HW239741   3.657   2.664  16.157 -0.7715 -0.0798  1.0609
 9428SOL     OW39742   4.721   3.392  10.649  0.0142  0.0639 -0.5999
 9428SOL    HW139743   4.699   3.331  10.579 -0.5005 -0.9894  0.4846
 9428SOL    HW239744   0.092   3.390  10.636  0.6383 -0.1721  3.7756
 9429SOL     OW39745   1.558   1.096   3.126 -0.0026  0.8329  0.2641
 9429SOL    HW139746   1.500   1.044   3.181  1.5011 -2.1385 -0.9323
 9429SOL    HW239747   1.490   1.137   3.073 -0.0145 -0.8735 -1.0213
 9430SOL     OW39748   0.347   2.777   4.086 -0.4883  0.0883  0.3310
 9430SOL    HW139749   0.279   2.722   4.124 -0.4928 -0.0842  0.0741
 9430SOL    HW239750   0.429   2.736   4.113 -0.6231 -1.7579 -1.9713
 9431SOL     OW39751   2.760   1.998   1.340  1.0748 -0.3908 -0.1430
 9431SOL    HW139752   2.770   2.006   1.245  2.0050  0.6227  0.0348
 9431SOL    HW239753   2.676   1.954   1.352  0.3297  0.8220 -0.8806
 9432SOL     OW39754   1.830   4.615  15.121  0.3146  0.0396  0.4612
 9432SOL    HW139755   1.853   4.576  15.036 -2.5003  2.1747 -1.2812
 9432SOL    HW239756   1.898   4.683  15.115  0.5986 -0.2632  0.2568
 9433SOL     OW39757   4.563   3.583   7.971 -0.3820 -0.1504  0.2719
 9433SOL    HW139758   4.528   3.635   7.899  1.7407 -0.7291 -1.1772
 9433SOL    HW239759   4.483   3.590   8.024  0.2447 -1.6751  1.4233
 9434SOL     OW39760   2.748   0.328  13.699  0.0601 -0.4735 -0.1504
 9434SOL    HW139761   2.765   0.352  13.608 -1.4241 -0.2033 -0.3490
 9434SOL    HW239762   2.734   0.413  13.740  0.3487 -0.9780  0.9881
 9435SOL     OW39763   4.139   0.657   4.535  0.0233  0.0709  0.4187
 9435SOL    HW139764   4.209   0.662   4.601 -0.3614  0.2577  0.8159
 9435SOL    HW239765   4.073   0.604   4.579  0.1817 -0.6226 -0.1897
 9436SOL     OW39766   2.641   2.704  16.335 -0.3933 -0.3198 -0.3109
 9436SOL    HW139767   2.712   2.763  16.362  0.3504 -1.1537 -0.4582
 9436SOL    HW239768   2.567   2.749  16.375 -0.9016 -0.4679 -1.0864
 9437SOL     OW39769   4.521   1.126   0.988 -0.6519 -0.1549  0.1997
 9437SOL    HW139770   4.610   1.148   0.960 -0.8516  0.1763 -0.1843
 9437SOL    HW239771   4.475   1.150   0.907  1.1276 -0.9111 -1.0391
 9438SOL     OW39772   2.470   3.621   7.035  0.2772 -0.3649 -0.3417
 9438SOL    HW139773   2.542   3.573   6.994 -1.0855 -2.5633 -0.1554
 9438SOL    HW239774   2.494   3.713   7.026 -2.7227  0.2544 -2.0960
 9439SOL     OW39775   2.640   1.824   2.602 -0.2802 -0.2835  0.1708
 9439SOL    HW139776   2.687   1.756   2.651 -1.2707 -0.3421  1.0375
 9439SOL    HW239777   2.573   1.850   2.665 -0.8018 -4.6444  1.4444
 9440SOL     OW39778   1.216   4.088   6.068 -0.2302  0.4642 -0.5542
 9440SOL    HW139779   1.141   4.077   6.010 -0.2047  0.6631 -0.6262
 9440SOL    HW239780   1.198   4.180   6.089  2.3212  1.0697 -0.9880
 9441SOL     OW39781   2.594   3.328  15.000  0.1521 -0.4081  0.1561
 9441SOL    HW139782   2.607   3.418  14.970  0.9612 -0.1631  1.2106
 9441SOL    HW239783   2.678   3.285  14.983  1.1127  1.7269 -0.5229
 9442SOL     OW39784   3.702   2.196   5.912  0.3240  0.5865 -0.1980
 9442SOL    HW139785   3.640   2.251   5.866  0.4226 -0.3598 -1.4549
 9442SOL    HW239786   3.709   2.117   5.858  1.5455  0.5446  0.0019
 9443SOL     OW39787   1.159   3.722  14.538 -0.1120  0.0776  0.3994
 9443SOL    HW139788   1.237   3.762  14.499  0.7874  0.0389  2.1325
 9443SOL    HW239789   1.123   3.783  14.602  0.3008  0.2272  0.4890
 9444SOL     OW39790   1.977   0.495   7.130 -1.2151  0.5083 -0.3197
 9444SOL    HW139791   1.963   0.478   7.224 -0.3601  3.1610  0.3000
 9444SOL    HW239792   2.057   0.548   7.134 -0.5327 -0.3974 -2.1936
 9445SOL     OW39793   1.941   0.056   6.569 -0.0110  0.5577 -0.5235
 9445SOL    HW139794   1.905   0.116   6.504 -0.0951 -0.3998 -1.3567
 9445SOL    HW239795   2.031   0.048   6.538 -0.7679 -0.8964 -2.3056
 9446SOL     OW39796   2.229   0.807  10.925  0.1511  0.4877 -0.4794
 9446SOL    HW139797   2.143   0.842  10.948  0.6688  0.7838  0.9889
 9446SOL    HW239798   2.236   0.819  10.831 -1.6975 -0.9320 -0.8006
 9447SOL     OW39799   0.355   0.026   6.117 -0.2304 -0.5523  0.3788
 9447SOL    HW139800   0.291   4.682   6.092 -1.5832  1.5999 -1.9913
 9447SOL    HW239801   0.424   0.005   6.054 -0.8694 -2.6849  0.3644
 9448SOL     OW39802   0.960   3.578   3.959 -0.4328  0.6113  0.3031
 9448SOL    HW139803   1.039   3.609   3.913  1.0956 -1.6501  1.4036
 9448SOL    HW239804   0.995   3.545   4.042 -1.4475 -0.2149  0.3932
 9449SOL     OW39805   1.728   2.690   5.972 -0.6646  0.5217 -0.1665
 9449SOL    HW139806   1.660   2.681   5.905 -0.0324 -0.5244 -0.6789
 9449SOL    HW239807   1.687   2.642   6.044 -1.5817 -0.4413 -1.3343
 9450SOL     OW39808   1.229   2.348  16.137 -0.0616 -0.2744 -0.6414
 9450SOL    HW139809   1.160   2.309  16.189  0.4102 -1.0329 -0.5900
 9450SOL    HW239810   1.181   2.339  16.054 -1.3628  2.2118 -0.1576
 9451SOL     OW39811   0.399   2.034  11.990  0.4247  0.3469  0.3318
 9451SOL    HW139812   0.346   2.050  11.912  1.3956 -1.5957 -0.7514
 9451SOL    HW239813   0.476   2.075  11.950  0.1287 -1.4766 -2.1237
 9452SOL     OW39814   0.790   1.192  11.735 -0.1261  0.0547 -0.0677
 9452SOL    HW139815   0.717   1.249  11.758  0.8542  0.9353  0.8552
 9452SOL    HW239816   0.829   1.223  11.653 -1.7654 -1.1358 -1.3044
 9453SOL     OW39817   3.418   2.105   7.644  1.0408  0.4959  0.4120
 9453SOL    HW139818   3.494   2.091   7.700  0.9621  1.1886  0.7002
 9453SOL    HW239819   3.358   2.066   7.707  0.0753  1.1832 -0.0913
 9454SOL     OW39820   2.686   0.814   0.706 -0.4912  0.3410  0.4665
 9454SOL    HW139821   2.698   0.904   0.676  0.3250 -0.3479 -1.2826
 9454SOL    HW239822   2.626   0.834   0.778  0.6295  1.5388  1.0551
 9455SOL     OW39823   4.148   1.834  15.205 -0.2466 -0.2984 -0.0626
 9455SOL    HW139824   4.084   1.780  15.250 -0.9561  1.6127  1.2583
 9455SOL    HW239825   4.090   1.864  15.134 -0.2954  1.6169  0.7805
 9456SOL     OW39826   2.521   4.715   8.475  0.2315 -0.3416  0.0590
 9456SOL    HW139827   2.465   0.063   8.443  0.7888 -0.1831 -0.5610
 9456SOL    HW239828   2.557   0.039   8.549 -0.1647 -1.1104  0.7470
 9457SOL     OW39829   2.975   0.692  11.601 -0.4461 -0.4745 -0.2429
 9457SOL    HW139830   3.031   0.625  11.641 -1.0924 -2.7005 -3.0428
 9457SOL    HW239831   2.896   0.645  11.575 -0.0547 -1.5646  0.5320
 9458SOL     OW39832   1.876   2.934   7.170  0.4038  0.2757 -0.2746
 9458SOL    HW139833   1.868   2.887   7.087 -0.2012 -0.6294  0.2928
 9458SOL    HW239834   1.940   2.881   7.216  0.1486 -0.3608 -0.6459
 9459SOL     OW39835   0.891   4.512   3.813 -0.0853 -0.7348  0.3479
 9459SOL    HW139836   0.897   4.419   3.793 -1.4131 -0.9269  0.7863
 9459SOL    HW239837   0.955   4.548   3.753  0.1526 -0.5631  0.7071
 9460SOL     OW39838   4.275   0.959  12.857 -0.4768  0.1951  0.1556
 9460SOL    HW139839   4.231   0.926  12.779 -1.1006 -1.9414  1.4118
 9460SOL    HW239840   4.334   1.025  12.821  1.1197 -0.7851  0.9755
 9461SOL     OW39841   4.149   1.974   7.567 -0.2514  0.0614 -0.5246
 9461SOL    HW139842   4.135   1.959   7.473  1.5929 -0.2456 -0.7461
 9461SOL    HW239843   4.211   1.905   7.590 -0.1902  1.2933  2.9281
 9462SOL     OW39844   1.440   3.779   2.320 -0.4834 -0.7707 -0.0625
 9462SOL    HW139845   1.401   3.716   2.260  0.7997  1.0217 -2.7834
 9462SOL    HW239846   1.388   3.761   2.399 -1.5017 -1.3213 -0.8586
 9463SOL     OW39847   1.824   4.093   4.192  0.5553 -0.2360  0.6533
 9463SOL    HW139848   1.821   4.062   4.283 -1.9983  2.7686  1.5984
 9463SOL    HW239849   1.743   4.054   4.157  0.3798  1.1507 -0.4723
 9464SOL     OW39850   3.334   0.008   2.829 -0.2037  0.0437 -0.7382
 9464SOL    HW139851   3.425   0.033   2.813 -0.2748  0.2092 -0.8801
 9464SOL    HW239852   3.333   4.640   2.801 -1.3363  0.8332 -3.2370
 9465SOL     OW39853   4.411   1.506   3.886  0.1710 -0.0608  0.0897
 9465SOL    HW139854   4.457   1.573   3.937 -1.0981  0.5514  0.4350
 9465SOL    HW239855   4.415   1.431   3.946  2.0072 -1.9521 -2.4099
 9466SOL     OW39856   2.081   4.353  11.021  1.1044  0.4554  0.3751
 9466SOL    HW139857   2.032   4.277  11.052  0.1311  0.9701  0.1211
 9466SOL    HW239858   2.007   4.414  11.013  0.9446  0.1445 -0.5574
 9467SOL     OW39859   3.425   1.181   3.076 -0.1548 -0.4268  0.4449
 9467SOL    HW139860   3.516   1.202   3.055 -0.3724  0.5112  0.4008
 9467SOL    HW239861   3.397   1.133   2.998  1.2148  0.8437 -0.8222
 9468SOL     OW39862   4.650   2.550   9.207 -0.2187  0.5756 -0.3419
 9468SOL    HW139863   4.654   2.512   9.295  1.1428  4.0021  1.0723
 9468SOL    HW239864   4.632   2.643   9.220  1.8865  1.0729 -1.0281
 9469SOL     OW39865   2.632   0.233  14.855  0.4476  0.4873  0.1486
 9469SOL    HW139866   2.671   0.169  14.915 -0.3586  1.1489  1.3685
 9469SOL    HW239867   2.640   0.309  14.913 -1.2854  0.1563  0.8180
 9470SOL     OW39868   3.975   4.041   9.028  0.1436  0.0145 -0.0111
 9470SOL    HW139869   3.991   4.106   9.097 -0.2458  0.4104 -0.2957
 9470SOL    HW239870   4.036   3.970   9.045 -2.1650 -1.9208  0.1091
 9471SOL     OW39871   3.656   4.136   9.722 -0.0839 -0.0302  0.1878
 9471SOL    HW139872   3.598   4.092   9.784  1.4757 -1.2432  0.7966
 9471SOL    HW239873   3.676   4.224   9.752 -1.4177  0.3513 -0.0605
 9472SOL     OW39874   3.192   1.848   5.341  0.5439  0.6593  0.0598
 9472SOL    HW139875   3.225   1.776   5.395  2.8949  1.0247 -0.8881
 9472SOL    HW239876   3.261   1.910   5.366  0.4531  1.3568 -1.4186
 9473SOL     OW39877   2.378   2.616   3.716 -0.0935 -0.4042 -0.1068
 9473SOL    HW139878   2.457   2.670   3.724  0.6714 -1.4183 -0.7640
 9473SOL    HW239879   2.409   2.529   3.743 -0.5124  0.2607  2.5072
 9474SOL     OW39880   3.865   2.278   2.045 -0.3548  0.1185 -0.7071
 9474SOL    HW139881   3.806   2.247   2.113  0.0106 -0.1292 -0.4985
 9474SOL    HW239882   3.809   2.336   1.993  0.7154  1.8199  0.0252
 9475SOL     OW39883   3.892   3.346   5.277  0.2664 -0.3773  0.1178
 9475SOL    HW139884   3.904   3.441   5.284  0.8080 -0.5875  2.0488
 9475SOL    HW239885   3.797   3.348   5.273  0.2167  0.3061  1.5400
 9476SOL     OW39886   2.896   2.617   7.214  0.1188 -0.0379 -0.3201
 9476SOL    HW139887   2.873   2.709   7.228 -0.8881 -0.0953 -1.6253
 9476SOL    HW239888   2.864   2.573   7.292 -1.3658 -1.4303 -1.7129
 9477SOL     OW39889   3.364   2.122   3.250  0.0163  0.9434  0.5233
 9477SOL    HW139890   3.374   2.087   3.161  1.6478  1.3103  0.5651
 9477SOL    HW239891   3.452   2.153   3.269 -0.0309  0.0661  2.1766
 9478SOL     OW39892   1.689   4.354   7.383  0.0453  0.5927 -0.2774
 9478SOL    HW139893   1.699   4.260   7.367 -0.9253  0.5079 -0.3755
 9478SOL    HW239894   1.603   4.372   7.344 -1.0986 -0.5474  1.6838
 9479SOL     OW39895   1.195   2.516   5.585 -0.1436 -0.2993 -0.0454
 9479SOL    HW139896   1.171   2.423   5.583 -0.5979 -0.2317  2.2511
 9479SOL    HW239897   1.267   2.520   5.648 -1.1215 -0.6340  1.1091
 9480SOL     OW39898   2.820   0.770   8.266  0.7347 -0.6734  0.1737
 9480SOL    HW139899   2.801   0.731   8.181 -0.6591 -0.8369  0.5578
 9480SOL    HW239900   2.750   0.835   8.260 -0.9263 -2.5075 -0.3730
 9481SOL     OW39901   1.588   3.077  14.262  0.1442  0.8845 -0.0915
 9481SOL    HW139902   1.577   2.992  14.220  1.5636  1.7229 -2.1426
 9481SOL    HW239903   1.502   3.115  14.250  0.1525  1.1635  0.7174
 9482SOL     OW39904   4.367   4.627   7.939 -0.3586 -0.6010 -0.7306
 9482SOL    HW139905   4.273   4.616   7.924 -0.2791  0.7684 -2.1411
 9482SOL    HW239906   4.376   4.696   7.874  0.1913  1.1787  1.2109
 9483SOL     OW39907   0.136   4.091  12.672 -0.5137  0.2415  0.3752
 9483SOL    HW139908   0.122   4.025  12.604 -1.9656  0.9567  0.0076
 9483SOL    HW239909   0.170   4.041  12.747  0.5151  0.6456  0.1771
 9484SOL     OW39910   4.299   2.825   3.651 -0.3198 -0.0776  0.2862
 9484SOL    HW139911   4.383   2.870   3.656  0.2869 -1.2061  0.4210
 9484SOL    HW239912   4.282   2.796   3.741 -0.4149  0.9608  0.6013
 9485SOL     OW39913   2.306   1.582   7.687 -0.5232 -0.6155  0.1535
 9485SOL    HW139914   2.276   1.517   7.750 -1.1046  0.6026  1.1430
 9485SOL    HW239915   2.399   1.565   7.675 -1.0552 -3.9470  0.9102
 9486SOL     OW39916   4.231   0.283   3.521 -0.8128 -0.2880  0.5567
 9486SOL    HW139917   4.199   0.360   3.473  0.0652  0.1376  0.6496
 9486SOL    HW239918   4.195   0.215   3.464 -2.2316  1.0063 -0.1061
 9487SOL     OW39919   1.753   0.855   2.055  0.1962 -0.1521 -0.1041
 9487SOL    HW139920   1.824   0.821   2.108 -0.8534 -0.4088  1.1366
 9487SOL    HW239921   1.682   0.806   2.097 -1.6515  3.5302  1.0742
 9488SOL     OW39922   4.311   4.560   2.091  0.3290 -0.0461  0.2286
 9488SOL    HW139923   4.245   4.601   2.147 -0.9603 -1.3163 -0.3530
 9488SOL    HW239924   4.389   4.540   2.142  0.0570  0.4200  0.8254
 9489SOL     OW39925   3.905   2.705  12.807 -0.0435 -0.4312  0.5076
 9489SOL    HW139926   3.838   2.668  12.750  0.3893 -0.0991 -0.2183
 9489SOL    HW239927   3.954   2.752  12.740 -1.5053 -0.3776 -0.5077
 9490SOL     OW39928   2.476   1.815   9.899 -0.0017  0.2910  0.0666
 9490SOL    HW139929   2.479   1.844   9.990  0.1454 -2.3259  0.9067
 9490SOL    HW239930   2.544   1.870   9.860  0.5729  1.0452  2.1256
 9491SOL     OW39931   3.105   1.121   9.511  0.4857  0.8121 -0.5608
 9491SOL    HW139932   3.047   1.082   9.577  0.1181  1.7190 -0.3454
 9491SOL    HW239933   3.045   1.189   9.480 -2.0415 -1.4266 -0.6155
 9492SOL     OW39934   3.487   2.494  17.410  0.0877  0.0028 -0.1416
 9492SOL    HW139935   3.525   2.432  17.348 -3.2310  1.7937 -3.9960
 9492SOL    HW239936   3.568   2.531  17.444  1.3571 -1.1839 -1.8329
 9493SOL     OW39937   4.240   3.545  12.151  0.0298  0.1109 -0.0366
 9493SOL    HW139938   4.215   3.506  12.068 -0.7735 -0.0561  0.2889
 9493SOL    HW239939   4.253   3.469  12.207  0.1150  2.3421  2.9652
 9494SOL     OW39940   4.051   4.138   3.766  0.2440  0.0881  0.2250
 9494SOL    HW139941   4.109   4.079   3.717  1.1722 -0.6566  2.2498
 9494SOL    HW239942   3.990   4.158   3.695 -0.5021  0.0435  0.8615
 9495SOL     OW39943   1.432   3.501   4.411  0.2356  0.4497  0.4136
 9495SOL    HW139944   1.474   3.451   4.341 -0.7341  1.4515 -0.8950
 9495SOL    HW239945   1.370   3.434   4.440  0.4879  0.0251 -0.0306
 9496SOL     OW39946   1.188   2.041   5.175  0.0815  0.7161  0.1558
 9496SOL    HW139947   1.214   2.038   5.083 -0.6662  0.4095 -0.0458
 9496SOL    HW239948   1.263   2.038   5.234  1.2899  1.9342 -1.3503
 9497SOL     OW39949   3.948   0.695   1.568 -0.1481 -0.1022  0.2583
 9497SOL    HW139950   3.963   0.693   1.662  5.6508  2.0765 -0.6339
 9497SOL    HW239951   4.011   0.627   1.546 -0.4601 -0.6090  0.9666
 9498SOL     OW39952   2.758   4.253   4.225  0.8097  0.0204  0.2820
 9498SOL    HW139953   2.677   4.275   4.179 -0.3871 -1.4752  1.6714
 9498SOL    HW239954   2.815   4.255   4.148  1.1625  0.1807  0.5484
 9499SOL     OW39955   4.204   3.378   0.332  0.1001  0.2324  0.5530
 9499SOL    HW139956   4.188   3.472   0.338  0.7628  0.4415 -1.1162
 9499SOL    HW239957   4.295   3.369   0.306 -0.1837 -0.4373 -0.2218
 9500SOL     OW39958   0.453   1.714   7.816 -0.3124 -0.4536  0.2956
 9500SOL    HW139959   0.427   1.710   7.908 -3.6737  0.1553 -0.6533
 9500SOL    HW239960   0.430   1.625   7.790 -3.3860  0.0585  1.3611
 9501SOL     OW39961   2.520   4.367  17.522  0.0382 -0.3431 -0.4323
 9501SOL    HW139962   2.592   4.414  17.564 -1.3622  0.8843  0.6003
 9501SOL    HW239963   2.571   4.297  17.482  1.3178  1.0133 -1.1883
 9502SOL     OW39964   0.613   2.646   4.340 -0.5884  0.2643 -0.0315
 9502SOL    HW139965   0.668   2.579   4.381 -1.6003 -2.0615 -2.4885
 9502SOL    HW239966   0.684   2.700   4.303  1.2171 -2.3201 -0.3470
 9503SOL     OW39967   2.460   1.812   9.538 -0.0473  0.0207  0.3108
 9503SOL    HW139968   2.384   1.852   9.581  0.3032  1.1962 -0.1895
 9503SOL    HW239969   2.529   1.866   9.576  0.0393 -1.2854  1.9955
 9504SOL     OW39970   3.619   4.483   2.444 -0.6207  0.5227 -0.4226
 9504SOL    HW139971   3.583   4.416   2.502 -1.9793  1.4285 -0.2236
 9504SOL    HW239972   3.704   4.441   2.431 -0.4807 -0.2156  3.0165
 9505SOL     OW39973   2.351   0.395   0.682  0.4187 -0.1078 -0.0509
 9505SOL    HW139974   2.327   0.465   0.742 -0.8437 -0.8517  0.3204
 9505SOL    HW239975   2.269   0.379   0.636 -0.2718  1.8514  0.5207
 9506SOL     OW39976   2.403   0.938  15.571  0.2804  0.0245  0.7165
 9506SOL    HW139977   2.463   0.992  15.622  1.1029  1.1213 -1.4478
 9506SOL    HW239978   2.430   0.962  15.482 -3.6077  0.7833 -0.2643
 9507SOL     OW39979   1.357   0.898   1.615  0.2138  0.4765  0.4383
 9507SOL    HW139980   1.438   0.856   1.645 -0.3539  0.4145  1.8977
 9507SOL    HW239981   1.404   0.974   1.581  0.1707  0.3071  0.0085
 9508SOL     OW39982   1.456   4.319   7.951  0.2767  0.2076  0.6023
 9508SOL    HW139983   1.471   4.237   7.998  1.1599 -0.4120 -0.7570
 9508SOL    HW239984   1.361   4.335   7.957 -0.2792 -2.5707 -0.5424
 9509SOL     OW39985   1.112   1.289  12.489 -0.7585  0.1329 -0.2408
 9509SOL    HW139986   1.022   1.321  12.496 -1.3512 -1.3752 -0.9515
 9509SOL    HW239987   1.100   1.227  12.417  0.4450  0.2901 -0.5748
 9510SOL     OW39988   4.191   0.100   4.060  0.3822 -0.2673  0.9530
 9510SOL    HW139989   4.243   0.158   4.004  0.3833 -0.9623  0.2353
 9510SOL    HW239990   4.208   0.144   4.143 -0.6184 -0.0373  1.0311
 9511SOL     OW39991   2.071   2.284   2.612 -0.9643  0.2466  0.1116
 9511SOL    HW139992   2.037   2.273   2.523 -0.1342 -0.2469 -0.1466
 9511SOL    HW239993   1.998   2.340   2.640 -1.9003 -1.4179  0.9758
 9512SOL     OW39994   2.090   4.355   8.518 -0.2675  0.6780 -0.4755
 9512SOL    HW139995   2.151   4.404   8.463 -0.1717  0.0384 -0.9407
 9512SOL    HW239996   2.094   4.277   8.463  0.1742 -0.0705  0.6034
 9513SOL     OW39997   0.077   0.879  13.297  0.2088 -0.5506  0.1778
 9513SOL    HW139998   0.092   0.802  13.241  1.6743  1.3915 -2.0684
 9513SOL    HW239999   4.706   0.880  13.282  0.1822  1.4335  0.5572
 9514SOL     OW40000   1.914   4.022   0.688  0.0576  0.0902 -0.2344
 9514SOL    HW140001   1.843   3.982   0.637  0.0863 -1.8417  1.2240
 9514SOL    HW240002   1.965   4.072   0.624 -0.0128 -0.2810 -0.5834
 9515SOL     OW40003   2.994   0.005   9.549  0.2305  0.2575 -0.0545
 9515SOL    HW140004   3.040   4.652   9.515 -0.4148  0.6439 -1.8154
 9515SOL    HW240005   3.033   0.013   9.636  3.1258  2.2731 -1.5639
 9516SOL     OW40006   0.451   0.682   0.106 -0.1057 -0.0096 -0.2247
 9516SOL    HW140007   0.398   0.619   0.156 -0.8440  1.7860  1.2849
 9516SOL    HW240008   0.372   0.730   0.080 -1.4282 -0.4113  3.0458
 9517SOL     OW40009   4.292   1.296   9.357  0.0938 -0.3853 -0.3170
 9517SOL    HW140010   4.235   1.262   9.288  1.4152 -0.2604 -1.4612
 9517SOL    HW240011   4.270   1.243   9.433 -0.8352 -1.7917 -1.5586
 9518SOL     OW40012   1.894   2.551   8.567 -0.3533 -0.3671  0.2384
 9518SOL    HW140013   1.829   2.494   8.526 -1.0748 -1.1570  2.4829
 9518SOL    HW240014   1.886   2.525   8.659  2.1479  1.1723  0.8987
 9519SOL     OW40015   0.704   4.582   3.615 -0.2027  0.3250  0.5185
 9519SOL    HW140016   0.716   4.674   3.636  0.9273 -0.0263  1.4549
 9519SOL    HW240017   0.763   4.550   3.684 -0.1349 -1.6101 -0.4428
 9520SOL     OW40018   0.216   1.468   5.876  0.7552  0.3475 -0.5169
 9520SOL    HW140019   0.255   1.477   5.789  0.3525  1.0215 -0.6300
 9520SOL    HW240020   0.125   1.479   5.847  0.2308 -0.6428  0.7215
 9521SOL     OW40021   2.958   2.431   4.063  0.6346 -0.1780 -0.3520
 9521SOL    HW140022   2.975   2.502   4.000  0.8107  1.5350  1.6145
 9521SOL    HW240023   2.959   2.356   4.004 -0.4553 -1.9771  1.9356
 9522SOL     OW40024   4.119   3.658   7.750  0.0195  0.1498 -0.3743
 9522SOL    HW140025   4.081   3.645   7.663 -1.6392  3.2071 -0.1269
 9522SOL    HW240026   4.053   3.716   7.789  0.9014  1.5558 -0.9457
 9523SOL     OW40027   3.353   0.212   9.239 -0.2367  0.3268  0.0471
 9523SOL    HW140028   3.403   0.190   9.318 -0.5054 -1.2671 -0.2307
 9523SOL    HW240029   3.262   0.188   9.257  0.6210 -0.1446  3.6019
 9524SOL     OW40030   4.507   3.405   3.356 -0.3194  0.1787 -0.0141
 9524SOL    HW140031   4.452   3.472   3.315  0.6311  1.0781  0.1937
 9524SOL    HW240032   4.573   3.390   3.288 -1.4591 -0.4451 -0.9979
 9525SOL     OW40033   1.986   2.228   2.371  0.5859 -0.5764 -0.4485
 9525SOL    HW140034   1.908   2.202   2.324  1.5395  0.1685 -2.4470
 9525SOL    HW240035   1.995   2.314   2.330 -0.0717 -1.3613 -2.2114
 9526SOL     OW40036   4.381   2.861   8.330 -0.0036 -0.3391 -0.3389
 9526SOL    HW140037   4.442   2.800   8.288  0.7055  0.6867 -0.7872
 9526SOL    HW240038   4.431   2.863   8.412 -1.4171 -0.9872  0.5550
 9527SOL     OW40039   3.088   0.155   5.819 -0.0227 -0.0990  0.3539
 9527SOL    HW140040   3.143   0.117   5.750  1.3398  0.5597  1.0660
 9527SOL    HW240041   3.114   0.247   5.808  1.7798 -0.6915 -0.4382
 9528SOL     OW40042   0.951   4.320  13.072  0.3988  0.4567  0.0070
 9528SOL    HW140043   1.038   4.341  13.109 -0.8604  1.1148  2.6015
 9528SOL    HW240044   0.957   4.366  12.988 -1.4668  0.8150  0.0836
 9529SOL     OW40045   4.558   4.460   2.431  0.0762  0.4351  0.3816
 9529SOL    HW140046   4.592   4.448   2.342 -0.7341 -0.6251  0.2125
 9529SOL    HW240047   4.632   4.447   2.492 -0.8183  0.0675  1.3964
 9530SOL     OW40048   1.787   3.344   8.421 -0.1964 -0.3141  0.0853
 9530SOL    HW140049   1.872   3.311   8.394 -0.5830 -0.6265 -0.7367
 9530SOL    HW240050   1.770   3.296   8.502 -0.4202  0.5052  0.5348
 9531SOL     OW40051   1.489   0.851   2.666 -0.4028 -0.2187  0.1321
 9531SOL    HW140052   1.485   0.941   2.697  0.8683  0.3319 -1.3379
 9531SOL    HW240053   1.477   0.843   2.572 -0.8940 -0.8954  0.2463
 9532SOL     OW40054   0.271   0.658  12.256  0.8768  0.1304  0.1604
 9532SOL    HW140055   0.283   0.739  12.207  0.9244  0.8089  1.2941
 9532SOL    HW240056   0.343   0.639  12.316 -1.1415 -0.6472  2.3301
 9533SOL     OW40057   4.394   2.751   2.859  0.5599 -0.0882  0.7636
 9533SOL    HW140058   4.462   2.685   2.854  0.7495  0.1611  0.0737
 9533SOL    HW240059   4.435   2.837   2.869 -0.5802  0.7498 -1.7866
 9534SOL     OW40060   2.509   3.009   0.056  0.1135  0.3752  0.4194
 9534SOL    HW140061   2.477   2.919   0.049 -0.1539  0.4676  0.4426
 9534SOL    HW240062   2.433   3.059   0.026  0.0411  0.7673  1.2545
 9535SOL     OW40063   3.920   0.257  14.932  0.0480  0.2086 -0.1458
 9535SOL    HW140064   3.880   0.335  14.894  1.4926 -0.0268 -2.1794
 9535SOL    HW240065   3.854   0.218  14.988 -1.2584 -0.2150 -1.9809
 9536SOL     OW40066   3.374   0.449  16.742  0.2773 -0.7203 -0.0284
 9536SOL    HW140067   3.385   0.386  16.670  1.2313 -3.0146  2.1066
 9536SOL    HW240068   3.425   0.409  16.813 -0.2115  1.0135  1.3043
 9537SOL     OW40069   1.412   3.510   0.625 -0.4118  0.4839 -0.3789
 9537SOL    HW140070   1.430   3.520   0.718 -0.5113  0.9083 -0.4039
 9537SOL    HW240071   1.410   3.604   0.606  1.8421  0.5683 -0.2408
 9538SOL     OW40072   4.578   3.515   5.676 -0.3976  0.1230 -0.3204
 9538SOL    HW140073   4.653   3.574   5.685  0.1237 -0.5377 -0.2988
 9538SOL    HW240074   4.579   3.490   5.584 -0.9717 -1.3577  0.0789
 9539SOL     OW40075   1.849   2.566   1.970  0.1935  0.6002  0.6440
 9539SOL    HW140076   1.891   2.644   1.933 -1.3564 -0.1613 -2.6468
 9539SOL    HW240077   1.773   2.556   1.913 -1.1458  0.4754  2.4716
 9540SOL     OW40078   0.522   0.472   5.449 -0.2599 -0.0371 -0.1477
 9540SOL    HW140079   0.443   0.437   5.490 -0.4055  0.1239 -0.2925
 9540SOL    HW240080   0.489   0.500   5.364  3.9545 -1.0611 -2.1348
 9541SOL     OW40081   1.958   3.181   6.865  0.6662  0.2141 -0.1178
 9541SOL    HW140082   1.969   3.099   6.818 -1.2768 -1.2447  1.9851
 9541SOL    HW240083   1.874   3.162   6.907 -0.2064 -0.5028 -2.2205
 9542SOL     OW40084   0.565   4.699   2.605 -0.4926 -0.2856  0.0129
 9542SOL    HW140085   0.537   4.721   2.516 -3.2434 -1.2619  0.6409
 9542SOL    HW240086   0.651   4.658   2.600 -0.1746  0.2975  0.6308
 9543SOL     OW40087   4.582   2.703   1.671  0.1144 -0.4985  0.7754
 9543SOL    HW140088   4.527   2.683   1.595  0.5346 -1.0404  0.6189
 9543SOL    HW240089   4.664   2.714   1.622 -1.0325  0.4516 -0.9240
 9544SOL     OW40090   3.336   2.490   5.543  0.0257 -0.6670 -0.3033
 9544SOL    HW140091   3.399   2.472   5.474 -1.8048 -3.5489 -1.2483
 9544SOL    HW240092   3.306   2.399   5.552  0.6463 -0.8650 -0.2263
 9545SOL     OW40093   0.859   1.184  10.143 -0.4608  0.1746  0.5367
 9545SOL    HW140094   0.889   1.116  10.082  0.1916 -0.8116  1.9474
 9545SOL    HW240095   0.944   1.223  10.163 -0.4370 -0.3353  1.4605
 9546SOL     OW40096   0.848   3.660   6.562 -0.7827  0.0387 -0.0657
 9546SOL    HW140097   0.856   3.686   6.654  3.4080  0.2221 -0.4994
 9546SOL    HW240098   0.831   3.738   6.511 -1.8457 -0.6700 -0.8032
 9547SOL     OW40099   3.918   4.249   8.342  0.4589 -0.3706 -0.5163
 9547SOL    HW140100   3.977   4.320   8.317  1.4217 -1.6916 -1.9669
 9547SOL    HW240101   3.969   4.204   8.410  0.2858 -0.8181 -0.6817
 9548SOL     OW40102   0.407   2.310   0.941 -0.2959 -1.2077 -0.2532
 9548SOL    HW140103   0.318   2.277   0.930 -1.3248  1.3500  0.2403
 9548SOL    HW240104   0.436   2.334   0.853  1.8383 -4.7924 -0.5153
 9549SOL     OW40105   1.264   1.643  12.083 -0.7659  0.1556  0.2334
 9549SOL    HW140106   1.259   1.577  12.015 -0.9960  0.5864 -0.1716
 9549SOL    HW240107   1.286   1.728  12.044  1.1049 -0.6191 -0.4057
 9550SOL     OW40108   1.916   1.770   0.657 -0.4787 -0.4431  0.2453
 9550SOL    HW140109   1.953   1.816   0.732  1.9318  0.4768 -1.5007
 9550SOL    HW240110   1.948   1.827   0.587 -2.1630 -1.0028 -0.9699
 9551SOL     OW40111   2.853   1.077  16.417  0.5042 -0.0653  1.1307
 9551SOL    HW140112   2.869   1.167  16.387  0.8733 -0.7374 -0.6732
 9551SOL    HW240113   2.883   1.029  16.340 -0.6139  0.7757  0.1632
 9552SOL     OW40114   4.289   2.392  13.568 -0.0924 -0.3229 -0.3941
 9552SOL    HW140115   4.329   2.399  13.481  1.3367 -3.3183  0.0357
 9552SOL    HW240116   4.195   2.400  13.553  0.2167  0.7987 -1.7660
 9553SOL     OW40117   0.164   2.783   3.577 -0.3708  0.3589 -0.0709
 9553SOL    HW140118   0.259   2.789   3.568 -0.2645  0.4197  1.1439
 9553SOL    HW240119   0.154   2.824   3.662 -0.1823 -0.8011  0.5047
 9554SOL     OW40120   1.079   2.298  15.919  0.1946 -0.0526 -0.1642
 9554SOL    HW140121   1.090   2.324  15.828 -0.0088 -1.2700 -0.5347
 9554SOL    HW240122   1.103   2.206  15.927 -4.0296 -1.1208 -0.0947
 9555SOL     OW40123   1.631   1.710   3.816 -0.2335  0.3691 -0.2218
 9555SOL    HW140124   1.594   1.626   3.789 -0.1207  0.1724  0.2320
 9555SOL    HW240125   1.573   1.726   3.890  2.0113 -0.6006  1.7462
 9556SOL     OW40126   2.217   3.335  10.582 -0.2646 -0.0135  0.1967
 9556SOL    HW140127   2.215   3.430  10.575  2.8183  0.1039  0.8135
 9556SOL    HW240128   2.311   3.320  10.591 -0.4519 -2.7904 -2.3601
 9557SOL     OW40129   3.047   0.599   3.220 -0.0140 -0.0963  0.2784
 9557SOL    HW140130   3.105   0.570   3.149  1.5713  0.8649  1.2111
 9557SOL    HW240131   2.991   0.659   3.172  0.3955  1.3460  1.6270
 9558SOL     OW40132   3.162   2.070   3.523 -0.2378 -0.5048  0.1405
 9558SOL    HW140133   3.250   2.100   3.543 -1.0744  1.6182  0.6492
 9558SOL    HW240134   3.184   1.981   3.496 -2.2869 -1.0850  0.3568
 9559SOL     OW40135   0.282   4.103   5.625 -0.1198 -0.2762 -0.2853
 9559SOL    HW140136   0.345   4.065   5.686  0.3508  1.3585  0.2488
 9559SOL    HW240137   0.228   4.156   5.683  0.7526  0.4529 -0.1431
 9560SOL     OW40138   4.191   1.963   1.964  0.0584  1.2085 -0.0857
 9560SOL    HW140139   4.259   1.968   1.897  1.6830 -0.4721  1.4275
 9560SOL    HW240140   4.193   2.056   1.986  1.4338  1.3536 -0.8107
 9561SOL     OW40141   1.323   2.224  16.815  0.5084 -0.2663  0.3708
 9561SOL    HW140142   1.347   2.140  16.853  0.3457 -1.2055 -1.6424
 9561SOL    HW240143   1.301   2.275  16.893 -0.2152 -0.0212  0.0054
 9562SOL     OW40144   4.632   4.178   0.315 -0.6092  0.4728  0.0191
 9562SOL    HW140145   4.647   4.269   0.291  1.2733 -0.2769 -1.6327
 9562SOL    HW240146   4.624   4.193   0.409 -0.1380  0.4769  0.0585
 9563SOL     OW40147   0.300   2.862   5.184 -0.3882  0.0074 -0.1629
 9563SOL    HW140148   0.316   2.806   5.109  1.2095  2.4284 -1.6202
 9563SOL    HW240149   0.259   2.801   5.246  1.0819 -0.6024  0.2007
 9564SOL     OW40150   2.345   2.728  12.089 -0.0572 -0.5281 -0.1584
 9564SOL    HW140151   2.319   2.760  12.176 -2.3284  0.0034 -1.0185
 9564SOL    HW240152   2.440   2.727  12.096 -0.2907 -1.4828  2.7903
 9565SOL     OW40153   1.154   4.531   6.904  0.0797  0.0223  0.5783
 9565SOL    HW140154   1.193   4.604   6.951  3.3820 -0.9531 -0.7013
 9565SOL    HW240155   1.080   4.578   6.865  0.4536  0.7883  0.7964
   4.72374   4.72374  17.69668
